<LesHouchesEvents version="3.0">
  <!--
  <scalesfunctionalform>
    muR  H_T/2 := sum_i mT(i)/2, i=final state
    muF1 H_T/2 := sum_i mT(i)/2, i=final state
    muF2 H_T/2 := sum_i mT(i)/2, i=final state
    QES  H_T/2 := sum_i mT(i)/2, i=final state
  </scalesfunctionalform>
PYTHIA8   
  -->
  <header>
        3
  </header>
  <init>
   2212   2212 0.65000000D+04 0.65000000D+04 -1 -1  82200  82200 -4   1
 0.24323223D-05 0.47695947D-07 0.12438524D-05     66
  </init>
  <event>
  7     66 0.12438524E-05 0.17598422E+02 0.78161638E-02 0.12806381E+00
       21 -1    0    0  501  502 0.00000000E+00 0.00000000E+00 0.51941423E+03 0.51941423E+03 0.00000000E+00 0.0000E+00 0.9000E+01
       22 -1    0    0    0    0 0.00000000E+00 0.00000000E+00 -.73164984E+01 0.73164984E+01 0.00000000E+00 0.0000E+00 0.9000E+01
       24  2    1    2    0    0 -.38473834E+01 -.17340388E+02 0.46593027E+03 0.47334112E+03 0.81518793E+02 0.0000E+00 0.0000E+00
  9900012  1    3    3    0    0 0.16875303E+02 -.27804669E+02 0.35881905E+03 0.36374303E+03 0.50000000E+02 0.0000E+00 0.9000E+01
      -11  1    3    3    0    0 -.20722686E+02 0.10464281E+02 0.10711121E+03 0.10959810E+03 0.00000000E+00 0.0000E+00 0.9000E+01
        1  1    1    2  501    0 0.91829311E+01 0.18096208E+02 0.41754138E+02 0.46424207E+02 0.00000000E+00 0.0000E+00 0.9000E+01
       -2  1    1    2    0  502 -.53355477E+01 -.75581931E+00 0.44133283E+01 0.69654001E+01 0.00000000E+00 0.0000E+00 0.9000E+01
#aMCatNLO 2  0  0  1  5 0.10830131D+03 0.00000000D+00  -5  6  0 0.00000000D+00 0.00000000D+00 0.00000000D+00 0.00000000D+00 0.00000000D+00
  <mgrwgt>
 0.1037383517D-05    1    2    0
 0.556405963392288D+02 0.000000000000000D+00 0.000000000000000D+00 0.556405963392288D+02
 0.556405963392288D+02 0.000000000000000D+00 0.000000000000000D+00 -.556405963392288D+02
 0.613324874739596D+02 0.139232207772131D+02 -.282228533922823D+02 0.164708375418533D+02
 0.241663149981658D+02 -.218579444610038D+02 0.103034633579966D+02 0.282289497974390D+00
 0.257823902063322D+02 0.793472368379074D+01 0.179193900342857D+02 -.167531270398277D+02
 0.000000000000000D+00 -.000000000000000D+00 -.000000000000000D+00 -.000000000000000D+00
 0.563227234334357D+02 0.000000000000000D+00 0.000000000000000D+00 0.563227234334357D+02
 0.674735375107853D+02 0.000000000000000D+00 0.000000000000000D+00 -.674735375107853D+02
 0.618802389757517D+02 0.168753028348648D+02 -.278046694027750D+02 0.164708375418533D+02
 0.232166015947334D+02 -.207226862620856D+02 0.104642809753505D+02 0.282289497974390D+00
 0.263147529733251D+02 0.918293112199194D+01 0.180962077365195D+02 -.167531270398277D+02
 0.123846674004108D+02 -.533554769477120D+01 -.755819309095052D+00 -.111508140773496D+02
0.486793222988D-09 0.000000000000D+00 0.000000000000D+00 0.232662604321D-07 0.119845768175D-09  6 21 22 9900012 -11 1 -2 2 0.79909882D-01 0.11256151D-02 0.29454750D+04 0.29454750D+04 0.29454750D+04 0.12685808D+01  1  2  1  3  6  1        2 0.103738351676D-05 0.100000000000D+01
  </mgrwgt>
  </event>
  <event>
  6     66 0.12438524E-05 0.57921658E+02 0.78161638E-02 0.10039660E+00
        2 -1    0    0  501    0 0.00000000E+00 0.00000000E+00 0.48810020E+03 0.48810020E+03 0.00000000E+00 0.0000E+00 0.9000E+01
       22 -1    0    0    0    0 0.00000000E+00 0.00000000E+00 -.24086477E+02 0.24086477E+02 0.00000000E+00 0.0000E+00 0.9000E+01
       24  2    1    2    0    0 -.97229097E+01 0.57099768E+02 0.42915338E+03 0.44458370E+03 0.10063364E+03 0.0000E+00 0.0000E+00
  9900012  1    3    3    0    0 -.33314776E+02 0.62714209E+02 0.27085968E+03 0.28444316E+03 0.50000000E+02 0.0000E+00 0.9000E+01
      -11  1    3    3    0    0 0.23591866E+02 -.56144412E+01 0.15829370E+03 0.16014055E+03 0.00000000E+00 0.0000E+00 0.9000E+01
        1  1    1    2  501    0 0.97229097E+01 -.57099768E+02 0.34860348E+02 0.67602976E+02 0.00000000E+00 0.0000E+00 0.9000E+01
#aMCatNLO 1  0  0  1  5 0.71876002D+03 0.00000000D+00  -5  6  0 0.00000000D+00 0.00000000D+00 0.00000000D+00 0.00000000D+00 0.00000000D+00
  <mgrwgt>
 0.7631755609D-05    3    2    0
 0.108427922139868D+03 0.000000000000000D+00 0.000000000000000D+00 0.108427922139868D+03
 0.108427922139868D+03 0.000000000000000D+00 0.000000000000000D+00 -.108427922139868D+03
 0.922520193523530D+02 -.333147761933420D+02 0.627142094410402D+02 0.311044803197189D+02
 0.395258136780511D+02 0.235918664652484D+02 -.561444118038898D+01 0.312120462935364D+02
 0.850780112493310D+02 0.972290972809366D+01 -.570997682606513D+02 -.623165266132553D+02
 0.000000000000000D+00 -.000000000000000D+00 -.000000000000000D+00 -.000000000000000D+00
 0.201461784075650D+03 0.000000000000000D+00 0.000000000000000D+00 0.201461784075650D+03
 0.861988989863605D+03 0.000000000000000D+00 0.000000000000000D+00 -.861988989863605D+03
 0.190368329435058D+03 0.429692152749698D+02 0.175858632698506D+03 0.311044803197189D+02
 0.743027078720962D+02 0.543161013055133D+02 0.399557467989953D+02 0.312120462935364D+02
 0.840323697424131D+02 0.553686493789246D+02 0.106019970448395D+02 -.623165266132553D+02
 0.714747366889688D+03 -.152653965959408D+03 -.226416376542341D+03 -.660527205787954D+03
0.631245523842D-07 0.000000000000D+00 0.000000000000D+00 0.192152925346D-09 0.000000000000D+00  6 2 22 9900012 -11 1 21 0 0.75092339D-01 0.37056118D-02 0.71421539D+04 0.71421539D+04 0.71421539D+04 0.12247881D+01  1  2  2  1  6  1        2 0.952691823912D-05 0.100000000000D+01
-.404624815809D-08 0.000000000000D+00 -.121207451116D-09 0.192152925346D-09 0.000000000000D+00  6 2 22 9900012 -11 1 21 2 0.75092339D-01 0.37056118D-02 0.71421539D+04 0.71421539D+04 0.71421539D+04 0.12247881D+01  1  2  3  1  6  1        2 -.916069846155D-06 0.100000000000D+01
-.432461824692D-08 0.000000000000D+00 0.000000000000D+00 0.192152925346D-09 0.000000000000D+00  6 2 22 9900012 -11 1 21 2 0.75092339D-01 0.37056118D-02 0.71421539D+04 0.71421539D+04 0.71421539D+04 0.12247881D+01  1  2 15  1  6  1        2 -.979092783574D-06 0.100000000000D+01
  </mgrwgt>
  </event>
  <event>
  5     66 -.12438524E-05 0.15166186E+03 0.78161638E-02 0.10189865E+00
        2 -1    0    0  501    0 0.00000000E+00 0.00000000E+00 0.14346106E+04 0.14346106E+04 0.00000000E+00 0.0000E+00 0.9000E+01
       22 -1    0    0    0    0 0.00000000E+00 0.00000000E+00 -.92871248E+02 0.92871248E+02 0.00000000E+00 0.0000E+00 0.9000E+01
  9900012  1    1    2    0    0 0.61328489E+02 0.14982555E+03 0.51589138E+02 0.17711668E+03 0.50000000E+02 0.0000E+00 0.9000E+01
      -11  1    1    2    0    0 0.11269672E+03 0.12651222E+02 0.16443379E+03 0.19974754E+03 0.00000000E+00 0.0000E+00 0.9000E+01
        1  1    1    2  501    0 -.17402521E+03 -.16247677E+03 0.11257164E+04 0.11506176E+04 0.00000000E+00 0.0000E+00 0.9000E+01
#aMCatNLO 1  0  0  5  1 0.11592785D+02 0.00000000D+00  -5  6  0 0.00000000D+00 0.00000000D+00 0.00000000D+00 0.00000000D+00 0.00000000D+00
  <mgrwgt>
 -.5148126139D-06    1    2    0
 0.365012430839053D+03 0.000000000000000D+00 0.000000000000000D+00 0.365012430839053D+03
 0.365012430839053D+03 -.000000000000000D+00 -.000000000000000D+00 -.365012430839053D+03
 0.275775999965633D+03 0.613284891443411D+02 0.149825551980560D+03 -.217585667152131D+03
 0.115726798117384D+03 0.112696723319263D+03 0.126512219657481D+02 -.230670097406792D+02
 0.338522063595089D+03 -.174025212463604D+03 -.162476773946308D+03 0.240652676892810D+03
 0.000000000000000D+00 0.000000000000000D+00 0.000000000000000D+00 0.000000000000000D+00
 0.365012430839053D+03 0.000000000000000D+00 0.000000000000000D+00 0.365012430839053D+03
 0.365012430839053D+03 -.000000000000000D+00 -.000000000000000D+00 -.365012430839053D+03
 0.272688355275918D+03 0.596312619701449D+02 0.148240954024818D+03 -.215238637908589D+03
 0.114767145629215D+03 0.111983458033970D+03 0.119852894788303D+02 -.220806630049936D+02
 0.128868634954159D+03 -.542155479850479D+02 -.918077193494727D+02 0.723819183185817D+02
 0.213700725818814D+03 -.117399172019067D+03 -.684185241541756D+02 0.164937382595001D+03
-.643463766069D-07 0.000000000000D+00 0.000000000000D+00 0.208567496264D-09 0.000000000000D+00  6 2 22 9900012 -11 1 21 2 0.22070932D+00 0.14287884D-01 0.67840577D+05 0.67840577D+05 0.67840577D+05 0.11315901D+01  1  2 14  2  6  5        1 -.514812613892D-06 0.100000000000D+01
  </mgrwgt>
  </event>
</LesHouchesEvents>
