<LesHouchesEvents version="3.0">
  <!--
  <scalesfunctionalform>
    muR  H_T/2 := sum_i mT(i)/2, i=final state
    muF1 H_T/2 := sum_i mT(i)/2, i=final state
    muF2 H_T/2 := sum_i mT(i)/2, i=final state
    QES  H_T/2 := sum_i mT(i)/2, i=final state
  </scalesfunctionalform>
PYTHIA8   
  -->
  <header>
        3
  </header>
  <init>
   2212   2212 0.65000000D+04 0.65000000D+04 -1 -1  82200  82200 -4   1
 0.14005618D-05 0.32634406D-07 0.90448672D-06     66
  </init>
  <event>
  5     66 0.90448672E-06 0.28490853E+02 0.78161638E-02 0.95013252E-01
       22 -1    0    0    0    0 0.00000000E+00 0.00000000E+00 0.32888046E+03 0.32888046E+03 0.00000000E+00 0.0000E+00 0.9000E+01
       -1 -1    0    0    0  501 0.00000000E+00 0.00000000E+00 -.11922478E+03 0.11922478E+03 0.00000000E+00 0.0000E+00 0.9000E+01
  9900012  1    1    2    0    0 -.37204821E+02 0.34346054E+01 0.20766294E+03 0.21684071E+03 0.50000000E+02 0.0000E+00 0.9000E+01
      -13  1    1    2    0    0 0.87879045E+01 -.54858395E+01 0.11462118E+03 0.11508839E+03 0.00000000E+00 0.0000E+00 0.9000E+01
       -2  1    1    2    0  501 0.28416917E+02 0.20512341E+01 -.11262845E+03 0.11617615E+03 0.00000000E+00 0.0000E+00 0.9000E+01
#aMCatNLO 1  0  0  2  5 0.18621117D+03 0.00000000D+00  -5  6  0 0.00000000D+00 0.00000000D+00 0.00000000D+00 0.00000000D+00 0.00000000D+00
  <mgrwgt>
 0.1222759530D-04    3    2    0
 0.198016922869019D+03 0.000000000000000D+00 0.000000000000000D+00 0.198016922869019D+03
 0.198016922869019D+03 0.000000000000000D+00 0.000000000000000D+00 -.198016922869019D+03
 0.135417074208737D+03 -.372048211900528D+02 0.343460535410711D+01 0.120173993665569D+03
 0.695413507908397D+02 0.878790453658076D+01 -.548583948014050D+01 0.687653820528083D+02
 0.191075420738462D+03 0.284169166534721D+02 0.205123412603338D+01 -.188939375718377D+03
 0.000000000000000D+00 0.000000000000000D+00 0.000000000000000D+00 0.000000000000000D+00
 0.116728507736026D+04 0.000000000000000D+00 0.000000000000000D+00 0.116728507736026D+04
 0.358183792076197D+03 0.000000000000000D+00 0.000000000000000D+00 -.358183792076197D+03
 0.225821207774315D+03 -.129980481213766D+03 -.130990471525817D+03 0.120173993665569D+03
 0.104739404005708D+03 -.359720582417810D+02 -.703397185696117D+02 0.687653820528083D+02
 0.269010190807790D+03 -.897453834335938D+02 -.169157208578147D+03 -.188939375718377D+03
 0.925898066848643D+03 0.255697922889141D+03 0.370487398673576D+03 0.809101285284061D+03
0.177662957578D-05 0.000000000000D+00 0.000000000000D+00 0.239248626694D-05 0.000000000000D+00  6 22 -1 9900012 -13 -2 21 0 0.50596994D-01 0.18342275D-01 0.25638212D+04 0.25638212D+04 0.25638212D+04 0.12758953D+01  1  2  2  1  6  2       -1 0.146698880744D-04 0.100000000000D+01
0.132464754634D-06 0.000000000000D+00 -.341136268416D-08 0.239248626694D-05 0.000000000000D+00  6 22 -1 9900012 -13 -2 21 2 0.50596994D-01 0.18342275D-01 0.25638212D+04 0.25638212D+04 0.25638212D+04 0.12758953D+01  1  2  3  1  6  2       -1 0.178057523396D-05 0.100000000000D+01
-.314157562021D-06 0.000000000000D+00 0.000000000000D+00 0.239248626694D-05 0.000000000000D+00  6 22 -1 9900012 -13 -2 21 2 0.50596994D-01 0.18342275D-01 0.25638212D+04 0.25638212D+04 0.25638212D+04 0.12758953D+01  1  2 15  1  6  2       -1 -.422286800773D-05 0.100000000000D+01
  </mgrwgt>
  </event>
  <event>
  5     66 0.90448672E-06 0.34965669E+02 0.78161638E-02 0.12166369E+00
       22 -1    0    0    0    0 0.00000000E+00 0.00000000E+00 0.50843775E+03 0.50843775E+03 0.00000000E+00 0.0000E+00 0.9000E+01
       -1 -1    0    0    0  501 0.00000000E+00 0.00000000E+00 -.11068824E+02 0.11068824E+02 0.00000000E+00 0.0000E+00 0.9000E+01
  9900012  1    1    2    0    0 -.34967885E+02 0.46885054E+02 0.37904139E+03 0.38677298E+03 0.50000000E+02 0.0000E+00 0.9000E+01
      -13  1    1    2    0    0 0.11717634E+02 -.61780450E+01 0.27287506E+02 0.30332807E+02 0.00000000E+00 0.0000E+00 0.9000E+01
       -2  1    1    2    0  501 0.23250251E+02 -.40707009E+02 0.91040035E+02 0.10240079E+03 0.00000000E+00 0.0000E+00 0.9000E+01
#aMCatNLO 1  0  0  2  5 0.12190364D+02 0.00000000D+00  -5  6  0 0.00000000D+00 0.00000000D+00 0.00000000D+00 0.00000000D+00 0.00000000D+00
  <mgrwgt>
 0.6979194167D-05    9    4    0
 0.750187185834759D+02 0.000000000000000D+00 0.000000000000000D+00 0.750187185834759D+02
 0.750187185834759D+02 0.000000000000000D+00 0.000000000000000D+00 -.750187185834759D+02
 0.826973331169325D+02 -.349678854725226D+02 0.468850535381284D+02 0.302966606239083D+02
 0.145705973857967D+02 0.117176342679290D+02 -.617804501950123D+01 -.606886439781443D+01
 0.527695066642225D+02 0.232502512045937D+02 -.407070085186272D+02 -.242277962260939D+02
 0.000000000000000D+00 0.000000000000000D+00 0.000000000000000D+00 -.000000000000000D+00
 0.766184167415897D+02 0.000000000000000D+00 0.000000000000000D+00 0.766184167415897D+02
 0.100593170814005D+03 0.000000000000000D+00 0.000000000000000D+00 -.100593170814005D+03
 0.804128615646372D+02 -.371249008350625D+02 0.408666416290843D+02 0.302966606239083D+02
 0.147616597160454D+02 0.113297362011640D+02 -.726034159701134D+01 -.606886439781443D+01
 0.553246396899128D+02 0.218207836305914D+02 -.446954477390311D+02 -.242277962260939D+02
 0.267124265849996D+02 0.397438100330709D+01 0.110891477069581D+02 -.239747540724156D+02
 0.750187185834759D+02 0.000000000000000D+00 0.000000000000000D+00 0.750187185834759D+02
 0.750187185834759D+02 0.000000000000000D+00 0.000000000000000D+00 -.750187185834759D+02
 0.826973331169325D+02 -.349678854725226D+02 0.468850535381284D+02 0.302966606239083D+02
 0.145705973857967D+02 0.117176342679290D+02 -.617804501950123D+01 -.606886439781443D+01
 0.000000000000000D+00 0.000000000000000D+00 0.000000000000000D+00 -.000000000000000D+00
 0.527695066642225D+02 0.232502512045937D+02 -.407070085186272D+02 -.242277962260939D+02
 0.766184167415897D+02 0.000000000000000D+00 0.000000000000000D+00 0.766184167415897D+02
 0.100593170814005D+03 0.000000000000000D+00 0.000000000000000D+00 -.100593170814005D+03
 0.804128615646372D+02 -.371249008350625D+02 0.408666416290843D+02 0.302966606239083D+02
 0.147616597160454D+02 0.113297362011640D+02 -.726034159701134D+01 -.606886439781443D+01
 0.267124265849996D+02 0.397438100330709D+01 0.110891477069581D+02 -.239747540724156D+02
 0.553246396899128D+02 0.218207836305914D+02 -.446954477390311D+02 -.242277962260939D+02
0.165679752627D-07 0.000000000000D+00 0.000000000000D+00 0.978790814100D-07 0.000000000000D+00  6 22 -1 9900012 -13 -2 21 0 0.78221193D-01 0.17028960D-02 0.46972706D+04 0.46972706D+04 0.46972706D+04 0.12449124D+01  1  2  2  1  6  2       -1 0.208697677623D-05 0.100000000000D+01
-.164842492432D-09 0.000000000000D+00 -.318126937285D-10 0.978790814100D-07 0.000000000000D+00  6 22 -1 9900012 -13 -2 21 2 0.78221193D-01 0.17028960D-02 0.46972706D+04 0.46972706D+04 0.46972706D+04 0.12449124D+01  1  2  3  1  6  2       -1 -.321806593644D-07 0.100000000000D+01
-.199759433058D-08 0.000000000000D+00 0.000000000000D+00 0.978790814100D-07 0.000000000000D+00  6 22 -1 9900012 -13 -2 21 2 0.78221193D-01 0.17028960D-02 0.46972706D+04 0.46972706D+04 0.46972706D+04 0.12449124D+01  1  2 15  1  6  2       -1 -.389971673880D-06 0.100000000000D+01
0.560925959819D-07 0.000000000000D+00 0.000000000000D+00 0.978790814100D-07 0.000000000000D+00  6 22 -1 9900012 -13 -2 21 2 0.78221193D-01 0.23321180D-02 0.55846531D+04 0.55846531D+04 0.55846531D+04 0.12364753D+01  1  2 12  1  6  2       -1 0.709859807605D-05 0.100000000000D+01
-.296679388779D-07 0.000000000000D+00 0.000000000000D+00 0.978790814100D-07 0.000000000000D+00  6 22 -1 9900012 -13 -2 21 2 0.78221193D-01 0.17028960D-02 0.46972706D+04 0.46972706D+04 0.46972706D+04 0.12449124D+01  1  2  4  1  6  2       -1 -.579179446382D-05 0.100000000000D+01
-.664899204020D-07 0.000000000000D+00 -.743865541578D-08 0.978790814100D-07 0.000000000000D+00  6 22 -1 9900012 -13 -2 21 2 0.78221193D-01 0.23310268D-02 0.46972706D+04 0.46972706D+04 0.46972706D+04 0.12449124D+01  1  2  5  1  6  2       -1 -.836809625745D-05 0.100000000000D+01
0.659024882492D-07 0.000000000000D+00 0.708647516776D-08 0.978790814100D-07 0.000000000000D+00  6 22 -1 9900012 -13 -2 21 2 0.78221193D-01 0.17028960D-02 0.46972706D+04 0.46972706D+04 0.46972706D+04 0.12449124D+01  1  2  6  1  6  2       -1 0.128655269301D-04 0.100000000000D+01
0.224312294689D-08 0.000000000000D+00 0.000000000000D+00 0.978790814100D-07 0.000000000000D+00  6 22 21 9900012 -13 1 -2 2 0.78221193D-01 0.23321180D-02 0.55846531D+04 0.55846531D+04 0.55846531D+04 0.12364753D+01  3  4 12  3  5  2       -1 0.500617842856D-05 0.100000000000D+01
-.247716346200D-08 0.000000000000D+00 -.297149964152D-09 0.978790814100D-07 0.000000000000D+00  6 22 21 9900012 -13 1 -2 2 0.78221193D-01 0.23310268D-02 0.46972706D+04 0.46972706D+04 0.46972706D+04 0.12449124D+01  3  4  5  3  5  2       -1 -.549604298917D-05 0.100000000000D+01
  </mgrwgt>
  </event>
  <event>
  5     66 0.90448672E-06 0.43526609E+02 0.78161638E-02 0.12084023E+00
       22 -1    0    0    0    0 0.00000000E+00 0.00000000E+00 0.11325315E+03 0.11325315E+03 0.00000000E+00 0.0000E+00 0.9000E+01
       -3 -1    0    0    0  501 0.00000000E+00 0.00000000E+00 -.21932036E+03 0.21932036E+03 0.00000000E+00 0.0000E+00 0.9000E+01
  9900012  1    1    2    0    0 -.24507549E+02 0.58071152E+02 -.38919185E+02 0.89373271E+02 0.50000000E+02 0.0000E+00 0.9000E+01
      -13  1    1    2    0    0 0.21960596E+02 -.10980579E+02 0.82615668E+02 0.86186945E+02 0.00000000E+00 0.0000E+00 0.9000E+01
       -4  1    1    2    0  501 0.25469526E+01 -.47090573E+02 -.14976369E+03 0.15701329E+03 0.00000000E+00 0.0000E+00 0.9000E+01
#aMCatNLO 1  0  0  2  5 0.69862356D+01 0.00000000D+00  -5  6  0 0.00000000D+00 0.00000000D+00 0.00000000D+00 0.00000000D+00 0.00000000D+00
  <mgrwgt>
 0.2320257293D-05   11    4    0
 0.157603047546023D+03 0.000000000000000D+00 0.000000000000000D+00 0.157603047546023D+03
 0.157603047546023D+03 0.000000000000000D+00 0.000000000000000D+00 -.157603047546023D+03
 0.812012617370035D+02 -.245075489860102D+02 0.580711520203074D+02 -.109893700189780D+02
 0.118735989522850D+03 0.219605963650159D+02 -.109805794986454D+02 0.116169678871628D+03
 0.115268843832192D+03 0.254695262099429D+01 -.470905725216619D+02 -.105180308852650D+03
 0.000000000000000D+00 0.000000000000000D+00 -.000000000000000D+00 -.000000000000000D+00
 0.158139426495384D+03 0.000000000000000D+00 0.000000000000000D+00 0.158139426495384D+03
 0.181541831853176D+03 0.000000000000000D+00 0.000000000000000D+00 -.181541831853176D+03
 0.824446989887871D+02 -.258890435043901D+02 0.592124950020305D+02 -.109893700189780D+02
 0.118240456596489D+03 0.199600479869988D+02 -.932779563271669D+01 0.116169678871628D+03
 0.114596541322649D+03 0.606435616185235D+00 -.454873844996418D+02 -.105180308852650D+03
 0.243995614406356D+02 0.532255990120611D+01 -.439731486967199D+01 -.234024053577914D+02
 0.157603047546023D+03 0.000000000000000D+00 0.000000000000000D+00 0.157603047546023D+03
 0.157603047546023D+03 0.000000000000000D+00 0.000000000000000D+00 -.157603047546023D+03
 0.812012617370035D+02 -.245075489860102D+02 0.580711520203074D+02 -.109893700189780D+02
 0.118735989522850D+03 0.219605963650159D+02 -.109805794986454D+02 0.116169678871628D+03
 0.000000000000000D+00 0.000000000000000D+00 -.000000000000000D+00 -.000000000000000D+00
 0.115268843832192D+03 0.254695262099429D+01 -.470905725216619D+02 -.105180308852650D+03
 0.158139426495384D+03 0.000000000000000D+00 0.000000000000000D+00 0.158139426495384D+03
 0.181541831853176D+03 0.000000000000000D+00 0.000000000000000D+00 -.181541831853176D+03
 0.824446989887871D+02 -.258890435043901D+02 0.592124950020305D+02 -.109893700189780D+02
 0.118240456596489D+03 0.199600479869988D+02 -.932779563271669D+01 0.116169678871628D+03
 0.243995614406356D+02 0.532255990120611D+01 -.439731486967199D+01 -.234024053577914D+02
 0.114596541322649D+03 0.606435616185235D+00 -.454873844996418D+02 -.105180308852650D+03
0.229913197806D-07 0.000000000000D+00 0.000000000000D+00 0.743046086710D-08 0.000000000000D+00  6 22 -3 9900012 -13 -4 21 0 0.17423561D-01 0.33741593D-01 0.57886549D+04 0.57886549D+04 0.57886549D+04 0.12347490D+01  1  2  2  1  6  2       -3 0.268029168819D-06 0.100000000000D+01
0.362223035964D-09 0.000000000000D+00 -.441463608556D-10 0.743046086710D-08 0.000000000000D+00  6 22 -3 9900012 -13 -4 21 2 0.17423561D-01 0.33741593D-01 0.57886549D+04 0.57886549D+04 0.57886549D+04 0.12347490D+01  1  2  3  1  6  2       -3 0.643800871340D-08 0.100000000000D+01
-.362936129167D-08 0.000000000000D+00 0.000000000000D+00 0.743046086710D-08 0.000000000000D+00  6 22 -3 9900012 -13 -4 21 2 0.17423561D-01 0.33741593D-01 0.57886549D+04 0.57886549D+04 0.57886549D+04 0.12347490D+01  1  2 15  1  6  2       -3 -.645068294944D-07 0.100000000000D+01
0.396752278809D-06 0.000000000000D+00 0.000000000000D+00 0.743046086710D-08 0.000000000000D+00  6 22 -3 9900012 -13 -4 21 2 0.17423561D-01 0.38998979D-01 0.60946552D+04 0.60946552D+04 0.60946552D+04 0.12322837D+01  1  2 12  1  6  2       -3 0.535736840288D-05 0.100000000000D+01
-.296053604689D-06 0.000000000000D+00 0.000000000000D+00 0.743046086710D-08 0.000000000000D+00  6 22 -3 9900012 -13 -4 21 2 0.17423561D-01 0.33741593D-01 0.57886549D+04 0.57886549D+04 0.57886549D+04 0.12347490D+01  1  2  4  1  6  2       -3 -.526193946100D-05 0.100000000000D+01
-.448650126843D-06 0.000000000000D+00 -.194183361512D-07 0.743046086710D-08 0.000000000000D+00  6 22 -3 9900012 -13 -4 21 2 0.17423561D-01 0.38937431D-01 0.57886549D+04 0.57886549D+04 0.57886549D+04 0.12347490D+01  1  2  5  1  6  2       -3 -.607609817132D-05 0.100000000000D+01
0.447035853668D-06 0.000000000000D+00 0.192208571310D-07 0.743046086710D-08 0.000000000000D+00  6 22 -3 9900012 -13 -4 21 2 0.17423561D-01 0.33741593D-01 0.57886549D+04 0.57886549D+04 0.57886549D+04 0.12347490D+01  1  2  6  1  6  2       -3 0.794543812890D-05 0.100000000000D+01
0.177336103426D-07 0.000000000000D+00 0.000000000000D+00 0.743046086710D-08 0.312721838606D-08  6 22 -3 9900012 -13 -4 21 2 0.17482860D-01 0.38866702D-01 0.60946552D+04 0.60946552D+04 0.60946552D+04 0.12322837D+01  1  2 11  1  6  2       -3 0.239831104515D-06 0.100000000000D+01
0.879488204417D-08 0.000000000000D+00 0.000000000000D+00 0.743046086710D-08 0.000000000000D+00  6 22 21 9900012 -13 3 -4 2 0.17423561D-01 0.38998979D-01 0.60946552D+04 0.60946552D+04 0.60946552D+04 0.12322837D+01  3  4 12  3  5  2       -3 0.194320780752D-05 0.100000000000D+01
-.973275846122D-08 0.000000000000D+00 -.426617471803D-09 0.743046086710D-08 0.000000000000D+00  6 22 21 9900012 -13 3 -4 2 0.17423561D-01 0.38937431D-01 0.57886549D+04 0.57886549D+04 0.57886549D+04 0.12347490D+01  3  4  5  3  5  2       -3 -.216073461615D-05 0.100000000000D+01
0.556776170144D-09 0.000000000000D+00 0.000000000000D+00 0.743046086710D-08 0.388057290983D-10  6 22 21 9900012 -13 3 -4 2 0.17482860D-01 0.38866702D-01 0.60946552D+04 0.60946552D+04 0.60946552D+04 0.12322837D+01  3  4 11  3  5  2       -3 0.123223749464D-06 0.100000000000D+01
  </mgrwgt>
  </event>
</LesHouchesEvents>
