<LesHouchesEvents version="3.0">
  <!--
  <scalesfunctionalform>
    muR  H_T/2 := sum_i mT(i)/2, i=final state
    muF1 H_T/2 := sum_i mT(i)/2, i=final state
    muF2 H_T/2 := sum_i mT(i)/2, i=final state
    QES  H_T/2 := sum_i mT(i)/2, i=final state
  </scalesfunctionalform>
PYTHIA8   
  -->
  <header>
        6
  </header>
  <init>
   2212   2212 0.65000000D+04 0.65000000D+04 -1 -1  82200  82200 -4   1
 0.72575613D-05 0.13449064D-06 0.23459806D-05     66
  </init>
  <event>
  5     66 0.23459806E-05 0.40889044E+02 0.78161638E-02 0.12331055E+00
        2 -1    0    0  501    0 0.00000000E+00 0.00000000E+00 0.23788788E+04 0.23788788E+04 0.00000000E+00 0.0000E+00 0.9000E+01
       22 -1    0    0    0    0 0.00000000E+00 0.00000000E+00 -.16487478E+02 0.16487478E+02 0.00000000E+00 0.0000E+00 0.9000E+01
  9900012  1    1    2    0    0 0.20864097E+02 -.23824264E+02 0.33946822E+03 0.34458900E+03 0.50000000E+02 0.0000E+00 0.9000E+01
      -13  1    1    2    0    0 0.73738128E+01 -.57482631E+01 -.12129068E+02 0.15314370E+02 0.00000000E+00 0.0000E+00 0.9000E+01
        1  1    1    2  501    0 -.28237910E+02 0.29572527E+02 0.20350521E+04 0.20354629E+04 0.00000000E+00 0.0000E+00 0.9000E+01
#aMCatNLO 1  0  0  1  1 0.94805989D+02 0.00000000D+00  -5  6  0 0.00000000D+00 0.00000000D+00 0.00000000D+00 0.00000000D+00 0.00000000D+00
  <mgrwgt>
 0.3929360444D-04    4    2    0
 0.198044718690500D+03 0.000000000000000D+00 0.000000000000000D+00 0.198044718690500D+03
 0.198044718690500D+03 0.000000000000000D+00 0.000000000000000D+00 -.198044718690500D+03
 0.592292783426270D+02 0.208640974257341D+02 -.238242640626257D+02 -.228063444509203D+01
 0.164955497642906D+03 0.737381275923449D+01 -.574826314623059D+01 -.164690317137384D+03
 0.171904661395468D+03 -.282379101849686D+02 0.295725272088563D+02 0.166970951582476D+03
 0.000000000000000D+00 -.000000000000000D+00 -.000000000000000D+00 -.000000000000000D+00
 0.200671112483340D+03 0.000000000000000D+00 0.000000000000000D+00 0.200671112483340D+03
 0.249808599210973D+03 0.000000000000000D+00 0.000000000000000D+00 -.249808599210973D+03
 0.587234467639975D+02 0.224351540304322D+02 -.209739307237031D+02 -.228063444509203D+01
 0.165125421551708D+03 0.117702843771368D+02 0.222815831984541D+01 -.164690317137384D+03
 0.172844158221313D+03 -.236460712975567D+02 0.379033992020185D+02 0.166970951582476D+03
 0.537866851572950D+02 -.105593671100124D+02 -.191576267981609D+02 -.491374867276335D+02
0.248426032144D-05 0.000000000000D+00 0.000000000000D+00 0.437174147481D-06 0.000000000000D+00  6 2 22 9900012 -13 1 21 0 0.36598135D+00 0.25365350D-02 0.29934047D+04 0.29934047D+04 0.29934047D+04 0.12677382D+01  1  2  2  1  6  1        2 0.513821762359D-04 0.100000000000D+01
0.322799297792D-07 0.000000000000D+00 -.477010687755D-08 0.437174147481D-06 0.000000000000D+00  6 2 22 9900012 -13 1 21 2 0.36598135D+00 0.25365350D-02 0.29934047D+04 0.29934047D+04 0.29934047D+04 0.12677382D+01  1  2  3  1  6  1        2 0.107301831347D-05 0.100000000000D+01
-.390983470112D-06 0.000000000000D+00 0.000000000000D+00 0.437174147481D-06 0.000000000000D+00  6 2 22 9900012 -13 1 21 2 0.36598135D+00 0.25365350D-02 0.29934047D+04 0.29934047D+04 0.29934047D+04 0.12677382D+01  1  2 15  1  6  1        2 -.129966956732D-04 0.100000000000D+01
-.496056841648D-08 0.000000000000D+00 0.000000000000D+00 0.437174147481D-06 0.000000000000D+00  6 2 22 9900012 -13 1 21 2 0.36598135D+00 0.25365350D-02 0.29934047D+04 0.29934047D+04 0.29934047D+04 0.12677382D+01  1  2  4  1  6  1        2 -.164894434173D-06 0.100000000000D+01
  </mgrwgt>
  </event>
  <event>
  5     66 0.23459806E-05 0.10328561E+02 0.78161638E-02 0.13850956E+00
        2 -1    0    0  501    0 0.00000000E+00 0.00000000E+00 0.31127430E+03 0.31127430E+03 0.00000000E+00 0.0000E+00 0.9000E+01
       22 -1    0    0    0    0 0.00000000E+00 0.00000000E+00 -.14338465E+02 0.14338465E+02 0.00000000E+00 0.0000E+00 0.9000E+01
  9900012  1    1    2    0    0 0.51568582E+01 0.98231790E+01 0.29864961E+03 0.30300937E+03 0.50000000E+02 0.0000E+00 0.9000E+01
      -13  1    1    2    0    0 -.69225023E+01 0.35334704E+00 -.79427053E+01 0.10541938E+02 0.00000000E+00 0.0000E+00 0.9000E+01
        1  1    1    2  501    0 0.17656441E+01 -.10176526E+02 0.62289287E+01 0.12061457E+02 0.00000000E+00 0.0000E+00 0.9000E+01
#aMCatNLO 1  0  0  5  1 0.90313250D+00 0.00000000D+00  -5  6  0 0.00000000D+00 0.00000000D+00 0.00000000D+00 0.00000000D+00 0.00000000D+00
  <mgrwgt>
 0.4174698835D-04    8    2    0
 0.668071529940846D+02 0.000000000000000D+00 0.000000000000000D+00 0.668071529940846D+02
 0.668071529940846D+02 -.000000000000000D+00 -.000000000000000D+00 -.668071529940846D+02
 0.747221423222840D+02 0.515685820219426D+01 0.982317896104166D+01 0.544087357123237D+02
 0.433416426697820D+02 -.692250226570742D+01 0.353347036762070D+00 -.427837831142590D+02
 0.155505209961031D+02 0.176564406351316D+01 -.101765259978037D+02 -.116249525980646D+02
 0.000000000000000D+00 0.000000000000000D+00 0.000000000000000D+00 -.000000000000000D+00
 0.668071529940846D+02 0.000000000000000D+00 0.000000000000000D+00 0.668071529940846D+02
 0.668071529940846D+02 -.000000000000000D+00 -.000000000000000D+00 -.668071529940846D+02
 0.745557432951846D+02 0.518726123689344D+01 0.964794699927653D+01 0.542085629569428D+02
 0.434530136090616D+02 -.690482502613751D+01 0.251461899338259D+00 -.429001695798618D+02
 0.146857396723492D+02 0.244952959333899D+01 -.946887013536146D+01 -.109549647582741D+02
 0.919809411573812D+00 -.731965804094918D+00 -.430538763253346D+00 -.353428618806857D+00
0.164676160627D-06 0.000000000000D+00 0.000000000000D+00 0.561811689305D-08 0.000000000000D+00  6 2 22 9900012 -13 1 21 0 0.47888354D-01 0.22059177D-02 0.11722464D+04 0.11722464D+04 0.11722464D+04 0.13197322D+01  1  2  2  2  6  5        1 0.667187250683D-04 0.100000000000D+01
-.420418284985D-09 0.000000000000D+00 -.316199908518D-09 0.561811689305D-08 0.000000000000D+00  6 2 22 9900012 -13 1 21 2 0.47888354D-01 0.22059177D-02 0.11722464D+04 0.11722464D+04 0.11722464D+04 0.13197322D+01  1  2  3  2  6  5        1 -.296667659117D-06 0.100000000000D+01
-.192971030620D-07 0.000000000000D+00 0.000000000000D+00 0.561811689305D-08 0.000000000000D+00  6 2 22 9900012 -13 1 21 2 0.47888354D-01 0.22059177D-02 0.11722464D+04 0.11722464D+04 0.11722464D+04 0.13197322D+01  1  2 15  2  6  5        1 -.136169776568D-04 0.100000000000D+01
0.698556290862D-13 0.000000000000D+00 0.000000000000D+00 0.561811689305D-08 0.000000000000D+00  6 2 22 9900012 -13 1 21 2 0.47888354D-01 0.22059177D-02 0.11807821D+04 0.11807821D+04 0.11807821D+04 0.13193038D+01  1  2 12  2  6  5        1 0.493019673792D-10 0.100000000000D+01
-.101336172998D-05 0.000000000000D+00 0.000000000000D+00 0.561811689305D-08 0.000000000000D+00  6 2 22 9900012 -13 1 21 2 0.47888354D-01 0.22059177D-02 0.11722464D+04 0.11722464D+04 0.11722464D+04 0.13197322D+01  1  2  4  2  6  5        1 -.715077490702D-03 0.100000000000D+01
-.725733057655D-06 0.000000000000D+00 0.000000000000D+00 0.561811689305D-08 0.000000000000D+00  6 2 22 9900012 -13 1 21 2 0.47888354D-01 0.22059177D-02 0.11722464D+04 0.11722464D+04 0.11722464D+04 0.13197322D+01  1  2  5  2  6  5        1 -.512112662668D-03 0.100000000000D+01
0.804746417178D-06 0.000000000000D+00 -.000000000000D+00 0.561811689305D-08 0.000000000000D+00  6 2 22 9900012 -13 1 21 2 0.47888354D-01 0.22059177D-02 0.11722464D+04 0.11722464D+04 0.11722464D+04 0.13197322D+01  1  2  6  2  6  5        1 0.567868345153D-03 0.100000000000D+01
0.918520471195D-06 0.000000000000D+00 0.000000000000D+00 0.561811689305D-08 0.730748889062D-07  6 2 22 9900012 -13 1 21 2 0.47888354D-01 0.22059177D-02 0.11807821D+04 0.11807821D+04 0.11807821D+04 0.13193038D+01  1  2 11  2  6  5        1 0.648263667515D-03 0.100000000000D+01
  </mgrwgt>
  </event>
  <event>
  5     66 0.23459806E-05 0.52769735E+02 0.78161638E-02 0.11393675E+00
        2 -1    0    0  501    0 0.00000000E+00 0.00000000E+00 0.30270796E+03 0.30270796E+03 0.00000000E+00 0.0000E+00 0.9000E+01
       22 -1    0    0    0    0 0.00000000E+00 0.00000000E+00 -.89441543E+02 0.89441543E+02 0.00000000E+00 0.0000E+00 0.9000E+01
  9900012  1    1    2    0    0 -.10027663E+03 -.19722787E+02 0.35487472E+02 0.11917949E+03 0.50000000E+02 0.0000E+00 0.9000E+01
      -13  1    1    2    0    0 0.54330634E+01 -.36087842E+01 -.36712561E+02 0.37287446E+02 0.00000000E+00 0.0000E+00 0.9000E+01
        1  1    1    2  501    0 0.94843567E+02 0.23331572E+02 0.21449150E+03 0.23568256E+03 0.00000000E+00 0.0000E+00 0.9000E+01
#aMCatNLO 1  0  0  5  1 0.44286845D+02 0.00000000D+00  -5  6  0 0.00000000D+00 0.00000000D+00 0.00000000D+00 0.00000000D+00 0.00000000D+00
  <mgrwgt>
 0.5113896081D-04    7    2    0
 0.164543813751082D+03 0.000000000000000D+00 0.000000000000000D+00 0.164543813751082D+03
 0.164543813751082D+03 -.000000000000000D+00 -.000000000000000D+00 -.164543813751082D+03
 0.119019645322782D+03 -.100276630422747D+03 -.197227873863150D+02 -.349468885816030D+02
 0.682244108478655D+02 0.543306338135586D+01 -.360878422827281D+01 -.679119189408331D+02
 0.141843571331517D+03 0.948435670413911D+02 0.233315716145878D+02 0.102858807522436D+03
 0.000000000000000D+00 0.000000000000000D+00 0.000000000000000D+00 0.000000000000000D+00
 0.164543813751082D+03 0.000000000000000D+00 0.000000000000000D+00 0.164543813751082D+03
 0.164543813751082D+03 -.000000000000000D+00 -.000000000000000D+00 -.164543813751082D+03
 0.109471479637533D+03 -.921311612537194D+02 -.177189973225288D+02 -.261130449001302D+02
 0.636722209468031D+02 0.101350400903796D+02 -.245209527467372D+01 -.628125776531168D+02
 0.108634627653589D+03 0.968501280834641D+02 0.219470925988596D+02 0.440438434075358D+02
 0.473092992642396D+02 -.148540069201244D+02 -.177600000165710D+01 0.448817791457112D+02
0.918218896767D-06 0.000000000000D+00 0.000000000000D+00 0.634169685638D-07 0.000000000000D+00  6 2 22 9900012 -13 1 21 0 0.46570455D-01 0.13760237D-01 0.11877404D+05 0.11877404D+05 0.11877404D+05 0.12016620D+01  1  2  2  2  6  5        1 0.381530083204D-04 0.100000000000D+01
-.108313923786D-07 0.000000000000D+00 -.176310116809D-08 0.634169685638D-07 0.000000000000D+00  6 2 22 9900012 -13 1 21 2 0.46570455D-01 0.13760237D-01 0.11877404D+05 0.11877404D+05 0.11877404D+05 0.12016620D+01  1  2  3  2  6  5        1 -.649877485267D-06 0.100000000000D+01
-.132096048932D-06 0.000000000000D+00 0.000000000000D+00 0.634169685638D-07 0.000000000000D+00  6 2 22 9900012 -13 1 21 2 0.46570455D-01 0.13760237D-01 0.11877404D+05 0.11877404D+05 0.11877404D+05 0.12016620D+01  1  2 15  2  6  5        1 -.792568906127D-05 0.100000000000D+01
0.309320574879D-06 0.000000000000D+00 0.000000000000D+00 0.634169685638D-07 0.000000000000D+00  6 2 22 9900012 -13 1 21 2 0.46570455D-01 0.13760237D-01 0.13340753D+05 0.13340753D+05 0.13340753D+05 0.11965665D+01  1  2 12  2  6  5        1 0.185447844012D-04 0.100000000000D+01
-.772769611146D-07 0.000000000000D+00 0.000000000000D+00 0.634169685638D-07 0.000000000000D+00  6 2 22 9900012 -13 1 21 2 0.46570455D-01 0.13760237D-01 0.11877404D+05 0.11877404D+05 0.11877404D+05 0.12016620D+01  1  2  4  2  6  5        1 -.463657444978D-05 0.100000000000D+01
-.331428223115D-06 0.000000000000D+00 0.000000000000D+00 0.634169685638D-07 0.000000000000D+00  6 2 22 9900012 -13 1 21 2 0.46570455D-01 0.13760237D-01 0.11877404D+05 0.11877404D+05 0.11877404D+05 0.12016620D+01  1  2  5  2  6  5        1 -.198855080359D-04 0.100000000000D+01
0.458984563467D-06 0.000000000000D+00 -.000000000000D+00 0.634169685638D-07 0.000000000000D+00  6 2 22 9900012 -13 1 21 2 0.46570455D-01 0.13760237D-01 0.11877404D+05 0.11877404D+05 0.11877404D+05 0.12016620D+01  1  2  6  2  6  5        1 0.275388171212D-04 0.100000000000D+01
  </mgrwgt>
  </event>
  <event>
  5     66 0.23459806E-05 0.29899358E+02 0.78161638E-02 0.13048029E+00
        2 -1    0    0  501    0 0.00000000E+00 0.00000000E+00 0.66627058E+02 0.66627058E+02 0.00000000E+00 0.0000E+00 0.9000E+01
       22 -1    0    0    0    0 0.00000000E+00 0.00000000E+00 -.17730472E+03 0.17730472E+03 0.00000000E+00 0.0000E+00 0.9000E+01
  9900012  1    1    2    0    0 0.27124903E+02 -.17765162E+02 0.22215238E+02 0.63599356E+02 0.50000000E+02 0.0000E+00 0.9000E+01
      -13  1    1    2    0    0 0.13090379E+01 0.68181588E+01 -.14671229E+03 0.14687647E+03 0.00000000E+00 0.0000E+00 0.9000E+01
        1  1    1    2  501    0 -.28433941E+02 0.10947003E+02 0.13819383E+02 0.33455959E+02 0.00000000E+00 0.0000E+00 0.9000E+01
#aMCatNLO 1  0  0  1  5 0.85168826D+01 0.00000000D+00  -5  6  0 0.00000000D+00 0.00000000D+00 0.00000000D+00 0.00000000D+00 0.00000000D+00
  <mgrwgt>
 0.5124711149D-04    9    2    0
 0.108688969173513D+03 0.000000000000000D+00 0.000000000000000D+00 0.108688969173513D+03
 0.108688969173513D+03 0.000000000000000D+00 0.000000000000000D+00 -.108688969173513D+03
 0.826792041752729D+02 0.271249026136229D+02 -.177651615416615D+02 0.573104658562169D+02
 0.901198368042024D+02 0.130903794522223D+01 0.681815878944063D+01 -.898520123091076D+02
 0.445788973675517D+02 -.284339405588451D+02 0.109470027522209D+02 0.325415464528907D+02
 0.000000000000000D+00 -.000000000000000D+00 0.000000000000000D+00 0.000000000000000D+00
 0.123095120925713D+03 0.000000000000000D+00 0.000000000000000D+00 0.123095120925713D+03
 0.109925729744416D+03 0.000000000000000D+00 0.000000000000000D+00 -.109925729744416D+03
 0.836746193153200D+02 0.280460166714968D+02 -.207454421444625D+02 0.573104658562169D+02
 0.899533513205105D+02 0.230611719201956D+01 0.359209149268884D+01 -.898520123091076D+02
 0.439028893095369D+02 -.279440100248548D+02 0.936182396280870D+01 0.325415464528907D+02
 0.154899907247621D+02 -.240812383866159D+01 0.779152668896497D+01 0.131693911812973D+02
0.970418975738D-07 0.000000000000D+00 0.000000000000D+00 0.339425688563D-07 0.000000000000D+00  6 2 22 9900012 -13 1 21 0 0.10250317D-01 0.27277650D-01 0.23524646D+04 0.23524646D+04 0.23524646D+04 0.12804935D+01  1  2  2  1  6  1        2 0.704844320980D-05 0.100000000000D+01
-.305164891275D-08 0.000000000000D+00 -.186333219201D-09 0.339425688563D-07 0.000000000000D+00  6 2 22 9900012 -13 1 21 2 0.10250317D-01 0.27277650D-01 0.23524646D+04 0.23524646D+04 0.23524646D+04 0.12804935D+01  1  2  3  1  6  1        2 -.363432093962D-06 0.100000000000D+01
-.130436434954D-07 0.000000000000D+00 0.000000000000D+00 0.339425688563D-07 0.000000000000D+00  6 2 22 9900012 -13 1 21 2 0.10250317D-01 0.27277650D-01 0.23524646D+04 0.23524646D+04 0.23524646D+04 0.12804935D+01  1  2 15  1  6  1        2 -.155341548257D-05 0.100000000000D+01
0.567146669113D-06 0.000000000000D+00 0.000000000000D+00 0.339425688563D-07 0.000000000000D+00  6 2 22 9900012 -13 1 21 2 0.11741039D-01 0.27277650D-01 0.26451042D+04 0.26451042D+04 0.26451042D+04 0.12742394D+01  1  2 12  1  6  1        2 0.575654458493D-04 0.100000000000D+01
-.188136533524D-06 0.000000000000D+00 0.000000000000D+00 0.339425688563D-07 0.000000000000D+00  6 2 22 9900012 -13 1 21 2 0.10250317D-01 0.27277650D-01 0.23524646D+04 0.23524646D+04 0.23524646D+04 0.12804935D+01  1  2  4  1  6  1        2 -.224058718039D-04 0.100000000000D+01
-.727765262302D-06 0.000000000000D+00 -.943924089930D-07 0.339425688563D-07 0.000000000000D+00  6 2 22 9900012 -13 1 21 2 0.11725493D-01 0.27277650D-01 0.23524646D+04 0.23524646D+04 0.23524646D+04 0.12804935D+01  1  2  5  1  6  1        2 -.738707767078D-04 0.100000000000D+01
0.734653054587D-06 0.000000000000D+00 0.935455464645D-07 0.339425688563D-07 0.000000000000D+00  6 2 22 9900012 -13 1 21 2 0.10250317D-01 0.27277650D-01 0.23524646D+04 0.23524646D+04 0.23524646D+04 0.12804935D+01  1  2  6  1  6  1        2 0.874925345602D-04 0.100000000000D+01
0.119265869402D-07 0.000000000000D+00 0.000000000000D+00 0.339425688563D-07 0.000000000000D+00  6 21 22 9900012 -13 1 -2 2 0.11741039D-01 0.27277650D-01 0.26451042D+04 0.26451042D+04 0.26451042D+04 0.12742394D+01  1  2 12  3  6  1        2 0.116135645914D-04 0.100000000000D+01
-.146434410130D-07 0.000000000000D+00 -.196900382967D-08 0.339425688563D-07 0.000000000000D+00  6 21 22 9900012 -13 1 -2 2 0.11725493D-01 0.27277650D-01 0.23524646D+04 0.23524646D+04 0.23524646D+04 0.12804935D+01  1  2  5  3  6  1        2 -.142793806369D-04 0.100000000000D+01
  </mgrwgt>
  </event>
  <event>
  6     66 -.23459806E-05 0.12819651E+03 0.78161638E-02 0.10690407E+00
        2 -1    0    0  501    0 0.00000000E+00 0.00000000E+00 0.28341673E+04 0.28341673E+04 0.00000000E+00 0.0000E+00 0.9000E+01
       22 -1    0    0    0    0 0.00000000E+00 0.00000000E+00 -.12669294E+04 0.12669294E+04 0.00000000E+00 0.0000E+00 0.9000E+01
  9900012  1    1    2    0    0 0.99355539E+02 -.87656107E+02 -.38153204E+03 0.40696660E+03 0.50000000E+02 0.0000E+00 0.9000E+01
      -13  1    1    2    0    0 -.14111498E+02 -.80956421E+01 -.86675025E+03 0.86690291E+03 0.00000000E+00 0.0000E+00 0.9000E+01
        1  1    1    2  502    0 -.61249748E+02 0.14115987E+03 0.26364820E+04 0.26409685E+04 0.00000000E+00 0.0000E+00 0.9000E+01
       21  1    1    2  501  502 -.23994293E+02 -.45408124E+02 0.17903818E+03 0.18625868E+03 0.00000000E+00 0.0000E+00 0.9000E+01
#aMCatNLO 2  0  0  5  1 0.55807427D+02 0.00000000D+00  -5  6  0 0.00000000D+00 0.00000000D+00 0.00000000D+00 0.00000000D+00 0.00000000D+00
  <mgrwgt>
 -.1412490004D-02    3    2    0
 0.189491159767655D+04 0.000000000000000D+00 0.000000000000000D+00 0.189491159767655D+04
 0.189491159767655D+04 -.000000000000000D+00 -.000000000000000D+00 -.189491159767655D+04
 0.600218913856221D+03 0.994497919621067D+02 -.877619784298059D+02 -.583241218169225D+03
 0.130103861715795D+04 -.139071988221247D+02 -.832512493828218D+01 -.130093764856428D+04
 0.188856566433892D+04 -.855425931399819D+02 0.960871033680880D+02 0.188417886673350D+04
 0.000000000000000D+00 0.000000000000000D+00 0.000000000000000D+00 0.000000000000000D+00
 0.189491159767655D+04 0.000000000000000D+00 0.000000000000000D+00 0.189491159767655D+04
 0.189491159767655D+04 -.000000000000000D+00 -.000000000000000D+00 -.189491159767655D+04
 0.598170607809124D+03 0.993555386132958D+02 -.876561068290332D+02 -.581165174394661D+03
 0.129653977728142D+04 -.141114983908780D+02 -.809564213842443D+01 -.129643770396594D+04
 0.176759513795508D+04 -.612497476535161D+02 0.141159873290358D+03 0.176088470102601D+04
 0.127517672307468D+03 -.239942925689016D+02 -.454081243229007D+02 0.116718177334590D+03
-.106014341365D+00 0.000000000000D+00 0.000000000000D+00 0.147302309768D-03 0.000000000000D+00  6 2 22 9900012 -13 1 21 2 0.43602574D+00 0.19491222D+00 0.32963688D+05 0.32963688D+05 0.32963688D+05 0.11590497D+01  1  2 13  2  6  5        1 -.143231001306D-02 0.100000000000D+01
-.354940117213D-03 0.000000000000D+00 0.000000000000D+00 0.147302309768D-03 0.000000000000D+00  6 2 22 9900012 -13 1 21 2 0.43602574D+00 0.19491222D+00 0.20535487D+05 0.20535487D+05 0.20535487D+05 0.11782169D+01  1  2  8  2  6  5        1 -.505411447773D-05 0.100000000000D+01
0.184109151407D-02 0.000000000000D+00 0.000000000000D+00 0.147302309768D-03 0.788797843228D-08  6 2 22 9900012 -13 1 21 2 0.43602574D+00 0.19491222D+00 0.32963688D+05 0.32963688D+05 0.32963688D+05 0.11590497D+01  1  2  1  2  6  5        1 0.248741234120D-04 0.100000000000D+01
  </mgrwgt>
  </event>
  <event>
  5     66 0.23459806E-05 0.22808599E+02 0.78161638E-02 0.12667994E+00
        2 -1    0    0  501    0 0.00000000E+00 0.00000000E+00 0.59689891E+03 0.59689891E+03 0.00000000E+00 0.0000E+00 0.9000E+01
       22 -1    0    0    0    0 0.00000000E+00 0.00000000E+00 -.41034937E+01 0.41034937E+01 0.00000000E+00 0.0000E+00 0.9000E+01
  9900012  1    1    2    0    0 -.21014413E+02 0.83786197E+01 0.35317510E+03 0.35741357E+03 0.50000000E+02 0.0000E+00 0.9000E+01
      -13  1    1    2    0    0 -.66145588E+01 -.24236149E+01 0.99804023E+01 0.12216167E+02 0.00000000E+00 0.0000E+00 0.9000E+01
        1  1    1    2  501    0 0.27628972E+02 -.59550048E+01 0.22963991E+03 0.23137267E+03 0.00000000E+00 0.0000E+00 0.9000E+01
#aMCatNLO 1  0  0  1  5 0.28260430D+02 0.00000000D+00  -5  6  0 0.00000000D+00 0.00000000D+00 0.00000000D+00 0.00000000D+00 0.00000000D+00
  <mgrwgt>
 0.5459847853D-04    9    2    0
 0.494911192002152D+02 0.000000000000000D+00 0.000000000000000D+00 0.494911192002152D+02
 0.494911192002152D+02 0.000000000000000D+00 0.000000000000000D+00 -.494911192002152D+02
 0.550182807111650D+02 -.210144129136646D+02 0.837861969737482D+01 0.389928125086089D+01
 0.144026726555995D+02 -.661455882932339D+01 -.242361492879821D+01 -.125622721589161D+02
 0.295612850336660D+02 0.276289717429880D+02 -.595500476857661D+01 0.866299090805523D+01
 0.000000000000000D+00 0.000000000000000D+00 -.000000000000000D+00 0.000000000000000D+00
 0.671700390658768D+02 0.000000000000000D+00 0.000000000000000D+00 0.671700390658768D+02
 0.586375656424068D+02 0.000000000000000D+00 0.000000000000000D+00 -.586375656424068D+02
 0.608437741309643D+02 -.287576744091435D+02 0.189672512189874D+02 0.389928125086089D+01
 0.152235765198494D+02 -.859453229698110D+01 0.283927556217677D+00 -.125622721589161D+02
 0.254854683449950D+02 0.239501020175295D+02 -.924282770922365D+00 0.866299090805523D+01
 0.242547857124749D+02 0.134021046885951D+02 -.183268960042827D+02 0.853247342346994D+01
0.338758250746D-07 0.000000000000D+00 0.000000000000D+00 0.145119522816D-08 0.000000000000D+00  6 2 22 9900012 -13 1 21 0 0.91830601D-01 0.63130672D-03 0.20334673D+04 0.20334673D+04 0.20334673D+04 0.12884004D+01  1  2  2  1  6  1        2 0.382095747454D-04 0.100000000000D+01
-.531742734382D-09 0.000000000000D+00 -.650460439981D-10 0.145119522816D-08 0.000000000000D+00  6 2 22 9900012 -13 1 21 2 0.91830601D-01 0.63130672D-03 0.20334673D+04 0.20334673D+04 0.20334673D+04 0.12884004D+01  1  2  3  1  6  1        2 -.995601573443D-06 0.100000000000D+01
-.432936282945D-08 0.000000000000D+00 0.000000000000D+00 0.145119522816D-08 0.000000000000D+00  6 2 22 9900012 -13 1 21 2 0.91830601D-01 0.63130672D-03 0.20334673D+04 0.20334673D+04 0.20334673D+04 0.12884004D+01  1  2 15  1  6  1        2 -.810602602783D-05 0.100000000000D+01
0.781025715959D-08 0.000000000000D+00 0.000000000000D+00 0.145119522816D-08 0.000000000000D+00  6 2 22 9900012 -13 1 21 2 0.14766733D+00 0.63130672D-03 0.33634368D+04 0.33634368D+04 0.33634368D+04 0.12617080D+01  1  2 12  1  6  1        2 0.864591410234D-05 0.100000000000D+01
-.369075521852D-08 0.000000000000D+00 0.000000000000D+00 0.145119522816D-08 0.000000000000D+00  6 2 22 9900012 -13 1 21 2 0.91830601D-01 0.63130672D-03 0.20334673D+04 0.20334673D+04 0.20334673D+04 0.12884004D+01  1  2  4  1  6  1        2 -.691033739656D-05 0.100000000000D+01
-.251114997795D-07 0.000000000000D+00 -.118211056447D-07 0.145119522816D-08 0.000000000000D+00  6 2 22 9900012 -13 1 21 2 0.14098599D+00 0.63130672D-03 0.20334673D+04 0.20334673D+04 0.20334673D+04 0.12884004D+01  1  2  5  1  6  1        2 -.291453589015D-04 0.100000000000D+01
0.285263918051D-07 0.000000000000D+00 0.108121736733D-07 0.145119522816D-08 0.000000000000D+00  6 2 22 9900012 -13 1 21 2 0.91830601D-01 0.63130672D-03 0.20334673D+04 0.20334673D+04 0.20334673D+04 0.12884004D+01  1  2  6  1  6  1        2 0.534110176397D-04 0.100000000000D+01
0.423035113303D-09 0.000000000000D+00 0.000000000000D+00 0.145119522816D-08 0.000000000000D+00  6 21 22 9900012 -13 1 -2 2 0.14766733D+00 0.63130672D-03 0.33634368D+04 0.33634368D+04 0.33634368D+04 0.12617080D+01  1  2 12  3  6  1        2 0.419829441927D-06 0.100000000000D+01
-.815894944361D-09 0.000000000000D+00 -.592297969026D-09 0.145119522816D-08 0.000000000000D+00  6 21 22 9900012 -13 1 -2 2 0.14098599D+00 0.63130672D-03 0.20334673D+04 0.20334673D+04 0.20334673D+04 0.12884004D+01  1  2  5  3  6  1        2 -.930533502562D-06 0.100000000000D+01
  </mgrwgt>
  </event>
</LesHouchesEvents>
