<LesHouchesEvents version="3.0">
  <!--
  <scalesfunctionalform>
    muR  H_T/2 := sum_i mT(i)/2, i=final state
    muF1 H_T/2 := sum_i mT(i)/2, i=final state
    muF2 H_T/2 := sum_i mT(i)/2, i=final state
    QES  H_T/2 := sum_i mT(i)/2, i=final state
  </scalesfunctionalform>
PYTHIA8   
  -->
  <header>
       10
  </header>
  <init>
   2212   2212 0.65000000D+04 0.65000000D+04 -1 -1  82200  82200 -4   1
 0.22428901D-05 0.37150807D-07 0.45592502D-06     66
  </init>
  <event>
  5     66 -.45592502E-06 0.51434091E+02 0.78161638E-02 0.11411851E+00
       22 -1    0    0    0    0 0.00000000E+00 0.00000000E+00 0.15856441E+03 0.15856441E+03 0.00000000E+00 0.0000E+00 0.9000E+01
        1 -1    0    0  501    0 -.00000000E+00 -.00000000E+00 -.37902724E+03 0.37902724E+03 0.00000000E+00 0.0000E+00 0.9000E+01
  9900012  1    1    2    0    0 0.56527575E+02 0.52851054E+02 0.84181050E+02 0.12480004E+03 0.50000000E+02 0.0000E+00 0.9000E+01
       11  1    1    2    0    0 0.23980692E+02 0.16788544E+02 0.41423271E+02 0.50722936E+02 0.00000000E+00 0.0000E+00 0.9000E+01
        2  1    1    2  501    0 -.80508266E+02 -.69639599E+02 -.34606715E+03 0.36206868E+03 0.00000000E+00 0.0000E+00 0.9000E+01
#aMCatNLO 1  0  0  5  2 0.74449429D+01 0.00000000D+00  -5  6  0 0.00000000D+00 0.00000000D+00 0.00000000D+00 0.00000000D+00 0.00000000D+00
  <mgrwgt>
 -.5101897532D-05    8    2    0
 0.245153485208740D+03 0.000000000000000D+00 0.000000000000000D+00 0.245153485208740D+03
 0.245153485208740D+03 -.000000000000000D+00 -.000000000000000D+00 -.245153485208740D+03
 0.174686995578824D+03 0.565275746588450D+02 0.528510544015498D+02 0.148414776138325D+03
 0.742402627867728D+02 0.239806916412418D+02 0.167885444193357D+02 0.682252726146019D+02
 0.241379712051883D+03 -.805082663000868D+02 -.696395988208855D+02 -.216640048752927D+03
 0.000000000000000D+00 0.000000000000000D+00 0.000000000000000D+00 -.000000000000000D+00
 0.245153485208740D+03 0.000000000000000D+00 0.000000000000000D+00 0.245153485208740D+03
 0.245153485208740D+03 -.000000000000000D+00 -.000000000000000D+00 -.245153485208740D+03
 0.174474275257608D+03 0.564534907199137D+02 0.527869718417911D+02 0.148215423340414D+03
 0.741460779281027D+02 0.239492074947401D+02 0.167613106527629D+02 0.681405517859648D+02
 0.182853394130007D+03 -.606274264067460D+02 -.598185327594366D+02 -.161806742908528D+03
 0.588332231017620D+02 -.197752718079078D+02 -.972974973511737D+01 -.545492322178512D+02
0.201875536570D-07 0.000000000000D+00 0.000000000000D+00 0.358213984546D-07 0.000000000000D+00  6 22 1 9900012 11 2 21 0 0.24394525D-01 0.58311883D-01 0.12979511D+05 0.12979511D+05 0.12979511D+05 0.11977647D+01  1  2  2  2  6  5        2 0.197358389176D-06 0.100000000000D+01
0.114883111849D-09 0.000000000000D+00 -.387627607739D-10 0.358213984546D-07 0.000000000000D+00  6 22 1 9900012 11 2 21 2 0.24394525D-01 0.58311883D-01 0.12979511D+05 0.12979511D+05 0.12979511D+05 0.11977647D+01  1  2  3  2  6  5        2 0.161128030863D-08 0.100000000000D+01
-.317744167239D-08 0.000000000000D+00 0.000000000000D+00 0.358213984546D-07 0.000000000000D+00  6 22 1 9900012 11 2 21 2 0.24394525D-01 0.58311883D-01 0.12979511D+05 0.12979511D+05 0.12979511D+05 0.11977647D+01  1  2 15  2  6  5        2 -.445648548001D-07 0.100000000000D+01
0.718085039244D-06 0.000000000000D+00 0.000000000000D+00 0.358213984546D-07 0.000000000000D+00  6 22 1 9900012 11 2 21 2 0.24394525D-01 0.58311883D-01 0.13052227D+05 0.13052227D+05 0.13052227D+05 0.11975206D+01  1  2 12  2  6  5        2 0.100700988322D-04 0.100000000000D+01
-.130905894660D-05 0.000000000000D+00 0.000000000000D+00 0.358213984546D-07 0.000000000000D+00  6 22 1 9900012 11 2 21 2 0.24394525D-01 0.58311883D-01 0.12979511D+05 0.12979511D+05 0.12979511D+05 0.11977647D+01  1  2  4  2  6  5        2 -.183600606698D-04 0.100000000000D+01
-.729795708943D-06 0.000000000000D+00 0.000000000000D+00 0.358213984546D-07 0.000000000000D+00  6 22 1 9900012 11 2 21 2 0.24394525D-01 0.58311883D-01 0.12979511D+05 0.12979511D+05 0.12979511D+05 0.11977647D+01  1  2  5  2  6  5        2 -.102356685523D-04 0.100000000000D+01
0.928532623007D-06 0.000000000000D+00 -.000000000000D+00 0.358213984546D-07 0.000000000000D+00  6 22 1 9900012 11 2 21 2 0.24394525D-01 0.58311883D-01 0.12979511D+05 0.12979511D+05 0.12979511D+05 0.11977647D+01  1  2  6  2  6  5        2 0.130230310381D-04 0.100000000000D+01
0.175631041281D-07 0.000000000000D+00 0.000000000000D+00 0.358213984546D-07 0.413286860929D-08  6 22 1 9900012 11 2 21 2 0.24394525D-01 0.58311883D-01 0.13052227D+05 0.13052227D+05 0.13052227D+05 0.11975206D+01  1  2 11  2  6  5        2 0.246297004819D-06 0.100000000000D+01
  </mgrwgt>
  </event>
  <event>
  5     66 0.45592502E-06 0.35565045E+02 0.78161638E-02 0.12184604E+00
       22 -1    0    0    0    0 0.00000000E+00 0.00000000E+00 0.31690960E+03 0.31690960E+03 0.00000000E+00 0.0000E+00 0.9000E+01
        3 -1    0    0  501    0 0.00000000E+00 0.00000000E+00 -.13516628E+03 0.13516628E+03 0.00000000E+00 0.0000E+00 0.9000E+01
  9900012  1    1    2    0    0 0.28333380E+02 0.50996473E+02 0.22925129E+03 0.24178415E+03 0.50000000E+02 0.0000E+00 0.9000E+01
       11  1    1    2    0    0 0.84360945E+01 -.10484547E+02 0.74960286E+02 0.76158636E+02 0.00000000E+00 0.0000E+00 0.9000E+01
        4  1    1    2  501    0 -.36769475E+02 -.40511926E+02 -.12246826E+03 0.13413309E+03 0.00000000E+00 0.0000E+00 0.9000E+01
#aMCatNLO 1  0  0  5  2 0.95791238D+01 0.00000000D+00  -5  6  0 0.00000000D+00 0.00000000D+00 0.00000000D+00 0.00000000D+00 0.00000000D+00
  <mgrwgt>
 0.4490707486D-05    8    2    0
 0.206967365213288D+03 0.000000000000000D+00 0.000000000000000D+00 0.206967365213288D+03
 0.206967365213288D+03 -.000000000000000D+00 -.000000000000000D+00 -.206967365213288D+03
 0.163407140031414D+03 0.283333803901211D+02 0.509964726669173D+02 0.144216756115395D+03
 0.502638439557555D+02 0.843609451634648D+01 -.104845469327781D+02 0.484289231155741D+02
 0.200263746439407D+03 -.367694749064676D+02 -.405119257341392D+02 -.192645679230969D+03
 0.000000000000000D+00 0.000000000000000D+00 0.000000000000000D+00 -.000000000000000D+00
 0.206967365213288D+03 0.000000000000000D+00 0.000000000000000D+00 0.206967365213288D+03
 0.206967365213288D+03 -.000000000000000D+00 -.000000000000000D+00 -.206967365213288D+03
 0.162836480789445D+03 0.282223598345742D+02 0.508741522771724D+02 0.143635088022871D+03
 0.500936188380005D+02 0.840194291747505D+01 -.105221745312331D+02 0.482499932293533D+02
 0.164191720123658D+03 -.321650419463940D+02 -.421743576407935D+02 -.155388720927031D+03
 0.368129106754735D+02 -.445926080565526D+01 0.182237989485431D+01 -.364963603251936D+02
0.440280433503D-07 0.000000000000D+00 0.000000000000D+00 0.149718437421D-05 0.000000000000D+00  6 22 3 9900012 11 4 21 0 0.48755323D-01 0.20794812D-01 0.52563266D+04 0.52563266D+04 0.52563266D+04 0.12394083D+01  1  2  2  2  6  5        4 0.248123213975D-06 0.100000000000D+01
0.137134266357D-08 0.000000000000D+00 -.845396396575D-10 0.149718437421D-05 0.000000000000D+00  6 22 3 9900012 11 4 21 2 0.48755323D-01 0.20794812D-01 0.52563266D+04 0.52563266D+04 0.52563266D+04 0.12394083D+01  1  2  3  2  6  5        4 0.118716970124D-07 0.100000000000D+01
-.746877457992D-08 0.000000000000D+00 0.000000000000D+00 0.149718437421D-05 0.000000000000D+00  6 22 3 9900012 11 4 21 2 0.48755323D-01 0.20794812D-01 0.52563266D+04 0.52563266D+04 0.52563266D+04 0.12394083D+01  1  2 15  2  6  5        4 -.646570920765D-07 0.100000000000D+01
0.619892240442D-06 0.000000000000D+00 0.000000000000D+00 0.149718437421D-05 0.000000000000D+00  6 22 3 9900012 11 4 21 2 0.48755323D-01 0.20794812D-01 0.54785364D+04 0.54785364D+04 0.54785364D+04 0.12374015D+01  1  2 12  2  6  5        4 0.536732600150D-05 0.100000000000D+01
-.247395493179D-06 0.000000000000D+00 0.000000000000D+00 0.149718437421D-05 0.000000000000D+00  6 22 3 9900012 11 4 21 2 0.48755323D-01 0.20794812D-01 0.52563266D+04 0.52563266D+04 0.52563266D+04 0.12394083D+01  1  2  4  2  6  5        4 -.214169982112D-05 0.100000000000D+01
-.616688408657D-06 0.000000000000D+00 0.000000000000D+00 0.149718437421D-05 0.000000000000D+00  6 22 3 9900012 11 4 21 2 0.48755323D-01 0.20794812D-01 0.52563266D+04 0.52563266D+04 0.52563266D+04 0.12394083D+01  1  2  5  2  6  5        4 -.533866416698D-05 0.100000000000D+01
0.740257214742D-06 0.000000000000D+00 -.000000000000D+00 0.149718437421D-05 0.000000000000D+00  6 22 3 9900012 11 4 21 2 0.48755323D-01 0.20794812D-01 0.52563266D+04 0.52563266D+04 0.52563266D+04 0.12394083D+01  1  2  6  2  6  5        4 0.640839784114D-05 0.100000000000D+01
0.113330344138D-11 0.000000000000D+00 0.000000000000D+00 0.149718437421D-05 0.398241368547D-06  6 22 3 9900012 11 4 21 2 0.48755323D-01 0.20794812D-01 0.54785364D+04 0.54785364D+04 0.54785364D+04 0.12374015D+01  1  2 11  2  6  5        4 0.981268780547D-11 0.100000000000D+01
  </mgrwgt>
  </event>
  <event>
  5     66 0.45592502E-06 0.86221935E+02 0.78161638E-02 0.10901571E+00
       22 -1    0    0    0    0 0.00000000E+00 0.00000000E+00 0.20835640E+03 0.20835640E+03 0.00000000E+00 0.0000E+00 0.9000E+01
        1 -1    0    0  501    0 0.00000000E+00 0.00000000E+00 -.17414205E+03 0.17414205E+03 0.00000000E+00 0.0000E+00 0.9000E+01
  9900012  1    1    2    0    0 0.11212914E+03 -.73216825E+02 0.11441256E+03 0.18309528E+03 0.50000000E+02 0.0000E+00 0.9000E+01
       11  1    1    2    0    0 0.11707868E+01 -.11612796E+02 0.21946199E+02 0.24856859E+02 0.00000000E+00 0.0000E+00 0.9000E+01
        2  1    1    2  501    0 -.11329992E+03 0.84829621E+02 -.10214441E+03 0.17454632E+03 0.00000000E+00 0.0000E+00 0.9000E+01
#aMCatNLO 1  0  0  2  5 0.27249749D+02 0.00000000D+00  -5  6  0 0.00000000D+00 0.00000000D+00 0.00000000D+00 0.00000000D+00 0.00000000D+00
  <mgrwgt>
 0.4757914289D-05    6    2    0
 0.190482574450567D+03 0.000000000000000D+00 0.000000000000000D+00 0.190482574450567D+03
 0.190482574450567D+03 0.000000000000000D+00 0.000000000000000D+00 -.190482574450567D+03
 0.173556842769211D+03 0.112129135299781D+03 -.732168250425395D+02 0.984293209345164D+02
 0.229859218972277D+02 0.117078676793494D+01 -.116127960661243D+02 0.198021420895844D+02
 0.184422384234695D+03 -.113299922067716D+03 0.848296211086638D+02 -.118231463024101D+03
 0.000000000000000D+00 0.000000000000000D+00 -.000000000000000D+00 0.000000000000000D+00
 0.200805308541557D+03 0.000000000000000D+00 0.000000000000000D+00 0.200805308541557D+03
 0.199068435522094D+03 0.000000000000000D+00 0.000000000000000D+00 -.199068435522094D+03
 0.168894909558692D+03 0.109897472967770D+03 -.652664131886154D+02 0.984293209345164D+02
 0.224578772763140D+02 0.874642233267843D+00 -.105577659277744D+02 0.198021420895844D+02
 0.190055649789311D+03 -.115740290724078D+03 0.935235599788842D+02 -.118231463024101D+03
 0.184653074393333D+02 0.496817552303963D+01 -.176993808624943D+02 0.173687301946270D+01
0.126954485326D-06 0.000000000000D+00 0.000000000000D+00 0.144188046829D-07 0.000000000000D+00  6 22 1 9900012 11 2 21 0 0.32054831D-01 0.26791085D-01 0.21927054D+05 0.21927054D+05 0.21927054D+05 0.11755038D+01  1  2  2  1  6  2        1 0.224045480579D-05 0.100000000000D+01
-.157947951821D-08 0.000000000000D+00 -.243769325768D-09 0.144188046829D-07 0.000000000000D+00  6 22 1 9900012 11 2 21 2 0.32054831D-01 0.26791085D-01 0.21927054D+05 0.21927054D+05 0.21927054D+05 0.11755038D+01  1  2  3  1  6  2        1 -.385168025522D-07 0.100000000000D+01
-.188801654477D-07 0.000000000000D+00 0.000000000000D+00 0.144188046829D-07 0.000000000000D+00  6 22 1 9900012 11 2 21 2 0.32054831D-01 0.26791085D-01 0.21927054D+05 0.21927054D+05 0.21927054D+05 0.11755038D+01  1  2 15  1  6  2        1 -.460407112796D-06 0.100000000000D+01
0.147657670653D-06 0.000000000000D+00 0.000000000000D+00 0.144188046829D-07 0.000000000000D+00  6 22 1 9900012 11 2 21 2 0.32054831D-01 0.29515992D-01 0.24810876D+05 0.24810876D+05 0.24810876D+05 0.11704408D+01  1  2 12  1  6  2        1 0.318067897279D-05 0.100000000000D+01
-.205844010567D-07 0.000000000000D+00 0.000000000000D+00 0.144188046829D-07 0.000000000000D+00  6 22 1 9900012 11 2 21 2 0.32054831D-01 0.26791085D-01 0.21927054D+05 0.21927054D+05 0.21927054D+05 0.11755038D+01  1  2  4  1  6  2        1 -.501966186972D-06 0.100000000000D+01
0.234917506972D-08 0.000000000000D+00 0.000000000000D+00 0.144188046829D-07 0.000000000000D+00  6 22 21 9900012 11 2 -1 2 0.32054831D-01 0.29515992D-01 0.24810876D+05 0.24810876D+05 0.24810876D+05 0.11704408D+01  1  2 12  3  6  2        1 0.337670612707D-06 0.100000000000D+01
  </mgrwgt>
  </event>
  <event>
  5     66 0.45592502E-06 0.17382448E+02 0.78161638E-02 0.13118100E+00
       22 -1    0    0    0    0 0.00000000E+00 0.00000000E+00 0.11272890E+02 0.11272890E+02 0.00000000E+00 0.0000E+00 0.9000E+01
        1 -1    0    0  501    0 -.00000000E+00 -.00000000E+00 -.59439772E+03 0.59439772E+03 0.00000000E+00 0.0000E+00 0.9000E+01
  9900012  1    1    2    0    0 -.54382404E+01 -.10732773E+02 -.29267297E+03 0.29715691E+03 0.50000000E+02 0.0000E+00 0.9000E+01
       11  1    1    2    0    0 -.11172548E+02 0.15854415E+02 -.19552325E+01 0.19493877E+02 0.00000000E+00 0.0000E+00 0.9000E+01
        2  1    1    2  501    0 0.16610789E+02 -.51216420E+01 -.28849663E+03 0.28901982E+03 0.00000000E+00 0.0000E+00 0.9000E+01
#aMCatNLO 1  0  0  5  2 0.66305531D+01 0.00000000D+00  -5  6  0 0.00000000D+00 0.00000000D+00 0.00000000D+00 0.00000000D+00 0.00000000D+00
  <mgrwgt>
 0.6792144130D-05    6    2    0
 0.818570725939331D+02 0.000000000000000D+00 0.000000000000000D+00 0.818570725939331D+02
 0.818570725939331D+02 -.000000000000000D+00 -.000000000000000D+00 -.818570725939331D+02
 0.568939010615309D+02 -.543824037229306D+01 -.107327726901149D+02 -.243341141206075D+02
 0.651545636709221D+02 -.111725481651425D+02 0.158544146970503D+02 0.622007143790147D+02
 0.416656804554133D+02 0.166107885374356D+02 -.512164200693539D+01 -.378666002584071D+02
 0.000000000000000D+00 0.000000000000000D+00 0.000000000000000D+00 0.000000000000000D+00
 0.818570725939331D+02 0.000000000000000D+00 0.000000000000000D+00 0.818570725939331D+02
 0.818570725939331D+02 -.000000000000000D+00 -.000000000000000D+00 -.818570725939331D+02
 0.576188240768190D+02 -.469291115233753D+01 -.109625817345993D+02 -.260331956283494D+02
 0.631338806269658D+02 -.103375568923182D+02 0.155969599489699D+02 0.602972357647370D+02
 0.504403103365559D+01 -.163788043063222D+01 0.453995263751483D+01 -.146575127922690D+01
 0.379174094504259D+02 0.166683484752879D+02 -.917433085188545D+01 -.327982888571607D+02
0.389272051885D-07 0.000000000000D+00 0.000000000000D+00 0.241989077753D-08 0.000000000000D+00  6 22 1 9900012 11 2 21 0 0.17342908D-02 0.91445804D-01 0.19450446D+04 0.19450446D+04 0.19450446D+04 0.12908438D+01  1  2  2  2  6  5        2 0.739411385621D-05 0.100000000000D+01
0.139193646324D-08 0.000000000000D+00 -.747453588461D-10 0.241989077753D-08 0.000000000000D+00  6 22 1 9900012 11 2 21 2 0.17342908D-02 0.91445804D-01 0.19450446D+04 0.19450446D+04 0.19450446D+04 0.12908438D+01  1  2  3  2  6  5        2 0.440554582702D-06 0.100000000000D+01
-.688421304852D-08 0.000000000000D+00 0.000000000000D+00 0.241989077753D-08 0.000000000000D+00  6 22 1 9900012 11 2 21 2 0.17342908D-02 0.91445804D-01 0.19450446D+04 0.19450446D+04 0.19450446D+04 0.12908438D+01  1  2 15  2  6  5        2 -.217888652745D-05 0.100000000000D+01
0.378023366106D-08 0.000000000000D+00 0.000000000000D+00 0.241989077753D-08 0.000000000000D+00  6 22 1 9900012 11 2 21 2 0.17342908D-02 0.91445804D-01 0.22074418D+04 0.22074418D+04 0.22074418D+04 0.12839272D+01  1  2 12  2  6  5        2 0.119715287674D-05 0.100000000000D+01
-.318858871109D-09 0.000000000000D+00 0.000000000000D+00 0.241989077753D-08 0.000000000000D+00  6 22 1 9900012 11 2 21 2 0.17342908D-02 0.91445804D-01 0.19450446D+04 0.19450446D+04 0.19450446D+04 0.12908438D+01  1  2  4  2  6  5        2 -.100920365701D-06 0.100000000000D+01
0.126717041110D-09 0.000000000000D+00 0.000000000000D+00 0.241989077753D-08 0.139563590134D-10  6 22 1 9900012 11 2 21 2 0.17342908D-02 0.91445804D-01 0.22074418D+04 0.22074418D+04 0.22074418D+04 0.12839272D+01  1  2 11  2  6  5        2 0.401297072877D-07 0.100000000000D+01
  </mgrwgt>
  </event>
  <event>
  5     66 0.45592502E-06 0.16225068E+02 0.78161638E-02 0.12971847E+00
       22 -1    0    0    0    0 0.00000000E+00 0.00000000E+00 0.15603827E+04 0.15603827E+04 0.00000000E+00 0.0000E+00 0.9000E+01
        3 -1    0    0  501    0 0.00000000E+00 0.00000000E+00 -.30180744E+01 0.30180744E+01 0.00000000E+00 0.0000E+00 0.9000E+01
  9900012  1    1    2    0    0 0.78233403E+01 -.86224616E+01 0.10538445E+04 0.10550942E+04 0.50000000E+02 0.0000E+00 0.9000E+01
       11  1    1    2    0    0 -.21576196E+02 0.13641066E-01 0.47503417E+03 0.47552392E+03 0.00000000E+00 0.0000E+00 0.9000E+01
        4  1    1    2  501    0 0.13752855E+02 0.86088205E+01 0.28485973E+02 0.32782670E+02 0.00000000E+00 0.0000E+00 0.9000E+01
#aMCatNLO 1  0  0  5  5 0.15940605D+02 0.00000000D+00  -5  6  0 0.00000000D+00 0.00000000D+00 0.00000000D+00 0.00000000D+00 0.00000000D+00
  <mgrwgt>
 0.6790924777D-05    4    2    0
 0.686247130501085D+02 0.000000000000000D+00 0.000000000000000D+00 0.686247130501085D+02
 0.686247130501085D+02 -.000000000000000D+00 -.000000000000000D+00 -.686247130501085D+02
 0.605827842312238D+02 0.782334030551772D+01 -.862246160755379D+01 0.321670988355702D+02
 0.264703975564916D+02 -.215761955027892D+02 0.136410660710829D-01 0.153345866701862D+02
 0.501962443125016D+02 0.137528551972715D+02 0.860882054148270D+01 -.475016855057563D+02
 0.000000000000000D+00 0.000000000000000D+00 0.000000000000000D+00 0.000000000000000D+00
 0.686247130501085D+02 0.000000000000000D+00 0.000000000000000D+00 0.686247130501085D+02
 0.686247130501085D+02 -.000000000000000D+00 -.000000000000000D+00 -.686247130501085D+02
 0.578714540593072D+02 0.946642640457279D+01 -.759394548067882D+01 0.264919602540429D+02
 0.245334369964061D+02 -.208687181447666D+02 0.456497878348702D+00 0.128909946682939D+02
 0.397899325775129D+02 0.106496243077390D+02 -.778490109946896D+01 -.375395731395354D+02
 0.150546024669908D+02 0.752667432454786D+00 0.149223487017991D+02 -.184338178280137D+01
0.138161979967D-06 0.000000000000D+00 0.000000000000D+00 0.118221607375D-07 0.000000000000D+00  6 22 3 9900012 11 4 21 0 0.24005888D+00 0.46431914D-03 0.19864354D+04 0.19864354D+04 0.19864354D+04 0.12896846D+01  1  2  2  2  6  5        4 0.765484335016D-05 0.100000000000D+01
0.146517363474D-07 0.000000000000D+00 -.265289190978D-09 0.118221607375D-07 0.000000000000D+00  6 22 3 9900012 11 4 21 2 0.24005888D+00 0.46431914D-03 0.19864354D+04 0.19864354D+04 0.19864354D+04 0.12896846D+01  1  2  3  2  6  5        4 0.135021804550D-05 0.100000000000D+01
-.220582643765D-07 0.000000000000D+00 0.000000000000D+00 0.118221607375D-07 0.000000000000D+00  6 22 3 9900012 11 4 21 2 0.24005888D+00 0.46431914D-03 0.19864354D+04 0.19864354D+04 0.19864354D+04 0.12896846D+01  1  2 15  2  6  5        4 -.203276020721D-05 0.100000000000D+01
-.196818534207D-08 0.000000000000D+00 0.000000000000D+00 0.118221607375D-07 0.000000000000D+00  6 22 3 9900012 11 4 21 2 0.24005888D+00 0.46431914D-03 0.19864354D+04 0.19864354D+04 0.19864354D+04 0.12896846D+01  1  2  4  2  6  5        4 -.181376411828D-06 0.100000000000D+01
  </mgrwgt>
  </event>
  <event>
  5     66 0.45592502E-06 0.22645636E+02 0.78161638E-02 0.12789307E+00
       22 -1    0    0    0    0 0.00000000E+00 0.00000000E+00 0.87224453E+02 0.87224453E+02 0.00000000E+00 0.0000E+00 0.9000E+01
        3 -1    0    0  501    0 0.00000000E+00 0.00000000E+00 -.25475811E+02 0.25475811E+02 0.00000000E+00 0.0000E+00 0.9000E+01
  9900012  1    1    2    0    0 -.28320288E+02 0.84136975E+01 0.36434487E+02 0.68558740E+02 0.50000000E+02 0.0000E+00 0.9000E+01
       11  1    1    2    0    0 0.57831866E+01 -.10628176E+02 0.14960947E+02 0.19241448E+02 0.00000000E+00 0.0000E+00 0.9000E+01
        4  1    1    2  501    0 0.22537101E+02 0.22144784E+01 0.10353208E+02 0.24900075E+02 0.00000000E+00 0.0000E+00 0.9000E+01
#aMCatNLO 1  0  0  2  5 0.15468112D+02 0.00000000D+00  -5  6  0 0.00000000D+00 0.00000000D+00 0.00000000D+00 0.00000000D+00 0.00000000D+00
  <mgrwgt>
 0.3482529864D-05    7    2    0
 0.471393004482752D+02 0.000000000000000D+00 0.000000000000000D+00 0.471393004482752D+02
 0.471393004482752D+02 0.000000000000000D+00 0.000000000000000D+00 -.471393004482752D+02
 0.580917401294090D+02 -.283202878781733D+02 0.841369747227501D+01 -.134954088682282D+01
 0.132023391184336D+02 0.578318664964889D+01 -.106281758613560D+02 0.528189248598769D+01
 0.229845216487078D+02 0.225371012285244D+02 0.221447838908101D+01 -.393235159916487D+01
 0.000000000000000D+00 0.000000000000000D+00 0.000000000000000D+00 -.000000000000000D+00
 0.480779046283887D+02 0.000000000000000D+00 0.000000000000000D+00 0.480779046283887D+02
 0.237060027398817D+03 0.000000000000000D+00 0.000000000000000D+00 -.237060027398817D+03
 0.624735166669894D+02 -.371867638154015D+02 0.427359580130558D+01 -.134954088682282D+01
 0.132559539200807D+02 0.383742030866825D+01 -.115367296697283D+02 0.528189248598769D+01
 0.197994752701709D+02 0.193907281417878D+02 0.745314702615974D+00 -.393235159916487D+01
 0.189608986169965D+03 0.139586153649455D+02 0.651781916580675D+01 -.188982122770428D+03
0.808126324880D-08 0.000000000000D+00 0.000000000000D+00 0.106359280735D-08 0.000000000000D+00  6 22 3 9900012 11 4 21 0 0.13419147D-01 0.39193555D-02 0.21539542D+04 0.21539542D+04 0.21539542D+04 0.12852586D+01  1  2  2  1  6  2        3 0.404849356531D-05 0.100000000000D+01
-.182075287839D-10 0.000000000000D+00 -.155170893604D-10 0.106359280735D-08 0.000000000000D+00  6 22 3 9900012 11 4 21 2 0.13419147D-01 0.39193555D-02 0.21539542D+04 0.21539542D+04 0.21539542D+04 0.12852586D+01  1  2  3  1  6  2        3 -.150676753878D-07 0.100000000000D+01
-.113765616553D-08 0.000000000000D+00 0.000000000000D+00 0.106359280735D-08 0.000000000000D+00  6 22 3 9900012 11 4 21 2 0.13419147D-01 0.39193555D-02 0.21539542D+04 0.21539542D+04 0.21539542D+04 0.12852586D+01  1  2 15  1  6  2        3 -.941469543099D-06 0.100000000000D+01
0.189552121967D-06 0.000000000000D+00 0.000000000000D+00 0.106359280735D-08 0.000000000000D+00  6 22 3 9900012 11 4 21 2 0.13419147D-01 0.20102601D-01 0.29935968D+04 0.29935968D+04 0.29935968D+04 0.12677349D+01  1  2 12  1  6  2        3 0.122780458427D-04 0.100000000000D+01
-.185789130943D-06 0.000000000000D+00 -.313776606651D-08 0.106359280735D-08 0.000000000000D+00  6 22 3 9900012 11 4 21 2 0.13419147D-01 0.19909733D-01 0.21539542D+04 0.21539542D+04 0.21539542D+04 0.12852586D+01  1  2  5  1  6  2        3 -.121326711740D-04 0.100000000000D+01
0.378226165750D-07 0.000000000000D+00 0.000000000000D+00 0.106359280735D-08 0.000000000000D+00  6 22 21 9900012 11 4 -3 2 0.13419147D-01 0.20102601D-01 0.29935968D+04 0.29935968D+04 0.29935968D+04 0.12677349D+01  1  2 12  3  6  2        3 0.419465355370D-04 0.100000000000D+01
-.369333168137D-07 0.000000000000D+00 -.622095775521D-09 0.106359280735D-08 0.000000000000D+00  6 22 21 9900012 11 4 -3 2 0.13419147D-01 0.19909733D-01 0.21539542D+04 0.21539542D+04 0.21539542D+04 0.12852586D+01  1  2  5  3  6  2        3 -.417013366881D-04 0.100000000000D+01
  </mgrwgt>
  </event>
  <event>
  5     66 0.45592502E-06 0.51878926E+02 0.78161638E-02 0.11104414E+00
       22 -1    0    0    0    0 0.00000000E+00 0.00000000E+00 0.19131580E+03 0.19131580E+03 0.00000000E+00 0.0000E+00 0.9000E+01
        1 -1    0    0  501    0 -.00000000E+00 -.00000000E+00 -.86785730E+03 0.86785730E+03 0.00000000E+00 0.0000E+00 0.9000E+01
  9900012  1    1    2    0    0 0.11271288E+03 0.16448486E+02 -.62823182E+02 0.13936104E+03 0.50000000E+02 0.0000E+00 0.9000E+01
       11  1    1    2    0    0 -.14412146E+02 -.90192743E+01 0.14939414E+03 0.15035846E+03 0.00000000E+00 0.0000E+00 0.9000E+01
        2  1    1    2  501    0 -.98300736E+02 -.74292113E+01 -.76311245E+03 0.76945360E+03 0.00000000E+00 0.0000E+00 0.9000E+01
#aMCatNLO 1  0  0  5  2 0.40770862D+02 0.00000000D+00  -5  6  0 0.00000000D+00 0.00000000D+00 0.00000000D+00 0.00000000D+00 0.00000000D+00
  <mgrwgt>
 0.1630065656D-03    5    2    0
 0.407473701187286D+03 0.000000000000000D+00 0.000000000000000D+00 0.407473701187286D+03
 0.407473701187286D+03 -.000000000000000D+00 -.000000000000000D+00 -.407473701187286D+03
 0.128971480108014D+03 0.112712882197669D+03 0.164484856349118D+02 0.340425643608755D+02
 0.319440218725684D+03 -.144121464720226D+02 -.901927434204144D+01 0.318987454398954D+03
 0.366535703540874D+03 -.983007357256461D+02 -.742921129287031D+01 -.353030018759830D+03
 0.000000000000000D+00 0.000000000000000D+00 0.000000000000000D+00 -.000000000000000D+00
 0.407473701187286D+03 0.000000000000000D+00 0.000000000000000D+00 0.407473701187286D+03
 0.407473701187286D+03 -.000000000000000D+00 -.000000000000000D+00 -.407473701187286D+03
 0.127392021550249D+03 0.111833003396224D+03 0.163819876023203D+02 0.308826324693444D+02
 0.311783539722356D+03 -.165786030870798D+02 -.918300723611679D+01 0.311207001752185D+03
 0.474962978089762D+02 -.505959435921717D+01 -.380595672364572D+02 -.279601171716557D+02
 0.328275543292991D+03 -.901948059499269D+02 0.308605868702538D+02 -.314129517049874D+03
0.886683735069D-04 0.000000000000D+00 0.000000000000D+00 0.296117710456D-06 0.000000000000D+00  6 22 1 9900012 11 2 21 0 0.29433201D-01 0.13351651D+00 0.14397635D+05 0.14397635D+05 0.14397635D+05 0.11932569D+01  1  2  2  2  6  5        2 0.205086628923D-03 0.100000000000D+01
0.736463297984D-06 0.000000000000D+00 -.170254950593D-06 0.296117710456D-06 0.000000000000D+00  6 22 1 9900012 11 2 21 2 0.29433201D-01 0.13351651D+00 0.14397635D+05 0.14397635D+05 0.14397635D+05 0.11932569D+01  1  2  3  2  6  5        2 0.242542386099D-05 0.100000000000D+01
-.149453447285D-04 0.000000000000D+00 0.000000000000D+00 0.296117710456D-06 0.000000000000D+00  6 22 1 9900012 11 2 21 2 0.29433201D-01 0.13351651D+00 0.14397635D+05 0.14397635D+05 0.14397635D+05 0.11932569D+01  1  2 15  2  6  5        2 -.492200980206D-04 0.100000000000D+01
0.179168570835D-04 0.000000000000D+00 0.000000000000D+00 0.296117710456D-06 0.000000000000D+00  6 22 1 9900012 11 2 21 2 0.29433201D-01 0.13351651D+00 0.19080821D+05 0.19080821D+05 0.19080821D+05 0.11812797D+01  1  2 12  2  6  5        2 0.582473832377D-04 0.100000000000D+01
-.162548586730D-04 0.000000000000D+00 0.000000000000D+00 0.296117710456D-06 0.000000000000D+00  6 22 1 9900012 11 2 21 2 0.29433201D-01 0.13351651D+00 0.14397635D+05 0.14397635D+05 0.14397635D+05 0.11932569D+01  1  2  5  2  6  5        2 -.535327723602D-04 0.100000000000D+01
  </mgrwgt>
  </event>
  <event>
  6     66 -.45592502E-06 0.69821163E+02 0.78161638E-02 0.11806304E+00
       22 -1    0    0    0    0 0.00000000E+00 0.00000000E+00 0.15142568E+03 0.15142568E+03 0.00000000E+00 0.0000E+00 0.9000E+01
        1 -1    0    0  501    0 -.00000000E+00 -.00000000E+00 -.59488310E+03 0.59488310E+03 0.00000000E+00 0.0000E+00 0.9000E+01
  9900012  1    1    2    0    0 -.59668200E+02 0.40444136E+02 0.10069867E+03 0.13355240E+03 0.50000000E+02 0.0000E+00 0.9000E+01
       11  1    1    2    0    0 -.11106846E+02 -.10012385E+02 0.29745028E+02 0.33292290E+02 0.00000000E+00 0.0000E+00 0.9000E+01
        2  1    1    2  502    0 0.53494207E+02 -.14153828E+02 -.44115331E+03 0.44461017E+03 0.00000000E+00 0.0000E+00 0.9000E+01
       21  1    1    2  501  502 0.17280839E+02 -.16277924E+02 -.13274781E+03 0.13485392E+03 0.00000000E+00 0.0000E+00 0.9000E+01
#aMCatNLO 2  0  0  5  2 0.92948921D+01 0.00000000D+00  -5  6  0 0.00000000D+00 0.00000000D+00 0.00000000D+00 0.00000000D+00 0.00000000D+00
  <mgrwgt>
 -.2019850225D-04    2    2    0
 0.300134262947675D+03 0.000000000000000D+00 0.000000000000000D+00 0.300134262947675D+03
 0.300134262947675D+03 -.000000000000000D+00 -.000000000000000D+00 -.300134262947675D+03
 0.240755067736197D+03 -.597461855573849D+02 0.404776687046654D+02 0.224176167975632D+03
 0.634493691827956D+02 -.111273989732421D+02 -.100035475533633D+02 0.616598125048446D+02
 0.296064088976356D+03 0.708735845306271D+02 -.304741211513021D+02 -.285835980480477D+03
 0.000000000000000D+00 0.000000000000000D+00 -.000000000000000D+00 0.000000000000000D+00
 0.300134262947675D+03 0.000000000000000D+00 0.000000000000000D+00 0.300134262947675D+03
 0.300134262947675D+03 -.000000000000000D+00 -.000000000000000D+00 -.300134262947675D+03
 0.240437226165945D+03 -.596681997455274D+02 0.404441364783167D+02 0.223861648099948D+03
 0.633666097955659D+02 -.111068461771927D+02 -.100123848148191D+02 0.615769222623189D+02
 0.226871402503384D+03 0.534942071493104D+02 -.141538275773669D+02 -.220019708754078D+03
 0.695932874304541D+02 0.172808387734098D+02 -.162779240861307D+02 -.654188616081890D+02
-.511631968040D-05 0.000000000000D+00 0.000000000000D+00 0.117656865226D-05 0.000000000000D+00  6 22 1 9900012 11 2 21 2 0.23296258D-01 0.91520477D-01 0.82587908D+04 0.82587908D+04 0.82587908D+04 0.12180410D+01  1  2 13  2  6  5        2 -.429572264665D-04 0.100000000000D+01
0.271062445579D-05 0.000000000000D+00 0.000000000000D+00 0.117656865226D-05 0.374984978775D-07  6 22 1 9900012 11 2 21 2 0.23296258D-01 0.91520477D-01 0.82587908D+04 0.82587908D+04 0.82587908D+04 0.12180410D+01  1  2  1  2  6  5        2 0.227587242171D-04 0.100000000000D+01
  </mgrwgt>
  </event>
  <event>
  5     66 0.45592502E-06 0.21608090E+02 0.78161638E-02 0.12871636E+00
       22 -1    0    0    0    0 0.00000000E+00 0.00000000E+00 0.21923451E+02 0.21923451E+02 0.00000000E+00 0.0000E+00 0.9000E+01
        1 -1    0    0  501    0 -.00000000E+00 -.00000000E+00 -.57001207E+03 0.57001207E+03 0.00000000E+00 0.0000E+00 0.9000E+01
  9900012  1    1    2    0    0 -.20193823E+02 0.16829008E+02 -.17355208E+02 0.59094917E+02 0.50000000E+02 0.0000E+00 0.9000E+01
       11  1    1    2    0    0 0.11066158E+02 0.27565803E+01 -.39014237E+02 0.40646885E+02 0.00000000E+00 0.0000E+00 0.9000E+01
        2  1    1    2  501    0 0.91276651E+01 -.19585588E+02 -.49171917E+03 0.49219372E+03 0.00000000E+00 0.0000E+00 0.9000E+01
#aMCatNLO 1  0  0  5  5 0.14961673D+02 0.00000000D+00  -5  6  0 0.00000000D+00 0.00000000D+00 0.00000000D+00 0.00000000D+00 0.00000000D+00
  <mgrwgt>
 0.7841196927D-05    6    2    0
 0.111788332863699D+03 0.000000000000000D+00 0.000000000000000D+00 0.111788332863699D+03
 0.111788332863699D+03 -.000000000000000D+00 -.000000000000000D+00 -.111788332863699D+03
 0.113912551722097D+03 -.201938232787847D+02 0.168290080931341D+02 0.989194795165533D+02
 0.119738607788738D+02 0.110661581553560D+02 0.275658034108040D+01 -.364893826416261D+01
 0.976902532264267D+02 0.912766512342870D+01 -.195855884342145D+02 -.952705412523907D+02
 0.000000000000000D+00 0.000000000000000D+00 0.000000000000000D+00 -.000000000000000D+00
 0.111788332863699D+03 0.000000000000000D+00 0.000000000000000D+00 0.111788332863699D+03
 0.111788332863699D+03 -.000000000000000D+00 -.000000000000000D+00 -.111788332863699D+03
 0.110496992805265D+03 -.198350613340972D+02 0.160591985416780D+02 0.951748806307540D+02
 0.121191604866614D+02 0.111046754973025D+02 0.267393217238193D+01 -.405096528478901D+01
 0.819110750001940D+02 0.207034415615600D+02 -.110027817095470D+02 -.784839506513690D+02
 0.190494374352773D+02 -.119730557247653D+02 -.773034900451289D+01 -.126399646945960D+02
0.716264273911D-07 0.000000000000D+00 0.000000000000D+00 0.493787584841D-05 0.000000000000D+00  6 22 1 9900012 11 2 21 0 0.33728385D-02 0.87694164D-01 0.20026253D+04 0.20026253D+04 0.20026253D+04 0.12892387D+01  1  2  2  2  6  5        2 0.597179154454D-05 0.100000000000D+01
0.587042717399D-08 0.000000000000D+00 -.137532170427D-09 0.493787584841D-05 0.000000000000D+00  6 22 1 9900012 11 2 21 2 0.33728385D-02 0.87694164D-01 0.20026253D+04 0.20026253D+04 0.20026253D+04 0.12892387D+01  1  2  3  2  6  5        2 0.813519022476D-06 0.100000000000D+01
-.104407091306D-07 0.000000000000D+00 0.000000000000D+00 0.493787584841D-05 0.000000000000D+00  6 22 1 9900012 11 2 21 2 0.33728385D-02 0.87694164D-01 0.20026253D+04 0.20026253D+04 0.20026253D+04 0.12892387D+01  1  2 15  2  6  5        2 -.144686497833D-05 0.100000000000D+01
-.357303077631D-08 0.000000000000D+00 0.000000000000D+00 0.493787584841D-05 0.000000000000D+00  6 22 1 9900012 11 2 21 2 0.33728385D-02 0.87694164D-01 0.20026253D+04 0.20026253D+04 0.20026253D+04 0.12892387D+01  1  2  4  2  6  5        2 -.495147698501D-06 0.100000000000D+01
-.101291958700D-06 0.000000000000D+00 0.000000000000D+00 0.493787584841D-05 0.000000000000D+00  6 22 1 9900012 11 2 21 2 0.33728385D-02 0.87694164D-01 0.20026253D+04 0.20026253D+04 0.20026253D+04 0.12892387D+01  1  2  5  2  6  5        2 -.140369572408D-04 0.100000000000D+01
0.122925070506D-06 0.000000000000D+00 -.000000000000D+00 0.493787584841D-05 0.000000000000D+00  6 22 1 9900012 11 2 21 2 0.33728385D-02 0.87694164D-01 0.20026253D+04 0.20026253D+04 0.20026253D+04 0.12892387D+01  1  2  6  2  6  5        2 0.170348562774D-04 0.100000000000D+01
  </mgrwgt>
  </event>
  <event>
  5     66 0.45592502E-06 0.11987190E+03 0.78161638E-02 0.92352495E-01
       22 -1    0    0    0    0 0.00000000E+00 0.00000000E+00 0.21082653E+04 0.21082653E+04 0.00000000E+00 0.0000E+00 0.9000E+01
        3 -1    0    0  501    0 0.00000000E+00 0.00000000E+00 -.66261874E+02 0.66261874E+02 0.00000000E+00 0.0000E+00 0.9000E+01
  9900012  1    1    2    0    0 -.13620319E+03 0.40219949E+02 0.34774851E+03 0.37894324E+03 0.50000000E+02 0.0000E+00 0.9000E+01
       11  1    1    2    0    0 0.24921793E+02 0.43415206E+01 0.16737858E+04 0.16739770E+04 0.00000000E+00 0.0000E+00 0.9000E+01
        4  1    1    2  501    0 0.11128139E+03 -.44561470E+02 0.20469120E+02 0.12160698E+03 0.00000000E+00 0.0000E+00 0.9000E+01
#aMCatNLO 1  0  0  2  5 0.12973977D+03 0.00000000D+00  -5  6  0 0.00000000D+00 0.00000000D+00 0.00000000D+00 0.00000000D+00 0.00000000D+00
  <mgrwgt>
 0.9805444672D-05    5    2    0
 0.373761435235643D+03 0.000000000000000D+00 0.000000000000000D+00 0.373761435235643D+03
 0.373761435235643D+03 0.000000000000000D+00 0.000000000000000D+00 -.373761435235643D+03
 0.152394967281411D+03 -.136203187399217D+03 0.402199491543913D+02 -.235642416600702D+02
 0.297291295528956D+03 0.249217933149566D+02 0.434152060465419D+01 0.296213048014585D+03
 0.297836607660920D+03 0.111281394084261D+03 -.445614697590455D+02 -.272648806354515D+03
 0.000000000000000D+00 0.000000000000000D+00 -.000000000000000D+00 -.000000000000000D+00
 0.555853867019820D+03 0.000000000000000D+00 0.000000000000000D+00 0.555853867019820D+03
 0.125135100164500D+04 0.000000000000000D+00 0.000000000000000D+00 -.125135100164500D+04
 0.243904637790620D+03 -.171763447954446D+03 0.164108247195439D+03 -.235642416600702D+02
 0.365658990437042D+03 -.345652326684021D+02 0.211588213669678D+03 0.296213048014585D+03
 0.314809604952048D+03 0.563081903014008D+02 0.146959530036347D+03 -.272648806354515D+03
 0.882831635485110D+03 0.150020490321448D+03 -.522655990901464D+03 -.695497134625180D+03
0.319715336443D-04 0.000000000000D+00 0.000000000000D+00 0.322314824555D-07 0.000000000000D+00  6 22 3 9900012 11 4 21 0 0.32434851D+00 0.10194134D-01 0.21864228D+05 0.21864228D+05 0.21864228D+05 0.11756222D+01  1  2  2  1  6  2        3 0.996201998245D-05 0.100000000000D+01
-.188517620081D-06 0.000000000000D+00 -.613895537461D-07 0.322314824555D-07 0.000000000000D+00  6 22 3 9900012 11 4 21 2 0.32434851D+00 0.10194134D-01 0.21864228D+05 0.21864228D+05 0.21864228D+05 0.11756222D+01  1  2  3  1  6  2        3 -.811841808922D-07 0.100000000000D+01
-.509792210672D-05 0.000000000000D+00 0.000000000000D+00 0.322314824555D-07 0.000000000000D+00  6 22 3 9900012 11 4 21 2 0.32434851D+00 0.10194134D-01 0.21864228D+05 0.21864228D+05 0.21864228D+05 0.11756222D+01  1  2 15  1  6  2        3 -.219539494668D-05 0.100000000000D+01
0.273345907928D-04 0.000000000000D+00 -.129495987578D-04 0.322314824555D-07 0.000000000000D+00  6 22 3 9900012 11 4 21 2 0.32434851D+00 0.55531341D-01 0.21864228D+05 0.21864228D+05 0.21864228D+05 0.11756222D+01  1  2  5  1  6  2        3 0.562244015978D-06 0.100000000000D+01
0.508700981863D-05 0.000000000000D+00 -.268573480213D-05 0.322314824555D-07 0.000000000000D+00  6 22 21 9900012 11 4 -3 2 0.32434851D+00 0.55531341D-01 0.21864228D+05 0.21864228D+05 0.21864228D+05 0.11756222D+01  1  2  5  3  6  2        3 0.155775980120D-05 0.100000000000D+01
  </mgrwgt>
  </event>
</LesHouchesEvents>
