<LesHouchesEvents version="3.0">
  <!--
  <scalesfunctionalform>
    muR  H_T/2 := sum_i mT(i)/2, i=final state
    muF1 H_T/2 := sum_i mT(i)/2, i=final state
    muF2 H_T/2 := sum_i mT(i)/2, i=final state
    QES  H_T/2 := sum_i mT(i)/2, i=final state
  </scalesfunctionalform>
PYTHIA8   
  -->
  <header>
      110
  </header>
  <init>
   2212   2212 0.65000000D+04 0.65000000D+04 -1 -1  82200  82200 -4   1
 0.97498490D-04 0.29810919D-06 0.17293500D-05     66
  </init>
  <event>
  6     66 0.17293500E-05 0.37817672E+02 0.78161638E-02 0.11226359E+00
       22 -1    0    0    0    0 0.00000000E+00 0.00000000E+00 0.19973062E+04 0.19973062E+04 0.00000000E+00 0.0000E+00 0.9000E+01
        2 -1    0    0  501    0 0.00000000E+00 0.00000000E+00 -.13654810E+02 0.13654810E+02 0.00000000E+00 0.0000E+00 0.9000E+01
       24  2    1    2    0    0 -.30084156E+02 0.22915493E+02 0.19680994E+04 0.19700704E+04 0.79573909E+02 0.0000E+00 0.0000E+00
  9900012  1    3    3    0    0 -.10540231E+02 0.31207682E+02 0.17271438E+04 0.17281814E+04 0.50000000E+02 0.0000E+00 0.9000E+01
      -13  1    3    3    0    0 -.19543925E+02 -.82921892E+01 0.24095554E+03 0.24188902E+03 0.00000000E+00 0.0000E+00 0.9000E+01
        1  1    1    2  501    0 0.30084156E+02 -.22915493E+02 0.15551985E+02 0.40890592E+02 0.00000000E+00 0.0000E+00 0.9000E+01
#aMCatNLO 1  0  0  5  2 0.65089025D+01 0.00000000D+00  -5  6  0 0.00000000D+00 0.00000000D+00 0.00000000D+00 0.00000000D+00 0.00000000D+00
  <mgrwgt>
 0.2465596037D-03    3    2    0
 0.165144895192404D+03 0.000000000000000D+00 0.000000000000000D+00 0.165144895192404D+03
 0.165144895192404D+03 -.000000000000000D+00 -.000000000000000D+00 -.165144895192404D+03
 0.149123839023866D+03 -.105402312942283D+02 0.312076824247817D+02 0.136575632699080D+03
 0.256065886223368D+02 -.195439249397400D+02 -.829218920108316D+01 0.143168424269052D+02
 0.155559362738606D+03 0.300841562339683D+02 -.229154932236985D+02 -.150892475125985D+03
 0.000000000000000D+00 0.000000000000000D+00 0.000000000000000D+00 0.000000000000000D+00
 0.165144895192404D+03 0.000000000000000D+00 0.000000000000000D+00 0.165144895192404D+03
 0.165144895192404D+03 -.000000000000000D+00 -.000000000000000D+00 -.165144895192404D+03
 0.103761592263489D+03 -.805264189587872D+00 0.237924313210318D+02 0.877481611800130D+02
 0.209023277501317D+02 -.177535380097631D+02 -.965595022009288D+01 0.533683603429137D+01
 0.873310027164503D+02 -.753432606343044D+02 -.365846276962777D+02 -.247318039935764D+02
 0.118294867654737D+03 0.939020628336553D+02 0.224481465953388D+02 -.683531932207280D+02
0.711910642766D-04 0.000000000000D+00 0.000000000000D+00 0.148769117168D-04 0.000000000000D+00  6 22 2 9900012 -13 1 21 0 0.30727787D+00 0.21007400D-02 0.35356681D+04 0.35356681D+04 0.35356681D+04 0.12591524D+01  1  2  2  2  6  5        1 0.304375163261D-03 0.100000000000D+01
0.360877811994D-05 0.000000000000D+00 -.136696215930D-06 0.148769117168D-04 0.000000000000D+00  6 22 2 9900012 -13 1 21 2 0.30727787D+00 0.21007400D-02 0.35356681D+04 0.35356681D+04 0.35356681D+04 0.12591524D+01  1  2  3  2  6  5        1 0.244624797502D-04 0.100000000000D+01
-.121379022575D-04 0.000000000000D+00 0.000000000000D+00 0.148769117168D-04 0.000000000000D+00  6 22 2 9900012 -13 1 21 2 0.30727787D+00 0.21007400D-02 0.35356681D+04 0.35356681D+04 0.35356681D+04 0.12591524D+01  1  2 15  2  6  5        1 -.822780393572D-04 0.100000000000D+01
  </mgrwgt>
  </event>
  <event>
  7     66 -.17293500E-05 0.12638861E+03 0.78161638E-02 0.10876241E+00
       22 -1    0    0    0    0 0.00000000E+00 0.00000000E+00 0.11230501E+04 0.11230501E+04 0.00000000E+00 0.0000E+00 0.9000E+01
        2 -1    0    0  502    0 0.00000000E+00 0.00000000E+00 -.85195046E+02 0.85195046E+02 0.00000000E+00 0.0000E+00 0.9000E+01
       24  2    1    2    0    0 0.57504746E+02 -.87885833E+02 0.10062365E+04 0.10146844E+04 0.77729977E+02 0.0000E+00 0.0000E+00
  9900012  1    3    3    0    0 0.61371871E+02 -.93724288E+02 0.97401434E+03 0.98171008E+03 0.50000000E+02 0.0000E+00 0.9000E+01
      -13  1    3    3    0    0 -.38671248E+01 0.58384550E+01 0.32222123E+02 0.32974345E+02 0.00000000E+00 0.0000E+00 0.9000E+01
        1  1    1    2  501    0 -.83216022E+02 0.12216250E+03 0.29015545E+02 0.15063361E+03 0.00000000E+00 0.0000E+00 0.9000E+01
       21  1    1    2  502  501 0.25711276E+02 -.34276666E+02 0.26030293E+01 0.42927093E+02 0.00000000E+00 0.0000E+00 0.9000E+01
#aMCatNLO 2  0  0  2  5 0.44645465D+02 0.00000000D+00  -5  6  0 0.00000000D+00 0.00000000D+00 0.00000000D+00 0.00000000D+00 0.00000000D+00
  <mgrwgt>
 -.8935073090D-04    2    2    0
 0.266638071341653D+03 0.000000000000000D+00 0.000000000000000D+00 0.266638071341653D+03
 0.266638071341653D+03 0.000000000000000D+00 0.000000000000000D+00 -.266638071341653D+03
 0.263361991638512D+03 0.738132533088851D+02 -.110310361266377D+03 0.221907112263315D+03
 0.894101466703741D+01 -.342395315440523D+01 0.524764618624382D+01 0.637812649424714D+01
 0.260973136377757D+03 -.703893001544799D+02 0.105062715080133D+03 -.228285238757562D+03
 0.000000000000000D+00 0.000000000000000D+00 -.000000000000000D+00 -.000000000000000D+00
 0.273031945769126D+03 0.000000000000000D+00 0.000000000000000D+00 0.273031945769126D+03
 0.350428967971383D+03 0.000000000000000D+00 0.000000000000000D+00 -.350428967971383D+03
 0.253561659658663D+03 0.613718712855141D+02 -.937242881580160D+02 0.221907112263315D+03
 0.947220717606104D+01 -.386712484263461D+01 0.583845498921446D+01 0.637812649424714D+01
 0.271960903141516D+03 -.832160221709307D+02 0.122162499389129D+03 -.228285238757562D+03
 0.884661437642694D+02 0.257112757280512D+02 -.342766662203278D+02 -.773970222022575D+02
-.368559609233D-04 0.000000000000D+00 0.000000000000D+00 0.359721264166D-05 0.000000000000D+00  6 22 2 9900012 -13 1 21 2 0.16873084D+00 0.13421229D-01 0.25655272D+05 0.25655272D+05 0.25655272D+05 0.11690803D+01  1  2 13  1  6  2        2 -.117319865737D-03 0.100000000000D+01
0.902289470548D-05 0.000000000000D+00 0.000000000000D+00 0.359721264166D-05 0.353633371549D-08  6 22 2 9900012 -13 1 21 2 0.17277694D+00 0.13106930D-01 0.25655272D+05 0.25655272D+05 0.25655272D+05 0.11690803D+01  1  2  1  1  6  2        2 0.279691348331D-04 0.100000000000D+01
  </mgrwgt>
  </event>
  <event>
  6     66 0.17293500E-05 0.14502622E+03 0.78161638E-02 0.87834664E-01
       22 -1    0    0    0    0 0.00000000E+00 0.00000000E+00 0.15855767E+04 0.15855767E+04 0.00000000E+00 0.0000E+00 0.9000E+01
        2 -1    0    0  501    0 0.00000000E+00 0.00000000E+00 -.49697183E+03 0.49697183E+03 0.00000000E+00 0.0000E+00 0.9000E+01
       24  2    1    2    0    0 -.83030802E+02 0.11890539E+03 0.15705563E+04 0.15792496E+04 0.79685150E+02 0.0000E+00 0.0000E+00
  9900012  1    3    3    0    0 -.89708919E+02 0.94635759E+02 0.13768862E+04 0.13839506E+04 0.50000000E+02 0.0000E+00 0.9000E+01
      -13  1    3    3    0    0 0.66781171E+01 0.24269627E+02 0.19367007E+03 0.19529902E+03 0.00000000E+00 0.0000E+00 0.9000E+01
        1  1    1    2  501    0 0.83030802E+02 -.11890539E+03 -.48195142E+03 0.50329890E+03 0.00000000E+00 0.0000E+00 0.9000E+01
#aMCatNLO 1  0  0  2  2 0.38359137D+03 0.00000000D+00  -5  6  0 0.00000000D+00 0.00000000D+00 0.00000000D+00 0.00000000D+00 0.00000000D+00
  <mgrwgt>
 0.4107124485D-03    5    2    0
 0.887686291362642D+03 0.000000000000000D+00 0.000000000000000D+00 0.887686291362642D+03
 0.887686291362642D+03 0.000000000000000D+00 0.000000000000000D+00 -.887686291362642D+03
 0.779137441788244D+03 -.897089194792710D+02 0.946357586655648D+02 0.766519103574063D+03
 0.110337128600936D+03 0.667811706359765D+01 0.242696270867117D+02 0.107427509984438D+03
 0.885898012336104D+03 0.830308024156733D+02 -.118905385752276D+03 -.873946613558500D+03
 0.000000000000000D+00 0.000000000000000D+00 -.000000000000000D+00 -.000000000000000D+00
 0.124727377428364D+04 0.000000000000000D+00 0.000000000000000D+00 0.124727377428364D+04
 0.176724091061064D+04 0.000000000000000D+00 0.000000000000000D+00 -.176724091061064D+04
 0.929664307357916D+03 -.468709943629232D+03 0.233527679246745D+03 0.766519103574063D+03
 0.124419215356036D+03 -.453893008389473D+02 0.433506933936090D+02 0.107427509984438D+03
 0.931125046687256D+03 -.319972998708740D+03 0.287827954742164D+02 -.873946613558500D+03
 0.102930611549307D+04 0.834072243176919D+03 -.305661168114571D+03 -.519967136326993D+03
0.285204210376D-02 0.000000000000D+00 0.000000000000D+00 0.115943766307D-02 0.000000000000D+00  6 22 2 9900012 -13 1 21 0 0.24393488D+00 0.76457205D-01 0.24002255D+05 0.24002255D+05 0.24002255D+05 0.11717923D+01  1  2  2  1  6  2        2 0.369479751195D-03 0.100000000000D+01
0.319948765047D-04 0.000000000000D+00 -.547629631919D-05 0.115943766307D-02 0.000000000000D+00  6 22 2 9900012 -13 1 21 2 0.24393488D+00 0.76457205D-01 0.24002255D+05 0.24002255D+05 0.24002255D+05 0.11717923D+01  1  2  3  1  6  2        2 0.569136509382D-05 0.100000000000D+01
-.547003946664D-03 0.000000000000D+00 0.000000000000D+00 0.115943766307D-02 0.000000000000D+00  6 22 2 9900012 -13 1 21 2 0.24393488D+00 0.76457205D-01 0.24002255D+05 0.24002255D+05 0.24002255D+05 0.11717923D+01  1  2 15  1  6  2        2 -.973030531237D-04 0.100000000000D+01
0.228200552487D-02 0.000000000000D+00 -.788196024194D-03 0.115943766307D-02 0.000000000000D+00  6 22 2 9900012 -13 1 21 2 0.24393488D+00 0.19662046D+00 0.24002255D+05 0.24002255D+05 0.24002255D+05 0.11717923D+01  1  2  5  1  6  2        2 0.124579182366D-03 0.100000000000D+01
0.286237698532D-03 0.000000000000D+00 -.823322124277D-04 0.115943766307D-02 0.000000000000D+00  6 22 21 9900012 -13 1 -2 2 0.24393488D+00 0.19662046D+00 0.24002255D+05 0.24002255D+05 0.24002255D+05 0.11717923D+01  1  2  5  3  6  2        2 0.826520300218D-05 0.100000000000D+01
  </mgrwgt>
  </event>
  <event>
  6     66 -.17293500E-05 0.60880507E+02 0.78161638E-02 0.11827005E+00
       22 -1    0    0    0    0 0.00000000E+00 0.00000000E+00 0.40206947E+02 0.40206947E+02 0.00000000E+00 0.0000E+00 0.9000E+01
        2 -1    0    0  501    0 0.00000000E+00 0.00000000E+00 -.34799614E+04 0.34799614E+04 0.00000000E+00 0.0000E+00 0.9000E+01
       24  2    1    2    0    0 0.27655744E+02 -.76663507E+02 -.42726991E+02 0.12216339E+03 0.80350258E+02 0.0000E+00 0.0000E+00
  9900012  1    3    3    0    0 0.28586394E+02 -.69279272E+02 -.56616167E+02 0.10640578E+03 0.50000000E+02 0.0000E+00 0.9000E+01
      -13  1    3    3    0    0 -.93065017E+00 -.73842344E+01 0.13889175E+02 0.15757608E+02 0.00000000E+00 0.0000E+00 0.9000E+01
        1  1    1    2  501    0 -.27655744E+02 0.76663507E+02 -.33970275E+04 0.33980050E+04 0.00000000E+00 0.0000E+00 0.9000E+01
#aMCatNLO 1  0  0  2  5 0.65509488D+00 0.00000000D+00  -5  6  0 0.00000000D+00 0.00000000D+00 0.00000000D+00 0.00000000D+00 0.00000000D+00
  <mgrwgt>
 -.5355331578D-03   11    2    0
 0.374056982204743D+03 0.000000000000000D+00 0.000000000000000D+00 0.374056982204743D+03
 0.374056982204743D+03 0.000000000000000D+00 0.000000000000000D+00 -.374056982204743D+03
 0.240365177915842D+03 0.285863938101431D+02 -.692792722958839D+02 0.222842139806632D+03
 0.138006764498224D+03 -.930650166734122D+00 -.738423444135206D+01 0.137805928824745D+03
 0.369742021995420D+03 -.276557436434090D+02 0.766635067372359D+02 -.360648068631376D+03
 0.000000000000000D+00 -.000000000000000D+00 0.000000000000000D+00 -.000000000000000D+00
 0.374070699867799D+03 0.000000000000000D+00 0.000000000000000D+00 0.374070699867799D+03
 0.381946855849007D+03 0.000000000000000D+00 0.000000000000000D+00 -.381946855849007D+03
 0.240426641467135D+03 0.285930354842135D+02 -.694894882364681D+02 0.222842139806632D+03
 0.138013248802437D+03 -.926837217155231D+00 -.750491828907335D+01 0.137805928824745D+03
 0.369674360457679D+03 -.276455293210837D+02 0.763402127375165D+02 -.360648068631376D+03
 0.790330498955515D+01 -.206689459746361D-01 0.654193788024960D+00 -.787615598120741D+01
0.306339771476D-05 0.000000000000D+00 0.000000000000D+00 0.142187044706D-03 0.000000000000D+00  6 22 2 9900012 -13 1 21 0 0.61856842D-02 0.53537868D+00 0.80134022D+04 0.80134022D+04 0.80134022D+04 0.12194331D+01  1  2  2  1  6  2        2 0.414838890335D-05 0.100000000000D+01
0.383391736191D-07 0.000000000000D+00 -.588212691791D-08 0.142187044706D-03 0.000000000000D+00  6 22 2 9900012 -13 1 21 2 0.61856842D-02 0.53537868D+00 0.80134022D+04 0.80134022D+04 0.80134022D+04 0.12194331D+01  1  2  3  1  6  2        2 0.772031125044D-07 0.100000000000D+01
-.518698439448D-06 0.000000000000D+00 0.000000000000D+00 0.142187044706D-03 0.000000000000D+00  6 22 2 9900012 -13 1 21 2 0.61856842D-02 0.53537868D+00 0.80134022D+04 0.80134022D+04 0.80134022D+04 0.12194331D+01  1  2 15  1  6  2        2 -.104449653439D-05 0.100000000000D+01
0.117359206722D-10 0.000000000000D+00 0.000000000000D+00 0.142187044706D-03 0.000000000000D+00  6 22 2 9900012 -13 1 21 2 0.61856842D-02 0.54669132D+00 0.80699102D+04 0.80699102D+04 0.80699102D+04 0.12191084D+01  1  2 12  1  6  2        2 0.209956730900D-10 0.100000000000D+01
-.477306125548D-02 0.000000000000D+00 0.000000000000D+00 0.142187044706D-03 0.000000000000D+00  6 22 2 9900012 -13 1 21 2 0.61856842D-02 0.53537868D+00 0.80134022D+04 0.80134022D+04 0.80134022D+04 0.12194331D+01  1  2  4  1  6  2        2 -.961145351640D-02 0.100000000000D+01
-.246228831773D-02 0.000000000000D+00 -.851118853417D-05 0.142187044706D-03 0.000000000000D+00  6 22 2 9900012 -13 1 21 2 0.61856842D-02 0.54667577D+00 0.80134022D+04 0.80134022D+04 0.80134022D+04 0.12194331D+01  1  2  5  1  6  2        2 -.440873063682D-02 0.100000000000D+01
0.246979186855D-02 0.000000000000D+00 0.853710752898D-05 0.142187044706D-03 0.000000000000D+00  6 22 2 9900012 -13 1 21 2 0.61856842D-02 0.53537868D+00 0.80134022D+04 0.80134022D+04 0.80134022D+04 0.12194331D+01  1  2  6  1  6  2        2 0.497338887333D-02 0.100000000000D+01
0.475499505101D-02 0.000000000000D+00 0.000000000000D+00 0.142187044706D-03 0.616173162151D-02  6 22 2 9900012 -13 1 21 2 0.61859110D-02 0.54667127D+00 0.80699102D+04 0.80699102D+04 0.80699102D+04 0.12191084D+01  1  2 11  1  6  2        2 0.850809113393D-02 0.100000000000D+01
0.699749443332D-12 0.000000000000D+00 0.000000000000D+00 0.142187044706D-03 0.000000000000D+00  6 22 21 9900012 -13 1 -2 2 0.61856842D-02 0.54669132D+00 0.80699102D+04 0.80699102D+04 0.80699102D+04 0.12191084D+01  1  2 12  3  6  2        2 0.118978232260D-12 0.100000000000D+01
-.934423270172D-05 0.000000000000D+00 -.323041206603D-07 0.142187044706D-03 0.000000000000D+00  6 22 21 9900012 -13 1 -2 2 0.61856842D-02 0.54667577D+00 0.80134022D+04 0.80134022D+04 0.80134022D+04 0.12194331D+01  1  2  5  3  6  2        2 -.159119393418D-05 0.100000000000D+01
0.929662326701D-05 0.000000000000D+00 0.000000000000D+00 0.142187044706D-03 0.100650311701D-04  6 22 21 9900012 -13 1 -2 2 0.61859110D-02 0.54667127D+00 0.80699102D+04 0.80699102D+04 0.80699102D+04 0.12191084D+01  1  2 11  3  6  2        2 0.158106552160D-05 0.100000000000D+01
  </mgrwgt>
  </event>
  <event>
  6     66 0.17293500E-05 0.39261975E+02 0.78161638E-02 0.12139168E+00
       22 -1    0    0    0    0 0.00000000E+00 0.00000000E+00 0.13476883E+03 0.13476883E+03 0.00000000E+00 0.0000E+00 0.9000E+01
        2 -1    0    0  501    0 -.00000000E+00 -.00000000E+00 -.21851947E+03 0.21851947E+03 0.00000000E+00 0.0000E+00 0.9000E+01
       24  2    1    2    0    0 -.70608028E+01 0.57929398E+02 0.11126428E+03 0.14972875E+03 0.81445002E+02 0.0000E+00 0.0000E+00
  9900012  1    3    3    0    0 -.17008610E+02 0.45016438E+02 0.47951171E+02 0.84350977E+02 0.50000000E+02 0.0000E+00 0.9000E+01
      -13  1    3    3    0    0 0.99478072E+01 0.12912961E+02 0.63313110E+02 0.65377774E+02 0.00000000E+00 0.0000E+00 0.9000E+01
        1  1    1    2  501    0 0.70608028E+01 -.57929398E+02 -.19501492E+03 0.20355955E+03 0.00000000E+00 0.0000E+00 0.9000E+01
#aMCatNLO 1  0  0  5  2 0.21935253D+02 0.00000000D+00  -5  6  0 0.00000000D+00 0.00000000D+00 0.00000000D+00 0.00000000D+00 0.00000000D+00
  <mgrwgt>
 0.2521727761D-03    7    2    0
 0.171608895117055D+03 0.000000000000000D+00 0.000000000000000D+00 0.171608895117055D+03
 0.171608895117055D+03 -.000000000000000D+00 -.000000000000000D+00 -.171608895117055D+03
 0.985268106290267D+02 -.170086099586606D+02 0.450164375678106D+02 0.699411177255958D+02
 0.827454651994427D+02 0.994780718674500D+01 0.129129609276463D+02 0.811240320948645D+02
 0.161945514405640D+03 0.706080277191559D+01 -.579293984954570D+02 -.151065149820460D+03
 0.000000000000000D+00 0.000000000000000D+00 0.000000000000000D+00 -.000000000000000D+00
 0.171608895117055D+03 0.000000000000000D+00 0.000000000000000D+00 0.171608895117055D+03
 0.171608895117055D+03 -.000000000000000D+00 -.000000000000000D+00 -.171608895117055D+03
 0.967975805666390D+02 -.169177567005238D+02 0.442710443363004D+02 0.679973216027674D+02
 0.810601737774595D+02 0.100239998010474D+02 0.122878489596573D+02 0.794938989405173D+02
 0.117647207902006D+03 0.702896473810108D+01 -.615151740816259D+02 -.100036705961140D+03
 0.477128279880056D+02 -.135207838624651D+00 0.495628078566823D+01 -.474545145821449D+02
0.211648606682D-05 0.000000000000D+00 0.000000000000D+00 0.439229145119D-05 0.000000000000D+00  6 22 2 9900012 -13 1 21 0 0.20733666D-01 0.33618380D-01 0.51879102D+04 0.51879102D+04 0.51879102D+04 0.12400455D+01  1  2  2  2  6  5        1 0.645950307154D-04 0.100000000000D+01
0.367555542348D-07 0.000000000000D+00 -.406393189009D-08 0.439229145119D-05 0.000000000000D+00  6 22 2 9900012 -13 1 21 2 0.20733666D-01 0.33618380D-01 0.51879102D+04 0.51879102D+04 0.51879102D+04 0.12400455D+01  1  2  3  2  6  5        1 0.172497144302D-05 0.100000000000D+01
-.356537729201D-06 0.000000000000D+00 0.000000000000D+00 0.439229145119D-05 0.000000000000D+00  6 22 2 9900012 -13 1 21 2 0.20733666D-01 0.33618380D-01 0.51879102D+04 0.51879102D+04 0.51879102D+04 0.12400455D+01  1  2 15  2  6  5        1 -.167326384824D-04 0.100000000000D+01
0.376341749631D-05 0.000000000000D+00 0.000000000000D+00 0.439229145119D-05 0.000000000000D+00  6 22 2 9900012 -13 1 21 2 0.20733666D-01 0.33618380D-01 0.57474322D+04 0.57474322D+04 0.57474322D+04 0.12350922D+01  1  2 12  2  6  5        1 0.176508049576D-03 0.100000000000D+01
-.732544564236D-06 0.000000000000D+00 0.000000000000D+00 0.439229145119D-05 0.000000000000D+00  6 22 2 9900012 -13 1 21 2 0.20733666D-01 0.33618380D-01 0.51879102D+04 0.51879102D+04 0.51879102D+04 0.12400455D+01  1  2  4  2  6  5        1 -.343789797312D-04 0.100000000000D+01
-.383954375552D-05 0.000000000000D+00 0.000000000000D+00 0.439229145119D-05 0.000000000000D+00  6 22 2 9900012 -13 1 21 2 0.20733666D-01 0.33618380D-01 0.51879102D+04 0.51879102D+04 0.51879102D+04 0.12400455D+01  1  2  5  2  6  5        1 -.180193265219D-03 0.100000000000D+01
0.512774269261D-05 0.000000000000D+00 -.000000000000D+00 0.439229145119D-05 0.000000000000D+00  6 22 2 9900012 -13 1 21 2 0.20733666D-01 0.33618380D-01 0.51879102D+04 0.51879102D+04 0.51879102D+04 0.12400455D+01  1  2  6  2  6  5        1 0.240649607823D-03 0.100000000000D+01
  </mgrwgt>
  </event>
  <event>
  7     66 -.17293500E-05 0.19598339E+02 0.78161638E-02 0.12250926E+00
       22 -1    0    0    0    0 0.00000000E+00 0.00000000E+00 0.11308761E+04 0.11308761E+04 0.00000000E+00 0.0000E+00 0.9000E+01
        4 -1    0    0  502    0 0.00000000E+00 0.00000000E+00 -.32923596E+02 0.32923596E+02 0.00000000E+00 0.0000E+00 0.9000E+01
       24  2    1    2    0    0 -.49105419E+02 0.11277310E+02 0.10922475E+04 0.10961838E+04 0.77947817E+02 0.0000E+00 0.0000E+00
  9900012  1    3    3    0    0 -.16045731E+02 0.22877204E+02 0.73142697E+03 0.73366630E+03 0.50000000E+02 0.0000E+00 0.9000E+01
      -13  1    3    3    0    0 -.33059688E+02 -.11599893E+02 0.36082053E+03 0.36251753E+03 0.00000000E+00 0.0000E+00 0.9000E+01
        3  1    1    2  501    0 0.20627571E+02 -.19732166E+01 -.19507610E+02 0.28459394E+02 0.00000000E+00 0.0000E+00 0.9000E+01
       21  1    1    2  502  501 0.28477849E+02 -.93040936E+01 0.25212629E+02 0.39156490E+02 0.00000000E+00 0.0000E+00 0.9000E+01
#aMCatNLO 2  0  0  2  5 0.31908961D+02 0.00000000D+00  -5  6  0 0.00000000D+00 0.00000000D+00 0.00000000D+00 0.00000000D+00 0.00000000D+00
  <mgrwgt>
 -.3388195506D-04    2    2    0
 0.168191818374900D+03 0.000000000000000D+00 0.000000000000000D+00 0.168191818374900D+03
 0.168191818374900D+03 0.000000000000000D+00 0.000000000000000D+00 -.168191818374900D+03
 0.118353402509363D+03 -.598178622172002D+01 0.195891782442156D+02 0.105299621152487D+03
 0.588695658534825D+02 -.279912376230716D+02 -.132558237080337D+02 0.500639544775259D+02
 0.159160668386955D+03 0.339730238447916D+02 -.633335453618193D+01 -.155363575630013D+03
 0.000000000000000D+00 0.000000000000000D+00 -.000000000000000D+00 -.000000000000000D+00
 0.173803996965823D+03 0.000000000000000D+00 0.000000000000000D+00 0.173803996965823D+03
 0.214221245461941D+03 0.000000000000000D+00 0.000000000000000D+00 -.214221245461941D+03
 0.119870105351212D+03 -.160457314478307D+02 0.228772035956640D+02 0.105299621152487D+03
 0.611056463551314D+02 -.330596877311322D+02 -.115998933473818D+02 0.500639544775259D+02
 0.156739372467493D+03 0.206275705071387D+02 -.197321664642787D+01 -.155363575630013D+03
 0.503101182539285D+02 0.284778486718241D+02 -.930409360185439D+01 -.404172484961171D+02
-.663077339981D-05 0.000000000000D+00 0.000000000000D+00 0.384510833464D-05 0.000000000000D+00  6 22 4 9900012 -13 3 21 2 0.16836305D+00 0.52341818D-02 0.51119061D+04 0.51119061D+04 0.51119061D+04 0.12407646D+01  1  2 13  1  6  2        4 -.382140145429D-04 0.100000000000D+01
0.771104629199D-06 0.000000000000D+00 0.000000000000D+00 0.384510833464D-05 0.944612074356D-08  6 22 4 9900012 -13 3 21 2 0.17398094D+00 0.50651687D-02 0.51119061D+04 0.51119061D+04 0.51119061D+04 0.12407646D+01  1  2  1  1  6  2        4 0.433205947862D-05 0.100000000000D+01
  </mgrwgt>
  </event>
  <event>
  7     66 -.17293500E-05 0.20177959E+03 0.78161638E-02 0.10431442E+00
       22 -1    0    0    0    0 0.00000000E+00 0.00000000E+00 0.51007539E+03 0.51007539E+03 0.00000000E+00 0.0000E+00 0.9000E+01
        2 -1    0    0  501    0 0.00000000E+00 0.00000000E+00 -.25967233E+03 0.25967233E+03 0.00000000E+00 0.0000E+00 0.9000E+01
       24  2    1    2    0    0 0.19983178E+03 0.67067962E+02 0.43374036E+03 0.48945346E+03 0.83684742E+02 0.0000E+00 0.0000E+00
  9900012  1    3    3    0    0 0.12581627E+03 0.65323703E+02 0.25537793E+03 0.29633564E+03 0.50000000E+02 0.0000E+00 0.9000E+01
      -13  1    3    3    0    0 0.74015503E+02 0.17442593E+01 0.17836243E+03 0.19311782E+03 0.00000000E+00 0.0000E+00 0.9000E+01
        1  1    1    2  502    0 -.12572460E+03 -.34156184E+02 -.12354922E+03 0.17954868E+03 0.00000000E+00 0.0000E+00 0.9000E+01
       21  1    1    2  501  502 -.74107175E+02 -.32911778E+02 -.59788082E+02 0.10074559E+03 0.00000000E+00 0.0000E+00 0.9000E+01
#aMCatNLO 2  0  0  5  2 0.10917247D+02 0.00000000D+00  -5  6  0 0.00000000D+00 0.00000000D+00 0.00000000D+00 0.00000000D+00 0.00000000D+00
  <mgrwgt>
 -.3464303324D-04    2    2    0
 0.363940198716049D+03 0.000000000000000D+00 0.000000000000000D+00 0.363940198716049D+03
 0.363940198716049D+03 -.000000000000000D+00 -.000000000000000D+00 -.363940198716049D+03
 0.225744427176123D+03 0.125941692745735D+03 0.653657969549862D+02 0.168304928679627D+03
 0.143006408100693D+03 0.740949552629036D+02 0.177092513587076D+01 0.122301407132598D+03
 0.359129562155282D+03 -.200036648008638D+03 -.671367220908570D+02 -.290606335812225D+03
 0.000000000000000D+00 0.000000000000000D+00 -.000000000000000D+00 0.000000000000000D+00
 0.363940198716049D+03 0.000000000000000D+00 0.000000000000000D+00 0.363940198716049D+03
 0.363940198716049D+03 -.000000000000000D+00 -.000000000000000D+00 -.363940198716049D+03
 0.225526428633043D+03 0.125816271964607D+03 0.653237029676553D+02 0.168122721699051D+03
 0.142866200937554D+03 0.740155032764367D+02 0.174425929244611D+01 0.122185982029798D+03
 0.232379240523799D+03 -.125724600249139D+03 -.341561838060727D+02 -.192423469011495D+03
 0.127108527337702D+03 -.741071749919052D+02 -.329117784540287D+02 -.978852347173533D+02
-.474943982823D-04 0.000000000000D+00 0.000000000000D+00 0.540421931282D-06 0.000000000000D+00  6 22 2 9900012 -13 1 21 2 0.78473138D-01 0.39949590D-01 0.47464549D+05 0.47464549D+05 0.47464549D+05 0.11449252D+01  1  2 13  2  6  5        1 -.203655706490D-03 0.100000000000D+01
0.394153218505D-04 0.000000000000D+00 0.000000000000D+00 0.540421931282D-06 0.120900589796D-07  6 22 2 9900012 -13 1 21 2 0.78473138D-01 0.39949590D-01 0.47464549D+05 0.47464549D+05 0.47464549D+05 0.11449252D+01  1  2  1  2  6  5        1 0.169012673248D-03 0.100000000000D+01
  </mgrwgt>
  </event>
  <event>
  6     66 0.17293500E-05 0.30678327E+02 0.78161638E-02 0.11618955E+00
       22 -1    0    0    0    0 0.00000000E+00 0.00000000E+00 0.52753093E+02 0.52753093E+02 0.00000000E+00 0.0000E+00 0.9000E+01
        2 -1    0    0  501    0 -.00000000E+00 -.00000000E+00 -.24581763E+03 0.24581763E+03 0.00000000E+00 0.0000E+00 0.9000E+01
       24  2    1    2    0    0 0.54616198E+02 -.65836024E+02 -.39295162E+02 0.12260956E+03 0.78560057E+02 0.0000E+00 0.0000E+00
  9900012  1    3    3    0    0 0.14384961E+02 -.25169709E+02 -.28320856E+02 0.64362351E+02 0.50000000E+02 0.0000E+00 0.9000E+01
      -13  1    3    3    0    0 0.40231236E+02 -.40666315E+02 -.10974305E+02 0.58247205E+02 0.00000000E+00 0.0000E+00 0.9000E+01
        1  1    1    2  501    0 -.54616198E+02 0.65836024E+02 -.15376937E+03 0.17596116E+03 0.00000000E+00 0.0000E+00 0.9000E+01
#aMCatNLO 1  0  0  5  2 0.11008737D+02 0.00000000D+00  -5  6  0 0.00000000D+00 0.00000000D+00 0.00000000D+00 0.00000000D+00 0.00000000D+00
  <mgrwgt>
 0.1081957937D-03    5    2    0
 0.113875546500603D+03 0.000000000000000D+00 0.000000000000000D+00 0.113875546500603D+03
 0.113875546500603D+03 -.000000000000000D+00 -.000000000000000D+00 -.113875546500603D+03
 0.603683629031035D+02 0.143849612458045D+02 -.251697091366190D+02 0.174326667935661D+02
 0.670563667441135D+02 0.402312363509228D+02 -.406663145027296D+02 0.349893527714122D+02
 0.100326363353989D+03 -.546161975967273D+02 0.658360236393486D+02 -.524220195649783D+02
 0.000000000000000D+00 0.000000000000000D+00 0.000000000000000D+00 0.000000000000000D+00
 0.113875546500603D+03 0.000000000000000D+00 0.000000000000000D+00 0.113875546500603D+03
 0.113875546500603D+03 -.000000000000000D+00 -.000000000000000D+00 -.113875546500603D+03
 0.591254088000445D+02 0.131336191894052D+02 -.236613034102754D+02 0.162315967694791D+02
 0.645323901649319D+02 0.388532352775391D+02 -.390052301498385D+02 0.336667121920943D+02
 0.961321843588017D+02 -.555526702256134D+02 0.654058515438595D+02 -.433286543089154D+02
 0.796110967742777D+01 0.356581575866907D+01 -.273931798374556D+01 -.656965465265791D+01
0.425964809638D-06 0.000000000000D+00 0.000000000000D+00 0.202265482646D-06 0.000000000000D+00  6 22 2 9900012 -13 1 21 0 0.81158604D-02 0.37818097D-01 0.10054260D+05 0.10054260D+05 0.10054260D+05 0.12090864D+01  1  2  2  2  6  5        1 0.464273247768D-04 0.100000000000D+01
-.632871553121D-08 0.000000000000D+00 -.817908514060D-09 0.202265482646D-06 0.000000000000D+00  6 22 2 9900012 -13 1 21 2 0.81158604D-02 0.37818097D-01 0.10054260D+05 0.10054260D+05 0.10054260D+05 0.12090864D+01  1  2  3  2  6  5        1 -.100839387950D-05 0.100000000000D+01
-.615182731819D-07 0.000000000000D+00 0.000000000000D+00 0.202265482646D-06 0.000000000000D+00  6 22 2 9900012 -13 1 21 2 0.81158604D-02 0.37818097D-01 0.10054260D+05 0.10054260D+05 0.10054260D+05 0.12090864D+01  1  2 15  2  6  5        1 -.980209172751D-05 0.100000000000D+01
0.580482498354D-06 0.000000000000D+00 0.000000000000D+00 0.202265482646D-06 0.000000000000D+00  6 22 2 9900012 -13 1 21 2 0.81158604D-02 0.37818097D-01 0.10223085D+05 0.10223085D+05 0.10223085D+05 0.12083381D+01  1  2 12  2  6  5        1 0.924991299614D-04 0.100000000000D+01
-.125019723393D-06 0.000000000000D+00 0.000000000000D+00 0.202265482646D-06 0.000000000000D+00  6 22 2 9900012 -13 1 21 2 0.81158604D-02 0.37818097D-01 0.10054260D+05 0.10054260D+05 0.10054260D+05 0.12090864D+01  1  2  4  2  6  5        1 -.199201754709D-04 0.100000000000D+01
  </mgrwgt>
  </event>
  <event>
  6     66 -.17293500E-05 0.23745669E+02 0.78161638E-02 0.13026598E+00
       22 -1    0    0    0    0 0.00000000E+00 0.00000000E+00 0.13034801E+02 0.13034801E+02 0.00000000E+00 0.0000E+00 0.9000E+01
        2 -1    0    0  501    0 0.00000000E+00 0.00000000E+00 -.21224611E+04 0.21224611E+04 0.00000000E+00 0.0000E+00 0.9000E+01
       24  2    1    2    0    0 0.24814061E+02 0.40779392E+01 -.11975860E+03 0.14566930E+03 0.79025658E+02 0.0000E+00 0.0000E+00
  9900012  1    3    3    0    0 0.31836207E+02 0.13733022E+02 -.11906451E+03 0.13371050E+03 0.50000000E+02 0.0000E+00 0.9000E+01
      -13  1    3    3    0    0 -.70221465E+01 -.96550830E+01 -.69409411E+00 0.11958802E+02 0.00000000E+00 0.0000E+00 0.9000E+01
        1  1    1    2  501    0 -.24814061E+02 -.40779392E+01 -.19896677E+04 0.19898266E+04 0.00000000E+00 0.0000E+00 0.9000E+01
#aMCatNLO 1  0  0  2  5 0.44808250D-01 0.00000000D+00  -5  6  0 0.00000000D+00 0.00000000D+00 0.00000000D+00 0.00000000D+00 0.00000000D+00
  <mgrwgt>
 -.1872136711D-03    9    2    0
 0.166330571301963D+03 0.000000000000000D+00 0.000000000000000D+00 0.166330571301963D+03
 0.166330571301963D+03 0.000000000000000D+00 0.000000000000000D+00 -.166330571301963D+03
 0.103349653421640D+03 0.318362071303680D+02 0.137330222075093D+02 0.835404744957409D+02
 0.723674284649386D+02 -.702214654015050D+01 -.965508297528946D+01 0.713758609989185D+02
 0.156944060717348D+03 -.248140605902175D+02 -.407793923221984D+01 -.154916335494659D+03
 0.000000000000000D+00 -.000000000000000D+00 -.000000000000000D+00 -.000000000000000D+00
 0.166330598874891D+03 0.000000000000000D+00 0.000000000000000D+00 0.166330598874891D+03
 0.185588669988038D+03 0.000000000000000D+00 0.000000000000000D+00 -.185588669988038D+03
 0.103353197378035D+03 0.318423122264478D+02 0.137455331421887D+02 0.835404744957409D+02
 0.723658455439168D+02 -.701787175371024D+01 -.964632282258687D+01 0.713758609989185D+02
 0.156942102699725D+03 -.248047897689475D+02 -.405894090069176D+01 -.154916335494659D+03
 0.192581232412524D+02 -.196507037900383D-01 -.402694189101137D-01 -.192580711131465D+02
0.304969067619D-08 0.000000000000D+00 0.000000000000D+00 0.131615309689D-04 0.000000000000D+00  6 22 2 9900012 -13 1 21 0 0.20053541D-02 0.32653248D+00 0.23976088D+04 0.23976088D+04 0.23976088D+04 0.12794733D+01  1  2  2  1  6  2        2 0.116194918560D-06 0.100000000000D+01
0.261709717327D-09 0.000000000000D+00 -.585580759928D-11 0.131615309689D-04 0.000000000000D+00  6 22 2 9900012 -13 1 21 2 0.20053541D-02 0.32653248D+00 0.23976088D+04 0.23976088D+04 0.23976088D+04 0.12794733D+01  1  2  3  1  6  2        2 0.163235131307D-07 0.100000000000D+01
-.500465880259D-09 0.000000000000D+00 0.000000000000D+00 0.131615309689D-04 0.000000000000D+00  6 22 2 9900012 -13 1 21 2 0.20053541D-02 0.32653248D+00 0.23976088D+04 0.23976088D+04 0.23976088D+04 0.12794733D+01  1  2 15  1  6  2        2 -.312153536038D-07 0.100000000000D+01
-.823995216308D-03 0.000000000000D+00 0.000000000000D+00 0.131615309689D-04 0.000000000000D+00  6 22 2 9900012 -13 1 21 2 0.20053541D-02 0.32653248D+00 0.23976088D+04 0.23976088D+04 0.23976088D+04 0.12794733D+01  1  2  4  1  6  2        2 -.513947165220D-01 0.100000000000D+01
-.814526875506D-03 0.000000000000D+00 -.246003319507D-08 0.131615309689D-04 0.000000000000D+00  6 22 2 9900012 -13 1 21 2 0.20053541D-02 0.36433910D+00 0.23976088D+04 0.23976088D+04 0.23976088D+04 0.12794733D+01  1  2  5  1  6  2        2 -.379224360852D-01 0.100000000000D+01
0.809663332380D-03 0.000000000000D+00 0.244534347413D-08 0.131615309689D-04 0.000000000000D+00  6 22 2 9900012 -13 1 21 2 0.20053541D-02 0.32653248D+00 0.23976088D+04 0.23976088D+04 0.23976088D+04 0.12794733D+01  1  2  6  1  6  2        2 0.505007997892D-01 0.100000000000D+01
0.829723532450D-03 0.000000000000D+00 0.000000000000D+00 0.131615309689D-04 0.586492624081D-01  6 22 2 9900012 -13 1 21 2 0.20053544D-02 0.36433908D+00 0.23990293D+04 0.23990293D+04 0.23990293D+04 0.12794415D+01  1  2 11  1  6  2        2 0.386287809693D-01 0.100000000000D+01
-.143077482975D-04 0.000000000000D+00 -.432122750921D-10 0.131615309689D-04 0.000000000000D+00  6 22 21 9900012 -13 1 -2 2 0.20053541D-02 0.36433910D+00 0.23976088D+04 0.23976088D+04 0.23976088D+04 0.12794733D+01  1  2  5  3  6  2        2 -.144835884847D-03 0.100000000000D+01
0.143341612479D-04 0.000000000000D+00 0.000000000000D+00 0.131615309689D-04 0.101321066054D-02  6 22 21 9900012 -13 1 -2 2 0.20053544D-02 0.36433908D+00 0.23990293D+04 0.23990293D+04 0.23990293D+04 0.12794415D+01  1  2 11  3  6  2        2 0.145092759508D-03 0.100000000000D+01
  </mgrwgt>
  </event>
  <event>
  6     66 0.17293500E-05 0.10405825E+03 0.78161638E-02 0.10749607E+00
       22 -1    0    0    0    0 0.00000000E+00 0.00000000E+00 0.44791838E+03 0.44791838E+03 0.00000000E+00 0.0000E+00 0.9000E+01
        2 -1    0    0  501    0 0.00000000E+00 0.00000000E+00 -.17301471E+03 0.17301471E+03 0.00000000E+00 0.0000E+00 0.9000E+01
       24  2    1    2    0    0 -.50784650E+02 0.90824214E+02 0.42122709E+03 0.44138180E+03 0.80978466E+02 0.0000E+00 0.0000E+00
  9900012  1    3    3    0    0 -.60926688E+02 0.63299961E+02 0.35120180E+03 0.36546088E+03 0.50000000E+02 0.0000E+00 0.9000E+01
      -13  1    3    3    0    0 0.10142038E+02 0.27524253E+02 0.70025288E+02 0.75920922E+02 0.00000000E+00 0.0000E+00 0.9000E+01
        1  1    1    2  501    0 0.50784650E+02 -.90824214E+02 -.14632343E+03 0.17955129E+03 0.00000000E+00 0.0000E+00 0.9000E+01
#aMCatNLO 1  0  0  2  2 0.16111371D+03 0.00000000D+00  -5  6  0 0.00000000D+00 0.00000000D+00 0.00000000D+00 0.00000000D+00 0.00000000D+00
  <mgrwgt>
 0.8884438460D-04    4    2    0
 0.278381875026281D+03 0.000000000000000D+00 0.000000000000000D+00 0.278381875026281D+03
 0.278381875026281D+03 0.000000000000000D+00 0.000000000000000D+00 -.278381875026281D+03
 0.234174887293656D+03 -.609266883040415D+02 0.632999611235597D+02 0.211231937483550D+03
 0.500959415215358D+02 0.101420379053193D+02 0.275242530403703D+02 0.406098253951660D+02
 0.272492921237370D+03 0.507846503987223D+02 -.908242141639300D+02 -.251841762878716D+03
 0.000000000000000D+00 0.000000000000000D+00 0.000000000000000D+00 0.000000000000000D+00
 0.350940432821630D+03 0.000000000000000D+00 0.000000000000000D+00 0.350940432821630D+03
 0.315543178484053D+03 0.000000000000000D+00 0.000000000000000D+00 -.315543178484053D+03
 0.243294407825702D+03 -.986442056449219D+02 0.483999809802300D+02 0.211231937483550D+03
 0.474796642906671D+02 0.243408758916612D+01 0.244792937017562D+02 0.406098253951660D+02
 0.274081011433228D+03 0.760823676478793D+01 -.107880684238341D+03 -.251841762878716D+03
 0.101628527756086D+03 0.886018812909678D+02 0.350014095563551D+02 0.353972543375773D+02
0.190977609273D-04 0.000000000000D+00 0.000000000000D+00 0.126640162108D-04 0.000000000000D+00  6 22 2 9900012 -13 1 21 0 0.68910519D-01 0.26617648D-01 0.13745265D+05 0.13745265D+05 0.13745265D+05 0.11952667D+01  1  2  2  1  6  2        2 0.116507430736D-03 0.100000000000D+01
0.225169449108D-06 0.000000000000D+00 -.366702152584D-07 0.126640162108D-04 0.000000000000D+00  6 22 2 9900012 -13 1 21 2 0.68910519D-01 0.26617648D-01 0.13745265D+05 0.13745265D+05 0.13745265D+05 0.11952667D+01  1  2  3  1  6  2        2 0.196250273556D-05 0.100000000000D+01
-.322524597739D-05 0.000000000000D+00 0.000000000000D+00 0.126640162108D-04 0.000000000000D+00  6 22 2 9900012 -13 1 21 2 0.68910519D-01 0.26617648D-01 0.13745265D+05 0.13745265D+05 0.13745265D+05 0.11952667D+01  1  2 15  1  6  2        2 -.281101813703D-04 0.100000000000D+01
-.173867000596D-06 0.000000000000D+00 0.000000000000D+00 0.126640162108D-04 0.000000000000D+00  6 22 2 9900012 -13 1 21 2 0.68910519D-01 0.26617648D-01 0.13745265D+05 0.13745265D+05 0.13745265D+05 0.11952667D+01  1  2  4  1  6  2        2 -.151536749610D-05 0.100000000000D+01
  </mgrwgt>
  </event>
  <event>
  6     66 0.17293500E-05 0.31098715E+02 0.78161638E-02 0.12536989E+00
       22 -1    0    0    0    0 0.00000000E+00 0.00000000E+00 0.32334175E+03 0.32334175E+03 0.00000000E+00 0.0000E+00 0.9000E+01
        2 -1    0    0  501    0 0.00000000E+00 0.00000000E+00 -.11102210E+03 0.11102210E+03 0.00000000E+00 0.0000E+00 0.9000E+01
       24  2    1    2    0    0 -.37009175E+02 -.56299064E+01 0.31396987E+03 0.32603961E+03 0.79519664E+02 0.0000E+00 0.0000E+00
  9900012  1    3    3    0    0 -.36290730E+02 0.90620386E+01 0.29739132E+03 0.30387618E+03 0.50000000E+02 0.0000E+00 0.9000E+01
      -13  1    3    3    0    0 -.71844467E+00 -.14691945E+02 0.16578550E+02 0.22163432E+02 0.00000000E+00 0.0000E+00 0.9000E+01
        1  1    1    2  501    0 0.37009175E+02 0.56299064E+01 -.10165021E+03 0.10832424E+03 0.00000000E+00 0.0000E+00 0.9000E+01
#aMCatNLO 1  0  0  2  5 0.79409336D+01 0.00000000D+00  -5  6  0 0.00000000D+00 0.00000000D+00 0.00000000D+00 0.00000000D+00 0.00000000D+00
  <mgrwgt>
 0.3855184424D-03   11    2    0
 0.189467883740254D+03 0.000000000000000D+00 0.000000000000000D+00 0.189467883740254D+03
 0.189467883740254D+03 0.000000000000000D+00 0.000000000000000D+00 -.189467883740254D+03
 0.181695185920888D+03 -.362907301348020D+02 0.906203860454146D+01 0.170628259527661D+03
 0.161162977749452D+02 -.718444670158804D+00 -.146919450426129D+02 0.658525945513645D+01
 0.181124283784676D+03 0.370091748049608D+02 0.562990643807146D+01 -.177213518982797D+03
 0.000000000000000D+00 -.000000000000000D+00 -.000000000000000D+00 -.000000000000000D+00
 0.190552329341891D+03 0.000000000000000D+00 0.000000000000000D+00 0.190552329341891D+03
 0.203461947752997D+03 0.000000000000000D+00 0.000000000000000D+00 -.203461947752997D+03
 0.181653104273861D+03 -.350358718787613D+02 0.125034005209232D+02 0.170628259527661D+03
 0.158362806175382D+02 -.608093368447427D+00 -.143893142352651D+02 0.658525945513645D+01
 0.181523414321459D+03 0.382616134988616D+02 0.906463287274667D+01 -.177213518982797D+03
 0.150014778820293D+02 -.261764825165287D+01 -.717871915840476D+01 -.129096184111067D+02
0.150854769648D-05 0.000000000000D+00 0.000000000000D+00 0.291513570541D-04 0.000000000000D+00  6 22 2 9900012 -13 1 21 0 0.49744885D-01 0.17080322D-01 0.32825748D+04 0.32825748D+04 0.32825748D+04 0.12629594D+01  1  2  2  1  6  2        2 0.240736717525D-04 0.100000000000D+01
0.742503412330D-07 0.000000000000D+00 -.289661018210D-08 0.291513570541D-04 0.000000000000D+00  6 22 2 9900012 -13 1 21 2 0.49744885D-01 0.17080322D-01 0.32825748D+04 0.32825748D+04 0.32825748D+04 0.12629594D+01  1  2  3  1  6  2        2 0.188999434434D-05 0.100000000000D+01
-.257504138322D-06 0.000000000000D+00 0.000000000000D+00 0.291513570541D-04 0.000000000000D+00  6 22 2 9900012 -13 1 21 2 0.49744885D-01 0.17080322D-01 0.32825748D+04 0.32825748D+04 0.32825748D+04 0.12629594D+01  1  2 15  1  6  2        2 -.655460105625D-05 0.100000000000D+01
0.150292086505D-04 0.000000000000D+00 0.000000000000D+00 0.291513570541D-04 0.000000000000D+00  6 22 2 9900012 -13 1 21 2 0.49744885D-01 0.18446854D-01 0.38244622D+04 0.38244622D+04 0.38244622D+04 0.12551671D+01  1  2 12  1  6  2        2 0.350275091030D-03 0.100000000000D+01
-.932887851795D-06 0.000000000000D+00 0.000000000000D+00 0.291513570541D-04 0.000000000000D+00  6 22 2 9900012 -13 1 21 2 0.49744885D-01 0.17080322D-01 0.32825748D+04 0.32825748D+04 0.32825748D+04 0.12629594D+01  1  2  4  1  6  2        2 -.237460560385D-04 0.100000000000D+01
-.221682403601D-04 0.000000000000D+00 -.251431708018D-05 0.291513570541D-04 0.000000000000D+00  6 22 2 9900012 -13 1 21 2 0.49744885D-01 0.18426754D-01 0.32825748D+04 0.32825748D+04 0.32825748D+04 0.12629594D+01  1  2  5  1  6  2        2 -.517663719657D-03 0.100000000000D+01
0.223020086203D-04 0.000000000000D+00 0.250709661836D-05 0.291513570541D-04 0.000000000000D+00  6 22 2 9900012 -13 1 21 2 0.49744885D-01 0.17080322D-01 0.32825748D+04 0.32825748D+04 0.32825748D+04 0.12629594D+01  1  2  6  1  6  2        2 0.567683184478D-03 0.100000000000D+01
0.572535011321D-08 0.000000000000D+00 0.000000000000D+00 0.291513570541D-04 0.360017331347D-06  6 22 2 9900012 -13 1 21 2 0.50029607D-01 0.18341872D-01 0.38244622D+04 0.38244622D+04 0.38244622D+04 0.12551671D+01  1  2 11  1  6  2        2 0.133042026915D-06 0.100000000000D+01
0.217698091403D-06 0.000000000000D+00 0.000000000000D+00 0.291513570541D-04 0.000000000000D+00  6 22 21 9900012 -13 1 -2 2 0.49744885D-01 0.18446854D-01 0.38244622D+04 0.38244622D+04 0.38244622D+04 0.12551671D+01  1  2 12  3  6  2        2 0.381133538121D-04 0.100000000000D+01
-.277532175244D-06 0.000000000000D+00 -.320365329296D-07 0.291513570541D-04 0.000000000000D+00  6 22 21 9900012 -13 1 -2 2 0.49744885D-01 0.18426754D-01 0.32825748D+04 0.32825748D+04 0.32825748D+04 0.12629594D+01  1  2  5  3  6  2        2 -.488180530819D-04 0.100000000000D+01
0.756653368884D-09 0.000000000000D+00 0.000000000000D+00 0.291513570541D-04 0.398780308633D-07  6 22 21 9900012 -13 1 -2 2 0.50029607D-01 0.18341872D-01 0.38244622D+04 0.38244622D+04 0.38244622D+04 0.12551671D+01  1  2 11  3  6  2        2 0.132534762404D-06 0.100000000000D+01
  </mgrwgt>
  </event>
  <event>
  7     66 -.17293500E-05 0.26400723E+02 0.78161638E-02 0.12818850E+00
       22 -1    0    0    0    0 0.00000000E+00 0.00000000E+00 0.35898975E+03 0.35898975E+03 0.00000000E+00 0.0000E+00 0.9000E+01
        2 -1    0    0  501    0 0.00000000E+00 0.00000000E+00 -.11028700E+02 0.11028700E+02 0.00000000E+00 0.0000E+00 0.9000E+01
       24  2    1    2    0    0 -.43960316E-01 -.31608414E+02 0.28688857E+03 0.29897114E+03 0.77971758E+02 0.0000E+00 0.0000E+00
  9900012  1    3    3    0    0 0.11119990E+02 -.17118877E+02 0.12654477E+03 0.13758739E+03 0.50000000E+02 0.0000E+00 0.9000E+01
      -13  1    3    3    0    0 -.11163950E+02 -.14489537E+02 0.16034380E+03 0.16138375E+03 0.00000000E+00 0.0000E+00 0.9000E+01
        1  1    1    2  502    0 -.54901005E+01 0.28953736E+02 0.44486347E+02 0.53361926E+02 0.00000000E+00 0.0000E+00 0.9000E+01
       21  1    1    2  501  502 0.55340608E+01 0.26546781E+01 0.16586137E+02 0.17685392E+02 0.00000000E+00 0.0000E+00 0.9000E+01
#aMCatNLO 2  0  0  5  2 0.64334381D+01 0.00000000D+00  -5  6  0 0.00000000D+00 0.00000000D+00 0.00000000D+00 0.00000000D+00 0.00000000D+00
  <mgrwgt>
 -.8090340643D-04    3    2    0
 0.629220967691899D+02 0.000000000000000D+00 0.000000000000000D+00 0.629220967691899D+02
 0.629220967691899D+02 -.000000000000000D+00 -.000000000000000D+00 -.629220967691899D+02
 0.550590574895561D+02 0.111177049416723D+02 -.187620112792709D+02 -.747551879301173D+01
 0.320182857504765D+02 -.111652665550260D+02 -.154358130146480D+02 0.257340848240462D+02
 0.387668502983472D+02 0.475616133536998D-01 0.341978242939189D+02 -.182585660310345D+02
 0.000000000000000D+00 0.000000000000000D+00 0.000000000000000D+00 0.000000000000000D+00
 0.629220967691899D+02 0.000000000000000D+00 0.000000000000000D+00 0.629220967691899D+02
 0.629220967691899D+02 -.000000000000000D+00 -.000000000000000D+00 -.629220967691899D+02
 0.546486915213450D+02 0.111199901779705D+02 -.171188771657636D+02 -.835280479961459D+01
 0.311620885491884D+02 -.111639504940733D+02 -.144895368468121D+02 0.252288583585983D+02
 0.338941421828915D+02 -.549010052331444D+01 0.289537359154150D+02 -.167437405348497D+02
 0.613927128495489D+01 0.553406083941727D+01 0.265467809716063D+01 -.132313024133976D+00
-.342286596060D-06 0.000000000000D+00 0.000000000000D+00 0.466043144399D-07 0.000000000000D+00  6 22 2 9900012 -13 1 21 2 0.55229193D-01 0.16967231D-02 0.29109050D+04 0.29109050D+04 0.29109050D+04 0.12691983D+01  1  2 13  2  6  5        1 -.132406094068D-03 0.100000000000D+01
-.915121166575D-10 0.000000000000D+00 0.000000000000D+00 0.466043144399D-07 0.000000000000D+00  6 22 2 9900012 -13 1 21 2 0.55229193D-01 0.16967231D-02 0.29050874D+04 0.29050874D+04 0.29050874D+04 0.12693030D+01  1  2  8  2  6  5        1 -.353962732184D-07 0.100000000000D+01
0.133232502872D-06 0.000000000000D+00 0.000000000000D+00 0.466043144399D-07 0.337362506261D-08  6 22 2 9900012 -13 1 21 2 0.55229193D-01 0.16967231D-02 0.29109050D+04 0.29109050D+04 0.29109050D+04 0.12691983D+01  1  2  1  2  6  5        1 0.515380839079D-04 0.100000000000D+01
  </mgrwgt>
  </event>
  <event>
  6     66 0.17293500E-05 0.27473910E+02 0.78161638E-02 0.11731408E+00
       22 -1    0    0    0    0 0.00000000E+00 0.00000000E+00 0.79270871E+01 0.79270871E+01 0.00000000E+00 0.0000E+00 0.9000E+01
        2 -1    0    0  501    0 -.00000000E+00 -.00000000E+00 -.27815608E+04 0.27815608E+04 0.00000000E+00 0.0000E+00 0.9000E+01
       24  2    1    2    0    0 0.26181007E+02 0.83288999E+01 -.21924237E+03 0.23494880E+03 0.79868055E+02 0.0000E+00 0.0000E+00
  9900012  1    3    3    0    0 0.21930213E+02 0.18221906E+02 -.21624165E+03 0.22377092E+03 0.50000000E+02 0.0000E+00 0.9000E+01
      -13  1    3    3    0    0 0.42507944E+01 -.98930058E+01 -.30007244E+01 0.11177887E+02 0.00000000E+00 0.0000E+00 0.9000E+01
        1  1    1    2  501    0 -.26181007E+02 -.83288999E+01 -.25543914E+04 0.25545391E+04 0.00000000E+00 0.0000E+00 0.9000E+01
#aMCatNLO 1  0  0  5  2 0.44999142D+02 0.00000000D+00  -5  6  0 0.00000000D+00 0.00000000D+00 0.00000000D+00 0.00000000D+00 0.00000000D+00
  <mgrwgt>
 0.2500239656D-03    3    2    0
 0.148491329203698D+03 0.000000000000000D+00 0.000000000000000D+00 0.148491329203698D+03
 0.148491329203698D+03 -.000000000000000D+00 -.000000000000000D+00 -.148491329203698D+03
 0.822645068497359D+02 0.219302128183089D+02 0.182219056730073D+02 0.587747990776484D+02
 0.769663486462699D+02 0.425079440559061D+01 -.989300578450253D+01 0.762094351600140D+02
 0.137751802911391D+03 -.261810072238995D+02 -.832889988850479D+01 -.134984234237662D+03
 0.000000000000000D+00 0.000000000000000D+00 0.000000000000000D+00 0.000000000000000D+00
 0.148491329203698D+03 0.000000000000000D+00 0.000000000000000D+00 0.148491329203698D+03
 0.148491329203698D+03 -.000000000000000D+00 -.000000000000000D+00 -.148491329203698D+03
 0.700404794606225D+02 0.186713693271761D+02 0.171851777519680D+02 0.419728292607888D+02
 0.618641561065343D+02 0.128026206948956D+01 -.108380139819093D+02 0.608939421677970D+02
 0.734036980315698D+02 -.571269956388654D+02 0.350081893909387D+02 -.299839278540205D+02
 0.916743248086704D+02 0.371753642421997D+02 -.413553531609973D+02 -.728828435745654D+02
0.893523098945D-05 0.000000000000D+00 0.000000000000D+00 0.152159498384D-04 0.000000000000D+00  6 22 2 9900012 -13 1 21 0 0.12195519D-02 0.42793243D+00 0.22944059D+04 0.22944059D+04 0.22944059D+04 0.12818387D+01  1  2  2  2  6  5        1 0.290579475659D-03 0.100000000000D+01
0.568578520563D-06 0.000000000000D+00 -.171568198499D-07 0.152159498384D-04 0.000000000000D+00  6 22 2 9900012 -13 1 21 2 0.12195519D-02 0.42793243D+00 0.22944059D+04 0.22944059D+04 0.22944059D+04 0.12818387D+01  1  2  3  2  6  5        1 0.303819983319D-04 0.100000000000D+01
-.132754742255D-05 0.000000000000D+00 0.000000000000D+00 0.152159498384D-04 0.000000000000D+00  6 22 2 9900012 -13 1 21 2 0.12195519D-02 0.42793243D+00 0.22944059D+04 0.22944059D+04 0.22944059D+04 0.12818387D+01  1  2 15  2  6  5        1 -.709375083984D-04 0.100000000000D+01
  </mgrwgt>
  </event>
  <event>
  7     66 -.17293500E-05 0.67577715E+02 0.78161638E-02 0.11732287E+00
       22 -1    0    0    0    0 0.00000000E+00 0.00000000E+00 0.70328516E+01 0.70328516E+01 0.00000000E+00 0.0000E+00 0.9000E+01
        2 -1    0    0  502    0 0.00000000E+00 0.00000000E+00 -.32393726E+04 0.32393726E+04 0.00000000E+00 0.0000E+00 0.9000E+01
       24  2    1    2    0    0 -.52459295E+02 -.59251723E+02 -.49440494E+03 0.50715051E+03 0.80638994E+02 0.0000E+00 0.0000E+00
  9900012  1    3    3    0    0 -.58858507E+02 -.36448725E+02 -.43290575E+03 0.44124848E+03 0.50000000E+02 0.0000E+00 0.9000E+01
      -13  1    3    3    0    0 0.63992118E+01 -.22802999E+02 -.61499190E+02 0.65902026E+02 0.00000000E+00 0.0000E+00 0.9000E+01
        1  1    1    2  501    0 0.38809666E+02 0.33488692E+02 -.21353758E+04 0.21359910E+04 0.00000000E+00 0.0000E+00 0.9000E+01
       21  1    1    2  502  501 0.13649629E+02 0.25763031E+02 -.60255899E+03 0.60326394E+03 0.00000000E+00 0.0000E+00 0.9000E+01
#aMCatNLO 2  0  0  2  5 0.32847329D+02 0.00000000D+00  -5  6  0 0.00000000D+00 0.00000000D+00 0.00000000D+00 0.00000000D+00 0.00000000D+00
  <mgrwgt>
 -.3155789442D-04    2    2    0
 0.131909211128309D+03 0.000000000000000D+00 0.000000000000000D+00 0.131909211128309D+03
 0.131909211128309D+03 0.000000000000000D+00 0.000000000000000D+00 -.131909211128309D+03
 0.989033943659891D+02 -.536030275441632D+02 -.265292559578617D+02 0.608670307599797D+02
 0.453299132296306D+02 0.877892820766748D+01 -.183113961161890D+02 0.405268333972256D+02
 0.119585114660997D+03 0.448240993364957D+02 0.448406520740507D+02 -.101393864157205D+03
 0.000000000000000D+00 0.000000000000000D+00 0.000000000000000D+00 -.000000000000000D+00
 0.139714564177971D+03 0.000000000000000D+00 0.000000000000000D+00 0.139714564177971D+03
 0.163061213496319D+03 0.000000000000000D+00 0.000000000000000D+00 -.163061213496319D+03
 0.104869579945929D+03 -.588585067721627D+02 -.364487248755091D+02 0.608670307599797D+02
 0.469398645101340D+02 0.639921175154318D+01 -.228029985743580D+02 0.405268333972256D+02
 0.113615132550144D+03 0.388096655808864D+02 0.334886923178089D+02 -.101393864157205D+03
 0.373512006680822D+02 0.136496294397331D+02 0.257630311320582D+02 -.233466493183479D+02
-.160716052144D-05 0.000000000000D+00 0.000000000000D+00 0.210938625030D-05 0.000000000000D+00  6 22 2 9900012 -13 1 21 2 0.10215310D-02 0.52785434D+00 0.89774162D+04 0.89774162D+04 0.89774162D+04 0.12142169D+01  1  2 13  1  6  2        2 -.397524513134D-04 0.100000000000D+01
0.267046282514D-06 0.000000000000D+00 0.000000000000D+00 0.210938625030D-05 0.242818027901D-07  6 22 2 9900012 -13 1 21 2 0.10819772D-02 0.49836501D+00 0.89774162D+04 0.89774162D+04 0.89774162D+04 0.12142169D+01  1  2  1  1  6  2        2 0.819455689354D-05 0.100000000000D+01
  </mgrwgt>
  </event>
  <event>
  7     66 0.17293500E-05 0.17338059E+02 0.78161638E-02 0.13217129E+00
       22 -1    0    0    0    0 0.00000000E+00 0.00000000E+00 0.22380184E+03 0.22380184E+03 0.00000000E+00 0.0000E+00 0.9000E+01
       21 -1    0    0  501  502 0.00000000E+00 0.00000000E+00 -.19457074E+02 0.19457074E+02 0.00000000E+00 0.0000E+00 0.9000E+01
       24  2    1    2    0    0 0.48282009E+01 -.14783791E+02 0.70542101E+02 0.10685131E+03 0.78734636E+02 0.0000E+00 0.0000E+00
  9900012  1    3    3    0    0 0.14450776E+02 -.13756787E+02 0.77902107E+02 0.94693254E+02 0.50000000E+02 0.0000E+00 0.9000E+01
      -13  1    3    3    0    0 -.96225747E+01 -.10270046E+01 -.73600062E+01 0.12158058E+02 0.00000000E+00 0.0000E+00 0.9000E+01
        3  1    1    2  501    0 -.22422743E+01 0.20227503E+02 0.10896488E+03 0.11084911E+03 0.00000000E+00 0.0000E+00 0.9000E+01
       -4  1    1    2    0  502 -.25859265E+01 -.54437121E+01 0.24837788E+02 0.25558496E+02 0.00000000E+00 0.0000E+00 0.9000E+01
#aMCatNLO 2  0  0  2  5 0.16035181D+02 0.00000000D+00  -5  6  0 0.00000000D+00 0.00000000D+00 0.00000000D+00 0.00000000D+00 0.00000000D+00
  <mgrwgt>
 0.2529529588D-03    2    2    0
 0.615109656481255D+02 0.000000000000000D+00 0.000000000000000D+00 0.615109656481255D+02
 0.615109656481255D+02 0.000000000000000D+00 0.000000000000000D+00 -.615109656481255D+02
 0.542042252779081D+02 0.133159646648766D+02 -.161457114680020D+02 -.314839981582043D+00
 0.325020158481186D+02 -.103023514329287D+02 -.245802313880777D+01 -.307278491175817D+02
 0.363156901702243D+02 -.301361323194787D+01 0.186037346068097D+02 0.310426890991638D+02
 0.000000000000000D+00 -.000000000000000D+00 -.000000000000000D+00 0.000000000000000D+00
 0.693983866988254D+02 0.000000000000000D+00 0.000000000000000D+00 0.693983866988254D+02
 0.627468321808164D+02 0.000000000000000D+00 0.000000000000000D+00 -.627468321808164D+02
 0.538346841722496D+02 0.144507755920962D+02 -.137567867068853D+02 -.314839981582043D+00
 0.322156700018273D+02 -.962257469822586D+01 -.102700460117222D+01 -.307278491175817D+02
 0.371191087512174D+02 -.224227434414954D+01 0.202275033986633D+02 0.310426890991638D+02
 0.897575595434742D+01 -.258592654972083D+01 -.544371209060570D+01 0.665155451800896D+01
-.180785948370D-08 0.000000000000D+00 0.000000000000D+00 0.676048346494D-08 0.000000000000D+00  6 22 21 9900012 -13 3 -4 2 0.30517817D-01 0.33772328D-02 0.20200119D+04 0.20200119D+04 0.20200119D+04 0.12887643D+01  1  2 13  3  6  2        4 -.104660598197D-04 0.100000000000D+01
0.456989635500D-07 0.000000000000D+00 0.000000000000D+00 0.676048346494D-08 0.135324258016D-09  6 22 21 9900012 -13 3 -4 2 0.34431052D-01 0.29933960D-02 0.20200119D+04 0.20200119D+04 0.20200119D+04 0.12887643D+01  1  2  1  3  6  2        4 0.263419018610D-03 0.100000000000D+01
  </mgrwgt>
  </event>
  <event>
  6     66 0.17293500E-05 0.69236047E+02 0.78161638E-02 0.11238846E+00
       22 -1    0    0    0    0 0.00000000E+00 0.00000000E+00 0.35536280E+02 0.35536280E+02 0.00000000E+00 0.0000E+00 0.9000E+01
        2 -1    0    0  501    0 0.00000000E+00 0.00000000E+00 -.13355323E+04 0.13355323E+04 0.00000000E+00 0.0000E+00 0.9000E+01
       24  2    1    2    0    0 0.67000641E+02 0.17451195E+02 -.46473237E+02 0.11563519E+03 0.80113077E+02 0.0000E+00 0.0000E+00
  9900012  1    3    3    0    0 0.36572032E+02 0.80762362E+01 -.54383805E+02 0.82827154E+02 0.50000000E+02 0.0000E+00 0.9000E+01
      -13  1    3    3    0    0 0.30428609E+02 0.93749593E+01 0.79105680E+01 0.32808036E+02 0.00000000E+00 0.0000E+00 0.9000E+01
        1  1    1    2  501    0 -.67000641E+02 -.17451195E+02 -.12535228E+04 0.12554334E+04 0.00000000E+00 0.0000E+00 0.9000E+01
#aMCatNLO 1  0  0  2  2 0.77412566D+02 0.00000000D+00  -5  6  0 0.00000000D+00 0.00000000D+00 0.00000000D+00 0.00000000D+00 0.00000000D+00
  <mgrwgt>
 0.1392705767D-03    7    2    0
 0.217852814343647D+03 0.000000000000000D+00 0.000000000000000D+00 0.217852814343647D+03
 0.217852814343647D+03 0.000000000000000D+00 0.000000000000000D+00 -.217852814343647D+03
 0.983759996334763D+02 0.365720317164538D+02 0.807623616619695D+01 0.759940669355459D+02
 0.126841999720498D+03 0.304286094623330D+02 0.937495929031079D+01 0.122780710038624D+03
 0.210487629333319D+03 -.670006411787869D+02 -.174511954565077D+02 -.198774776974170D+03
 0.000000000000000D+00 0.000000000000000D+00 -.000000000000000D+00 -.000000000000000D+00
 0.248515685967256D+03 0.000000000000000D+00 0.000000000000000D+00 0.248515685967256D+03
 0.273349213110858D+03 0.000000000000000D+00 0.000000000000000D+00 -.273349213110858D+03
 0.945041848885237D+02 0.211910973145136D+02 0.143833287748997D+02 0.759940669355459D+02
 0.124468955958628D+03 0.103882028577414D+02 0.175927110255547D+02 0.122780710038624D+03
 0.223254018427762D+03 -.101588703442081D+03 -.326804467064552D+01 -.198774776974170D+03
 0.796377398032006D+02 0.700094032698262D+02 -.287079951298089D+02 -.248335271436018D+02
0.455044859354D-05 0.000000000000D+00 0.000000000000D+00 0.298023850265D-04 0.000000000000D+00  6 22 2 9900012 -13 1 21 0 0.54671200D-02 0.20546650D+00 0.66869891D+04 0.66869891D+04 0.66869891D+04 0.12278833D+01  1  2  2  1  6  2        2 0.116719881724D-03 0.100000000000D+01
0.733095911769D-07 0.000000000000D+00 -.873746037991D-08 0.298023850265D-04 0.000000000000D+00  6 22 2 9900012 -13 1 21 2 0.54671200D-02 0.20546650D+00 0.66869891D+04 0.66869891D+04 0.66869891D+04 0.12278833D+01  1  2  3  1  6  2        2 0.283508193123D-05 0.100000000000D+01
-.738408219719D-06 0.000000000000D+00 0.000000000000D+00 0.298023850265D-04 0.000000000000D+00  6 22 2 9900012 -13 1 21 2 0.54671200D-02 0.20546650D+00 0.66869891D+04 0.66869891D+04 0.66869891D+04 0.12278833D+01  1  2 15  1  6  2        2 -.285562607565D-04 0.100000000000D+01
-.796830768456D-07 0.000000000000D+00 0.000000000000D+00 0.298023850265D-04 0.000000000000D+00  6 22 2 9900012 -13 1 21 2 0.54671200D-02 0.20546650D+00 0.66869891D+04 0.66869891D+04 0.66869891D+04 0.12278833D+01  1  2  4  1  6  2        2 -.308156201342D-05 0.100000000000D+01
-.198333902634D-05 0.000000000000D+00 -.181585294719D-05 0.298023850265D-04 0.000000000000D+00  6 22 2 9900012 -13 1 21 2 0.54671200D-02 0.27650425D+00 0.66869891D+04 0.66869891D+04 0.66869891D+04 0.12278833D+01  1  2  5  1  6  2        2 -.446485093784D-04 0.100000000000D+01
0.248920930311D-05 0.000000000000D+00 0.173863573014D-05 0.298023850265D-04 0.000000000000D+00  6 22 2 9900012 -13 1 21 2 0.54671200D-02 0.20546650D+00 0.66869891D+04 0.66869891D+04 0.66869891D+04 0.12278833D+01  1  2  6  1  6  2        2 0.962645160749D-04 0.100000000000D+01
-.360295823401D-07 0.000000000000D+00 -.696745661563D-07 0.298023850265D-04 0.000000000000D+00  6 22 21 9900012 -13 1 -2 2 0.54671200D-02 0.27650425D+00 0.66869891D+04 0.66869891D+04 0.66869891D+04 0.12278833D+01  1  2  5  3  6  2        2 -.262570873500D-06 0.100000000000D+01
  </mgrwgt>
  </event>
  <event>
  6     66 0.17293500E-05 0.41323939E+02 0.78161638E-02 0.12248116E+00
       22 -1    0    0    0    0 0.00000000E+00 0.00000000E+00 0.12888076E+02 0.12888076E+02 0.00000000E+00 0.0000E+00 0.9000E+01
        2 -1    0    0  501    0 0.00000000E+00 0.00000000E+00 -.17728367E+04 0.17728367E+04 0.00000000E+00 0.0000E+00 0.9000E+01
       24  2    1    2    0    0 0.40104711E+02 -.30836953E+02 -.16706359E+03 0.19203659E+03 0.80053125E+02 0.0000E+00 0.0000E+00
  9900012  1    3    3    0    0 0.15859286E+02 -.22911388E+02 -.63998333E+02 0.85861722E+02 0.50000000E+02 0.0000E+00 0.9000E+01
      -13  1    3    3    0    0 0.24245424E+02 -.79255650E+01 -.10306525E+03 0.10617486E+03 0.00000000E+00 0.0000E+00 0.9000E+01
        1  1    1    2  501    0 -.40104711E+02 0.30836953E+02 -.15928851E+04 0.15936882E+04 0.00000000E+00 0.0000E+00 0.9000E+01
#aMCatNLO 1  0  0  2  5 0.82979658D+01 0.00000000D+00  -5  6  0 0.00000000D+00 0.00000000D+00 0.00000000D+00 0.00000000D+00 0.00000000D+00
  <mgrwgt>
 0.3194488074D-03   11    2    0
 0.151157051348005D+03 0.000000000000000D+00 0.000000000000000D+00 0.151157051348005D+03
 0.151157051348005D+03 0.000000000000000D+00 0.000000000000000D+00 -.151157051348005D+03
 0.134600489945525D+03 0.158592863903689D+02 -.229113875163670D+02 0.121822999679201D+03
 0.271556415333040D+02 0.242454242367149D+02 -.792556501072619D+01 0.931523966024377D+01
 0.140557971217181D+03 -.401047106270838D+02 0.308369525270932D+02 -.131138239339445D+03
 0.000000000000000D+00 0.000000000000000D+00 -.000000000000000D+00 -.000000000000000D+00
 0.151432396018796D+03 0.000000000000000D+00 0.000000000000000D+00 0.151432396018796D+03
 0.229609556116379D+03 0.000000000000000D+00 0.000000000000000D+00 -.229609556116379D+03
 0.134098036591996D+03 0.122569922959217D+02 -.221631745661033D+02 0.121822999679201D+03
 0.264714668804342D+02 0.235264749427592D+02 -.777623595590255D+01 0.931523966024377D+01
 0.141857980330185D+03 -.438909067314926D+02 0.316233627654808D+02 -.131138239339445D+03
 0.786144683325598D+02 0.810743949281169D+01 -.168395224347493D+01 -.781771600975831D+02
0.244890205779D-06 0.000000000000D+00 0.000000000000D+00 0.770127323481D-05 0.000000000000D+00  6 22 2 9900012 -13 1 21 0 0.19827809D-02 0.27274411D+00 0.44447418D+04 0.44447418D+04 0.44447418D+04 0.12476447D+01  1  2  2  1  6  2        2 0.146132142541D-04 0.100000000000D+01
0.570082489093D-08 0.000000000000D+00 -.470221435631D-09 0.770127323481D-05 0.000000000000D+00  6 22 2 9900012 -13 1 21 2 0.19827809D-02 0.27274411D+00 0.44447418D+04 0.44447418D+04 0.44447418D+04 0.12476447D+01  1  2  3  1  6  2        2 0.529534025312D-06 0.100000000000D+01
-.412216408969D-07 0.000000000000D+00 0.000000000000D+00 0.770127323481D-05 0.000000000000D+00  6 22 2 9900012 -13 1 21 2 0.19827809D-02 0.27274411D+00 0.44447418D+04 0.44447418D+04 0.44447418D+04 0.12476447D+01  1  2 15  1  6  2        2 -.382896543074D-05 0.100000000000D+01
0.830436042393D-05 0.000000000000D+00 0.000000000000D+00 0.770127323481D-05 0.000000000000D+00  6 22 2 9900012 -13 1 21 2 0.19827809D-02 0.41505659D+00 0.51268466D+04 0.51268466D+04 0.51268466D+04 0.12406223D+01  1  2 12  1  6  2        2 0.248856982526D-03 0.100000000000D+01
-.428963912235D-05 0.000000000000D+00 0.000000000000D+00 0.770127323481D-05 0.000000000000D+00  6 22 2 9900012 -13 1 21 2 0.19827809D-02 0.27274411D+00 0.44447418D+04 0.44447418D+04 0.44447418D+04 0.12476447D+01  1  2  4  1  6  2        2 -.398452840607D-03 0.100000000000D+01
-.827066942929D-05 0.000000000000D+00 -.700622323834D-07 0.770127323481D-05 0.000000000000D+00  6 22 2 9900012 -13 1 21 2 0.19827809D-02 0.41447821D+00 0.44447418D+04 0.44447418D+04 0.44447418D+04 0.12476447D+01  1  2  5  1  6  2        2 -.251073956444D-03 0.100000000000D+01
0.762795620451D-05 0.000000000000D+00 0.643451139760D-07 0.770127323481D-05 0.000000000000D+00  6 22 2 9900012 -13 1 21 2 0.19827809D-02 0.27274411D+00 0.44447418D+04 0.44447418D+04 0.44447418D+04 0.12476447D+01  1  2  6  1  6  2        2 0.708539979943D-03 0.100000000000D+01
0.956855367696D-08 0.000000000000D+00 0.000000000000D+00 0.770127323481D-05 0.518592131712D-06  6 22 2 9900012 -13 1 21 2 0.19863927D-02 0.41430190D+00 0.51268466D+04 0.51268466D+04 0.51268466D+04 0.12406223D+01  1  2 11  1  6  2        2 0.287884892491D-06 0.100000000000D+01
0.409691410025D-06 0.000000000000D+00 0.000000000000D+00 0.770127323481D-05 0.000000000000D+00  6 22 21 9900012 -13 1 -2 2 0.19827809D-02 0.41505659D+00 0.51268466D+04 0.51268466D+04 0.51268466D+04 0.12406223D+01  1  2 12  3  6  2        2 0.201680829137D-05 0.100000000000D+01
-.404483151118D-06 0.000000000000D+00 -.344796348613D-08 0.770127323481D-05 0.000000000000D+00  6 22 21 9900012 -13 1 -2 2 0.19827809D-02 0.41447821D+00 0.44447418D+04 0.44447418D+04 0.44447418D+04 0.12476447D+01  1  2  5  3  6  2        2 -.204340679397D-05 0.100000000000D+01
0.720551355813D-09 0.000000000000D+00 0.000000000000D+00 0.770127323481D-05 0.385549474999D-07  6 22 21 9900012 -13 1 -2 2 0.19863927D-02 0.41430190D+00 0.51268466D+04 0.51268466D+04 0.51268466D+04 0.12406223D+01  1  2 11  3  6  2        2 0.357274158607D-08 0.100000000000D+01
  </mgrwgt>
  </event>
  <event>
  7     66 0.17293500E-05 0.26752834E+02 0.78161638E-02 0.11641354E+00
       22 -1    0    0    0    0 0.00000000E+00 0.00000000E+00 0.22435020E+03 0.22435020E+03 0.00000000E+00 0.0000E+00 0.9000E+01
        2 -1    0    0  502    0 0.00000000E+00 0.00000000E+00 -.24985511E+04 0.24985511E+04 0.00000000E+00 0.0000E+00 0.9000E+01
       24  2    1    2    0    0 -.23812884E+02 0.78747931E+02 0.20583481E+03 0.23938578E+03 0.90384128E+02 0.0000E+00 0.0000E+00
  9900012  1    3    3    0    0 -.43893400E+02 0.55632910E+02 0.11855486E+03 0.14689079E+03 0.50000000E+02 0.0000E+00 0.9000E+01
      -13  1    3    3    0    0 0.20080517E+02 0.23115021E+02 0.87279958E+02 0.92494986E+02 0.00000000E+00 0.0000E+00 0.9000E+01
        1  1    1    2  501    0 0.13333050E+02 -.43250423E+02 -.32228212E+03 0.32544452E+03 0.00000000E+00 0.0000E+00 0.9000E+01
       21  1    1    2  502  501 0.10479834E+02 -.35497508E+02 -.21577536E+04 0.21580710E+04 0.00000000E+00 0.0000E+00 0.9000E+01
#aMCatNLO 2  0  0  2  5 0.37027315D+02 0.00000000D+00  -5  6  0 0.00000000D+00 0.00000000D+00 0.00000000D+00 0.00000000D+00 0.00000000D+00
  <mgrwgt>
 0.9143041280D-03    2    2    0
 0.275727851187312D+03 0.000000000000000D+00 0.000000000000000D+00 0.275727851187312D+03
 0.275727851187312D+03 0.000000000000000D+00 0.000000000000000D+00 -.275727851187312D+03
 0.171072561340483D+03 -.406078321004234D+02 0.445039664435513D+02 0.152105957103883D+03
 0.112062313234913D+03 0.222158389719752D+02 0.158822131402807D+02 0.108683825163166D+03
 0.268320827799228D+03 0.183919931284482D+02 -.603861795838320D+02 -.260789782267049D+03
 0.000000000000000D+00 0.000000000000000D+00 -.000000000000000D+00 -.000000000000000D+00
 0.276543820145651D+03 0.000000000000000D+00 0.000000000000000D+00 0.276543820145651D+03
 0.202698600404457D+04 0.000000000000000D+00 0.000000000000000D+00 -.202698600404457D+04
 0.175093899095562D+03 -.438934004047840D+02 0.556329103580218D+02 0.152105957103883D+03
 0.112914592400711D+03 0.200805165914117D+02 0.231150206217339D+02 0.108683825163166D+03
 0.264687891398971D+03 0.133330496607896D+02 -.432504231780596D+02 -.260789782267049D+03
 0.175083344129498D+04 0.104798341525826D+02 -.354975078016960D+02 -.175044218389892D+04
-.507357617736D-03 0.000000000000D+00 0.000000000000D+00 0.660534861583D-06 0.000000000000D+00  6 22 2 9900012 -13 1 21 2 0.34413575D-01 0.38553003D+00 0.99618027D+04 0.99618027D+04 0.99618027D+04 0.12095022D+01  1  2 13  1  6  2        2 -.323441035790D-03 0.100000000000D+01
0.193226326570D-02 0.000000000000D+00 0.000000000000D+00 0.660534861583D-06 0.429114292386D-07  6 22 2 9900012 -13 1 21 2 0.34515416D-01 0.38439248D+00 0.99618027D+04 0.99618027D+04 0.99618027D+04 0.12095022D+01  1  2  1  1  6  2        2 0.123774516381D-02 0.100000000000D+01
  </mgrwgt>
  </event>
  <event>
  6     66 0.17293500E-05 0.23301547E+02 0.78161638E-02 0.12563082E+00
       22 -1    0    0    0    0 0.00000000E+00 0.00000000E+00 0.16221267E+02 0.16221267E+02 0.00000000E+00 0.0000E+00 0.9000E+01
        2 -1    0    0  501    0 0.00000000E+00 0.00000000E+00 -.29082305E+03 0.29082305E+03 0.00000000E+00 0.0000E+00 0.9000E+01
       24  2    1    2    0    0 -.25954785E+02 -.25853263E+02 -.96874086E+02 0.12558034E+03 0.71019645E+02 0.0000E+00 0.0000E+00
  9900012  1    3    3    0    0 -.14380113E+02 -.36482405E+02 -.83609879E+02 0.10501602E+03 0.50000000E+02 0.0000E+00 0.9000E+01
      -13  1    3    3    0    0 -.11574672E+02 0.10629142E+02 -.13264208E+02 0.20564311E+02 0.00000000E+00 0.0000E+00 0.9000E+01
        1  1    1    2  501    0 0.25954785E+02 0.25853263E+02 -.17772769E+03 0.18146398E+03 0.00000000E+00 0.0000E+00 0.9000E+01
#aMCatNLO 1  0  0  2  5 0.12869113D+02 0.00000000D+00  -5  6  0 0.00000000D+00 0.00000000D+00 0.00000000D+00 0.00000000D+00 0.00000000D+00
  <mgrwgt>
 0.2510818540D-03    6    2    0
 0.686841911888111D+02 0.000000000000000D+00 0.000000000000000D+00 0.686841911888111D+02
 0.686841911888111D+02 0.000000000000000D+00 0.000000000000000D+00 -.686841911888111D+02
 0.675930752133079D+02 -.143801125573176D+02 -.364824046018755D+02 0.230449633129632D+02
 0.194497436647905D+02 -.115746724158841D+02 0.106291418656007D+02 0.114604027107238D+02
 0.503255634995239D+02 0.259547849732018D+02 0.258532627362749D+02 -.345053660236869D+02
 0.000000000000000D+00 0.000000000000000D+00 -.000000000000000D+00 0.000000000000000D+00
 0.747026130813098D+02 0.000000000000000D+00 0.000000000000000D+00 0.747026130813098D+02
 0.700979370355740D+02 0.000000000000000D+00 0.000000000000000D+00 -.700979370355740D+02
 0.661568331007332D+02 -.144491975501582D+02 -.337176055196533D+02 0.230449633129632D+02
 0.199179721405569D+02 -.115950067727360D+02 0.114429280273994D+02 0.114604027107238D+02
 0.514110976698897D+02 0.259022355801060D+02 0.279563028876678D+02 -.345053660236869D+02
 0.731464720570397D+01 0.141968742788211D+00 -.568162539541385D+01 0.460467604573573D+01
0.322566075029D-06 0.000000000000D+00 0.000000000000D+00 0.642517307851D-08 0.000000000000D+00  6 22 2 9900012 -13 1 21 0 0.24955795D-02 0.44742007D-01 0.33577336D+04 0.33577336D+04 0.33577336D+04 0.12617951D+01  1  2  2  1  6  2        2 0.133457019272D-03 0.100000000000D+01
0.352101763445D-08 0.000000000000D+00 -.619369330854D-09 0.642517307851D-08 0.000000000000D+00  6 22 2 9900012 -13 1 21 2 0.24955795D-02 0.44742007D-01 0.33577336D+04 0.33577336D+04 0.33577336D+04 0.12617951D+01  1  2  3  1  6  2        2 0.231936247704D-05 0.100000000000D+01
-.440624670733D-07 0.000000000000D+00 0.000000000000D+00 0.642517307851D-08 0.000000000000D+00  6 22 2 9900012 -13 1 21 2 0.24955795D-02 0.44742007D-01 0.33577336D+04 0.33577336D+04 0.33577336D+04 0.12617951D+01  1  2 15  1  6  2        2 -.290248000395D-04 0.100000000000D+01
0.249972051517D-06 0.000000000000D+00 0.000000000000D+00 0.642517307851D-08 0.000000000000D+00  6 22 2 9900012 -13 1 21 2 0.24955795D-02 0.49664139D-01 0.37270301D+04 0.37270301D+04 0.37270301D+04 0.12564726D+01  1  2 12  1  6  2        2 0.147921237843D-03 0.100000000000D+01
-.185400457053D-07 0.000000000000D+00 0.000000000000D+00 0.642517307851D-08 0.000000000000D+00  6 22 2 9900012 -13 1 21 2 0.24955795D-02 0.44742007D-01 0.33577336D+04 0.33577336D+04 0.33577336D+04 0.12617951D+01  1  2  4  1  6  2        2 -.122126870115D-04 0.100000000000D+01
0.421283230999D-08 0.000000000000D+00 0.000000000000D+00 0.642517307851D-08 0.000000000000D+00  6 22 21 9900012 -13 1 -2 2 0.24955795D-02 0.49664139D-01 0.37270301D+04 0.37270301D+04 0.37270301D+04 0.12564726D+01  1  2 12  3  6  2        2 0.862172145904D-05 0.100000000000D+01
  </mgrwgt>
  </event>
  <event>
  6     66 0.17293500E-05 0.18273231E+02 0.78161638E-02 0.11802245E+00
       22 -1    0    0    0    0 0.00000000E+00 0.00000000E+00 0.38269025E+02 0.38269025E+02 0.00000000E+00 0.0000E+00 0.9000E+01
        2 -1    0    0  501    0 0.00000000E+00 0.00000000E+00 -.14698883E+03 0.14698883E+03 0.00000000E+00 0.0000E+00 0.9000E+01
       24  2    1    2    0    0 -.50558545E+01 -.17559878E+02 -.77414719E+01 0.82639460E+02 0.80221188E+02 0.0000E+00 0.0000E+00
  9900012  1    3    3    0    0 -.26880090E+02 -.56573825E+01 -.17833815E+01 0.57076489E+02 0.50000000E+02 0.0000E+00 0.9000E+01
      -13  1    3    3    0    0 0.21824235E+02 -.11902495E+02 -.59580905E+01 0.25562971E+02 0.00000000E+00 0.0000E+00 0.9000E+01
        1  1    1    2  501    0 0.50558545E+01 0.17559878E+02 -.10097833E+03 0.10261840E+03 0.00000000E+00 0.0000E+00 0.9000E+01
#aMCatNLO 1  0  0  2  5 0.17443735D+03 0.00000000D+00  -5  6  0 0.00000000D+00 0.00000000D+00 0.00000000D+00 0.00000000D+00 0.00000000D+00
  <mgrwgt>
 0.9500930061D-04    3    2    0
 0.750007946671303D+02 0.000000000000000D+00 0.000000000000000D+00 0.750007946671303D+02
 0.750007946671303D+02 0.000000000000000D+00 0.000000000000000D+00 -.750007946671303D+02
 0.691991279902758D+02 -.268800897561438D+02 -.565738253439472D+01 0.391659815678830D+02
 0.272529029192555D+02 0.218242352873301D+02 -.119024954236758D+02 0.111693363428181D+02
 0.535495584247294D+02 0.505585446881373D+01 0.175598779580705D+02 -.503353179107011D+02
 0.000000000000000D+00 -.000000000000000D+00 0.000000000000000D+00 0.000000000000000D+00
 0.199613474637099D+03 0.000000000000000D+00 0.000000000000000D+00 0.199613474637099D+03
 0.932920867492784D+02 0.000000000000000D+00 0.000000000000000D+00 -.932920867492784D+02
 0.769798019185818D+02 -.216887278702117D+02 -.377029823040596D+02 0.391659815678830D+02
 0.372003931651917D+02 0.241132134931777D+02 -.260320593180463D+02 0.111693363428181D+02
 0.513849562100584D+02 0.878247252610470D+01 -.544404921602417D+01 -.503353179107011D+02
 0.127340410092546D+03 -.112069581490706D+02 0.691790908381301D+02 0.106321387887821D+03
0.401576091098D-06 0.000000000000D+00 0.000000000000D+00 0.548830013674D-06 0.000000000000D+00  6 22 2 9900012 -13 1 21 0 0.58875422D-02 0.22613666D-01 0.25090475D+04 0.25090475D+04 0.25090475D+04 0.12770448D+01  1  2  2  1  6  2        2 0.105295185040D-03 0.100000000000D+01
0.408570681700D-07 0.000000000000D+00 -.771078963614D-09 0.548830013674D-06 0.000000000000D+00  6 22 2 9900012 -13 1 21 2 0.58875422D-02 0.22613666D-01 0.25090475D+04 0.25090475D+04 0.25090475D+04 0.12770448D+01  1  2  3  1  6  2        2 0.174710951228D-04 0.100000000000D+01
-.649111459654D-07 0.000000000000D+00 0.000000000000D+00 0.548830013674D-06 0.000000000000D+00  6 22 2 9900012 -13 1 21 2 0.58875422D-02 0.22613666D-01 0.25090475D+04 0.25090475D+04 0.25090475D+04 0.12770448D+01  1  2 15  1  6  2        2 -.277569795505D-04 0.100000000000D+01
  </mgrwgt>
  </event>
  <event>
  6     66 0.17293500E-05 0.46682710E+02 0.78161638E-02 0.12172948E+00
       22 -1    0    0    0    0 0.00000000E+00 0.00000000E+00 0.53317238E+02 0.53317238E+02 0.00000000E+00 0.0000E+00 0.9000E+01
        2 -1    0    0  501    0 -.00000000E+00 -.00000000E+00 -.78876905E+03 0.78876905E+03 0.00000000E+00 0.0000E+00 0.9000E+01
       24  2    1    2    0    0 -.44934813E+02 0.12654564E+02 0.11727456E+02 0.93450106E+02 0.80100647E+02 0.0000E+00 0.0000E+00
  9900012  1    3    3    0    0 -.56003757E+02 -.35745512E+00 0.55405248E+01 0.75281113E+02 0.50000000E+02 0.0000E+00 0.9000E+01
      -13  1    3    3    0    0 0.11068944E+02 0.13012019E+02 0.61869316E+01 0.18168992E+02 0.00000000E+00 0.0000E+00 0.9000E+01
        1  1    1    2  501    0 0.44934813E+02 -.12654564E+02 -.74717927E+03 0.74863618E+03 0.00000000E+00 0.0000E+00 0.9000E+01
#aMCatNLO 1  0  0  5  2 0.16103239D+02 0.00000000D+00  -5  6  0 0.00000000D+00 0.00000000D+00 0.00000000D+00 0.00000000D+00 0.00000000D+00
  <mgrwgt>
 0.2488563107D-03    5    2    0
 0.205073127265917D+03 0.000000000000000D+00 0.000000000000000D+00 0.205073127265917D+03
 0.205073127265917D+03 -.000000000000000D+00 -.000000000000000D+00 -.205073127265917D+03
 0.164497375304750D+03 -.560037574360890D+02 -.357455117257139D+00 0.146365425770674D+03
 0.483974906320707D+02 0.110689443200510D+02 0.130120188961679D+02 0.452822585055864D+02
 0.197251388595013D+03 0.449348131160380D+02 -.126545637789108D+02 -.191647684276261D+03
 0.000000000000000D+00 0.000000000000000D+00 0.000000000000000D+00 0.000000000000000D+00
 0.205073127265917D+03 0.000000000000000D+00 0.000000000000000D+00 0.205073127265917D+03
 0.205073127265917D+03 -.000000000000000D+00 -.000000000000000D+00 -.205073127265917D+03
 0.158687395158862D+03 -.545953094762217D+02 -.754102912172654D+00 0.140358373082258D+03
 0.468135461269322D+02 0.114838765901815D+02 0.128951654697893D+02 0.435125658511038D+02
 0.195485828714179D+03 0.462608678700039D+02 -.190646274414310D+02 -.188974022851033D+03
 0.915948453186109D+01 -.314943498396365D+01 0.692356488381440D+01 0.510308391767179D+01
0.446875956660D-05 0.000000000000D+00 0.000000000000D+00 0.295455384380D-04 0.000000000000D+00  6 22 2 9900012 -13 1 21 0 0.82026521D-02 0.12134908D+00 0.48193319D+04 0.48193319D+04 0.48193319D+04 0.12436498D+01  1  2  2  2  6  5        1 0.129751479658D-03 0.100000000000D+01
0.206800792309D-06 0.000000000000D+00 -.858060669358D-08 0.295455384380D-04 0.000000000000D+00  6 22 2 9900012 -13 1 21 2 0.82026521D-02 0.12134908D+00 0.48193319D+04 0.48193319D+04 0.48193319D+04 0.12436498D+01  1  2  3  2  6  5        1 0.928696366761D-05 0.100000000000D+01
-.792548634174D-06 0.000000000000D+00 0.000000000000D+00 0.295455384380D-04 0.000000000000D+00  6 22 2 9900012 -13 1 21 2 0.82026521D-02 0.12134908D+00 0.48193319D+04 0.48193319D+04 0.48193319D+04 0.12436498D+01  1  2 15  2  6  5        1 -.355915965708D-04 0.100000000000D+01
0.327691982105D-05 0.000000000000D+00 0.000000000000D+00 0.295455384380D-04 0.000000000000D+00  6 22 2 9900012 -13 1 21 2 0.82026521D-02 0.12134908D+00 0.55460921D+04 0.55460921D+04 0.55460921D+04 0.12368095D+01  1  2 12  2  6  5        1 0.146726224355D-03 0.100000000000D+01
-.293214333806D-07 0.000000000000D+00 0.000000000000D+00 0.295455384380D-04 0.000000000000D+00  6 22 2 9900012 -13 1 21 2 0.82026521D-02 0.12134908D+00 0.48193319D+04 0.48193319D+04 0.48193319D+04 0.12436498D+01  1  2  4  2  6  5        1 -.131676036367D-05 0.100000000000D+01
  </mgrwgt>
  </event>
  <event>
  7     66 0.17293500E-05 0.18423138E+02 0.78161638E-02 0.12962049E+00
       22 -1    0    0    0    0 0.00000000E+00 0.00000000E+00 0.50247303E+03 0.50247303E+03 0.00000000E+00 0.0000E+00 0.9000E+01
       21 -1    0    0  501  502 0.00000000E+00 0.00000000E+00 -.67952010E+01 0.67952010E+01 0.00000000E+00 0.0000E+00 0.9000E+01
       24  2    1    2    0    0 -.15257974E+02 0.10960265E+02 0.32497033E+03 0.33515797E+03 0.79826163E+02 0.0000E+00 0.0000E+00
  9900012  1    3    3    0    0 0.97503346E+00 0.28931327E+02 0.23185738E+03 0.23894731E+03 0.50000000E+02 0.0000E+00 0.9000E+01
      -13  1    3    3    0    0 -.16233008E+02 -.17971062E+02 0.93112950E+02 0.96210660E+02 0.00000000E+00 0.0000E+00 0.9000E+01
        1  1    1    2  501    0 0.15251943E+02 -.10627645E+02 0.49083301E+02 0.52485608E+02 0.00000000E+00 0.0000E+00 0.9000E+01
       -2  1    1    2    0  502 0.60307073E-02 -.33262039E+00 0.12162420E+03 0.12162465E+03 0.00000000E+00 0.0000E+00 0.9000E+01
#aMCatNLO 2  0  0  2  2 0.28289521D+02 0.00000000D+00  -5  6  0 0.00000000D+00 0.00000000D+00 0.00000000D+00 0.00000000D+00 0.00000000D+00
  <mgrwgt>
 0.1735104026D+00    1    2    0
 0.508707038517473D+02 0.000000000000000D+00 0.000000000000000D+00 0.508707038517473D+02
 0.508707038517473D+02 0.000000000000000D+00 0.000000000000000D+00 -.508707038517473D+02
 0.578887031624127D+02 0.978467589874654D+00 0.287419198193767D+02 0.490373328169607D+01
 0.242977474160115D+02 -.162315690095971D+02 -.180504032186427D+02 0.104863750810065D+01
 0.195549571250703D+02 0.152531014197225D+02 -.106915166007340D+02 -.595237078979672D+01
 0.000000000000000D+00 0.000000000000000D+00 -.000000000000000D+00 0.000000000000000D+00
 0.671166781396522D+02 0.000000000000000D+00 0.000000000000000D+00 0.671166781396522D+02
 0.508726789043198D+02 0.000000000000000D+00 0.000000000000000D+00 -.508726789043198D+02
 0.579829197955401D+02 0.975033462175731D+00 0.289313272710682D+02 0.490373328169607D+01
 0.242398277434571D+02 -.162330075346392D+02 -.179710621497291D+02 0.104863750810065D+01
 0.195192040551348D+02 0.152519433651808D+02 -.106276447302346D+02 -.595237078979672D+01
 0.162474054498399D+02 0.603070728272686D-02 -.332620391104517D+00 0.162439992353324D+02
0.241209110121D-04 0.000000000000D+00 0.000000000000D+00 0.657006527090D-07 0.310875985586D-06  6 22 21 9900012 -13 1 -2 2 0.77303543D-01 0.10454155D-02 0.25459328D+04 0.25459328D+04 0.25459328D+04 0.12762677D+01  1  2  1  3  6  2        2 0.173510402580D+00 0.100000000000D+01
  </mgrwgt>
  </event>
  <event>
  6     66 0.17293500E-05 0.77369816E+02 0.78161638E-02 0.10581600E+00
       22 -1    0    0    0    0 0.00000000E+00 0.00000000E+00 0.48178223E+02 0.48178223E+02 0.00000000E+00 0.0000E+00 0.9000E+01
        2 -1    0    0  501    0 0.00000000E+00 0.00000000E+00 -.38813595E+03 0.38813595E+03 0.00000000E+00 0.0000E+00 0.9000E+01
       24  2    1    2    0    0 -.10532208E+03 -.71733750E+02 -.16258087E+03 0.21790854E+03 0.69376648E+02 0.0000E+00 0.0000E+00
  9900012  1    3    3    0    0 -.68697535E+02 -.64491262E+02 -.10814750E+03 0.15190246E+03 0.50000000E+02 0.0000E+00 0.9000E+01
      -13  1    3    3    0    0 -.36624548E+02 -.72424878E+01 -.54433366E+02 0.66006079E+02 0.00000000E+00 0.0000E+00 0.9000E+01
        1  1    1    2  501    0 0.10532208E+03 0.71733750E+02 -.17737686E+03 0.21840564E+03 0.00000000E+00 0.0000E+00 0.9000E+01
#aMCatNLO 1  0  0  2  5 0.12111547D+03 0.00000000D+00  -5  6  0 0.00000000D+00 0.00000000D+00 0.00000000D+00 0.00000000D+00 0.00000000D+00
  <mgrwgt>
 0.4948018155D-04    7    2    0
 0.136746847395754D+03 0.000000000000000D+00 0.000000000000000D+00 0.136746847395754D+03
 0.136746847395754D+03 0.000000000000000D+00 0.000000000000000D+00 -.136746847395754D+03
 0.107906018837447D+03 -.686975351491664D+02 -.644912617474432D+02 0.162860284906820D+02
 0.376401526571538D+02 -.366245480860728D+02 -.724248778354461D+01 -.479269655308930D+01
 0.127947523296908D+03 0.105322083235239D+03 0.717337495309878D+02 -.114933319375927D+02
 0.000000000000000D+00 0.000000000000000D+00 0.000000000000000D+00 -.000000000000000D+00
 0.174058047694363D+03 0.000000000000000D+00 0.000000000000000D+00 0.174058047694363D+03
 0.237622003181534D+03 0.000000000000000D+00 0.000000000000000D+00 -.237622003181534D+03
 0.146271944525098D+03 -.112644479863945D+03 -.770809197359190D+02 0.162860284906820D+02
 0.539860996120708D+02 -.524665738448305D+02 -.117808166125863D+02 -.479269655308930D+01
 0.915205937049870D+02 0.673764128988145D+02 0.608633007482677D+02 -.114933319375927D+02
 0.119901413033741D+03 0.977346408099613D+02 0.279984356002376D+02 -.635639554871704D+02
0.127663218618D-05 0.000000000000D+00 0.000000000000D+00 0.156778127289D-08 0.000000000000D+00  6 22 2 9900012 -13 1 21 0 0.74120342D-02 0.59713223D-01 0.18419101D+05 0.18419101D+05 0.18419101D+05 0.11827599D+01  1  2  2  1  6  2        2 0.101218537883D-03 0.100000000000D+01
-.519356773896D-07 0.000000000000D+00 -.245130186994D-08 0.156778127289D-08 0.000000000000D+00  6 22 2 9900012 -13 1 21 2 0.74120342D-02 0.59713223D-01 0.18419101D+05 0.18419101D+05 0.18419101D+05 0.11827599D+01  1  2  3  1  6  2        2 -.576040800509D-05 0.100000000000D+01
-.194995551727D-06 0.000000000000D+00 0.000000000000D+00 0.156778127289D-08 0.000000000000D+00  6 22 2 9900012 -13 1 21 2 0.74120342D-02 0.59713223D-01 0.18419101D+05 0.18419101D+05 0.18419101D+05 0.11827599D+01  1  2 15  1  6  2        2 -.216277902509D-04 0.100000000000D+01
0.116500229642D-07 0.000000000000D+00 0.000000000000D+00 0.156778127289D-08 0.000000000000D+00  6 22 2 9900012 -13 1 21 2 0.74120342D-02 0.13207379D+00 0.38337139D+05 0.38337139D+05 0.38337139D+05 0.11531362D+01  1  2 12  1  6  2        2 0.522879812193D-06 0.100000000000D+01
-.490677807139D-06 0.000000000000D+00 -.365644782840D-06 0.156778127289D-08 0.000000000000D+00  6 22 2 9900012 -13 1 21 2 0.74120342D-02 0.12427611D+00 0.18419101D+05 0.18419101D+05 0.18419101D+05 0.11827599D+01  1  2  5  1  6  2        2 -.240572053375D-04 0.100000000000D+01
0.100277234604D-08 0.000000000000D+00 0.000000000000D+00 0.156778127289D-08 0.000000000000D+00  6 22 21 9900012 -13 1 -2 2 0.74120342D-02 0.13207379D+00 0.38337139D+05 0.38337139D+05 0.38337139D+05 0.11531362D+01  1  2 12  3  6  2        2 0.428902135027D-07 0.100000000000D+01
-.163525851829D-07 0.000000000000D+00 -.289804364429D-07 0.156778127289D-08 0.000000000000D+00  6 22 21 9900012 -13 1 -2 2 0.74120342D-02 0.12427611D+00 0.18419101D+05 0.18419101D+05 0.18419101D+05 0.11827599D+01  1  2  5  3  6  2        2 -.858722763547D-06 0.100000000000D+01
  </mgrwgt>
  </event>
  <event>
  7     66 -.17293500E-05 0.92039805E+02 0.78161638E-02 0.11410449E+00
       22 -1    0    0    0    0 0.00000000E+00 0.00000000E+00 0.54157271E+03 0.54157271E+03 0.00000000E+00 0.0000E+00 0.9000E+01
        4 -1    0    0  501    0 0.00000000E+00 0.00000000E+00 -.44173107E+02 0.44173107E+02 0.00000000E+00 0.0000E+00 0.9000E+01
       24  2    1    2    0    0 0.81554943E+02 -.40427313E+02 0.44681955E+03 0.46308397E+03 0.80706140E+02 0.0000E+00 0.0000E+00
  9900012  1    3    3    0    0 0.50467113E+02 -.12560025E+01 0.23943525E+03 0.24975537E+03 0.50000000E+02 0.0000E+00 0.9000E+01
      -13  1    3    3    0    0 0.31087830E+02 -.39171310E+02 0.20738430E+03 0.21332860E+03 0.00000000E+00 0.0000E+00 0.9000E+01
        3  1    1    2  502    0 -.90596638E+02 0.35309999E+02 0.54607475E+02 0.11151916E+03 0.00000000E+00 0.0000E+00 0.9000E+01
       21  1    1    2  501  502 0.90416952E+01 0.51173140E+01 -.40274240E+01 0.11142679E+02 0.00000000E+00 0.0000E+00 0.9000E+01
#aMCatNLO 2  0  0  5  2 0.25048577D+02 0.00000000D+00  -5  6  0 0.00000000D+00 0.00000000D+00 0.00000000D+00 0.00000000D+00 0.00000000D+00
  <mgrwgt>
 -.2880089902D-04    2    2    0
 0.154670452391575D+03 0.000000000000000D+00 0.000000000000000D+00 0.154670452391575D+03
 0.154670452391575D+03 -.000000000000000D+00 -.000000000000000D+00 -.154670452391575D+03
 0.913757924842501D+02 0.530651898061428D+02 -.254388596446691D+01 0.550195395033670D+02
 0.738226581443161D+02 0.331788583285439D+02 -.402078464650572D+02 0.522711899438817D+02
 0.144142454154585D+03 -.862440481346867D+02 0.427517324295241D+02 -.107290729447249D+03
 0.000000000000000D+00 0.000000000000000D+00 0.000000000000000D+00 -.000000000000000D+00
 0.154670452391575D+03 0.000000000000000D+00 0.000000000000000D+00 0.154670452391575D+03
 0.154670452391575D+03 -.000000000000000D+00 -.000000000000000D+00 -.154670452391575D+03
 0.879229533493758D+02 0.504671129998779D+02 -.125600248896809D+01 0.517874375585602D+02
 0.704836230311924D+02 0.310878297472937D+02 -.391713100739490D+02 0.496698744139449D+02
 0.123359518113670D+03 -.905966379621226D+02 0.353099985882723D+02 -.759145829132534D+02
 0.275748102889123D+02 0.904169521495095D+01 0.511731397464479D+01 -.255427290592517D+02
-.210282690391D-05 0.000000000000D+00 0.000000000000D+00 0.136617801559D-05 0.000000000000D+00  6 22 4 9900012 -13 3 21 2 0.83318878D-01 0.67958625D-02 0.13074226D+05 0.13074226D+05 0.13074226D+05 0.11974470D+01  1  2 13  2  6  5        3 -.351447467624D-04 0.100000000000D+01
0.379573476601D-06 0.000000000000D+00 0.000000000000D+00 0.136617801559D-05 0.348429191949D-07  6 22 4 9900012 -13 3 21 2 0.83318878D-01 0.67958625D-02 0.13074226D+05 0.13074226D+05 0.13074226D+05 0.11974470D+01  1  2  1  2  6  5        3 0.634384774516D-05 0.100000000000D+01
  </mgrwgt>
  </event>
  <event>
  6     66 0.17293500E-05 0.12988104E+02 0.78161638E-02 0.12464318E+00
       22 -1    0    0    0    0 0.00000000E+00 0.00000000E+00 0.88968625E+03 0.88968625E+03 0.00000000E+00 0.0000E+00 0.9000E+01
        2 -1    0    0  501    0 0.00000000E+00 0.00000000E+00 -.32641088E+02 0.32641088E+02 0.00000000E+00 0.0000E+00 0.9000E+01
       24  2    1    2    0    0 -.12757798E+02 -.24350425E+01 0.88651922E+03 0.89011847E+03 0.78904179E+02 0.0000E+00 0.0000E+00
  9900012  1    3    3    0    0 -.28063517E+02 -.88499055E+01 0.52052429E+03 0.52374748E+03 0.50000000E+02 0.0000E+00 0.9000E+01
      -13  1    3    3    0    0 0.15305719E+02 0.64148630E+01 0.36599493E+03 0.36637099E+03 0.00000000E+00 0.0000E+00 0.9000E+01
        1  1    1    2  501    0 0.12757798E+02 0.24350425E+01 -.29474061E+02 0.32208867E+02 0.00000000E+00 0.0000E+00 0.9000E+01
#aMCatNLO 1  0  0  2  2 0.31495712D+02 0.00000000D+00  -5  6  0 0.00000000D+00 0.00000000D+00 0.00000000D+00 0.00000000D+00 0.00000000D+00
  <mgrwgt>
 0.2949437542D-04    7    2    0
 0.170412227714553D+03 0.000000000000000D+00 0.000000000000000D+00 0.170412227714553D+03
 0.170412227714553D+03 0.000000000000000D+00 0.000000000000000D+00 -.170412227714553D+03
 0.108424704447061D+03 -.280635170469137D+02 -.884990545589217D+01 0.915971326997302D+02
 0.711210660624818D+02 0.153057189963822D+02 0.641486298735347D+01 0.691577221770727D+02
 0.161278684919563D+03 0.127577980505315D+02 0.243504246853870D+01 -.160754854876803D+03
 0.000000000000000D+00 0.000000000000000D+00 0.000000000000000D+00 -.000000000000000D+00
 0.175714737955537D+03 0.000000000000000D+00 0.000000000000000D+00 0.175714737955537D+03
 0.242756938877634D+03 0.000000000000000D+00 0.000000000000000D+00 -.242756938877634D+03
 0.110423087813064D+03 -.300473517838944D+02 -.200095040951665D+02 0.915971326997302D+02
 0.705694281179638D+02 0.140213079390340D+02 -.810291215594893D+00 0.691577221770727D+02
 0.161665318400691D+03 0.983034091116579D+01 -.140326834463330D+02 -.160754854876803D+03
 0.758138425014535D+02 0.619570293369455D+01 0.348524787570944D+02 -.670422009220974D+02
0.205342436392D-05 0.000000000000D+00 0.000000000000D+00 0.144794995751D-04 0.000000000000D+00  6 22 2 9900012 -13 1 21 0 0.13687481D+00 0.50217059D-02 0.19184387D+04 0.19184387D+04 0.19184387D+04 0.12916039D+01  1  2  2  1  6  2        2 0.211902063886D-04 0.100000000000D+01
0.418719709059D-06 0.000000000000D+00 -.394284511825D-08 0.144794995751D-04 0.000000000000D+00  6 22 2 9900012 -13 1 21 2 0.13687481D+00 0.50217059D-02 0.19184387D+04 0.19184387D+04 0.19184387D+04 0.12916039D+01  1  2  3  1  6  2        2 0.720839472800D-05 0.100000000000D+01
-.353655894064D-06 0.000000000000D+00 0.000000000000D+00 0.144794995751D-04 0.000000000000D+00  6 22 2 9900012 -13 1 21 2 0.13687481D+00 0.50217059D-02 0.19184387D+04 0.19184387D+04 0.19184387D+04 0.12916039D+01  1  2 15  1  6  2        2 -.608830018539D-05 0.100000000000D+01
-.513521984923D-07 0.000000000000D+00 0.000000000000D+00 0.144794995751D-04 0.000000000000D+00  6 22 2 9900012 -13 1 21 2 0.13687481D+00 0.50217059D-02 0.19184387D+04 0.19184387D+04 0.19184387D+04 0.12916039D+01  1  2  4  1  6  2        2 -.884044645796D-06 0.100000000000D+01
-.411069885898D-05 0.000000000000D+00 -.852376338624D-06 0.144794995751D-04 0.000000000000D+00  6 22 2 9900012 -13 1 21 2 0.13687481D+00 0.73643810D-02 0.19184387D+04 0.19184387D+04 0.19184387D+04 0.12916039D+01  1  2  5  1  6  2        2 -.438926342632D-04 0.100000000000D+01
0.418538190600D-05 0.000000000000D+00 0.793498388950D-06 0.144794995751D-04 0.000000000000D+00  6 22 2 9900012 -13 1 21 2 0.13687481D+00 0.50217059D-02 0.19184387D+04 0.19184387D+04 0.19184387D+04 0.12916039D+01  1  2  6  1  6  2        2 0.720526982923D-04 0.100000000000D+01
-.162115833837D-06 0.000000000000D+00 -.392965127928D-07 0.144794995751D-04 0.000000000000D+00  6 22 21 9900012 -13 1 -2 2 0.13687481D+00 0.73643810D-02 0.19184387D+04 0.19184387D+04 0.19184387D+04 0.12916039D+01  1  2  5  3  6  2        2 -.200919448932D-04 0.100000000000D+01
  </mgrwgt>
  </event>
  <event>
  6     66 0.17293500E-05 0.51103161E+02 0.78161638E-02 0.12224355E+00
       22 -1    0    0    0    0 0.00000000E+00 0.00000000E+00 0.11605733E+04 0.11605733E+04 0.00000000E+00 0.0000E+00 0.9000E+01
        2 -1    0    0  501    0 0.00000000E+00 0.00000000E+00 -.12939367E+02 0.12939367E+02 0.00000000E+00 0.0000E+00 0.9000E+01
       24  2    1    2    0    0 0.31308716E+02 0.41141839E+02 0.10979256E+04 0.11017923E+04 0.76373415E+02 0.0000E+00 0.0000E+00
  9900012  1    3    3    0    0 0.11398864E+02 0.10459634E+02 0.49525927E+03 0.49801715E+03 0.50000000E+02 0.0000E+00 0.9000E+01
      -13  1    3    3    0    0 0.19909852E+02 0.30682205E+02 0.60266629E+03 0.60377517E+03 0.00000000E+00 0.0000E+00 0.9000E+01
        1  1    1    2  501    0 -.31308716E+02 -.41141839E+02 0.49708396E+02 0.71720368E+02 0.00000000E+00 0.0000E+00 0.9000E+01
#aMCatNLO 1  0  0  5  2 0.12471111D+02 0.00000000D+00  -5  6  0 0.00000000D+00 0.00000000D+00 0.00000000D+00 0.00000000D+00 0.00000000D+00
  <mgrwgt>
 0.5939175573D-04    5    2    0
 0.122544213438425D+03 0.000000000000000D+00 0.000000000000000D+00 0.122544213438425D+03
 0.122544213438425D+03 -.000000000000000D+00 -.000000000000000D+00 -.122544213438425D+03
 0.654991805763753D+02 0.113988642137662D+02 0.104596335095303D+02 0.393802566987451D+02
 0.689446124447865D+02 0.199098519112909D+02 0.306822052207644D+02 0.584427896735190D+02
 0.110644633855687D+03 -.313087161250571D+02 -.411418387302948D+02 -.978230463722640D+02
 0.000000000000000D+00 0.000000000000000D+00 0.000000000000000D+00 -.000000000000000D+00
 0.122544213438425D+03 0.000000000000000D+00 0.000000000000000D+00 0.122544213438425D+03
 0.122544213438425D+03 -.000000000000000D+00 -.000000000000000D+00 -.122544213438425D+03
 0.649857598872402D+02 0.111706228858276D+02 0.101597084705051D+02 0.386671242305270D+02
 0.681003402180281D+02 0.196701359573126D+02 0.303672017220499D+02 0.576938051163584D+02
 0.417010133621603D+02 -.300352570856529D+01 -.240286527549834D+02 -.339496273253402D+02
 0.703013134094207D+02 -.278372331345749D+02 -.164982574375716D+02 -.624113020215452D+02
0.337474960380D-05 0.000000000000D+00 0.000000000000D+00 0.286779929600D-06 0.000000000000D+00  6 22 2 9900012 -13 1 21 0 0.17854974D+00 0.19906719D-02 0.49431165D+04 0.49431165D+04 0.49431165D+04 0.12424056D+01  1  2  2  2  6  5        1 0.707006771015D-04 0.100000000000D+01
0.725440601076D-07 0.000000000000D+00 -.647996353529D-08 0.286779929600D-06 0.000000000000D+00  6 22 2 9900012 -13 1 21 2 0.17854974D+00 0.19906719D-02 0.49431165D+04 0.49431165D+04 0.49431165D+04 0.12424056D+01  1  2  3  2  6  5        1 0.234590630415D-05 0.100000000000D+01
-.574377212975D-06 0.000000000000D+00 0.000000000000D+00 0.286779929600D-06 0.000000000000D+00  6 22 2 9900012 -13 1 21 2 0.17854974D+00 0.19906719D-02 0.49431165D+04 0.49431165D+04 0.49431165D+04 0.12424056D+01  1  2 15  2  6  5        1 -.185740241569D-04 0.100000000000D+01
0.409625864405D-05 0.000000000000D+00 0.000000000000D+00 0.286779929600D-06 0.000000000000D+00  6 22 2 9900012 -13 1 21 2 0.17854974D+00 0.19906719D-02 0.52552452D+04 0.52552452D+04 0.52552452D+04 0.12394183D+01  1  2 12  2  6  5        1 0.132663911330D-03 0.100000000000D+01
-.395033691515D-05 0.000000000000D+00 0.000000000000D+00 0.286779929600D-06 0.000000000000D+00  6 22 2 9900012 -13 1 21 2 0.17854974D+00 0.19906719D-02 0.49431165D+04 0.49431165D+04 0.49431165D+04 0.12424056D+01  1  2  5  2  6  5        1 -.127744714854D-03 0.100000000000D+01
  </mgrwgt>
  </event>
  <event>
  6     66 0.17293500E-05 0.61504149E+02 0.78161638E-02 0.11477494E+00
       22 -1    0    0    0    0 0.00000000E+00 0.00000000E+00 0.84738812E+03 0.84738812E+03 0.00000000E+00 0.0000E+00 0.9000E+01
        2 -1    0    0  501    0 0.00000000E+00 0.00000000E+00 -.38651937E+02 0.38651937E+02 0.00000000E+00 0.0000E+00 0.9000E+01
       24  2    1    2    0    0 -.19964636E+02 -.58173650E+02 0.81505222E+03 0.82421246E+03 0.10598726E+03 0.0000E+00 0.0000E+00
  9900012  1    3    3    0    0 0.24183503E+02 -.20773450E+02 0.29133373E+03 0.29730745E+03 0.50000000E+02 0.0000E+00 0.9000E+01
      -13  1    3    3    0    0 -.44148140E+02 -.37400201E+02 0.52371848E+03 0.52690500E+03 0.00000000E+00 0.0000E+00 0.9000E+01
        1  1    1    2  501    0 0.19964636E+02 0.58173650E+02 -.63160301E+01 0.61827603E+02 0.00000000E+00 0.0000E+00 0.9000E+01
#aMCatNLO 1  0  0  5  2 0.51782114D+02 0.00000000D+00  -5  6  0 0.00000000D+00 0.00000000D+00 0.00000000D+00 0.00000000D+00 0.00000000D+00
  <mgrwgt>
 0.1393124537D-03    6    2    0
 0.180978431491627D+03 0.000000000000000D+00 0.000000000000000D+00 0.180978431491627D+03
 0.180978431491627D+03 -.000000000000000D+00 -.000000000000000D+00 -.180978431491627D+03
 0.768439145374573D+02 0.241835033563917D+02 -.207734497979359D+02 0.488733992100413D+02
 0.119651973044573D+03 -.441481395176290D+02 -.374002006537478D+02 0.104731854856345D+03
 0.165460975401224D+03 0.199646361612373D+02 0.581736504516837D+02 -.153605254066386D+03
 0.000000000000000D+00 0.000000000000000D+00 0.000000000000000D+00 0.000000000000000D+00
 0.180978431491627D+03 0.000000000000000D+00 0.000000000000000D+00 0.180978431491627D+03
 0.180978431491627D+03 -.000000000000000D+00 -.000000000000000D+00 -.180978431491627D+03
 0.720722655536872D+02 0.251177659791942D+02 -.180511629097576D+02 0.416853069061634D+02
 0.108236028792650D+03 -.427184275671119D+02 -.332342563017309D+02 0.937318413510989D+02
 0.117261396666312D+03 -.368205233461923D+02 0.328154736114122D+02 -.106384345184362D+03
 0.643871719706045D+02 0.544211849341100D+02 0.184699456000762D+02 -.290328030729005D+02
0.133672582027D-04 0.000000000000D+00 0.000000000000D+00 0.288463976737D-07 0.000000000000D+00  6 22 2 9900012 -13 1 21 0 0.13036740D+00 0.59464519D-02 0.79801766D+04 0.79801766D+04 0.79801766D+04 0.12196253D+01  1  2  2  2  6  5        1 0.140131408122D-03 0.100000000000D+01
0.448606429023D-06 0.000000000000D+00 -.256668955891D-07 0.288463976737D-07 0.000000000000D+00  6 22 2 9900012 -13 1 21 2 0.13036740D+00 0.59464519D-02 0.79801766D+04 0.79801766D+04 0.79801766D+04 0.12196253D+01  1  2  3  2  6  5        1 0.699538242557D-05 0.100000000000D+01
-.226609931110D-05 0.000000000000D+00 0.000000000000D+00 0.288463976737D-07 0.000000000000D+00  6 22 2 9900012 -13 1 21 2 0.13036740D+00 0.59464519D-02 0.79801766D+04 0.79801766D+04 0.79801766D+04 0.12196253D+01  1  2 15  2  6  5        1 -.353366119384D-04 0.100000000000D+01
-.302527443794D-06 0.000000000000D+00 0.000000000000D+00 0.288463976737D-07 0.000000000000D+00  6 22 2 9900012 -13 1 21 2 0.13036740D+00 0.59464519D-02 0.79801766D+04 0.79801766D+04 0.79801766D+04 0.12196253D+01  1  2  4  2  6  5        1 -.471748737123D-05 0.100000000000D+01
-.452900165720D-05 0.000000000000D+00 0.000000000000D+00 0.288463976737D-07 0.000000000000D+00  6 22 2 9900012 -13 1 21 2 0.13036740D+00 0.59464519D-02 0.79801766D+04 0.79801766D+04 0.79801766D+04 0.12196253D+01  1  2  5  2  6  5        1 -.706233717318D-04 0.100000000000D+01
0.659650330731D-05 0.000000000000D+00 -.000000000000D+00 0.288463976737D-07 0.000000000000D+00  6 22 2 9900012 -13 1 21 2 0.13036740D+00 0.59464519D-02 0.79801766D+04 0.79801766D+04 0.79801766D+04 0.12196253D+01  1  2  6  2  6  5        1 0.102863134188D-03 0.100000000000D+01
  </mgrwgt>
  </event>
  <event>
  6     66 0.17293500E-05 0.15041753E+02 0.78161638E-02 0.13325029E+00
       22 -1    0    0    0    0 0.00000000E+00 0.00000000E+00 0.68462095E+03 0.68462095E+03 0.00000000E+00 0.0000E+00 0.9000E+01
        2 -1    0    0  501    0 0.00000000E+00 0.00000000E+00 -.39871129E+01 0.39871129E+01 0.00000000E+00 0.0000E+00 0.9000E+01
       24  2    1    2    0    0 0.50061015E+01 -.14184262E+02 0.64940587E+03 0.65394626E+03 0.75441890E+02 0.0000E+00 0.0000E+00
  9900012  1    3    3    0    0 -.99265036E+01 -.20261215E+02 0.36660401E+03 0.37068525E+03 0.50000000E+02 0.0000E+00 0.9000E+01
      -13  1    3    3    0    0 0.14932605E+02 0.60769536E+01 0.28280185E+03 0.28326101E+03 0.00000000E+00 0.0000E+00 0.9000E+01
        1  1    1    2  501    0 -.50061015E+01 0.14184262E+02 0.31227968E+02 0.34661800E+02 0.00000000E+00 0.0000E+00 0.9000E+01
#aMCatNLO 1  0  0  5  2 0.12668337D+01 0.00000000D+00  -5  6  0 0.00000000D+00 0.00000000D+00 0.00000000D+00 0.00000000D+00 0.00000000D+00
  <mgrwgt>
 0.2988618636D-04    8    2    0
 0.522461578926564D+02 0.000000000000000D+00 0.000000000000000D+00 0.522461578926564D+02
 0.522461578926564D+02 -.000000000000000D+00 -.000000000000000D+00 -.522461578926564D+02
 0.548725131441660D+02 -.992650358666006D+01 -.202612153734670D+02 0.139297411701547D+01
 0.246076033201706D+02 0.149326050853728D+02 0.607695363979406D+01 0.185909139363012D+02
 0.250121993209763D+02 -.500610149871278D+01 0.141842617336730D+02 -.199838880533167D+02
 0.000000000000000D+00 0.000000000000000D+00 0.000000000000000D+00 0.000000000000000D+00
 0.522461578926564D+02 0.000000000000000D+00 0.000000000000000D+00 0.522461578926564D+02
 0.522461578926564D+02 -.000000000000000D+00 -.000000000000000D+00 -.522461578926564D+02
 0.548161357077495D+02 -.998561887217508D+01 -.200937184334986D+02 0.115699143702472D+01
 0.245304309315687D+02 0.149061227742600D+02 0.615198848122366D+01 0.184851990320375D+02
 0.236054752178802D+02 -.445779758302043D+01 0.124763841477313D+02 -.195367945059831D+02
 0.154027392811444D+01 -.462706319064543D+00 0.146534580454358D+01 -.105395963079084D+00
0.850405453970D-07 0.000000000000D+00 0.000000000000D+00 0.103109890349D-07 0.000000000000D+00  6 22 2 9900012 -13 1 21 0 0.10532630D+00 0.61340199D-03 0.18497900D+04 0.18497900D+04 0.18497900D+04 0.12936218D+01  1  2  2  2  6  5        1 0.229967952484D-04 0.100000000000D+01
0.500541836819D-08 0.000000000000D+00 -.163289043007D-09 0.103109890349D-07 0.000000000000D+00  6 22 2 9900012 -13 1 21 2 0.10532630D+00 0.61340199D-03 0.18497900D+04 0.18497900D+04 0.18497900D+04 0.12936218D+01  1  2  3  2  6  5        1 0.226514671840D-05 0.100000000000D+01
-.138515942921D-07 0.000000000000D+00 0.000000000000D+00 0.103109890349D-07 0.000000000000D+00  6 22 2 9900012 -13 1 21 2 0.10532630D+00 0.61340199D-03 0.18497900D+04 0.18497900D+04 0.18497900D+04 0.12936218D+01  1  2 15  2  6  5        1 -.626838578667D-05 0.100000000000D+01
0.448555383410D-11 0.000000000000D+00 0.000000000000D+00 0.103109890349D-07 0.000000000000D+00  6 22 2 9900012 -13 1 21 2 0.10532630D+00 0.61340199D-03 0.18367730D+04 0.18367730D+04 0.18367730D+04 0.12940141D+01  1  2 12  2  6  5        1 0.202898788578D-08 0.100000000000D+01
-.101921067392D-06 0.000000000000D+00 0.000000000000D+00 0.103109890349D-07 0.000000000000D+00  6 22 2 9900012 -13 1 21 2 0.10532630D+00 0.61340199D-03 0.18497900D+04 0.18497900D+04 0.18497900D+04 0.12936218D+01  1  2  4  2  6  5        1 -.461232517160D-04 0.100000000000D+01
-.504192459414D-06 0.000000000000D+00 0.000000000000D+00 0.103109890349D-07 0.000000000000D+00  6 22 2 9900012 -13 1 21 2 0.10532630D+00 0.61340199D-03 0.18497900D+04 0.18497900D+04 0.18497900D+04 0.12936218D+01  1  2  5  2  6  5        1 -.228166720717D-03 0.100000000000D+01
0.537630035894D-06 0.000000000000D+00 -.000000000000D+00 0.103109890349D-07 0.000000000000D+00  6 22 2 9900012 -13 1 21 2 0.10532630D+00 0.61340199D-03 0.18497900D+04 0.18497900D+04 0.18497900D+04 0.12936218D+01  1  2  6  2  6  5        1 0.243298526105D-03 0.100000000000D+01
0.925900938821D-07 0.000000000000D+00 0.000000000000D+00 0.103109890349D-07 0.993862862040D-08  6 22 2 9900012 -13 1 21 2 0.10532630D+00 0.61340199D-03 0.18367730D+04 0.18367730D+04 0.18367730D+04 0.12940141D+01  1  2 11  2  6  5        1 0.418820475192D-04 0.100000000000D+01
  </mgrwgt>
  </event>
  <event>
  6     66 0.17293500E-05 0.92395312E+01 0.78161638E-02 0.13283654E+00
       22 -1    0    0    0    0 0.00000000E+00 0.00000000E+00 0.40951527E+03 0.40951527E+03 0.00000000E+00 0.0000E+00 0.9000E+01
        4 -1    0    0  501    0 0.00000000E+00 0.00000000E+00 -.51000068E+01 0.51000068E+01 0.00000000E+00 0.0000E+00 0.9000E+01
       24  2    1    2    0    0 -.69199212E+01 0.61223874E+01 0.38014975E+03 0.38865022E+03 0.80310609E+02 0.0000E+00 0.0000E+00
  9900012  1    3    3    0    0 -.10622875E+02 -.17899399E+02 0.21474913E+03 0.22147330E+03 0.50000000E+02 0.0000E+00 0.9000E+01
      -13  1    3    3    0    0 0.37029534E+01 0.24021787E+02 0.16540062E+03 0.16717692E+03 0.00000000E+00 0.0000E+00 0.9000E+01
        3  1    1    2  501    0 0.69199212E+01 -.61223874E+01 0.24265518E+02 0.25965059E+02 0.00000000E+00 0.0000E+00 0.9000E+01
#aMCatNLO 1  0  0  5  2 0.11113051D+01 0.00000000D+00  -5  6  0 0.00000000D+00 0.00000000D+00 0.00000000D+00 0.00000000D+00 0.00000000D+00
  <mgrwgt>
 0.1295554236D-03    8    2    0
 0.457004450623908D+02 0.000000000000000D+00 0.000000000000000D+00 0.457004450623908D+02
 0.457004450623908D+02 -.000000000000000D+00 -.000000000000000D+00 -.457004450623908D+02
 0.544676080704551D+02 -.106228745153464D+02 -.178993994750720D+02 -.578674039332139D+01
 0.265158302307417D+02 0.370295335608520D+01 0.240217868948324D+02 0.105986387638901D+02
 0.104174518235849D+02 0.691992115926118D+01 -.612238741976031D+01 -.481189837056870D+01
 0.000000000000000D+00 0.000000000000000D+00 0.000000000000000D+00 -.000000000000000D+00
 0.457004450623908D+02 0.000000000000000D+00 0.000000000000000D+00 0.457004450623908D+02
 0.457004450623908D+02 -.000000000000000D+00 -.000000000000000D+00 -.457004450623908D+02
 0.545002699421934D+02 -.104345800165145D+02 -.180659926839145D+02 -.591767454289669D+01
 0.264300650721362D+02 0.379444289413146D+01 0.239408416956194D+02 0.105350197790900D+02
 0.890411661765284D+01 0.624499558369305D+01 -.551265057594208D+01 -.314547397509202D+01
 0.156643849279928D+01 0.395141538690029D+00 -.362198435762847D+00 -.147187126110129D+01
0.722974222813D-07 0.000000000000D+00 0.000000000000D+00 0.100856255184D-06 0.000000000000D+00  6 22 4 9900012 -13 3 21 0 0.63002350D-01 0.78461643D-03 0.19230148D+04 0.19230148D+04 0.19230148D+04 0.12914723D+01  1  2  2  2  6  5        3 0.255607727937D-04 0.100000000000D+01
0.671120829114D-08 0.000000000000D+00 -.138820568954D-09 0.100856255184D-06 0.000000000000D+00  6 22 4 9900012 -13 3 21 2 0.63002350D-01 0.78461643D-03 0.19230148D+04 0.19230148D+04 0.19230148D+04 0.12914723D+01  1  2  3  2  6  5        3 0.395751050463D-05 0.100000000000D+01
-.104433729651D-07 0.000000000000D+00 0.000000000000D+00 0.100856255184D-06 0.000000000000D+00  6 22 4 9900012 -13 3 21 2 0.63002350D-01 0.78461643D-03 0.19230148D+04 0.19230148D+04 0.19230148D+04 0.12914723D+01  1  2 15  2  6  5        3 -.615831850542D-05 0.100000000000D+01
0.853669847662D-12 0.000000000000D+00 0.000000000000D+00 0.100856255184D-06 0.000000000000D+00  6 22 4 9900012 -13 3 21 2 0.63002350D-01 0.78461643D-03 0.19046140D+04 0.19046140D+04 0.19046140D+04 0.12920036D+01  1  2 12  2  6  5        3 0.502890774895D-09 0.100000000000D+01
-.755661771272D-06 0.000000000000D+00 0.000000000000D+00 0.100856255184D-06 0.000000000000D+00  6 22 4 9900012 -13 3 21 2 0.63002350D-01 0.78461643D-03 0.19230148D+04 0.19230148D+04 0.19230148D+04 0.12914723D+01  1  2  4  2  6  5        3 -.445603722612D-03 0.100000000000D+01
-.177270008982D-06 0.000000000000D+00 0.000000000000D+00 0.100856255184D-06 0.000000000000D+00  6 22 4 9900012 -13 3 21 2 0.63002350D-01 0.78461643D-03 0.19230148D+04 0.19230148D+04 0.19230148D+04 0.12914723D+01  1  2  5  2  6  5        3 -.104533772797D-03 0.100000000000D+01
0.230222464517D-06 0.000000000000D+00 -.000000000000D+00 0.100856255184D-06 0.000000000000D+00  6 22 4 9900012 -13 3 21 2 0.63002350D-01 0.78461643D-03 0.19230148D+04 0.19230148D+04 0.19230148D+04 0.12914723D+01  1  2  6  2  6  5        3 0.135759133408D-03 0.100000000000D+01
0.883686412988D-06 0.000000000000D+00 0.000000000000D+00 0.100856255184D-06 0.574782875775D-05  6 22 4 9900012 -13 3 21 2 0.63002350D-01 0.78461643D-03 0.19046140D+04 0.19046140D+04 0.19046140D+04 0.12920036D+01  1  2 11  2  6  5        3 0.520573317903D-03 0.100000000000D+01
  </mgrwgt>
  </event>
  <event>
  6     66 0.17293500E-05 0.71708369E+02 0.78161638E-02 0.11834452E+00
       22 -1    0    0    0    0 0.00000000E+00 0.00000000E+00 0.54042161E+03 0.54042161E+03 0.00000000E+00 0.0000E+00 0.9000E+01
        2 -1    0    0  501    0 0.00000000E+00 0.00000000E+00 -.61620542E+02 0.61620542E+02 0.00000000E+00 0.0000E+00 0.9000E+01
       24  2    1    2    0    0 0.29370793E+01 0.78716044E+02 0.50701967E+03 0.51836939E+03 0.73709131E+02 0.0000E+00 0.0000E+00
  9900012  1    3    3    0    0 -.10696600E+02 0.56462678E+02 0.29201829E+03 0.30178988E+03 0.50000000E+02 0.0000E+00 0.9000E+01
      -13  1    3    3    0    0 0.13633679E+02 0.22253366E+02 0.21500138E+03 0.21657951E+03 0.00000000E+00 0.0000E+00 0.9000E+01
        1  1    1    2  501    0 -.29370793E+01 -.78716044E+02 -.28218601E+02 0.83672764E+02 0.00000000E+00 0.0000E+00 0.9000E+01
#aMCatNLO 1  0  0  5  2 0.69849360D+01 0.00000000D+00  -5  6  0 0.00000000D+00 0.00000000D+00 0.00000000D+00 0.00000000D+00 0.00000000D+00
  <mgrwgt>
 0.1593773411D-03    6    2    0
 0.182485814680907D+03 0.000000000000000D+00 0.000000000000000D+00 0.182485814680907D+03
 0.182485814680907D+03 -.000000000000000D+00 -.000000000000000D+00 -.182485814680907D+03
 0.114725522146936D+03 -.106966000824590D+02 0.564626781892473D+02 0.857874941367364D+02
 0.752033861701861D+02 0.136336793364360D+02 0.222533656100398D+02 0.705298504056210D+02
 0.175042721044691D+03 -.293707925397697D+01 -.787160437992871D+02 -.156317344542358D+03
 0.000000000000000D+00 0.000000000000000D+00 0.000000000000000D+00 0.000000000000000D+00
 0.182485814680907D+03 0.000000000000000D+00 0.000000000000000D+00 0.182485814680907D+03
 0.182485814680907D+03 -.000000000000000D+00 -.000000000000000D+00 -.182485814680907D+03
 0.113275700561797D+03 -.107240572799424D+02 0.557268036101806D+02 0.843261661206939D+02
 0.741600568474182D+02 0.136156921453894D+02 0.217712946831705D+02 0.695725354348455D+02
 0.172641299810616D+03 -.205998482589853D+01 -.733091579567111D+02 -.156289930009882D+03
 0.489457214198224D+01 -.831650039548442D+00 -.418894033663999D+01 0.239122845434271D+01
0.729243003971D-05 0.000000000000D+00 0.000000000000D+00 0.201239183824D-06 0.000000000000D+00  6 22 2 9900012 -13 1 21 0 0.83141786D-01 0.94800834D-02 0.81940816D+04 0.81940816D+04 0.81940816D+04 0.12184036D+01  1  2  2  2  6  5        1 0.102810938973D-03 0.100000000000D+01
0.706426872204D-07 0.000000000000D+00 -.140024257467D-07 0.201239183824D-06 0.000000000000D+00  6 22 2 9900012 -13 1 21 2 0.83141786D-01 0.94800834D-02 0.81940816D+04 0.81940816D+04 0.81940816D+04 0.12184036D+01  1  2  3  2  6  5        1 0.147848391780D-05 0.100000000000D+01
-.121320124302D-05 0.000000000000D+00 0.000000000000D+00 0.201239183824D-06 0.000000000000D+00  6 22 2 9900012 -13 1 21 2 0.83141786D-01 0.94800834D-02 0.81940816D+04 0.81940816D+04 0.81940816D+04 0.12184036D+01  1  2 15  2  6  5        1 -.253911423452D-04 0.100000000000D+01
0.403077496858D-05 0.000000000000D+00 0.000000000000D+00 0.201239183824D-06 0.000000000000D+00  6 22 2 9900012 -13 1 21 2 0.83141786D-01 0.94800834D-02 0.80031798D+04 0.80031798D+04 0.80031798D+04 0.12194921D+01  1  2 12  2  6  5        1 0.843575570359D-04 0.100000000000D+01
-.257434708476D-06 0.000000000000D+00 0.000000000000D+00 0.201239183824D-06 0.000000000000D+00  6 22 2 9900012 -13 1 21 2 0.83141786D-01 0.94800834D-02 0.81940816D+04 0.81940816D+04 0.81940816D+04 0.12184036D+01  1  2  4  2  6  5        1 -.538786237248D-05 0.100000000000D+01
0.721205578161D-07 0.000000000000D+00 0.000000000000D+00 0.201239183824D-06 0.216720458276D-08  6 22 2 9900012 -13 1 21 2 0.83141786D-01 0.94800834D-02 0.80031798D+04 0.80031798D+04 0.80031798D+04 0.12194921D+01  1  2 11  2  6  5        1 0.150936584574D-05 0.100000000000D+01
  </mgrwgt>
  </event>
  <event>
  6     66 0.17293500E-05 0.19201131E+02 0.78161638E-02 0.12695777E+00
       22 -1    0    0    0    0 0.00000000E+00 0.00000000E+00 0.95059073E+02 0.95059073E+02 0.00000000E+00 0.0000E+00 0.9000E+01
        2 -1    0    0  501    0 0.00000000E+00 0.00000000E+00 -.10598777E+04 0.10598777E+04 0.00000000E+00 0.0000E+00 0.9000E+01
       24  2    1    2    0    0 -.12092405E+02 -.14914999E+02 0.78209525E+02 0.11173190E+03 0.77450656E+02 0.0000E+00 0.0000E+00
  9900012  1    3    3    0    0 0.95314157E+01 0.55160089E+00 0.37977973E+02 0.63509673E+02 0.50000000E+02 0.0000E+00 0.9000E+01
      -13  1    3    3    0    0 -.21623821E+02 -.15466600E+02 0.40231551E+02 0.48222226E+02 0.00000000E+00 0.0000E+00 0.9000E+01
        1  1    1    2  501    0 0.12092405E+02 0.14914999E+02 -.10430281E+04 0.10432048E+04 0.00000000E+00 0.0000E+00 0.9000E+01
#aMCatNLO 1  0  0  2  5 0.14757364D+02 0.00000000D+00  -5  6  0 0.00000000D+00 0.00000000D+00 0.00000000D+00 0.00000000D+00 0.00000000D+00
  <mgrwgt>
 0.1080051677D-02    9    2    0
 0.317412961378276D+03 0.000000000000000D+00 0.000000000000000D+00 0.317412961378276D+03
 0.317412961378276D+03 0.000000000000000D+00 0.000000000000000D+00 -.317412961378276D+03
 0.173262473453642D+03 0.953141574863591D+01 0.551600894573140D+00 0.165616220695781D+03
 0.148875093403488D+03 -.216238207091405D+02 -.154665996950402D+02 0.146482040222375D+03
 0.312688355899423D+03 0.120924049605046D+02 0.149149988004671D+02 -.312098260918156D+03
 0.000000000000000D+00 0.000000000000000D+00 -.000000000000000D+00 -.000000000000000D+00
 0.319220527465160D+03 0.000000000000000D+00 0.000000000000000D+00 0.319220527465160D+03
 0.347142803306216D+03 0.000000000000000D+00 0.000000000000000D+00 -.347142803306216D+03
 0.173226714059423D+03 0.787680503174648D+01 0.408874660052933D+01 0.165616220695781D+03
 0.148803644551486D+03 -.230453439420750D+02 -.124277369897727D+02 0.146482040222375D+03
 0.312956853495029D+03 0.910472365401202D+01 0.213019174854209D+02 -.312098260918156D+03
 0.313761186654372D+02 0.606381525631655D+01 -.129629270961775D+02 -.279222758410565D+02
0.753705729063D-05 0.000000000000D+00 0.000000000000D+00 0.531922352622D-04 0.000000000000D+00  6 22 2 9900012 -13 1 21 0 0.14624473D-01 0.16305810D+00 0.23372537D+04 0.23372537D+04 0.23372537D+04 0.12808423D+01  1  2  2  1  6  2        2 0.650042924538D-04 0.100000000000D+01
0.109497718582D-05 0.000000000000D+00 -.144721422744D-07 0.531922352622D-04 0.000000000000D+00  6 22 2 9900012 -13 1 21 2 0.14624473D-01 0.16305810D+00 0.23372537D+04 0.23372537D+04 0.23372537D+04 0.12808423D+01  1  2  3  1  6  2        2 0.154930388812D-04 0.100000000000D+01
-.117505820145D-05 0.000000000000D+00 0.000000000000D+00 0.531922352622D-04 0.000000000000D+00  6 22 2 9900012 -13 1 21 2 0.14624473D-01 0.16305810D+00 0.23372537D+04 0.23372537D+04 0.23372537D+04 0.12808423D+01  1  2 15  1  6  2        2 -.166261202867D-04 0.100000000000D+01
0.725603558254D-04 0.000000000000D+00 0.000000000000D+00 0.531922352622D-04 0.000000000000D+00  6 22 2 9900012 -13 1 21 2 0.14624473D-01 0.17934614D+00 0.32742110D+04 0.32742110D+04 0.32742110D+04 0.12630908D+01  1  2 12  1  6  2        2 0.889344844378D-03 0.100000000000D+01
-.559338975921D-06 0.000000000000D+00 0.000000000000D+00 0.531922352622D-04 0.000000000000D+00  6 22 2 9900012 -13 1 21 2 0.14624473D-01 0.16305810D+00 0.23372537D+04 0.23372537D+04 0.23372537D+04 0.12808423D+01  1  2  4  1  6  2        2 -.791419274660D-05 0.100000000000D+01
-.775143284504D-04 0.000000000000D+00 -.890524539248D-05 0.531922352622D-04 0.000000000000D+00  6 22 2 9900012 -13 1 21 2 0.14624473D-01 0.17876927D+00 0.23372537D+04 0.23372537D+04 0.23372537D+04 0.12808423D+01  1  2  5  1  6  2        2 -.969024207368D-03 0.100000000000D+01
0.780406377998D-04 0.000000000000D+00 0.886769946001D-05 0.531922352622D-04 0.000000000000D+00  6 22 2 9900012 -13 1 21 2 0.14624473D-01 0.16305810D+00 0.23372537D+04 0.23372537D+04 0.23372537D+04 0.12808423D+01  1  2  6  1  6  2        2 0.110421171455D-02 0.100000000000D+01
0.114101159697D-05 0.000000000000D+00 0.000000000000D+00 0.531922352622D-04 0.000000000000D+00  6 22 21 9900012 -13 1 -2 2 0.14624473D-01 0.17934614D+00 0.32742110D+04 0.32742110D+04 0.32742110D+04 0.12630908D+01  1  2 12  3  6  2        2 0.936499390108D-05 0.100000000000D+01
-.114580169120D-05 0.000000000000D+00 -.134521227648D-06 0.531922352622D-04 0.000000000000D+00  6 22 21 9900012 -13 1 -2 2 0.14624473D-01 0.17876927D+00 0.23372537D+04 0.23372537D+04 0.23372537D+04 0.12808423D+01  1  2  5  3  6  2        2 -.980268702041D-05 0.100000000000D+01
  </mgrwgt>
  </event>
  <event>
  6     66 0.17293500E-05 0.95732815E+01 0.78161638E-02 0.13336931E+00
       22 -1    0    0    0    0 0.00000000E+00 0.00000000E+00 0.17350223E+02 0.17350223E+02 0.00000000E+00 0.0000E+00 0.9000E+01
        2 -1    0    0  501    0 -.00000000E+00 -.00000000E+00 -.14847890E+03 0.14847890E+03 0.00000000E+00 0.0000E+00 0.9000E+01
       24  2    1    2    0    0 -.75857284E+01 0.58399010E+01 -.79288498E+02 0.11311241E+03 0.80100584E+02 0.0000E+00 0.0000E+00
  9900012  1    3    3    0    0 -.23952061E+02 -.28609038E+01 -.36384003E+02 0.66375309E+02 0.50000000E+02 0.0000E+00 0.9000E+01
      -13  1    3    3    0    0 0.16366333E+02 0.87008048E+01 -.42904496E+02 0.46737101E+02 0.00000000E+00 0.0000E+00 0.9000E+01
        1  1    1    2  501    0 0.75857284E+01 -.58399010E+01 -.51840174E+02 0.52716709E+02 0.00000000E+00 0.0000E+00 0.9000E+01
#aMCatNLO 1  0  0  5  2 0.33093979D+01 0.00000000D+00  -5  6  0 0.00000000D+00 0.00000000D+00 0.00000000D+00 0.00000000D+00 0.00000000D+00
  <mgrwgt>
 0.7695642988D-04    8    2    0
 0.507557086121934D+02 0.000000000000000D+00 0.000000000000000D+00 0.507557086121934D+02
 0.507557086121934D+02 -.000000000000000D+00 -.000000000000000D+00 -.507557086121934D+02
 0.614312477875787D+02 -.239520611846657D+02 -.286090379388217D+01 0.263042239807045D+02
 0.209273276196388D+02 0.163663327754071D+02 0.870080476658291D+01 -.971556427584826D+01
 0.191528418171693D+02 0.758572840925863D+01 -.583990097270074D+01 -.165886597048563D+02
 0.000000000000000D+00 0.000000000000000D+00 0.000000000000000D+00 0.000000000000000D+00
 0.507557086121934D+02 0.000000000000000D+00 0.000000000000000D+00 0.507557086121934D+02
 0.507557086121934D+02 -.000000000000000D+00 -.000000000000000D+00 -.507557086121934D+02
 0.610548700160701D+02 -.236578031043950D+02 -.308743946145244D+01 0.256607330862695D+02
 0.210774084297015D+02 0.164672440722446D+02 0.862311783280888D+01 -.993623961159716D+01
 0.760079842789181D+01 0.919119786656455D-01 -.402306053411824D+01 -.644815267099349D+01
 0.117783403507232D+02 0.709864705348474D+01 -.151261783723820D+01 -.927634080367880D+01
0.554079859923D-07 0.000000000000D+00 0.000000000000D+00 0.530640357943D-07 0.000000000000D+00  6 22 2 9900012 -13 1 21 0 0.26692651D-02 0.22842907D-01 0.17482188D+04 0.17482188D+04 0.17482188D+04 0.12967697D+01  1  2  2  2  6  5        1 0.399249760896D-04 0.100000000000D+01
0.599504164753D-08 0.000000000000D+00 -.106390627734D-09 0.530640357943D-07 0.000000000000D+00  6 22 2 9900012 -13 1 21 2 0.26692651D-02 0.22842907D-01 0.17482188D+04 0.17482188D+04 0.17482188D+04 0.12967697D+01  1  2  3  2  6  5        1 0.726424097250D-05 0.100000000000D+01
-.943592120939D-08 0.000000000000D+00 0.000000000000D+00 0.530640357943D-07 0.000000000000D+00  6 22 2 9900012 -13 1 21 2 0.26692651D-02 0.22842907D-01 0.17482188D+04 0.17482188D+04 0.17482188D+04 0.12967697D+01  1  2 15  2  6  5        1 -.114335828660D-04 0.100000000000D+01
0.938138805683D-09 0.000000000000D+00 0.000000000000D+00 0.530640357943D-07 0.000000000000D+00  6 22 2 9900012 -13 1 21 2 0.26692651D-02 0.22842907D-01 0.18177899D+04 0.18177899D+04 0.18177899D+04 0.12945919D+01  1  2 12  2  6  5        1 0.113834177641D-05 0.100000000000D+01
-.162622461380D-07 0.000000000000D+00 0.000000000000D+00 0.530640357943D-07 0.000000000000D+00  6 22 2 9900012 -13 1 21 2 0.26692651D-02 0.22842907D-01 0.17482188D+04 0.17482188D+04 0.17482188D+04 0.12967697D+01  1  2  4  2  6  5        1 -.197050965858D-04 0.100000000000D+01
-.300426397430D-07 0.000000000000D+00 0.000000000000D+00 0.530640357943D-07 0.000000000000D+00  6 22 2 9900012 -13 1 21 2 0.26692651D-02 0.22842907D-01 0.17482188D+04 0.17482188D+04 0.17482188D+04 0.12967697D+01  1  2  5  2  6  5        1 -.364029121687D-04 0.100000000000D+01
0.613838308829D-07 0.000000000000D+00 -.000000000000D+00 0.530640357943D-07 0.000000000000D+00  6 22 2 9900012 -13 1 21 2 0.26692651D-02 0.22842907D-01 0.17482188D+04 0.17482188D+04 0.17482188D+04 0.12967697D+01  1  2  6  2  6  5        1 0.743792896805D-04 0.100000000000D+01
0.179587057429D-07 0.000000000000D+00 0.000000000000D+00 0.530640357943D-07 0.620716775434D-08  6 22 2 9900012 -13 1 21 2 0.26692651D-02 0.22842907D-01 0.18177899D+04 0.18177899D+04 0.18177899D+04 0.12945919D+01  1  2 11  2  6  5        1 0.217911729838D-04 0.100000000000D+01
  </mgrwgt>
  </event>
  <event>
  6     66 -.17293500E-05 0.40691957E+02 0.78161638E-02 0.12504168E+00
       22 -1    0    0    0    0 0.00000000E+00 0.00000000E+00 0.71592297E+02 0.71592297E+02 0.00000000E+00 0.0000E+00 0.9000E+01
        2 -1    0    0  501    0 0.00000000E+00 0.00000000E+00 -.26771882E+04 0.26771882E+04 0.00000000E+00 0.0000E+00 0.9000E+01
       24  2    1    2    0    0 -.44123048E+02 -.10783275E+02 0.40949145E+02 0.10184570E+03 0.81440728E+02 0.0000E+00 0.0000E+00
  9900012  1    3    3    0    0 -.24135905E+02 -.78867319E+01 -.12145715E+00 0.56078135E+02 0.50000000E+02 0.0000E+00 0.9000E+01
      -13  1    3    3    0    0 -.19987143E+02 -.28965426E+01 0.41070602E+02 0.45767567E+02 0.00000000E+00 0.0000E+00 0.9000E+01
        1  1    1    2  501    0 0.44123048E+02 0.10783275E+02 -.26465450E+04 0.26469348E+04 0.00000000E+00 0.0000E+00 0.9000E+01
#aMCatNLO 1  0  0  2  5 0.44073766D+01 0.00000000D+00  -5  6  0 0.00000000D+00 0.00000000D+00 0.00000000D+00 0.00000000D+00 0.00000000D+00
  <mgrwgt>
 -.5991980470D-02   11    2    0
 0.437796814436582D+03 0.000000000000000D+00 0.000000000000000D+00 0.437796814436582D+03
 0.437796814436582D+03 0.000000000000000D+00 0.000000000000000D+00 -.437796814436582D+03
 0.175686538063259D+03 -.241359054073990D+02 -.788673192434396D+01 0.166496297815812D+03
 0.265897759473365D+03 -.199871425105807D+02 -.289654259350380D+01 0.265129671421781D+03
 0.434009331336540D+03 0.441230479179797D+02 0.107832745178478D+02 -.431625969237592D+03
 0.000000000000000D+00 0.000000000000000D+00 0.000000000000000D+00 -.000000000000000D+00
 0.437828256655970D+03 0.000000000000000D+00 0.000000000000000D+00 0.437828256655970D+03
 0.625285924135666D+03 0.000000000000000D+00 0.000000000000000D+00 -.625285924135666D+03
 0.175798635105346D+03 -.247184146248591D+02 -.855236206930856D+01 0.166496297815812D+03
 0.265978347109435D+03 -.208686099472815D+02 -.390379068518387D+01 0.265129671421781D+03
 0.433827736857022D+03 0.426847992233930D+02 0.913979548201875D+01 -.431625969237592D+03
 0.187509461719834D+03 0.290222534874766D+01 0.331635727247367D+01 -.187457667479696D+03
0.750583573238D-05 0.000000000000D+00 0.000000000000D+00 0.347336362636D-03 0.000000000000D+00  6 22 2 9900012 -13 1 21 0 0.11014200D-01 0.41187510D+00 0.37024515D+04 0.37024515D+04 0.37024515D+04 0.12568080D+01  1  2  2  1  6  2        2 0.143741281304D-04 0.100000000000D+01
0.271955762480D-06 0.000000000000D+00 -.144121927721D-07 0.347336362636D-03 0.000000000000D+00  6 22 2 9900012 -13 1 21 2 0.11014200D-01 0.41187510D+00 0.37024515D+04 0.37024515D+04 0.37024515D+04 0.12568080D+01  1  2  3  1  6  2        2 0.822656663343D-06 0.100000000000D+01
-.130821200330D-05 0.000000000000D+00 0.000000000000D+00 0.347336362636D-03 0.000000000000D+00  6 22 2 9900012 -13 1 21 2 0.11014200D-01 0.41187510D+00 0.37024515D+04 0.37024515D+04 0.37024515D+04 0.12568080D+01  1  2 15  1  6  2        2 -.395729552398D-05 0.100000000000D+01
0.944231948324D-03 0.000000000000D+00 0.000000000000D+00 0.347336362636D-03 0.000000000000D+00  6 22 2 9900012 -13 1 21 2 0.11014200D-01 0.58830533D+00 0.39512606D+04 0.39512606D+04 0.39512606D+04 0.12535231D+01  1  2 12  1  6  2        2 0.517693702887D-03 0.100000000000D+01
-.700829782141D-02 0.000000000000D+00 0.000000000000D+00 0.347336362636D-03 0.000000000000D+00  6 22 2 9900012 -13 1 21 2 0.11014200D-01 0.41187510D+00 0.37024515D+04 0.37024515D+04 0.37024515D+04 0.12568080D+01  1  2  4  1  6  2        2 -.211998556269D-01 0.100000000000D+01
-.490178605920D-02 0.000000000000D+00 -.193560018899D-05 0.347336362636D-03 0.000000000000D+00  6 22 2 9900012 -13 1 21 2 0.11014200D-01 0.58827025D+00 0.37024515D+04 0.37024515D+04 0.37024515D+04 0.12568080D+01  1  2  5  1  6  2        2 -.270943953809D-02 0.100000000000D+01
0.460679195674D-02 0.000000000000D+00 0.181881459620D-05 0.347336362636D-03 0.000000000000D+00  6 22 2 9900012 -13 1 21 2 0.11014200D-01 0.41187510D+00 0.37024515D+04 0.37024515D+04 0.37024515D+04 0.12568080D+01  1  2  6  1  6  2        2 0.139353844364D-01 0.100000000000D+01
0.629408042591D-02 0.000000000000D+00 0.000000000000D+00 0.347336362636D-03 0.263201984553D-03  6 22 2 9900012 -13 1 21 2 0.11014991D-01 0.58826308D+00 0.39512606D+04 0.39512606D+04 0.39512606D+04 0.12535231D+01  1  2 11  1  6  2        2 0.345214219266D-02 0.100000000000D+01
0.413372736786D-04 0.000000000000D+00 0.000000000000D+00 0.347336362636D-03 0.000000000000D+00  6 22 21 9900012 -13 1 -2 2 0.11014200D-01 0.58830533D+00 0.39512606D+04 0.39512606D+04 0.39512606D+04 0.12535231D+01  1  2 12  3  6  2        2 0.200715349440D-05 0.100000000000D+01
-.214511812724D-03 0.000000000000D+00 -.847278739557D-07 0.347336362636D-03 0.000000000000D+00  6 22 21 9900012 -13 1 -2 2 0.11014200D-01 0.58827025D+00 0.37024515D+04 0.37024515D+04 0.37024515D+04 0.12568080D+01  1  2  5  3  6  2        2 -.105718303058D-04 0.100000000000D+01
0.193897398474D-03 0.000000000000D+00 0.000000000000D+00 0.347336362636D-03 0.783115097939D-05  6 22 21 9900012 -13 1 -2 2 0.11014991D-01 0.58826308D+00 0.39512606D+04 0.39512606D+04 0.39512606D+04 0.12535231D+01  1  2 11  3  6  2        2 0.941955072062D-05 0.100000000000D+01
  </mgrwgt>
  </event>
  <event>
  6     66 0.17293500E-05 0.19738908E+02 0.78161638E-02 0.13246873E+00
       22 -1    0    0    0    0 0.00000000E+00 0.00000000E+00 0.49294963E+02 0.49294963E+02 0.00000000E+00 0.0000E+00 0.9000E+01
        2 -1    0    0  501    0 -.00000000E+00 -.00000000E+00 -.62840095E+03 0.62840095E+03 0.00000000E+00 0.0000E+00 0.9000E+01
       24  2    1    2    0    0 0.18555054E+02 -.67330871E+01 0.17141489E+02 0.81121795E+02 0.76793818E+02 0.0000E+00 0.0000E+00
  9900012  1    3    3    0    0 0.18510954E+02 -.12013870E+02 0.33383689E+02 0.64042636E+02 0.50000000E+02 0.0000E+00 0.9000E+01
      -13  1    3    3    0    0 0.44100673E-01 0.52807832E+01 -.16242200E+02 0.17079159E+02 0.00000000E+00 0.0000E+00 0.9000E+01
        1  1    1    2  501    0 -.18555054E+02 0.67330871E+01 -.59624747E+03 0.59657411E+03 0.00000000E+00 0.0000E+00 0.9000E+01
#aMCatNLO 1  0  0  5  2 0.76071095D+01 0.00000000D+00  -5  6  0 0.00000000D+00 0.00000000D+00 0.00000000D+00 0.00000000D+00 0.00000000D+00
  <mgrwgt>
 0.1429518458D-03    6    2    0
 0.176002844451013D+03 0.000000000000000D+00 0.000000000000000D+00 0.176002844451013D+03
 0.176002844451013D+03 -.000000000000000D+00 -.000000000000000D+00 -.176002844451013D+03
 0.178219070461730D+03 0.185109535375192D+02 -.120138702755750D+02 0.169632097777445D+03
 0.616047169477748D+01 0.441006730692571D-01 0.528078318823791D+01 -.317219097023071D+01
 0.167626146745518D+03 -.185550542105884D+02 0.673308708733703D+01 -.166459906807214D+03
 0.000000000000000D+00 -.000000000000000D+00 0.000000000000000D+00 0.000000000000000D+00
 0.176002844451013D+03 0.000000000000000D+00 0.000000000000000D+00 0.176002844451013D+03
 0.176002844451013D+03 -.000000000000000D+00 -.000000000000000D+00 -.176002844451013D+03
 0.177468130991321D+03 0.184242963080018D+02 -.119824248986730D+02 0.168854684023438D+03
 0.617531039070153D+01 0.410952663661424D-01 0.528187376252755D+01 -.319915288120334D+01
 0.215617659938291D+02 0.381117364283917D+01 0.525119628119310D+01 -.205623356127935D+02
 0.146800481526175D+03 -.222765652172070D+02 0.144935485495232D+01 -.145093195529441D+03
0.396371088285D-05 0.000000000000D+00 0.000000000000D+00 0.426431669835D-05 0.000000000000D+00  6 22 2 9900012 -13 1 21 0 0.75838404D-02 0.96677069D-01 0.15869557D+04 0.15869557D+04 0.15869557D+04 0.13022175D+01  1  2  2  2  6  5        1 0.153464532656D-03 0.100000000000D+01
0.369762758090D-06 0.000000000000D+00 -.761084672960D-08 0.426431669835D-05 0.000000000000D+00  6 22 2 9900012 -13 1 21 2 0.75838404D-02 0.96677069D-01 0.15869557D+04 0.15869557D+04 0.15869557D+04 0.13022175D+01  1  2  3  2  6  5        1 0.242770685170D-04 0.100000000000D+01
-.632300053578D-06 0.000000000000D+00 0.000000000000D+00 0.426431669835D-05 0.000000000000D+00  6 22 2 9900012 -13 1 21 2 0.75838404D-02 0.96677069D-01 0.15869557D+04 0.15869557D+04 0.15869557D+04 0.13022175D+01  1  2 15  2  6  5        1 -.415141638474D-04 0.100000000000D+01
0.428032105252D-05 0.000000000000D+00 0.000000000000D+00 0.426431669835D-05 0.000000000000D+00  6 22 2 9900012 -13 1 21 2 0.75838404D-02 0.96677069D-01 0.19674241D+04 0.19674241D+04 0.19674241D+04 0.12902136D+01  1  2 12  2  6  5        1 0.280103880883D-03 0.100000000000D+01
-.418334087561D-05 0.000000000000D+00 0.000000000000D+00 0.426431669835D-05 0.000000000000D+00  6 22 2 9900012 -13 1 21 2 0.75838404D-02 0.96677069D-01 0.15869557D+04 0.15869557D+04 0.15869557D+04 0.13022175D+01  1  2  5  2  6  5        1 -.274660578560D-03 0.100000000000D+01
0.195768289799D-07 0.000000000000D+00 0.000000000000D+00 0.426431669835D-05 0.271707530616D-07  6 22 2 9900012 -13 1 21 2 0.75838404D-02 0.96677069D-01 0.19674241D+04 0.19674241D+04 0.19674241D+04 0.12902136D+01  1  2 11  2  6  5        1 0.128110618464D-05 0.100000000000D+01
  </mgrwgt>
  </event>
  <event>
  6     66 0.17293500E-05 0.32998046E+02 0.78161638E-02 0.12607883E+00
       22 -1    0    0    0    0 0.00000000E+00 0.00000000E+00 0.13918967E+02 0.13918967E+02 0.00000000E+00 0.0000E+00 0.9000E+01
        2 -1    0    0  501    0 0.00000000E+00 0.00000000E+00 -.20342741E+04 0.20342741E+04 0.00000000E+00 0.0000E+00 0.9000E+01
       24  2    1    2    0    0 0.32645834E+02 0.48083899E+01 -.12154068E+03 0.14909191E+03 0.79795929E+02 0.0000E+00 0.0000E+00
  9900012  1    3    3    0    0 0.12200135E+02 0.24675637E+02 -.90038729E+02 0.10660536E+03 0.50000000E+02 0.0000E+00 0.9000E+01
      -13  1    3    3    0    0 0.20445698E+02 -.19867247E+02 -.31501952E+02 0.42486552E+02 0.00000000E+00 0.0000E+00 0.9000E+01
        1  1    1    2  501    0 -.32645834E+02 -.48083899E+01 -.18988144E+04 0.18991011E+04 0.00000000E+00 0.0000E+00 0.9000E+01
#aMCatNLO 1  0  0  2  5 0.69412991D+02 0.00000000D+00  -5  6  0 0.00000000D+00 0.00000000D+00 0.00000000D+00 0.00000000D+00 0.00000000D+00
  <mgrwgt>
 0.1195399804D-03    4    2    0
 0.168270597674327D+03 0.000000000000000D+00 0.000000000000000D+00 0.168270597674327D+03
 0.168270597674327D+03 0.000000000000000D+00 0.000000000000000D+00 -.168270597674327D+03
 0.108272491143551D+03 0.122001354382730D+02 0.246756370254756D+02 0.920065322197561D+02
 0.694581524347059D+02 0.204456982499653D+02 -.198672471193215D+02 0.633379890319706D+02
 0.158810551770397D+03 -.326458336882383D+02 -.480838990615415D+01 -.155344521251727D+03
 0.000000000000000D+00 0.000000000000000D+00 -.000000000000000D+00 0.000000000000000D+00
 0.206737620835950D+03 0.000000000000000D+00 0.000000000000000D+00 0.206737620835950D+03
 0.168274974595555D+03 0.000000000000000D+00 0.000000000000000D+00 -.168274974595555D+03
 0.108299852506720D+03 0.120444407101919D+02 0.248714199403852D+02 0.920065322197561D+02
 0.693930204191101D+02 0.203458775838690D+02 -.197417246869474D+02 0.633379890319706D+02
 0.158849220350692D+03 -.328742005748366D+02 -.452122324818134D+01 -.155344521251727D+03
 0.384705021549829D+02 0.483882280775797D+00 -.608472005256479D+00 0.384626462403943D+02
0.351094676167D-05 0.000000000000D+00 0.000000000000D+00 0.182651608330D-04 0.000000000000D+00  6 22 2 9900012 -13 1 21 0 0.21413796D-02 0.31296524D+00 0.35154860D+04 0.35154860D+04 0.35154860D+04 0.12594445D+01  1  2  2  1  6  2        2 0.138051786190D-03 0.100000000000D+01
0.254574357508D-06 0.000000000000D+00 -.674148000917D-08 0.182651608330D-04 0.000000000000D+00  6 22 2 9900012 -13 1 21 2 0.21413796D-02 0.31296524D+00 0.35154860D+04 0.35154860D+04 0.35154860D+04 0.12594445D+01  1  2  3  1  6  2        2 0.158778062740D-04 0.100000000000D+01
-.545295536160D-06 0.000000000000D+00 0.000000000000D+00 0.182651608330D-04 0.000000000000D+00  6 22 2 9900012 -13 1 21 2 0.21413796D-02 0.31296524D+00 0.35154860D+04 0.35154860D+04 0.35154860D+04 0.12594445D+01  1  2 15  1  6  2        2 -.340100902934D-04 0.100000000000D+01
-.608500358473D-08 0.000000000000D+00 0.000000000000D+00 0.182651608330D-04 0.000000000000D+00  6 22 2 9900012 -13 1 21 2 0.21413796D-02 0.31296524D+00 0.35154860D+04 0.35154860D+04 0.35154860D+04 0.12594445D+01  1  2  4  1  6  2        2 -.379521759540D-06 0.100000000000D+01
  </mgrwgt>
  </event>
  <event>
  7     66 -.17293500E-05 0.12129432E+03 0.78161638E-02 0.11164819E+00
       22 -1    0    0    0    0 0.00000000E+00 0.00000000E+00 0.81162348E+02 0.81162348E+02 0.00000000E+00 0.0000E+00 0.9000E+01
        2 -1    0    0  502    0 0.00000000E+00 0.00000000E+00 -.38104189E+03 0.38104189E+03 0.00000000E+00 0.0000E+00 0.9000E+01
       24  2    1    2    0    0 -.10709490E+03 -.53716517E+02 -.13554357E+02 0.14458430E+03 0.79787964E+02 0.0000E+00 0.0000E+00
  9900012  1    3    3    0    0 -.10247059E+03 -.60534841E+02 -.43484310E+00 0.12909252E+03 0.50000000E+02 0.0000E+00 0.9000E+01
      -13  1    3    3    0    0 -.46243031E+01 0.68183238E+01 -.13119514E+02 0.15491784E+02 0.00000000E+00 0.0000E+00 0.9000E+01
        1  1    1    2  501    0 0.11187835E+03 0.52834224E+02 -.28716386E+03 0.31268403E+03 0.00000000E+00 0.0000E+00 0.9000E+01
       21  1    1    2  502  501 -.47834475E+01 0.88229254E+00 0.83867327E+00 0.49359075E+01 0.00000000E+00 0.0000E+00 0.9000E+01
#aMCatNLO 2  0  0  2  5 0.13424305D+02 0.00000000D+00  -5  6  0 0.00000000D+00 0.00000000D+00 0.00000000D+00 0.00000000D+00 0.00000000D+00
  <mgrwgt>
 -.5490165799D-04    3    2    0
 0.172220224325250D+03 0.000000000000000D+00 0.000000000000000D+00 0.172220224325250D+03
 0.172220224325250D+03 0.000000000000000D+00 0.000000000000000D+00 -.172220224325250D+03
 0.172267542741397D+03 -.104853933458993D+03 -.600952408251088D+02 0.112117442668428D+03
 0.919392949016017D+01 -.475140477183224D+01 0.684176730146607D+01 -.389136381707443D+01
 0.162978976418943D+03 0.109605338230825D+03 0.532534735236427D+02 -.108226078851353D+03
 0.000000000000000D+00 -.000000000000000D+00 0.000000000000000D+00 0.000000000000000D+00
 0.178590625218706D+03 0.000000000000000D+00 0.000000000000000D+00 0.178590625218706D+03
 0.173168411241397D+03 0.000000000000000D+00 0.000000000000000D+00 -.173168411241397D+03
 0.170982486303222D+03 -.102470594578713D+03 -.605348405350864D+02 0.112117442668428D+03
 0.911133529117092D+01 -.462430310955823D+01 0.681832378097655D+01 -.389136381707443D+01
 0.164380970627425D+03 0.111878345145970D+03 0.528342242138017D+02 -.108226078851353D+03
 0.728424423828471D+01 -.478344745769936D+01 0.882292540308136D+00 0.542221397730946D+01
-.108551972631D-05 0.000000000000D+00 0.000000000000D+00 0.209975957636D-05 0.000000000000D+00  6 22 2 9900012 -13 1 21 2 0.12041116D-01 0.60790243D-01 0.17678476D+05 0.17678476D+05 0.17678476D+05 0.11844883D+01  1  2 13  1  6  2        2 -.591848653266D-04 0.100000000000D+01
-.204605208325D-06 0.000000000000D+00 0.000000000000D+00 0.209975957636D-05 0.000000000000D+00  6 22 2 9900012 -13 1 21 2 0.12041116D-01 0.58300845D-01 0.17027176D+05 0.17027176D+05 0.17027176D+05 0.11860762D+01  1  2  8  1  6  2        2 -.116712884026D-04 0.100000000000D+01
0.296588575075D-06 0.000000000000D+00 0.000000000000D+00 0.209975957636D-05 0.151182982591D-07  6 22 2 9900012 -13 1 21 2 0.12486515D-01 0.58621830D-01 0.17678476D+05 0.17678476D+05 0.17678476D+05 0.11844883D+01  1  2  1  1  6  2        2 0.159544957401D-04 0.100000000000D+01
  </mgrwgt>
  </event>
  <event>
  6     66 0.17293500E-05 0.54177175E+01 0.78161638E-02 0.13350650E+00
       22 -1    0    0    0    0 0.00000000E+00 0.00000000E+00 0.34772696E+01 0.34772696E+01 0.00000000E+00 0.0000E+00 0.9000E+01
        2 -1    0    0  501    0 0.00000000E+00 0.00000000E+00 -.53348369E+03 0.53348369E+03 0.00000000E+00 0.0000E+00 0.9000E+01
       24  2    1    2    0    0 -.17608260E+01 -.51235881E+01 -.46803166E+03 0.47474985E+03 0.79400443E+02 0.0000E+00 0.0000E+00
  9900012  1    3    3    0    0 0.63249402E+01 -.26156857E+02 -.35198905E+03 0.35653959E+03 0.50000000E+02 0.0000E+00 0.9000E+01
      -13  1    3    3    0    0 -.80857663E+01 0.21033269E+02 -.11604262E+03 0.11821026E+03 0.00000000E+00 0.0000E+00 0.9000E+01
        1  1    1    2  501    0 0.17608260E+01 0.51235881E+01 -.61974752E+02 0.62211104E+02 0.00000000E+00 0.0000E+00 0.9000E+01
#aMCatNLO 1  0  0  2  5 0.32548512D-01 0.00000000D+00  -5  6  0 0.00000000D+00 0.00000000D+00 0.00000000D+00 0.00000000D+00 0.00000000D+00
  <mgrwgt>
 0.1017464541D-03    9    2    0
 0.430704839762957D+02 0.000000000000000D+00 0.000000000000000D+00 0.430704839762957D+02
 0.430704839762957D+02 0.000000000000000D+00 0.000000000000000D+00 -.430704839762957D+02
 0.567834637639822D+02 0.632494021308144D+01 -.261568573384045D+02 -.419168838027605D+00
 0.228807019646679D+02 -.808576625488684D+01 0.210332692438178D+02 0.396843689433997D+01
 0.647680222394125D+01 0.176082604180540D+01 0.512358809458673D+01 -.354926805631236D+01
 0.000000000000000D+00 -.000000000000000D+00 -.000000000000000D+00 -.000000000000000D+00
 0.430773746813044D+02 0.000000000000000D+00 0.000000000000000D+00 0.430773746813044D+02
 0.431020444931334D+02 0.000000000000000D+00 0.000000000000000D+00 -.431020444931334D+02
 0.567855075224121D+02 0.634437657309174D+01 -.261565870855116D+02 -.419168838027605D+00
 0.228780357885034D+02 -.807793503751722D+01 0.210333781329899D+02 0.396843689433997D+01
 0.647742968868617D+01 0.176304304801986D+01 0.512361892095251D+01 -.354926805631236D+01
 0.384461748361287D-01 -.294845835943787D-01 -.409968430737597D-03 -.246698118290771D-01
0.181198539297D-07 0.000000000000D+00 0.000000000000D+00 0.665309132742D-07 0.000000000000D+00  6 22 2 9900012 -13 1 21 0 0.53496455D-03 0.82074413D-01 0.17949443D+04 0.17949443D+04 0.17949443D+04 0.12952965D+01  1  2  2  1  6  2        2 0.280676574212D-04 0.100000000000D+01
0.301728164056D-08 0.000000000000D+00 -.347925050787D-10 0.665309132742D-07 0.000000000000D+00  6 22 2 9900012 -13 1 21 2 0.53496455D-03 0.82074413D-01 0.17949443D+04 0.17949443D+04 0.17949443D+04 0.12952965D+01  1  2  3  1  6  2        2 0.784161810315D-05 0.100000000000D+01
-.253448599711D-08 0.000000000000D+00 0.000000000000D+00 0.665309132742D-07 0.000000000000D+00  6 22 2 9900012 -13 1 21 2 0.53496455D-03 0.82074413D-01 0.17949443D+04 0.17949443D+04 0.17949443D+04 0.12952965D+01  1  2 15  1  6  2        2 -.658687972975D-05 0.100000000000D+01
-.638058587995D-06 0.000000000000D+00 0.000000000000D+00 0.665309132742D-07 0.000000000000D+00  6 22 2 9900012 -13 1 21 2 0.53496455D-03 0.82074413D-01 0.17949443D+04 0.17949443D+04 0.17949443D+04 0.12952965D+01  1  2  4  1  6  2        2 -.165825148943D-02 0.100000000000D+01
-.395867356763D-04 0.000000000000D+00 -.244033987414D-05 0.665309132742D-07 0.000000000000D+00  6 22 2 9900012 -13 1 21 2 0.53496455D-03 0.82143583D-01 0.17949443D+04 0.17949443D+04 0.17949443D+04 0.12952965D+01  1  2  5  1  6  2        2 -.102791853958D+00 0.100000000000D+01
0.395887782663D-04 0.000000000000D+00 0.244033900824D-05 0.665309132742D-07 0.000000000000D+00  6 22 2 9900012 -13 1 21 2 0.53496455D-03 0.82074413D-01 0.17949443D+04 0.17949443D+04 0.17949443D+04 0.12952965D+01  1  2  6  1  6  2        2 0.102887339439D+00 0.100000000000D+01
0.638155352127D-06 0.000000000000D+00 0.000000000000D+00 0.665309132742D-07 0.293526715716D-03  6 22 2 9900012 -13 1 21 2 0.53505014D-03 0.82134554D-01 0.17961974D+04 0.17961974D+04 0.17961974D+04 0.12952576D+01  1  2 11  1  6  2        2 0.165694129593D-02 0.100000000000D+01
-.624427045816D-08 0.000000000000D+00 -.384970497784D-09 0.665309132742D-07 0.000000000000D+00  6 22 21 9900012 -13 1 -2 2 0.53496455D-03 0.82143583D-01 0.17949443D+04 0.17949443D+04 0.17949443D+04 0.12952965D+01  1  2  5  3  6  2        2 -.331160629629D-04 0.100000000000D+01
0.214283496717D-08 0.000000000000D+00 0.000000000000D+00 0.665309132742D-07 0.176944239594D-06  6 22 21 9900012 -13 1 -2 2 0.53505014D-03 0.82134554D-01 0.17961974D+04 0.17961974D+04 0.17961974D+04 0.12952576D+01  1  2 11  3  6  2        2 0.113648342484D-04 0.100000000000D+01
  </mgrwgt>
  </event>
  <event>
  6     66 0.17293500E-05 0.40623741E+02 0.78161638E-02 0.12241777E+00
       22 -1    0    0    0    0 0.00000000E+00 0.00000000E+00 0.16146420E+02 0.16146420E+02 0.00000000E+00 0.0000E+00 0.9000E+01
        2 -1    0    0  501    0 -.00000000E+00 -.00000000E+00 -.10330102E+04 0.10330102E+04 0.00000000E+00 0.0000E+00 0.9000E+01
       24  2    1    2    0    0 0.25263263E-01 0.40623734E+02 -.98047968E+02 0.12944320E+03 0.74107006E+02 0.0000E+00 0.0000E+00
  9900012  1    3    3    0    0 -.26142281E+01 0.34354979E+02 -.44045428E+02 0.75013989E+02 0.50000000E+02 0.0000E+00 0.9000E+01
      -13  1    3    3    0    0 0.26394914E+01 0.62687550E+01 -.54002540E+02 0.54429206E+02 0.00000000E+00 0.0000E+00 0.9000E+01
        1  1    1    2  501    0 -.25263263E-01 -.40623734E+02 -.91881585E+03 0.91971347E+03 0.00000000E+00 0.0000E+00 0.9000E+01
#aMCatNLO 1  0  0  5  5 0.43846843D+02 0.00000000D+00  -5  6  0 0.00000000D+00 0.00000000D+00 0.00000000D+00 0.00000000D+00 0.00000000D+00
  <mgrwgt>
 0.4466293780D-03    6    2    0
 0.129148818763385D+03 0.000000000000000D+00 0.000000000000000D+00 0.129148818763385D+03
 0.129148818763385D+03 -.000000000000000D+00 -.000000000000000D+00 -.129148818763385D+03
 0.131295136022326D+03 -.261422812427676D+01 0.343549786564283D+02 0.116410111227297D+03
 0.848453554203091D+01 0.263949138726097D+01 0.626875495861889D+01 -.507179848272306D+01
 0.118517965962412D+03 -.252632629842090D-01 -.406237336150472D+02 -.111338312744574D+03
 0.000000000000000D+00 -.000000000000000D+00 0.000000000000000D+00 0.000000000000000D+00
 0.129148818763385D+03 0.000000000000000D+00 0.000000000000000D+00 0.129148818763385D+03
 0.129148818763385D+03 -.000000000000000D+00 -.000000000000000D+00 -.129148818763385D+03
 0.115396240375197D+03 -.261794680885979D+01 0.283752739764108D+02 0.100021410078042D+03
 0.894158017922967D+01 0.263922870184075D+01 0.584635257368495D+01 -.622948549602133D+01
 0.796845984477962D+02 0.280071611213139D+02 0.791568108270909D+01 -.741793512286818D+02
 0.542752185245466D+02 -.280284430142948D+02 -.421373076328048D+02 -.196125733533385D+02
0.463558254148D-05 0.000000000000D+00 0.000000000000D+00 0.262681090088D-06 0.000000000000D+00  6 22 2 9900012 -13 1 21 0 0.24840646D-02 0.15892465D+00 0.29239437D+04 0.29239437D+04 0.29239437D+04 0.12689644D+01  1  2  2  2  6  5        1 0.476357329179D-03 0.100000000000D+01
0.105143988332D-06 0.000000000000D+00 -.890092876809D-08 0.262681090088D-06 0.000000000000D+00  6 22 2 9900012 -13 1 21 2 0.24840646D-02 0.15892465D+00 0.29239437D+04 0.29239437D+04 0.29239437D+04 0.12689644D+01  1  2  3  2  6  5        1 0.173985018037D-04 0.100000000000D+01
-.810242611180D-06 0.000000000000D+00 0.000000000000D+00 0.262681090088D-06 0.000000000000D+00  6 22 2 9900012 -13 1 21 2 0.24840646D-02 0.15892465D+00 0.29239437D+04 0.29239437D+04 0.29239437D+04 0.12689644D+01  1  2 15  2  6  5        1 -.134073357457D-03 0.100000000000D+01
-.521049550754D-07 0.000000000000D+00 0.000000000000D+00 0.262681090088D-06 0.000000000000D+00  6 22 2 9900012 -13 1 21 2 0.24840646D-02 0.15892465D+00 0.29239437D+04 0.29239437D+04 0.29239437D+04 0.12689644D+01  1  2  4  2  6  5        1 -.862196849525D-05 0.100000000000D+01
-.105814827128D-05 0.000000000000D+00 0.000000000000D+00 0.262681090088D-06 0.000000000000D+00  6 22 2 9900012 -13 1 21 2 0.24840646D-02 0.15892465D+00 0.29239437D+04 0.29239437D+04 0.29239437D+04 0.12689644D+01  1  2  5  2  6  5        1 -.175095075797D-03 0.100000000000D+01
0.163569756698D-05 0.000000000000D+00 -.000000000000D+00 0.262681090088D-06 0.000000000000D+00  6 22 2 9900012 -13 1 21 2 0.24840646D-02 0.15892465D+00 0.29239437D+04 0.29239437D+04 0.29239437D+04 0.12689644D+01  1  2  6  2  6  5        1 0.270663948752D-03 0.100000000000D+01
  </mgrwgt>
  </event>
  <event>
  6     66 0.17293500E-05 0.13663882E+02 0.78161638E-02 0.13455887E+00
       22 -1    0    0    0    0 0.00000000E+00 0.00000000E+00 0.41763033E+03 0.41763033E+03 0.00000000E+00 0.0000E+00 0.9000E+01
        2 -1    0    0  501    0 0.00000000E+00 0.00000000E+00 -.73411272E+03 0.73411272E+03 0.00000000E+00 0.0000E+00 0.9000E+01
       24  2    1    2    0    0 0.64544403E+01 0.12043333E+02 0.41352816E+03 0.42160463E+03 0.80982823E+02 0.0000E+00 0.0000E+00
  9900012  1    3    3    0    0 -.74569217E+01 0.54134186E+01 0.16633852E+03 0.17393509E+03 0.50000000E+02 0.0000E+00 0.9000E+01
      -13  1    3    3    0    0 0.13911362E+02 0.66299146E+01 0.24718964E+03 0.24766954E+03 0.00000000E+00 0.0000E+00 0.9000E+01
        1  1    1    2  501    0 -.64544403E+01 -.12043333E+02 -.73001056E+03 0.73013842E+03 0.00000000E+00 0.0000E+00 0.9000E+01
#aMCatNLO 1  0  0  2  2 0.14943122D+01 0.00000000D+00  -5  6  0 0.00000000D+00 0.00000000D+00 0.00000000D+00 0.00000000D+00 0.00000000D+00
  <mgrwgt>
 0.1470970954D-02   10    2    0
 0.553703653336717D+03 0.000000000000000D+00 0.000000000000000D+00 0.553703653336717D+03
 0.553703653336717D+03 0.000000000000000D+00 0.000000000000000D+00 -.553703653336717D+03
 0.228436038868508D+03 -.745692165757071D+01 0.541341863413740D+01 0.222706338194536D+03
 0.328228682905227D+03 0.139113619541918D+02 0.662991459682602D+01 0.327866720669723D+03
 0.550742584899699D+03 -.645444029662109D+01 -.120433332309634D+02 -.550573058864259D+03
 0.000000000000000D+00 -.000000000000000D+00 -.000000000000000D+00 -.000000000000000D+00
 0.553827547851770D+03 0.000000000000000D+00 0.000000000000000D+00 0.553827547851770D+03
 0.558103473204394D+03 0.000000000000000D+00 0.000000000000000D+00 -.558103473204394D+03
 0.228439356315634D+03 -.734669399920166D+01 0.569671213632028D+01 0.222706338194536D+03
 0.328243908133180D+03 0.140697452623243D+02 0.703697179746031D+01 0.327866720669723D+03
 0.550725022705493D+03 -.618869563968515D+01 -.113603491626843D+02 -.550573058864259D+03
 0.452273390185743D+01 -.534355623437518D+00 -.137333477109625D+01 -.427592535262360D+01
0.217059335061D-03 0.000000000000D+00 0.000000000000D+00 0.210857106231D-02 0.000000000000D+00  6 22 2 9900012 -13 1 21 0 0.64250820D-01 0.11294042D+00 0.15966555D+04 0.15966555D+04 0.15966555D+04 0.13018725D+01  1  2  2  1  6  2        2 0.288234426048D-03 0.100000000000D+01
0.389765821273D-04 0.000000000000D+00 -.416782499835D-06 0.210857106231D-02 0.000000000000D+00  6 22 2 9900012 -13 1 21 2 0.64250820D-01 0.11294042D+00 0.15966555D+04 0.15966555D+04 0.15966555D+04 0.13018725D+01  1  2  3  1  6  2        2 0.877218962228D-04 0.100000000000D+01
-.349126611519D-04 0.000000000000D+00 0.000000000000D+00 0.210857106231D-02 0.000000000000D+00  6 22 2 9900012 -13 1 21 2 0.64250820D-01 0.11294042D+00 0.15966555D+04 0.15966555D+04 0.15966555D+04 0.13018725D+01  1  2 15  1  6  2        2 -.785755105059D-04 0.100000000000D+01
-.155762262626D-03 0.000000000000D+00 0.000000000000D+00 0.210857106231D-02 0.000000000000D+00  6 22 2 9900012 -13 1 21 2 0.64250820D-01 0.11294042D+00 0.15966555D+04 0.15966555D+04 0.15966555D+04 0.13018725D+01  1  2  4  1  6  2        2 -.350563345776D-03 0.100000000000D+01
-.651876030402D-01 0.000000000000D+00 -.297824991337D-02 0.210857106231D-02 0.000000000000D+00  6 22 2 9900012 -13 1 21 2 0.64250820D-01 0.11384980D+00 0.15966555D+04 0.15966555D+04 0.15966555D+04 0.13018725D+01  1  2  5  1  6  2        2 -.145426200226D+00 0.100000000000D+01
0.652094862854D-01 0.000000000000D+00 0.297815414384D-02 0.210857106231D-02 0.000000000000D+00  6 22 2 9900012 -13 1 21 2 0.64250820D-01 0.11294042D+00 0.15966555D+04 0.15966555D+04 0.15966555D+04 0.13018725D+01  1  2  6  1  6  2        2 0.146762478300D+00 0.100000000000D+01
0.171853004794D-03 0.000000000000D+00 0.000000000000D+00 0.210857106231D-02 0.612493731742D-04  6 22 2 9900012 -13 1 21 2 0.64265196D-01 0.11383786D+00 0.16401939D+04 0.16401939D+04 0.16401939D+04 0.13003525D+01  1  2 11  1  6  2        2 0.382773069876D-03 0.100000000000D+01
0.152470278224D-07 0.000000000000D+00 0.000000000000D+00 0.210857106231D-02 0.000000000000D+00  6 22 21 9900012 -13 1 -2 2 0.64250820D-01 0.11386333D+00 0.16401939D+04 0.16401939D+04 0.16401939D+04 0.13003525D+01  1  2 12  3  6  2        2 0.456189357024D-07 0.100000000000D+01
-.967875101828D-04 0.000000000000D+00 -.442493977532D-05 0.210857106231D-02 0.000000000000D+00  6 22 21 9900012 -13 1 -2 2 0.64250820D-01 0.11384980D+00 0.15966555D+04 0.15966555D+04 0.15966555D+04 0.13018725D+01  1  2  5  3  6  2        2 -.290416229733D-03 0.100000000000D+01
0.319041936084D-04 0.000000000000D+00 0.000000000000D+00 0.210857106231D-02 0.154002269932D-04  6 22 21 9900012 -13 1 -2 2 0.64265196D-01 0.11383786D+00 0.16401939D+04 0.16401939D+04 0.16401939D+04 0.13003525D+01  1  2 11  3  6  2        2 0.954729549026D-04 0.100000000000D+01
  </mgrwgt>
  </event>
  <event>
  6     66 0.17293500E-05 0.35428433E+02 0.78161638E-02 0.11944703E+00
       22 -1    0    0    0    0 0.00000000E+00 0.00000000E+00 0.70233978E+02 0.70233978E+02 0.00000000E+00 0.0000E+00 0.9000E+01
        4 -1    0    0  501    0 0.00000000E+00 0.00000000E+00 -.13972865E+03 0.13972865E+03 0.00000000E+00 0.0000E+00 0.9000E+01
       24  2    1    2    0    0 0.35230751E+02 0.37373825E+01 0.42433346E+02 0.92561371E+02 0.74241799E+02 0.0000E+00 0.0000E+00
  9900012  1    3    3    0    0 0.33847144E+01 -.15712929E+00 0.27643472E+02 0.57233229E+02 0.50000000E+02 0.0000E+00 0.9000E+01
      -13  1    3    3    0    0 0.31846036E+02 0.38945118E+01 0.14789874E+02 0.35328142E+02 0.00000000E+00 0.0000E+00 0.9000E+01
        3  1    1    2  501    0 -.35230751E+02 -.37373825E+01 -.11192802E+03 0.11740126E+03 0.00000000E+00 0.0000E+00 0.9000E+01
#aMCatNLO 1  0  0  2  5 0.57465101D+00 0.00000000D+00  -5  6  0 0.00000000D+00 0.00000000D+00 0.00000000D+00 0.00000000D+00 0.00000000D+00
  <mgrwgt>
 0.3712838135D-04    7    2    0
 0.990641151430351D+02 0.000000000000000D+00 0.000000000000000D+00 0.990641151430351D+02
 0.990641151430351D+02 0.000000000000000D+00 0.000000000000000D+00 -.990641151430351D+02
 0.703479416200177D+02 0.338471442694084D+01 -.157129290405792D+00 0.493695443447434D+02
 0.426259651147269D+02 0.318460363826118D+02 0.389451179790977D+01 0.280648471675016D+02
 0.851543235513255D+02 -.352307508095526D+02 -.373738250750397D+01 -.774343915122450D+02
 0.000000000000000D+00 -.000000000000000D+00 0.000000000000000D+00 -.000000000000000D+00
 0.111807951844351D+03 0.000000000000000D+00 0.000000000000000D+00 0.111807951844351D+03
 0.148028505315166D+03 0.000000000000000D+00 0.000000000000000D+00 -.148028505315166D+03
 0.723227012808741D+02 0.830671516434838D+01 -.149739672409605D+02 0.493695443447434D+02
 0.450645206776865D+02 0.348712742798974D+02 -.521244735902193D+01 0.280648471675016D+02
 0.855439847793479D+02 -.293418224189976D+02 -.214649901045789D+02 -.774343915122450D+02
 0.569052504216080D+02 -.138361670252482D+02 0.416514047045613D+02 -.362205534708155D+02
0.842350094301D-06 0.000000000000D+00 0.000000000000D+00 0.594140932680D-07 0.000000000000D+00  6 22 4 9900012 -13 3 21 0 0.10805227D-01 0.21496715D-01 0.34589923D+04 0.34589923D+04 0.34589923D+04 0.12602723D+01  1  2  2  1  6  2        4 0.306029684028D-04 0.100000000000D+01
0.364753572598D-07 0.000000000000D+00 -.161742307899D-08 0.594140932680D-07 0.000000000000D+00  6 22 4 9900012 -13 3 21 2 0.10805227D-01 0.21496715D-01 0.34589923D+04 0.34589923D+04 0.34589923D+04 0.12602723D+01  1  2  3  1  6  2        4 0.210474406142D-05 0.100000000000D+01
-.141539042640D-06 0.000000000000D+00 0.000000000000D+00 0.594140932680D-07 0.000000000000D+00  6 22 4 9900012 -13 3 21 2 0.10805227D-01 0.21496715D-01 0.34589923D+04 0.34589923D+04 0.34589923D+04 0.12602723D+01  1  2 15  1  6  2        4 -.816725268337D-05 0.100000000000D+01
-.501089810473D-07 0.000000000000D+00 0.000000000000D+00 0.594140932680D-07 0.000000000000D+00  6 22 4 9900012 -13 3 21 2 0.10805227D-01 0.21496715D-01 0.34589923D+04 0.34589923D+04 0.34589923D+04 0.12602723D+01  1  2  4  1  6  2        4 -.289144749240D-05 0.100000000000D+01
-.484552462622D-06 0.000000000000D+00 -.289056820893D-06 0.594140932680D-07 0.000000000000D+00  6 22 4 9900012 -13 3 21 2 0.10805227D-01 0.35763969D-01 0.34589923D+04 0.34589923D+04 0.34589923D+04 0.12602723D+01  1  2  5  1  6  2        4 -.108363221843D-04 0.100000000000D+01
0.587686967706D-06 0.000000000000D+00 0.255264131138D-06 0.594140932680D-07 0.000000000000D+00  6 22 4 9900012 -13 3 21 2 0.10805227D-01 0.21496715D-01 0.34589923D+04 0.34589923D+04 0.34589923D+04 0.12602723D+01  1  2  6  1  6  2        4 0.339114061706D-04 0.100000000000D+01
-.144115954204D-07 0.000000000000D+00 -.165318913308D-07 0.594140932680D-07 0.000000000000D+00  6 22 21 9900012 -13 3 -4 2 0.10805227D-01 0.35763969D-01 0.34589923D+04 0.34589923D+04 0.34589923D+04 0.12602723D+01  1  2  5  3  6  2        4 -.759571492326D-05 0.100000000000D+01
  </mgrwgt>
  </event>
  <event>
  6     66 0.17293500E-05 0.59262185E+02 0.78161638E-02 0.98780114E-01
       22 -1    0    0    0    0 0.00000000E+00 0.00000000E+00 0.17933626E+03 0.17933626E+03 0.00000000E+00 0.0000E+00 0.9000E+01
        2 -1    0    0  501    0 -.00000000E+00 -.00000000E+00 -.23064760E+04 0.23064760E+04 0.00000000E+00 0.0000E+00 0.9000E+01
       24  2    1    2    0    0 0.15086124E+02 0.57309820E+02 0.16490590E+03 0.19300063E+03 0.80890564E+02 0.0000E+00 0.0000E+00
  9900012  1    3    3    0    0 0.12712422E+02 0.64720829E+02 0.11060169E+03 0.13814169E+03 0.50000000E+02 0.0000E+00 0.9000E+01
      -13  1    3    3    0    0 0.23737014E+01 -.74110087E+01 0.54304201E+02 0.54858944E+02 0.00000000E+00 0.0000E+00 0.9000E+01
        1  1    1    2  501    0 -.15086124E+02 -.57309820E+02 -.22920456E+04 0.22928116E+04 0.00000000E+00 0.0000E+00 0.9000E+01
#aMCatNLO 1  0  0  5  2 0.72554214D+02 0.00000000D+00  -5  6  0 0.00000000D+00 0.00000000D+00 0.00000000D+00 0.00000000D+00 0.00000000D+00
  <mgrwgt>
 0.1679328021D-02    3    2    0
 0.643144454051654D+03 0.000000000000000D+00 0.000000000000000D+00 0.643144454051654D+03
 0.643144454051654D+03 -.000000000000000D+00 -.000000000000000D+00 -.643144454051654D+03
 0.449867490098282D+03 0.127124221482593D+02 0.647208289920596D+02 0.442188158214389D+03
 0.195820437384386D+03 0.237370140805723D+01 -.741100868346609D+01 0.195665751191493D+03
 0.640600980620640D+03 -.150861235563164D+02 -.573098203085933D+02 -.637853909405881D+03
 0.000000000000000D+00 0.000000000000000D+00 0.000000000000000D+00 0.000000000000000D+00
 0.643144454051654D+03 0.000000000000000D+00 0.000000000000000D+00 0.643144454051654D+03
 0.643144454051654D+03 -.000000000000000D+00 -.000000000000000D+00 -.643144454051654D+03
 0.335889974207539D+03 0.100000559280447D+02 0.544169745849738D+02 0.327507048064001D+03
 0.146232760771231D+03 0.119296360747740D+01 -.118964466377682D+02 0.145743170399172D+03
 0.290611484350506D+03 -.272023845754319D+03 0.887596095619057D+02 -.507916714418094D+02
 0.513554688774032D+03 0.260830826218797D+03 -.131280137509111D+03 -.422458547021363D+03
0.255917830324D-02 0.000000000000D+00 0.000000000000D+00 0.107385573480D-02 0.000000000000D+00  6 22 2 9900012 -13 1 21 0 0.27590195D-01 0.35484246D+00 0.56108450D+04 0.56108450D+04 0.56108450D+04 0.12362497D+01  1  2  2  2  6  5        1 0.203061891224D-02 0.100000000000D+01
0.750369924946D-04 0.000000000000D+00 -.491395926579D-05 0.107385573480D-02 0.000000000000D+00  6 22 2 9900012 -13 1 21 2 0.27590195D-01 0.35484246D+00 0.56108450D+04 0.56108450D+04 0.56108450D+04 0.12362497D+01  1  2  3  2  6  5        1 0.909946134405D-04 0.100000000000D+01
-.364722403596D-03 0.000000000000D+00 0.000000000000D+00 0.107385573480D-02 0.000000000000D+00  6 22 2 9900012 -13 1 21 2 0.27590195D-01 0.35484246D+00 0.56108450D+04 0.56108450D+04 0.56108450D+04 0.12362497D+01  1  2 15  2  6  5        1 -.442285505122D-03 0.100000000000D+01
  </mgrwgt>
  </event>
  <event>
  6     66 0.17293500E-05 0.87074141E+02 0.78161638E-02 0.10857076E+00
       22 -1    0    0    0    0 0.00000000E+00 0.00000000E+00 0.12488313E+03 0.12488313E+03 0.00000000E+00 0.0000E+00 0.9000E+01
        2 -1    0    0  501    0 -.00000000E+00 -.00000000E+00 -.24411416E+03 0.24411416E+03 0.00000000E+00 0.0000E+00 0.9000E+01
       24  2    1    2    0    0 0.54231222E+02 0.15097278E+03 -.25821241E+02 0.18336542E+03 0.84984320E+02 0.0000E+00 0.0000E+00
  9900012  1    3    3    0    0 0.20700620E+02 0.47125321E+02 -.26594398E+01 0.71807967E+02 0.50000000E+02 0.0000E+00 0.9000E+01
      -13  1    3    3    0    0 0.33530602E+02 0.10384746E+03 -.23161801E+02 0.11155745E+03 0.00000000E+00 0.0000E+00 0.9000E+01
        1  1    1    2  501    0 -.54231222E+02 -.15097278E+03 -.93409782E+02 0.18563187E+03 0.00000000E+00 0.0000E+00 0.9000E+01
#aMCatNLO 1  0  0  5  2 0.45200026D+02 0.00000000D+00  -5  6  0 0.00000000D+00 0.00000000D+00 0.00000000D+00 0.00000000D+00 0.00000000D+00
  <mgrwgt>
 0.5152222396D-04    5    2    0
 0.174601664320172D+03 0.000000000000000D+00 0.000000000000000D+00 0.174601664320172D+03
 0.174601664320172D+03 -.000000000000000D+00 -.000000000000000D+00 -.174601664320172D+03
 0.749702412443735D+02 0.207006196988482D+02 0.471253212760085D+02 0.217077292906513D+02
 0.109972582520115D+03 0.335306020608171D+02 0.103847457502474D+03 0.136151827697716D+02
 0.164260504875856D+03 -.542312217596653D+02 -.150972778778483D+03 -.353229120604229D+02
 0.000000000000000D+00 0.000000000000000D+00 0.000000000000000D+00 -.000000000000000D+00
 0.174601664320172D+03 0.000000000000000D+00 0.000000000000000D+00 0.174601664320172D+03
 0.174601664320172D+03 -.000000000000000D+00 -.000000000000000D+00 -.174601664320172D+03
 0.711019995203690D+02 0.189104582961045D+02 0.421417411045726D+02 0.205417272764738D+02
 0.102139657141750D+03 0.309310996330851D+02 0.966107755281067D+02 0.119220253472345D+02
 0.879238854157347D+02 -.541599595804309D+01 -.851115051268721D+02 0.213847681638152D+02
 0.880377865624907D+02 -.444255619711465D+02 -.536410115058072D+02 -.538485207875234D+02
0.187926747562D-05 0.000000000000D+00 0.000000000000D+00 0.927482159672D-08 0.000000000000D+00  6 22 2 9900012 -13 1 21 0 0.19212790D-01 0.37556024D-01 0.29121903D+05 0.29121903D+05 0.29121903D+05 0.11639736D+01  1  2  2  2  6  5        1 0.638809408338D-04 0.100000000000D+01
-.648880063657D-07 0.000000000000D+00 -.360844096443D-08 0.927482159672D-08 0.000000000000D+00  6 22 2 9900012 -13 1 21 2 0.19212790D-01 0.37556024D-01 0.29121903D+05 0.29121903D+05 0.29121903D+05 0.11639736D+01  1  2  3  2  6  5        1 -.298836350983D-05 0.100000000000D+01
-.281762273671D-06 0.000000000000D+00 0.000000000000D+00 0.927482159672D-08 0.000000000000D+00  6 22 2 9900012 -13 1 21 2 0.19212790D-01 0.37556024D-01 0.29121903D+05 0.29121903D+05 0.29121903D+05 0.11639736D+01  1  2 15  2  6  5        1 -.129763286660D-04 0.100000000000D+01
0.679295911454D-06 0.000000000000D+00 0.000000000000D+00 0.927482159672D-08 0.000000000000D+00  6 22 2 9900012 -13 1 21 2 0.19212790D-01 0.37556024D-01 0.26316014D+05 0.26316014D+05 0.26316014D+05 0.11680499D+01  1  2 12  2  6  5        1 0.313081481532D-04 0.100000000000D+01
-.601512755197D-06 0.000000000000D+00 0.000000000000D+00 0.927482159672D-08 0.000000000000D+00  6 22 2 9900012 -13 1 21 2 0.19212790D-01 0.37556024D-01 0.29121903D+05 0.29121903D+05 0.29121903D+05 0.11639736D+01  1  2  5  2  6  5        1 -.277021728514D-04 0.100000000000D+01
  </mgrwgt>
  </event>
  <event>
  7     66 -.17293500E-05 0.13555944E+03 0.78161638E-02 0.10976790E+00
       22 -1    0    0    0    0 0.00000000E+00 0.00000000E+00 0.80499019E+02 0.80499019E+02 0.00000000E+00 0.0000E+00 0.9000E+01
        4 -1    0    0  501    0 -.00000000E+00 -.00000000E+00 -.60854134E+03 0.60854134E+03 0.00000000E+00 0.0000E+00 0.9000E+01
       24  2    1    2    0    0 -.89776489E+02 -.10642331E+03 -.19616633E+02 0.16159036E+03 0.79629720E+02 0.0000E+00 0.0000E+00
  9900012  1    3    3    0    0 -.29285261E+02 -.60866465E+02 -.17459957E+02 0.85832414E+02 0.50000000E+02 0.0000E+00 0.9000E+01
      -13  1    3    3    0    0 -.60491228E+02 -.45556845E+02 -.21566763E+01 0.75757944E+02 0.00000000E+00 0.0000E+00 0.9000E+01
        3  1    1    2  502    0 0.73140794E+02 0.95218945E+02 -.44616924E+03 0.46204243E+03 0.00000000E+00 0.0000E+00 0.9000E+01
       21  1    1    2  501  502 0.16635695E+02 0.11204366E+02 -.62256448E+02 0.65407564E+02 0.00000000E+00 0.0000E+00 0.9000E+01
#aMCatNLO 2  0  0  5  2 0.59946907D+01 0.00000000D+00  -5  6  0 0.00000000D+00 0.00000000D+00 0.00000000D+00 0.00000000D+00 0.00000000D+00
  <mgrwgt>
 -.4605185545D-05    2    2    0
 0.221330026425197D+03 0.000000000000000D+00 0.000000000000000D+00 0.221330026425197D+03
 0.221330026425197D+03 -.000000000000000D+00 -.000000000000000D+00 -.221330026425197D+03
 0.112947291540662D+03 -.293655956354917D+02 -.609616961627485D+02 0.753553187260519D+02
 0.115544994311172D+03 -.605734025274720D+02 -.456542574219186D+02 0.871619033515610D+02
 0.214167766998560D+03 0.899389981629637D+02 0.106615953584667D+03 -.162517222077613D+03
 0.000000000000000D+00 0.000000000000000D+00 0.000000000000000D+00 0.000000000000000D+00
 0.221330026425197D+03 0.000000000000000D+00 0.000000000000000D+00 0.221330026425197D+03
 0.221330026425197D+03 -.000000000000000D+00 -.000000000000000D+00 -.221330026425197D+03
 0.112778192701811D+03 -.292852610134317D+02 -.608664654784876D+02 0.752101563395398D+02
 0.115351416336872D+03 -.604912275973941D+02 -.455568451901842D+02 0.870134155805889D+02
 0.186982414190054D+03 0.731407939270129D+02 0.952189449949528D+02 -.143339457212993D+03
 0.275480296216576D+02 0.166356946838129D+02 0.112043656737191D+02 -.188841147071360D+02
-.833920881637D-05 0.000000000000D+00 0.000000000000D+00 0.322312419675D-05 0.000000000000D+00  6 22 4 9900012 -13 3 21 2 0.12384464D-01 0.93621744D-01 0.22483450D+05 0.22483450D+05 0.22483450D+05 0.11744719D+01  1  2 13  2  6  5        3 -.184184752551D-04 0.100000000000D+01
0.625415001715D-05 0.000000000000D+00 0.000000000000D+00 0.322312419675D-05 0.388010691042D-06  6 22 4 9900012 -13 3 21 2 0.12384464D-01 0.93621744D-01 0.22483450D+05 0.22483450D+05 0.22483450D+05 0.11744719D+01  1  2  1  2  6  5        3 0.138132897100D-04 0.100000000000D+01
  </mgrwgt>
  </event>
  <event>
  7     66 0.17293500E-05 0.35937136E+02 0.78161638E-02 0.12538976E+00
       22 -1    0    0    0    0 0.00000000E+00 0.00000000E+00 0.53272650E+03 0.53272650E+03 0.00000000E+00 0.0000E+00 0.9000E+01
       21 -1    0    0  501  502 0.00000000E+00 0.00000000E+00 -.88974111E+01 0.88974111E+01 0.00000000E+00 0.0000E+00 0.9000E+01
       24  2    1    2    0    0 -.21787857E+02 -.28451549E+02 0.32287694E+03 0.33471013E+03 0.80604902E+02 0.0000E+00 0.0000E+00
  9900012  1    3    3    0    0 -.32569235E+02 -.39591601E+02 0.28315246E+03 0.29206774E+03 0.50000000E+02 0.0000E+00 0.9000E+01
      -13  1    3    3    0    0 0.10781378E+02 0.11140052E+02 0.39724480E+02 0.42642387E+02 0.00000000E+00 0.0000E+00 0.9000E+01
        3  1    1    2  501    0 0.22116448E+02 0.28541402E+02 0.10637568E+03 0.11233670E+03 0.00000000E+00 0.0000E+00 0.9000E+01
       -4  1    1    2    0  502 -.32859101E+00 -.89853299E-01 0.94576473E+02 0.94577087E+02 0.00000000E+00 0.0000E+00 0.9000E+01
#aMCatNLO 2  0  0  2  5 0.24447607D+02 0.00000000D+00  -5  6  0 0.00000000D+00 0.00000000D+00 0.00000000D+00 0.00000000D+00 0.00000000D+00
  <mgrwgt>
 0.9434568209D-01    2    2    0
 0.624358452187897D+02 0.000000000000000D+00 0.000000000000000D+00 0.624358452187897D+02
 0.624358452187897D+02 0.000000000000000D+00 0.000000000000000D+00 -.624358452187897D+02
 0.723805493012185D+02 -.327595482072785D+02 -.396436418834622D+02 0.970245209299767D+01
 0.160706009076651D+02 0.107390412661915D+02 0.111284748819255D+02 -.436969713124787D+01
 0.364205402286959D+02 0.220205069410870D+02 0.285151670015367D+02 -.533275496174980D+01
 0.000000000000000D+00 -.000000000000000D+00 -.000000000000000D+00 0.000000000000000D+00
 0.759132131042511D+02 0.000000000000000D+00 0.000000000000000D+00 0.759132131042511D+02
 0.624382301878060D+02 0.000000000000000D+00 0.000000000000000D+00 -.624382301878060D+02
 0.722660880282037D+02 -.325692348722472D+02 -.395916006511426D+02 0.970245209299767D+01
 0.161069273951487D+02 0.107813776304336D+02 0.111400517720405D+02 -.436969713124787D+01
 0.364991396729840D+02 0.221164482483149D+02 0.285414021776354D+02 -.533275496174980D+01
 0.134792881957208D+02 -.328591006501264D+00 -.898532985333346D-01 0.134749829164451D+02
-.648107862726D-08 0.000000000000D+00 0.000000000000D+00 0.726704726501D-07 0.000000000000D+00  6 22 21 9900012 -13 3 -4 2 0.67407398D-01 0.16643079D-02 0.38169404D+04 0.38169404D+04 0.38169404D+04 0.12552666D+01  1  2 13  3  6  2        4 -.307653356552D-04 0.100000000000D+01
0.211050956011D-04 0.000000000000D+00 0.000000000000D+00 0.726704726501D-07 0.149460591344D-06  6 22 21 9900012 -13 3 -4 2 0.81957923D-01 0.13688325D-02 0.38169404D+04 0.38169404D+04 0.38169404D+04 0.12552666D+01  1  2  1  3  6  2        4 0.943764474265D-01 0.100000000000D+01
  </mgrwgt>
  </event>
  <event>
  6     66 0.17293500E-05 0.18986071E+02 0.78161638E-02 0.12690494E+00
       22 -1    0    0    0    0 0.00000000E+00 0.00000000E+00 0.11908048E+02 0.11908048E+02 0.00000000E+00 0.0000E+00 0.9000E+01
        2 -1    0    0  501    0 0.00000000E+00 0.00000000E+00 -.36505803E+04 0.36505803E+04 0.00000000E+00 0.0000E+00 0.9000E+01
       24  2    1    2    0    0 0.17374215E+01 0.18906408E+02 -.14001379E+03 0.16377837E+03 0.82819215E+02 0.0000E+00 0.0000E+00
  9900012  1    3    3    0    0 0.48521173E+01 -.11755576E+02 -.67278011E+02 0.84782471E+02 0.50000000E+02 0.0000E+00 0.9000E+01
      -13  1    3    3    0    0 -.31146958E+01 0.30661984E+02 -.72735783E+02 0.78995904E+02 0.00000000E+00 0.0000E+00 0.9000E+01
        1  1    1    2  501    0 -.17374215E+01 -.18906408E+02 -.34986585E+04 0.34987100E+04 0.00000000E+00 0.0000E+00 0.9000E+01
#aMCatNLO 1  0  0  2  5 0.10325114D+02 0.00000000D+00  -5  6  0 0.00000000D+00 0.00000000D+00 0.00000000D+00 0.00000000D+00 0.00000000D+00
  <mgrwgt>
 0.2152610994D-03    9    2    0
 0.208497682963615D+03 0.000000000000000D+00 0.000000000000000D+00 0.208497682963615D+03
 0.208497682963615D+03 0.000000000000000D+00 0.000000000000000D+00 -.208497682963615D+03
 0.157584915505215D+03 0.485211727415494D+01 -.117555758854459D+02 0.148900198080275D+03
 0.591371063362522D+02 -.311469577785433D+01 0.306619839056331D+02 0.504711676009909D+02
 0.200273344085763D+03 -.173742149630062D+01 -.189064080201871D+02 -.199371365681266D+03
 0.000000000000000D+00 0.000000000000000D+00 0.000000000000000D+00 -.000000000000000D+00
 0.210765548239417D+03 0.000000000000000D+00 0.000000000000000D+00 0.210765548239417D+03
 0.218280451415928D+03 0.000000000000000D+00 0.000000000000000D+00 -.218280451415928D+03
 0.157867349216057D+03 0.434173673492112D+01 -.152308989322415D+02 0.148900198080275D+03
 0.584861659731535D+02 -.330500231821398D+01 0.293661337412426D+02 0.504711676009909D+02
 0.200745270888269D+03 -.238624263294421D+01 -.233244116000465D+02 -.199371365681266D+03
 0.119472135778651D+02 0.134950821623706D+01 0.918917679104537D+01 -.751490317651178D+01
0.710730996541D-05 0.000000000000D+00 0.000000000000D+00 0.566115411194D-05 0.000000000000D+00  6 22 2 9900012 -13 1 21 0 0.18320073D-02 0.56162774D+00 0.25703819D+04 0.25703819D+04 0.25703819D+04 0.12757595D+01  1  2  2  1  6  2        2 0.383827587446D-04 0.100000000000D+01
0.108582623688D-05 0.000000000000D+00 -.136469708324D-07 0.566115411194D-05 0.000000000000D+00  6 22 2 9900012 -13 1 21 2 0.18320073D-02 0.56162774D+00 0.25703819D+04 0.25703819D+04 0.25703819D+04 0.12757595D+01  1  2  3  1  6  2        2 0.954396556620D-05 0.100000000000D+01
-.113218215326D-05 0.000000000000D+00 0.000000000000D+00 0.566115411194D-05 0.000000000000D+00  6 22 2 9900012 -13 1 21 2 0.18320073D-02 0.56162774D+00 0.25703819D+04 0.25703819D+04 0.25703819D+04 0.12757595D+01  1  2 15  1  6  2        2 -.995141498551D-05 0.100000000000D+01
0.128986301694D-04 0.000000000000D+00 0.000000000000D+00 0.566115411194D-05 0.000000000000D+00  6 22 2 9900012 -13 1 21 2 0.18320073D-02 0.59437502D+00 0.32909608D+04 0.32909608D+04 0.32909608D+04 0.12628280D+01  1  2 12  1  6  2        2 0.774529472817D-04 0.100000000000D+01
-.699959824509D-07 0.000000000000D+00 0.000000000000D+00 0.566115411194D-05 0.000000000000D+00  6 22 2 9900012 -13 1 21 2 0.18320073D-02 0.56162774D+00 0.25703819D+04 0.25703819D+04 0.25703819D+04 0.12757595D+01  1  2  4  1  6  2        2 -.615235867021D-06 0.100000000000D+01
-.422840922283D-04 0.000000000000D+00 -.819072140348D-05 0.566115411194D-05 0.000000000000D+00  6 22 2 9900012 -13 1 21 2 0.18320073D-02 0.58935700D+00 0.25703819D+04 0.25703819D+04 0.25703819D+04 0.12757595D+01  1  2  5  1  6  2        2 -.274857430092D-03 0.100000000000D+01
0.427100156912D-04 0.000000000000D+00 0.829672142410D-05 0.566115411194D-05 0.000000000000D+00  6 22 2 9900012 -13 1 21 2 0.18320073D-02 0.56162774D+00 0.25703819D+04 0.25703819D+04 0.25703819D+04 0.12757595D+01  1  2  6  1  6  2        2 0.375403453372D-03 0.100000000000D+01
0.209919122177D-06 0.000000000000D+00 0.000000000000D+00 0.566115411194D-05 0.000000000000D+00  6 22 21 9900012 -13 1 -2 2 0.18320073D-02 0.59437502D+00 0.32909608D+04 0.32909608D+04 0.32909608D+04 0.12628280D+01  1  2 12  3  6  2        2 0.111624920895D-06 0.100000000000D+01
-.349215899236D-06 0.000000000000D+00 -.689456138018D-07 0.566115411194D-05 0.000000000000D+00  6 22 21 9900012 -13 1 -2 2 0.18320073D-02 0.58935700D+00 0.25703819D+04 0.25703819D+04 0.25703819D+04 0.12757595D+01  1  2  5  3  6  2        2 -.209569505013D-06 0.100000000000D+01
  </mgrwgt>
  </event>
  <event>
  7     66 -.17293500E-05 0.54688765E+02 0.78161638E-02 0.12079618E+00
       22 -1    0    0    0    0 0.00000000E+00 0.00000000E+00 0.64694101E+02 0.64694101E+02 0.00000000E+00 0.0000E+00 0.9000E+01
        2 -1    0    0  501    0 -.00000000E+00 -.00000000E+00 -.45916677E+03 0.45916677E+03 0.00000000E+00 0.0000E+00 0.9000E+01
       24  2    1    2    0    0 -.40826878E+02 0.37922286E+02 0.27551640E+02 0.96021311E+02 0.73185146E+02 0.0000E+00 0.0000E+00
  9900012  1    3    3    0    0 -.20528331E+02 0.84614584E+01 0.81186196E+01 0.55307510E+02 0.50000000E+02 0.0000E+00 0.9000E+01
      -13  1    3    3    0    0 -.20298547E+02 0.29460827E+02 0.19433020E+02 0.40713801E+02 0.00000000E+00 0.0000E+00 0.9000E+01
        1  1    1    2  502    0 0.37614603E+02 -.44759151E+02 -.40521306E+03 0.40940916E+03 0.00000000E+00 0.0000E+00 0.9000E+01
       21  1    1    2  501  502 0.32122746E+01 0.68368658E+01 -.16811252E+02 0.18430400E+02 0.00000000E+00 0.0000E+00 0.9000E+01
#aMCatNLO 2  0  0  5  2 0.95549333D+01 0.00000000D+00  -5  6  0 0.00000000D+00 0.00000000D+00 0.00000000D+00 0.00000000D+00 0.00000000D+00
  <mgrwgt>
 -.2552092937D-03    3    2    0
 0.172352492942340D+03 0.000000000000000D+00 0.000000000000000D+00 0.172352492942340D+03
 0.172352492942340D+03 -.000000000000000D+00 -.000000000000000D+00 -.172352492942340D+03
 0.946331602687252D+02 -.209161097566272D+02 0.882164890590512D+01 0.770722380995641D+02
 0.854883900195729D+02 -.206484186442449D+02 0.297858076539821D+02 0.774255338892190D+02
 0.164583435596382D+03 0.415645284008721D+02 -.386074565598872D+02 -.154497771988783D+03
 0.000000000000000D+00 0.000000000000000D+00 0.000000000000000D+00 -.000000000000000D+00
 0.172352492942340D+03 0.000000000000000D+00 0.000000000000000D+00 0.172352492942340D+03
 0.172352492942340D+03 -.000000000000000D+00 -.000000000000000D+00 -.172352492942340D+03
 0.933436283546347D+02 -.205283310962588D+02 0.846145841750037D+01 0.756308422421663D+02
 0.841129776808057D+02 -.202985467709932D+02 0.294608271076418D+02 0.761250397664997D+02
 0.158477442448276D+03 0.376146033149611D+02 -.447591512870852D+02 -.147298539566639D+03
 0.877093740096366D+01 0.321227455229095D+01 0.683686576194303D+01 -.445734244202734D+01
-.436266384651D-05 0.000000000000D+00 0.000000000000D+00 0.311588955864D-06 0.000000000000D+00  6 22 2 9900012 -13 1 21 2 0.99529387D-02 0.70641042D-01 0.61234305D+04 0.61234305D+04 0.61234305D+04 0.12320591D+01  1  2 13  2  6  5        1 -.268737963480D-03 0.100000000000D+01
-.211463596219D-06 0.000000000000D+00 0.000000000000D+00 0.311588955864D-06 0.000000000000D+00  6 22 2 9900012 -13 1 21 2 0.99529387D-02 0.70641042D-01 0.54673786D+04 0.54673786D+04 0.54673786D+04 0.12375001D+01  1  2  8  2  6  5        1 -.130411700060D-04 0.100000000000D+01
0.431331985898D-06 0.000000000000D+00 0.000000000000D+00 0.311588955864D-06 0.297061312864D-08  6 22 2 9900012 -13 1 21 2 0.99529387D-02 0.70641042D-01 0.61234305D+04 0.61234305D+04 0.61234305D+04 0.12320591D+01  1  2  1  2  6  5        1 0.265698397933D-04 0.100000000000D+01
  </mgrwgt>
  </event>
  <event>
  6     66 0.17293500E-05 0.41736298E+02 0.78161638E-02 0.12197665E+00
       22 -1    0    0    0    0 0.00000000E+00 0.00000000E+00 0.12898126E+04 0.12898126E+04 0.00000000E+00 0.0000E+00 0.9000E+01
        2 -1    0    0  501    0 0.00000000E+00 0.00000000E+00 -.84060678E+02 0.84060678E+02 0.00000000E+00 0.0000E+00 0.9000E+01
       24  2    1    2    0    0 -.30099303E+02 0.35669497E+02 0.12815548E+04 0.12848545E+04 0.79310101E+02 0.0000E+00 0.0000E+00
  9900012  1    3    3    0    0 -.18850512E+02 0.10961542E+02 0.52787071E+03 0.53068162E+03 0.50000000E+02 0.0000E+00 0.9000E+01
      -13  1    3    3    0    0 -.11248791E+02 0.24707955E+02 0.75368408E+03 0.75417286E+03 0.00000000E+00 0.0000E+00 0.9000E+01
        1  1    1    2  501    0 0.30099303E+02 -.35669497E+02 -.75802836E+02 0.89018824E+02 0.00000000E+00 0.0000E+00 0.9000E+01
#aMCatNLO 1  0  0  5  2 0.20825382D+02 0.00000000D+00  -5  6  0 0.00000000D+00 0.00000000D+00 0.00000000D+00 0.00000000D+00 0.00000000D+00
  <mgrwgt>
 0.6972352067D-04    5    2    0
 0.329275757938697D+03 0.000000000000000D+00 0.000000000000000D+00 0.329275757938697D+03
 0.329275757938697D+03 -.000000000000000D+00 -.000000000000000D+00 -.329275757938697D+03
 0.140624043578461D+03 -.188505119435744D+02 0.109615421253158D+02 0.129613365152121D+03
 0.193427416766546D+03 -.112487906040280D+02 0.247079545198615D+02 0.191512786127637D+03
 0.324500055532388D+03 0.300993025476024D+02 -.356694966451774D+02 -.321126151279758D+03
 0.000000000000000D+00 0.000000000000000D+00 0.000000000000000D+00 0.000000000000000D+00
 0.329275757938697D+03 0.000000000000000D+00 0.000000000000000D+00 0.329275757938697D+03
 0.329275757938697D+03 -.000000000000000D+00 -.000000000000000D+00 -.329275757938697D+03
 0.139750440991628D+03 -.187636319801548D+02 0.108585841063109D+02 0.128686452369602D+03
 0.192140326829910D+03 -.111293142846660D+02 0.245663678446912D+02 0.190238106405571D+03
 0.612761425424162D+02 -.104456155476618D+02 -.196285628725412D+02 -.570996872168987D+02
 0.265384605513440D+03 0.403385618124826D+02 -.157963890784610D+02 -.261824871558274D+03
0.625198849717D-04 0.000000000000D+00 0.000000000000D+00 0.213907733512D-03 0.000000000000D+00  6 22 2 9900012 -13 1 21 0 0.19843271D+00 0.12932412D-01 0.41196024D+04 0.41196024D+04 0.41196024D+04 0.12514296D+01  1  2  2  2  6  5        1 0.925423779978D-04 0.100000000000D+01
0.245819547849D-05 0.000000000000D+00 -.120046410078D-06 0.213907733512D-03 0.000000000000D+00  6 22 2 9900012 -13 1 21 2 0.19843271D+00 0.12932412D-01 0.41196024D+04 0.41196024D+04 0.41196024D+04 0.12514296D+01  1  2  3  2  6  5        1 0.569838429962D-05 0.100000000000D+01
-.105446573066D-04 0.000000000000D+00 0.000000000000D+00 0.213907733512D-03 0.000000000000D+00  6 22 2 9900012 -13 1 21 2 0.19843271D+00 0.12932412D-01 0.41196024D+04 0.41196024D+04 0.41196024D+04 0.12514296D+01  1  2 15  2  6  5        1 -.244437475239D-04 0.100000000000D+01
0.657535870421D-04 0.000000000000D+00 0.000000000000D+00 0.213907733512D-03 0.000000000000D+00  6 22 2 9900012 -13 1 21 2 0.19843271D+00 0.12932412D-01 0.54039710D+04 0.54039710D+04 0.54039710D+04 0.12380645D+01  1  2 12  2  6  5        1 0.151840803823D-03 0.100000000000D+01
-.672590337951D-04 0.000000000000D+00 0.000000000000D+00 0.213907733512D-03 0.000000000000D+00  6 22 2 9900012 -13 1 21 2 0.19843271D+00 0.12932412D-01 0.41196024D+04 0.41196024D+04 0.41196024D+04 0.12514296D+01  1  2  5  2  6  5        1 -.155914297922D-03 0.100000000000D+01
  </mgrwgt>
  </event>
  <event>
  6     66 -.17293500E-05 0.46663420E+02 0.78161638E-02 0.11674186E+00
       22 -1    0    0    0    0 0.00000000E+00 0.00000000E+00 0.37547719E+03 0.37547719E+03 0.00000000E+00 0.0000E+00 0.9000E+01
        2 -1    0    0  501    0 0.00000000E+00 0.00000000E+00 -.65678890E+03 0.65678890E+03 0.00000000E+00 0.0000E+00 0.9000E+01
       24  2    1    2    0    0 -.52997592E+02 -.66622645E+02 0.36365865E+03 0.38170165E+03 0.78747802E+02 0.0000E+00 0.0000E+00
  9900012  1    3    3    0    0 -.21709625E+02 -.33824855E+02 0.27179938E+03 0.27926749E+03 0.50000000E+02 0.0000E+00 0.9000E+01
      -13  1    3    3    0    0 -.31287967E+02 -.32797790E+02 0.91859268E+02 0.10243416E+03 0.00000000E+00 0.0000E+00 0.9000E+01
        1  1    1    2  501    0 0.52997592E+02 0.66622645E+02 -.64497036E+03 0.65056444E+03 0.00000000E+00 0.0000E+00 0.9000E+01
#aMCatNLO 1  0  0  2  5 0.14669275D+01 0.00000000D+00  -5  6  0 0.00000000D+00 0.00000000D+00 0.00000000D+00 0.00000000D+00 0.00000000D+00
  <mgrwgt>
 -.7295958118D-03   11    2    0
 0.496597672904681D+03 0.000000000000000D+00 0.000000000000000D+00 0.496597672904681D+03
 0.496597672904681D+03 0.000000000000000D+00 0.000000000000000D+00 -.496597672904681D+03
 0.367237633219510D+03 -.217096245154135D+02 -.338248551079543D+02 0.361590999103950D+03
 0.132481890933516D+03 -.312879672734527D+02 -.327977901646663D+02 0.124486222087144D+03
 0.493475821656337D+03 0.529975917888662D+02 0.666226452726206D+02 -.486077221191094D+03
 0.000000000000000D+00 0.000000000000000D+00 0.000000000000000D+00 -.000000000000000D+00
 0.496610315271664D+03 0.000000000000000D+00 0.000000000000000D+00 0.496610315271664D+03
 0.541042074454861D+03 0.000000000000000D+00 0.000000000000000D+00 -.541042074454861D+03
 0.367294791582211D+03 -.221232885229578D+02 -.341756257493131D+02 0.361590999103950D+03
 0.132548600789556D+03 -.314372235508148D+02 -.329243535571352D+02 0.124486222087144D+03
 0.493353036425387D+03 0.524418428982645D+02 0.661513922962062D+02 -.486077221191094D+03
 0.444559609293715D+02 0.111866917550809D+01 0.948587010242089D+00 -.444317591831966D+02
0.240968218179D-05 0.000000000000D+00 0.000000000000D+00 0.188548219198D-03 0.000000000000D+00  6 22 2 9900012 -13 1 21 0 0.57765721D-01 0.10104445D+00 0.94683464D+04 0.94683464D+04 0.94683464D+04 0.12117970D+01  1  2  2  1  6  2        2 0.463368660696D-05 0.100000000000D+01
0.430770483849D-07 0.000000000000D+00 -.462690703099D-08 0.188548219198D-03 0.000000000000D+00  6 22 2 9900012 -13 1 21 2 0.57765721D-01 0.10104445D+00 0.94683464D+04 0.94683464D+04 0.94683464D+04 0.12117970D+01  1  2  3  1  6  2        2 0.121638918338D-06 0.100000000000D+01
-.372589579544D-06 0.000000000000D+00 0.000000000000D+00 0.188548219198D-03 0.000000000000D+00  6 22 2 9900012 -13 1 21 2 0.57765721D-01 0.10104445D+00 0.94683464D+04 0.94683464D+04 0.94683464D+04 0.12117970D+01  1  2 15  1  6  2        2 -.105210071579D-05 0.100000000000D+01
0.867881809507D-06 0.000000000000D+00 0.000000000000D+00 0.188548219198D-03 0.000000000000D+00  6 22 2 9900012 -13 1 21 2 0.57765721D-01 0.11009051D+00 0.95926274D+04 0.95926274D+04 0.95926274D+04 0.12112066D+01  1  2 12  1  6  2        2 0.222335450501D-05 0.100000000000D+01
-.832021785770D-02 0.000000000000D+00 0.000000000000D+00 0.188548219198D-03 0.000000000000D+00  6 22 2 9900012 -13 1 21 2 0.57765721D-01 0.10104445D+00 0.94683464D+04 0.94683464D+04 0.94683464D+04 0.12117970D+01  1  2  4  1  6  2        2 -.234942350625D-01 0.100000000000D+01
-.551574629137D-02 0.000000000000D+00 -.326951084795D-05 0.188548219198D-03 0.000000000000D+00  6 22 2 9900012 -13 1 21 2 0.57765721D-01 0.11008890D+00 0.94683464D+04 0.94683464D+04 0.94683464D+04 0.12117970D+01  1  2  5  1  6  2        2 -.141383515687D-01 0.100000000000D+01
0.549583109311D-02 0.000000000000D+00 0.325753331728D-05 0.188548219198D-03 0.000000000000D+00  6 22 2 9900012 -13 1 21 2 0.57765721D-01 0.10104445D+00 0.94683464D+04 0.94683464D+04 0.94683464D+04 0.12117970D+01  1  2  6  1  6  2        2 0.155188661852D-01 0.100000000000D+01
0.834349806748D-02 0.000000000000D+00 0.000000000000D+00 0.188548219198D-03 0.105736684533D-02  6 22 2 9900012 -13 1 21 2 0.57767192D-01 0.11008770D+00 0.95926274D+04 0.95926274D+04 0.95926274D+04 0.12112066D+01  1  2 11  1  6  2        2 0.213742089594D-01 0.100000000000D+01
0.129059500149D-07 0.000000000000D+00 0.000000000000D+00 0.188548219198D-03 0.000000000000D+00  6 22 21 9900012 -13 1 -2 2 0.57765721D-01 0.11009051D+00 0.95926274D+04 0.95926274D+04 0.95926274D+04 0.12112066D+01  1  2 12  3  6  2        2 0.431006322685D-07 0.100000000000D+01
-.783147147742D-04 0.000000000000D+00 -.464262313975D-07 0.188548219198D-03 0.000000000000D+00  6 22 21 9900012 -13 1 -2 2 0.57765721D-01 0.11008890D+00 0.94683464D+04 0.94683464D+04 0.94683464D+04 0.12117970D+01  1  2  5  3  6  2        2 -.261831099687D-03 0.100000000000D+01
0.795820084076D-04 0.000000000000D+00 0.000000000000D+00 0.188548219198D-03 0.993671229680D-05  6 22 21 9900012 -13 1 -2 2 0.57767192D-01 0.11008770D+00 0.95926274D+04 0.95926274D+04 0.95926274D+04 0.12112066D+01  1  2 11  3  6  2        2 0.265777094563D-03 0.100000000000D+01
  </mgrwgt>
  </event>
  <event>
  6     66 0.17293500E-05 0.41115851E+02 0.78161638E-02 0.12074342E+00
       22 -1    0    0    0    0 0.00000000E+00 0.00000000E+00 0.80445219E+01 0.80445219E+01 0.00000000E+00 0.0000E+00 0.9000E+01
        2 -1    0    0  501    0 0.00000000E+00 0.00000000E+00 -.31624800E+04 0.31624800E+04 0.00000000E+00 0.0000E+00 0.9000E+01
       24  2    1    2    0    0 -.39564168E+02 -.11188824E+02 -.25015571E+03 0.26595373E+03 0.80392749E+02 0.0000E+00 0.0000E+00
  9900012  1    3    3    0    0 -.41867241E+02 -.44704410E+01 -.25045559E+03 0.25884523E+03 0.50000000E+02 0.0000E+00 0.9000E+01
      -13  1    3    3    0    0 0.23030728E+01 -.67183835E+01 0.29988132E+00 0.71084984E+01 0.00000000E+00 0.0000E+00 0.9000E+01
        1  1    1    2  501    0 0.39564168E+02 0.11188824E+02 -.29042798E+04 0.29045708E+04 0.00000000E+00 0.0000E+00 0.9000E+01
#aMCatNLO 1  0  0  2  2 0.59938563D+02 0.00000000D+00  -5  6  0 0.00000000D+00 0.00000000D+00 0.00000000D+00 0.00000000D+00 0.00000000D+00
  <mgrwgt>
 0.2573046811D-03    7    2    0
 0.159501220923036D+03 0.000000000000000D+00 0.000000000000000D+00 0.159501220923036D+03
 0.159501220923036D+03 0.000000000000000D+00 0.000000000000000D+00 -.159501220923036D+03
 0.960154129341119D+02 -.418672410157414D+02 -.447044101705656D+01 0.703285774614478D+02
 0.736158152403658D+02 0.230307282630489D+01 -.671838348253860D+01 0.732724193161518D+02
 0.149371213671594D+03 0.395641681894366D+02 0.111888244995952D+02 -.143600996777600D+03
 0.000000000000000D+00 0.000000000000000D+00 -.000000000000000D+00 -.000000000000000D+00
 0.178000492682265D+03 0.000000000000000D+00 0.000000000000000D+00 0.178000492682265D+03
 0.196848015183816D+03 0.000000000000000D+00 0.000000000000000D+00 -.196848015183816D+03
 0.103384211845076D+03 -.568761766115771D+02 -.269944163213227D+01 0.703285774614478D+02
 0.739977406868094D+02 -.880789268547430D+01 -.540733027948964D+01 0.732724193161518D+02
 0.145306717120184D+03 0.173835743710396D+02 0.138060532670059D+02 -.143600996777600D+03
 0.521598382140130D+02 0.483004949260118D+02 -.569928135538401D+01 -.188475225015515D+02
0.939352298426D-05 0.000000000000D+00 0.000000000000D+00 0.122657625174D-04 0.000000000000D+00  6 22 2 9900012 -13 1 21 0 0.12376187D-02 0.48653538D+00 0.32253919D+04 0.32253919D+04 0.32253919D+04 0.12638656D+01  1  2  2  1  6  2        2 0.179516791038D-03 0.100000000000D+01
0.291355069300D-06 0.000000000000D+00 -.180368008155D-07 0.122657625174D-04 0.000000000000D+00  6 22 2 9900012 -13 1 21 2 0.12376187D-02 0.48653538D+00 0.32253919D+04 0.32253919D+04 0.32253919D+04 0.12638656D+01  1  2  3  1  6  2        2 0.889407745384D-05 0.100000000000D+01
-.165541671690D-05 0.000000000000D+00 0.000000000000D+00 0.122657625174D-04 0.000000000000D+00  6 22 2 9900012 -13 1 21 2 0.12376187D-02 0.48653538D+00 0.32253919D+04 0.32253919D+04 0.32253919D+04 0.12638656D+01  1  2 15  1  6  2        2 -.505342314237D-04 0.100000000000D+01
-.116882685769D-06 0.000000000000D+00 0.000000000000D+00 0.122657625174D-04 0.000000000000D+00  6 22 2 9900012 -13 1 21 2 0.12376187D-02 0.48653538D+00 0.32253919D+04 0.32253919D+04 0.32253919D+04 0.12638656D+01  1  2  4  1  6  2        2 -.356803011096D-05 0.100000000000D+01
-.460947716192D-05 0.000000000000D+00 -.292876556808D-05 0.122657625174D-04 0.000000000000D+00  6 22 2 9900012 -13 1 21 2 0.12376187D-02 0.61515536D+00 0.32253919D+04 0.32253919D+04 0.32253919D+04 0.12638656D+01  1  2  5  1  6  2        2 -.366091408580D-04 0.100000000000D+01
0.523066966128D-05 0.000000000000D+00 0.285000069515D-05 0.122657625174D-04 0.000000000000D+00  6 22 2 9900012 -13 1 21 2 0.12376187D-02 0.48653538D+00 0.32253919D+04 0.32253919D+04 0.32253919D+04 0.12638656D+01  1  2  6  1  6  2        2 0.159674520902D-03 0.100000000000D+01
-.104620748192D-06 0.000000000000D+00 -.945446218680D-07 0.122657625174D-04 0.000000000000D+00  6 22 21 9900012 -13 1 -2 2 0.12376187D-02 0.61515536D+00 0.32253919D+04 0.32253919D+04 0.32253919D+04 0.12638656D+01  1  2  5  3  6  2        2 -.693059088251D-07 0.100000000000D+01
  </mgrwgt>
  </event>
  <event>
  6     66 0.17293500E-05 0.11418511E+02 0.78161638E-02 0.12489345E+00
       22 -1    0    0    0    0 0.00000000E+00 0.00000000E+00 0.15062033E+02 0.15062033E+02 0.00000000E+00 0.0000E+00 0.9000E+01
        2 -1    0    0  501    0 0.00000000E+00 0.00000000E+00 -.11599327E+04 0.11599327E+04 0.00000000E+00 0.0000E+00 0.9000E+01
       24  2    1    2    0    0 0.93884646E+01 -.64991637E+01 -.96260874E+02 0.12632277E+03 0.80999413E+02 0.0000E+00 0.0000E+00
  9900012  1    3    3    0    0 -.13982524E+02 -.14689379E+02 -.48623339E+02 0.72632761E+02 0.50000000E+02 0.0000E+00 0.9000E+01
      -13  1    3    3    0    0 0.23370989E+02 0.81902150E+01 -.47637534E+02 0.53690012E+02 0.00000000E+00 0.0000E+00 0.9000E+01
        1  1    1    2  501    0 -.93884646E+01 0.64991637E+01 -.10486098E+04 0.10486720E+04 0.00000000E+00 0.0000E+00 0.9000E+01
#aMCatNLO 1  0  0  2  5 0.24158389D+03 0.00000000D+00  -5  6  0 0.00000000D+00 0.00000000D+00 0.00000000D+00 0.00000000D+00 0.00000000D+00
  <mgrwgt>
 0.8225125778D-04    7    2    0
 0.132177703464365D+03 0.000000000000000D+00 0.000000000000000D+00 0.132177703464365D+03
 0.132177703464365D+03 0.000000000000000D+00 0.000000000000000D+00 -.132177703464365D+03
 0.112256742664924D+03 -.139825244264900D+02 -.146893787206605D+02 0.984392576018458D+02
 0.323302111682125D+02 0.233709890039255D+02 0.819021504161078D+01 0.207836427204611D+02
 0.119768453095594D+03 -.938846457743554D+01 0.649916367904974D+01 -.119222900322307D+03
 0.000000000000000D+00 -.000000000000000D+00 -.000000000000000D+00 -.000000000000000D+00
 0.142661248512333D+03 0.000000000000000D+00 0.000000000000000D+00 0.142661248512333D+03
 0.158101328831640D+03 0.000000000000000D+00 0.000000000000000D+00 -.158101328831640D+03
 0.110649369548653D+03 -.523103768664059D+01 -.506278471128831D+01 0.984392576018458D+02
 0.351024696938497D+02 0.260184543719070D+02 0.111024144208753D+02 0.207836427204611D+02
 0.120410783841538D+03 0.411799772570927D-01 0.168717280762936D+02 -.119222900322307D+03
 0.345999542599314D+02 -.208285966625235D+02 -.229113577858805D+02 -.154400803193064D+02
0.516116543577D-06 0.000000000000D+00 0.000000000000D+00 0.413685828982D-05 0.000000000000D+00  6 22 2 9900012 -13 1 21 0 0.23172359D-02 0.17845119D+00 0.20312787D+04 0.20312787D+04 0.20312787D+04 0.12884594D+01  1  2  2  1  6  2        2 0.485608459746D-04 0.100000000000D+01
0.120489773390D-06 0.000000000000D+00 -.991011711972D-09 0.413685828982D-05 0.000000000000D+00  6 22 2 9900012 -13 1 21 2 0.23172359D-02 0.17845119D+00 0.20312787D+04 0.20312787D+04 0.20312787D+04 0.12884594D+01  1  2  3  1  6  2        2 0.188204550979D-04 0.100000000000D+01
-.915423866039D-07 0.000000000000D+00 0.000000000000D+00 0.413685828982D-05 0.000000000000D+00  6 22 2 9900012 -13 1 21 2 0.23172359D-02 0.17845119D+00 0.20312787D+04 0.20312787D+04 0.20312787D+04 0.12884594D+01  1  2 15  1  6  2        2 -.142988846951D-04 0.100000000000D+01
-.157365421519D-08 0.000000000000D+00 0.000000000000D+00 0.413685828982D-05 0.000000000000D+00  6 22 2 9900012 -13 1 21 2 0.23172359D-02 0.17845119D+00 0.20312787D+04 0.20312787D+04 0.20312787D+04 0.12884594D+01  1  2  4  1  6  2        2 -.245804167968D-06 0.100000000000D+01
-.493127395247D-06 0.000000000000D+00 -.270505574671D-06 0.413685828982D-05 0.000000000000D+00  6 22 2 9900012 -13 1 21 2 0.23172359D-02 0.22262237D+00 0.20312787D+04 0.20312787D+04 0.20312787D+04 0.12884594D+01  1  2  5  1  6  2        2 -.552413419569D-04 0.100000000000D+01
0.546027936191D-06 0.000000000000D+00 0.264022211954D-06 0.413685828982D-05 0.000000000000D+00  6 22 2 9900012 -13 1 21 2 0.23172359D-02 0.17845119D+00 0.20312787D+04 0.20312787D+04 0.20312787D+04 0.12884594D+01  1  2  6  1  6  2        2 0.852893483505D-04 0.100000000000D+01
-.115350244817D-07 0.000000000000D+00 -.835579936208D-08 0.413685828982D-05 0.000000000000D+00  6 22 21 9900012 -13 1 -2 2 0.23172359D-02 0.22262237D+00 0.20312787D+04 0.20312787D+04 0.20312787D+04 0.12884594D+01  1  2  5  3  6  2        2 -.633360826514D-06 0.100000000000D+01
  </mgrwgt>
  </event>
  <event>
  6     66 0.17293500E-05 0.12831395E+03 0.78161638E-02 0.10482883E+00
       22 -1    0    0    0    0 0.00000000E+00 0.00000000E+00 0.62526755E+02 0.62526755E+02 0.00000000E+00 0.0000E+00 0.9000E+01
        2 -1    0    0  501    0 0.00000000E+00 0.00000000E+00 -.48013628E+03 0.48013628E+03 0.00000000E+00 0.0000E+00 0.9000E+01
       24  2    1    2    0    0 0.58863351E+01 -.12817887E+03 -.61871867E+02 0.16449144E+03 0.82248627E+02 0.0000E+00 0.0000E+00
  9900012  1    3    3    0    0 0.15225041E+02 -.10550184E+03 -.71943357E+02 0.13797929E+03 0.50000000E+02 0.0000E+00 0.9000E+01
      -13  1    3    3    0    0 -.93387062E+01 -.22677031E+02 0.10071490E+02 0.26512150E+02 0.00000000E+00 0.0000E+00 0.9000E+01
        1  1    1    2  501    0 -.58863351E+01 0.12817887E+03 -.35573766E+03 0.37817159E+03 0.00000000E+00 0.0000E+00 0.9000E+01
#aMCatNLO 1  0  0  2  2 0.15383950D+03 0.00000000D+00  -5  6  0 0.00000000D+00 0.00000000D+00 0.00000000D+00 0.00000000D+00 0.00000000D+00
  <mgrwgt>
 0.8690994208D-04    5    2    0
 0.173266740902719D+03 0.000000000000000D+00 0.000000000000000D+00 0.173266740902719D+03
 0.173266740902719D+03 0.000000000000000D+00 0.000000000000000D+00 -.173266740902719D+03
 0.129372871777565D+03 0.152250412985498D+02 -.105501835666543D+03 0.536181008654877D+02
 0.536545949024438D+02 -.933870615915575D+01 -.226770309828168D+02 0.477216553277719D+02
 0.163506015125429D+03 -.588633513939402D+01 0.128178866649360D+03 -.101339756193260D+03
 0.000000000000000D+00 0.000000000000000D+00 0.000000000000000D+00 -.000000000000000D+00
 0.221981045005399D+03 0.000000000000000D+00 0.000000000000000D+00 0.221981045005399D+03
 0.293710151109559D+03 0.000000000000000D+00 0.000000000000000D+00 -.293710151109559D+03
 0.172295267476471D+03 -.362293043444823D+01 -.155876979793150D+03 0.536181008654877D+02
 0.662053651737191D+02 -.168274557003573D+02 -.426922794567748D+02 0.477216553277719D+02
 0.130788005559632D+03 -.242735781435063D+02 0.790351163538592D+02 -.101339756193260D+03
 0.146402557905136D+03 0.447239642783118D+02 0.119534142896066D+03 -.717291061041603D+02
0.334416856195D-05 0.000000000000D+00 0.000000000000D+00 0.262188958951D-06 0.000000000000D+00  6 22 2 9900012 -13 1 21 0 0.96195008D-02 0.73867120D-01 0.18303043D+05 0.18303043D+05 0.18303043D+05 0.11830256D+01  1  2  2  1  6  2        2 0.145668655436D-03 0.100000000000D+01
-.494067629662D-07 0.000000000000D+00 -.642124390885D-08 0.262188958951D-06 0.000000000000D+00  6 22 2 9900012 -13 1 21 2 0.96195008D-02 0.73867120D-01 0.18303043D+05 0.18303043D+05 0.18303043D+05 0.11830256D+01  1  2  3  1  6  2        2 -.301198371370D-05 0.100000000000D+01
-.547111236555D-06 0.000000000000D+00 0.000000000000D+00 0.262188958951D-06 0.000000000000D+00  6 22 2 9900012 -13 1 21 2 0.96195008D-02 0.73867120D-01 0.18303043D+05 0.18303043D+05 0.18303043D+05 0.11830256D+01  1  2 15  1  6  2        2 -.333535337098D-04 0.100000000000D+01
-.828344180794D-06 0.000000000000D+00 -.952423368566D-06 0.262188958951D-06 0.000000000000D+00  6 22 2 9900012 -13 1 21 2 0.96195008D-02 0.14942283D+00 0.18303043D+05 0.18303043D+05 0.18303043D+05 0.11830256D+01  1  2  5  1  6  2        2 -.222728269311D-04 0.100000000000D+01
-.547555204343D-08 0.000000000000D+00 -.725744153434D-07 0.262188958951D-06 0.000000000000D+00  6 22 21 9900012 -13 1 -2 2 0.96195008D-02 0.14942283D+00 0.18303043D+05 0.18303043D+05 0.18303043D+05 0.11830256D+01  1  2  5  3  6  2        2 -.120368999144D-06 0.100000000000D+01
  </mgrwgt>
  </event>
  <event>
  6     66 0.17293500E-05 0.58344409E+02 0.78161638E-02 0.11740898E+00
       22 -1    0    0    0    0 0.00000000E+00 0.00000000E+00 0.70792810E+02 0.70792810E+02 0.00000000E+00 0.0000E+00 0.9000E+01
        4 -1    0    0  501    0 -.00000000E+00 -.00000000E+00 -.16123633E+03 0.16123633E+03 0.00000000E+00 0.0000E+00 0.9000E+01
       24  2    1    2    0    0 -.39355600E+02 -.81555021E+02 -.34809630E+02 0.12575019E+03 0.80008226E+02 0.0000E+00 0.0000E+00
  9900012  1    3    3    0    0 -.46043622E+02 -.87831744E+02 -.35381802E+02 0.11656029E+03 0.50000000E+02 0.0000E+00 0.9000E+01
      -13  1    3    3    0    0 0.66880216E+01 0.62767225E+01 0.57217209E+00 0.91898999E+01 0.00000000E+00 0.0000E+00 0.9000E+01
        3  1    1    2  501    0 0.39355600E+02 0.81555021E+02 -.55633891E+02 0.10627895E+03 0.00000000E+00 0.0000E+00 0.9000E+01
#aMCatNLO 1  0  0  5  2 0.29136149D+02 0.00000000D+00  -5  6  0 0.00000000D+00 0.00000000D+00 0.00000000D+00 0.00000000D+00 0.00000000D+00
  <mgrwgt>
 0.1066621912D-03    4    2    0
 0.106838069167727D+03 0.000000000000000D+00 0.000000000000000D+00 0.106838069167727D+03
 0.106838069167727D+03 -.000000000000000D+00 -.000000000000000D+00 -.106838069167727D+03
 0.111595663111460D+03 -.460436218509615D+02 -.878317439062483D+02 0.109161199388540D+02
 0.102214213101405D+02 0.668802156805342D+01 0.627672254331936D+01 0.451116118298094D+01
 0.918590539138520D+02 0.393556002829081D+02 0.815550213629290D+02 -.154272811218349D+02
 0.000000000000000D+00 -.000000000000000D+00 0.000000000000000D+00 0.000000000000000D+00
 0.106838069167727D+03 0.000000000000000D+00 0.000000000000000D+00 0.106838069167727D+03
 0.106838069167727D+03 -.000000000000000D+00 -.000000000000000D+00 -.106838069167727D+03
 0.983368453623410D+02 -.395606194431662D+02 -.743972797877252D+02 0.837480180523051D+01
 0.114411677250352D+02 0.735699188568124D+01 0.766300272080650D+01 0.424892675946766D+01
 0.216579061551608D+02 0.408347801076378D+01 -.281122223561001D+01 0.210828635603273D+02
 0.822402190929159D+02 0.281201495467212D+02 0.695454993025287D+02 -.337065921250255D+02
0.351269910494D-05 0.000000000000D+00 0.000000000000D+00 0.344737098068D-06 0.000000000000D+00  6 22 4 9900012 -13 3 21 0 0.10891202D-01 0.24805589D-01 0.11107776D+05 0.11107776D+05 0.11107776D+05 0.12046298D+01  1  2  2  2  6  5        3 0.111552757450D-03 0.100000000000D+01
-.118784982667D-06 0.000000000000D+00 -.674484473894D-08 0.344737098068D-06 0.000000000000D+00  6 22 4 9900012 -13 3 21 2 0.10891202D-01 0.24805589D-01 0.11107776D+05 0.11107776D+05 0.11107776D+05 0.12046298D+01  1  2  3  2  6  5        3 -.547404136325D-05 0.100000000000D+01
-.432836086881D-06 0.000000000000D+00 0.000000000000D+00 0.344737098068D-06 0.000000000000D+00  6 22 4 9900012 -13 3 21 2 0.10891202D-01 0.24805589D-01 0.11107776D+05 0.11107776D+05 0.11107776D+05 0.12046298D+01  1  2 15  2  6  5        3 -.199466514192D-04 0.100000000000D+01
0.448887499046D-06 0.000000000000D+00 0.000000000000D+00 0.344737098068D-06 0.000000000000D+00  6 22 4 9900012 -13 3 21 2 0.10891202D-01 0.24805589D-01 0.88901873D+04 0.88901873D+04 0.88901873D+04 0.12146624D+01  1  2 12  2  6  5        3 0.205301265700D-04 0.100000000000D+01
  </mgrwgt>
  </event>
  <event>
  6     66 -.17293500E-05 0.12157247E+02 0.78161638E-02 0.13142353E+00
       22 -1    0    0    0    0 0.00000000E+00 0.00000000E+00 0.53446791E+02 0.53446791E+02 0.00000000E+00 0.0000E+00 0.9000E+01
        4 -1    0    0  501    0 0.00000000E+00 0.00000000E+00 -.26623059E+03 0.26623059E+03 0.00000000E+00 0.0000E+00 0.9000E+01
       24  2    1    2    0    0 -.86895264E+01 -.85023990E+01 0.22623078E+02 0.83956791E+02 0.79932099E+02 0.0000E+00 0.0000E+00
  9900012  1    3    3    0    0 -.92524659E+01 0.18253794E+02 0.13560388E+02 0.55701824E+02 0.50000000E+02 0.0000E+00 0.9000E+01
      -13  1    3    3    0    0 0.56293946E+00 -.26756193E+02 0.90626903E+01 0.28254966E+02 0.00000000E+00 0.0000E+00 0.9000E+01
        3  1    1    2  501    0 0.86895264E+01 0.85023990E+01 -.23540688E+03 0.23572059E+03 0.00000000E+00 0.0000E+00 0.9000E+01
#aMCatNLO 1  0  0  2  2 0.15383950D+03 0.00000000D+00  -5  6  0 0.00000000D+00 0.00000000D+00 0.00000000D+00 0.00000000D+00 0.00000000D+00
  <mgrwgt>
 -.2244263916D-05    1    2    0
 0.119286087398638D+03 0.000000000000000D+00 0.000000000000000D+00 0.119286087398638D+03
 0.119286087398638D+03 0.000000000000000D+00 0.000000000000000D+00 -.119286087398638D+03
 0.867328480780309D+02 -.925246586125652D+01 0.182537941829771D+02 0.678511444939478D+02
 0.459436114703429D+02 0.562939455819957D+00 -.267561931551955D+02 0.373444060328823D+02
 0.105895715248902D+03 0.868952640543656D+01 0.850239897221847D+01 -.105195550526830D+03
 0.000000000000000D+00 0.000000000000000D+00 0.000000000000000D+00 -.000000000000000D+00
 0.132772661815488D+03 0.000000000000000D+00 0.000000000000000D+00 0.132772661815488D+03
 0.245789114549549D+03 0.000000000000000D+00 0.000000000000000D+00 -.245789114549549D+03
 0.863307804803483D+02 -.183607737814308D+02 -.347963149695904D+01 0.678511444939478D+02
 0.544661051441187D+02 -.472160603025511D+01 -.393657006049236D+02 0.373444060328823D+02
 0.106788837798924D+03 -.250402370766976D+01 -.182066442013222D+02 -.105195550526830D+03
 0.130976052941645D+03 0.255864035193557D+02 0.610519763032048D+02 -.113016452734061D+03
-.911687240602D-07 0.000000000000D+00 0.000000000000D+00 0.572930945719D-05 0.000000000000D+00  6 22 4 9900012 -13 3 21 2 0.82225832D-02 0.40958552D-01 0.21597103D+04 0.21597103D+04 0.21597103D+04 0.12851136D+01  1  2 14  1  6  2        4 -.224426391567D-05 0.100000000000D+01
  </mgrwgt>
  </event>
  <event>
  7     66 -.17293500E-05 0.26954162E+03 0.78161638E-02 0.97664925E-01
       22 -1    0    0    0    0 0.00000000E+00 0.00000000E+00 0.17642259E+03 0.17642259E+03 0.00000000E+00 0.0000E+00 0.9000E+01
        2 -1    0    0  502    0 0.00000000E+00 0.00000000E+00 -.16659583E+04 0.16659583E+04 0.00000000E+00 0.0000E+00 0.9000E+01
       24  2    1    2    0    0 0.24104845E+03 0.10396778E+03 0.10435660E+02 0.27414273E+03 0.78305024E+02 0.0000E+00 0.0000E+00
  9900012  1    3    3    0    0 0.97384716E+02 0.44301042E+02 0.10727125E+02 0.11858093E+03 0.50000000E+02 0.0000E+00 0.9000E+01
      -13  1    3    3    0    0 0.14366374E+03 0.59666739E+02 -.29146534E+00 0.15556180E+03 0.00000000E+00 0.0000E+00 0.9000E+01
        1  1    1    2  501    0 -.24092927E+03 -.22718951E+03 -.11718857E+04 0.12177759E+04 0.00000000E+00 0.0000E+00 0.9000E+01
       21  1    1    2  502  501 -.11918342E+00 0.12322173E+03 -.32808560E+03 0.35046222E+03 0.00000000E+00 0.0000E+00 0.9000E+01
#aMCatNLO 2  0  0  2  5 0.14110933D+03 0.00000000D+00  -5  6  0 0.00000000D+00 0.00000000D+00 0.00000000D+00 0.00000000D+00 0.00000000D+00
  <mgrwgt>
 -.7369686736D-05    2    2    0
 0.464131267556363D+03 0.000000000000000D+00 0.000000000000000D+00 0.464131267556363D+03
 0.464131267556363D+03 0.000000000000000D+00 0.000000000000000D+00 -.464131267556363D+03
 0.209875281180144D+03 0.973583753213707D+02 0.715341507595347D+02 0.164170172931442D+03
 0.257558757164160D+03 0.143631456803744D+03 0.930412954945704D+02 0.192483337827130D+03
 0.460828496768422D+03 -.240989832125115D+03 -.164575446254105D+03 -.356653510758572D+03
 0.000000000000000D+00 -.000000000000000D+00 0.000000000000000D+00 -.000000000000000D+00
 0.499905512077613D+03 0.000000000000000D+00 0.000000000000000D+00 0.499905512077613D+03
 0.587936457839492D+03 0.000000000000000D+00 0.000000000000000D+00 -.587936457839492D+03
 0.202233060938666D+03 0.973847159273171D+02 0.443010424260934D+02 0.164170172931442D+03
 0.247485806725158D+03 0.143663737586449D+03 0.596667385736911D+02 0.192483337827130D+03
 0.486686462583982D+03 -.240929270094159D+03 -.227189508864274D+03 -.356653510758572D+03
 0.151436639669298D+03 -.119183419607481D+00 0.123221727864490D+03 -.880309457618792D+02
-.502187607646D-05 0.000000000000D+00 0.000000000000D+00 0.163820221516D-05 0.000000000000D+00  6 22 2 9900012 -13 1 21 2 0.25199606D-01 0.27605643D+00 0.13250712D+06 0.13250712D+06 0.13250712D+06 0.11078329D+01  1  2 13  1  6  2        2 -.105522755211D-04 0.100000000000D+01
0.144895523598D-05 0.000000000000D+00 0.000000000000D+00 0.163820221516D-05 0.149418726440D-09  6 22 2 9900012 -13 1 21 2 0.27141937D-01 0.25630127D+00 0.13250712D+06 0.13250712D+06 0.13250712D+06 0.11078329D+01  1  2  1  1  6  2        2 0.318258878480D-05 0.100000000000D+01
  </mgrwgt>
  </event>
  <event>
  6     66 -.17293500E-05 0.33999672E+02 0.78161638E-02 0.11870419E+00
       22 -1    0    0    0    0 0.00000000E+00 0.00000000E+00 0.16174317E+03 0.16174317E+03 0.00000000E+00 0.0000E+00 0.9000E+01
        2 -1    0    0  501    0 -.00000000E+00 -.00000000E+00 -.19261861E+03 0.19261861E+03 0.00000000E+00 0.0000E+00 0.9000E+01
       24  2    1    2    0    0 0.68005941E+02 0.34236733E+02 0.13354557E+03 0.17316789E+03 0.79722866E+02 0.0000E+00 0.0000E+00
  9900012  1    3    3    0    0 0.51044506E+02 0.15339288E+02 0.57484739E+02 0.92980270E+02 0.50000000E+02 0.0000E+00 0.9000E+01
      -13  1    3    3    0    0 0.16961435E+02 0.18897444E+02 0.76060831E+02 0.80187615E+02 0.00000000E+00 0.0000E+00 0.9000E+01
        1  1    1    2  501    0 -.68005941E+02 -.34236733E+02 -.16442101E+03 0.18119390E+03 0.00000000E+00 0.0000E+00 0.9000E+01
#aMCatNLO 1  0  0  5  2 0.63121328D+01 0.00000000D+00  -5  6  0 0.00000000D+00 0.00000000D+00 0.00000000D+00 0.00000000D+00 0.00000000D+00
  <mgrwgt>
 -.1564832566D-03    8    2    0
 0.176507070820830D+03 0.000000000000000D+00 0.000000000000000D+00 0.176507070820830D+03
 0.176507070820830D+03 -.000000000000000D+00 -.000000000000000D+00 -.176507070820830D+03
 0.983629753940593D+02 0.510445058015153D+02 0.153392882956942D+02 0.658364609500918D+02
 0.871461927864935D+02 0.169614352517635D+02 0.188974442611135D+02 0.833645921946424D+02
 0.167504973461107D+03 -.680059410532788D+02 -.342367325568077D+02 -.149201053144734D+03
 0.000000000000000D+00 0.000000000000000D+00 0.000000000000000D+00 -.000000000000000D+00
 0.176507070820830D+03 0.000000000000000D+00 0.000000000000000D+00 0.176507070820830D+03
 0.176507070820830D+03 -.000000000000000D+00 -.000000000000000D+00 -.176507070820830D+03
 0.981976562016851D+02 0.509644546041420D+02 0.152989875308952D+02 0.656608333097914D+02
 0.869758303749087D+02 0.168905223923064D+02 0.188617440771815D+02 0.832090135327104D+02
 0.131949300710359D+03 -.589116215621932D+02 -.242808833382949D+02 -.115544266440087D+03
 0.358913543547072D+02 -.894335543425524D+01 -.987984826978179D+01 -.333255804024150D+02
0.461880579591D-06 0.000000000000D+00 0.000000000000D+00 0.820011207884D-05 0.000000000000D+00  6 22 2 9900012 -13 1 21 0 0.24883565D-01 0.29633633D-01 0.76223190D+04 0.76223190D+04 0.76223190D+04 0.12217526D+01  1  2  2  2  6  5        1 0.126357261726D-04 0.100000000000D+01
0.368938483563D-08 0.000000000000D+00 -.886871520789D-09 0.820011207884D-05 0.000000000000D+00  6 22 2 9900012 -13 1 21 2 0.24883565D-01 0.29633633D-01 0.76223190D+04 0.76223190D+04 0.76223190D+04 0.12217526D+01  1  2  3  2  6  5        1 0.150657580067D-06 0.100000000000D+01
-.672034514445D-07 0.000000000000D+00 0.000000000000D+00 0.820011207884D-05 0.000000000000D+00  6 22 2 9900012 -13 1 21 2 0.24883565D-01 0.29633633D-01 0.76223190D+04 0.76223190D+04 0.76223190D+04 0.12217526D+01  1  2 15  2  6  5        1 -.274428117907D-05 0.100000000000D+01
0.896048206281D-05 0.000000000000D+00 0.000000000000D+00 0.820011207884D-05 0.000000000000D+00  6 22 2 9900012 -13 1 21 2 0.24883565D-01 0.29633633D-01 0.76896632D+04 0.76896632D+04 0.76896632D+04 0.12213439D+01  1  2 12  2  6  5        1 0.365884516090D-03 0.100000000000D+01
-.174464441748D-04 0.000000000000D+00 0.000000000000D+00 0.820011207884D-05 0.000000000000D+00  6 22 2 9900012 -13 1 21 2 0.24883565D-01 0.29633633D-01 0.76223190D+04 0.76223190D+04 0.76223190D+04 0.12217526D+01  1  2  4  2  6  5        1 -.712432878989D-03 0.100000000000D+01
-.103820812923D-04 0.000000000000D+00 0.000000000000D+00 0.820011207884D-05 0.000000000000D+00  6 22 2 9900012 -13 1 21 2 0.24883565D-01 0.29633633D-01 0.76223190D+04 0.76223190D+04 0.76223190D+04 0.12217526D+01  1  2  5  2  6  5        1 -.423956652192D-03 0.100000000000D+01
0.128382183992D-04 0.000000000000D+00 -.000000000000D+00 0.820011207884D-05 0.000000000000D+00  6 22 2 9900012 -13 1 21 2 0.24883565D-01 0.29633633D-01 0.76223190D+04 0.76223190D+04 0.76223190D+04 0.12217526D+01  1  2  6  2  6  5        1 0.524254043035D-03 0.100000000000D+01
0.195247377884D-05 0.000000000000D+00 0.000000000000D+00 0.820011207884D-05 0.158413595797D-05  6 22 2 9900012 -13 1 21 2 0.24883565D-01 0.29633633D-01 0.76896632D+04 0.76896632D+04 0.76896632D+04 0.12213439D+01  1  2 11  2  6  5        1 0.797256128342D-04 0.100000000000D+01
  </mgrwgt>
  </event>
  <event>
  7     66 0.17293500E-05 0.47077434E+01 0.78161638E-02 0.13309866E+00
       22 -1    0    0    0    0 0.00000000E+00 0.00000000E+00 0.99529213E+01 0.99529213E+01 0.00000000E+00 0.0000E+00 0.9000E+01
       21 -1    0    0  501  502 0.00000000E+00 0.00000000E+00 -.62099272E+03 0.62099272E+03 0.00000000E+00 0.0000E+00 0.9000E+01
       24  2    1    2    0    0 -.12190892E+02 0.47877669E+00 -.16863598E+03 0.18808324E+03 0.82391547E+02 0.0000E+00 0.0000E+00
  9900012  1    3    3    0    0 0.98043356E+01 0.62438419E+01 -.15045189E+03 0.15896818E+03 0.50000000E+02 0.0000E+00 0.9000E+01
      -13  1    3    3    0    0 -.21995227E+02 -.57650652E+01 -.18184085E+02 0.29115064E+02 0.00000000E+00 0.0000E+00 0.9000E+01
        3  1    1    2  501    0 0.71875024E+01 -.56692559E+00 -.60832407E+02 0.61258170E+02 0.00000000E+00 0.0000E+00 0.9000E+01
       -4  1    1    2    0  502 0.50033895E+01 0.88148901E-01 -.38157142E+03 0.38160423E+03 0.00000000E+00 0.0000E+00 0.9000E+01
#aMCatNLO 2  0  0  2  5 0.50108734D+01 0.00000000D+00  -5  6  0 0.00000000D+00 0.00000000D+00 0.00000000D+00 0.00000000D+00 0.00000000D+00
  <mgrwgt>
 0.2888318577D-04    2    2    0
 0.487092390319673D+02 0.000000000000000D+00 0.000000000000000D+00 0.487092390319673D+02
 0.487092390319673D+02 0.000000000000000D+00 0.000000000000000D+00 -.487092390319673D+02
 0.529981967060418D+02 0.125096757815038D+02 0.629150409616887D+01 -.106176194197122D+02
 0.305523127472821D+02 -.203990480380964D+02 -.573694393462631D+01 0.220093191089167D+02
 0.138679686106107D+02 0.788937225659260D+01 -.554560161542561D+00 -.113916996892045D+02
 0.000000000000000D+00 0.000000000000000D+00 0.000000000000000D+00 -.000000000000000D+00
 0.488539899785570D+02 0.000000000000000D+00 0.000000000000000D+00 0.488539899785570D+02
 0.126513549539554D+03 0.000000000000000D+00 0.000000000000000D+00 -.126513549539554D+03
 0.524198855404388D+02 0.980433561439359D+01 0.624384185347383D+01 -.106176194197122D+02
 0.316454757559836D+02 -.219952274786394D+02 -.576506516418735D+01 0.220093191089167D+02
 0.134815584121367D+02 0.718750240249008D+01 -.566925590383365D+00 -.113916996892045D+02
 0.778206198095518D+02 0.500338946175575D+01 0.881489010968821D-01 -.776595595609969D+02
-.329137133219D-07 0.000000000000D+00 0.000000000000D+00 0.301940151368D-07 0.000000000000D+00  6 22 21 9900012 -13 3 -4 2 0.15266818D-02 0.95821254D-01 0.18612980D+04 0.18612980D+04 0.18612980D+04 0.12932776D+01  1  2 13  3  6  2        4 -.312220860821D-04 0.100000000000D+01
0.631659518741D-07 0.000000000000D+00 0.000000000000D+00 0.301940151368D-07 0.333465208008D-08  6 22 21 9900012 -13 3 -4 2 0.15312187D-02 0.95537342D-01 0.18612980D+04 0.18612980D+04 0.18612980D+04 0.12932776D+01  1  2  1  3  6  2        4 0.601052718475D-04 0.100000000000D+01
  </mgrwgt>
  </event>
  <event>
  6     66 0.17293500E-05 0.29965571E+02 0.78161638E-02 0.12057201E+00
       22 -1    0    0    0    0 0.00000000E+00 0.00000000E+00 0.38333533E+02 0.38333533E+02 0.00000000E+00 0.0000E+00 0.9000E+01
        2 -1    0    0  501    0 -.00000000E+00 -.00000000E+00 -.70570986E+03 0.70570986E+03 0.00000000E+00 0.0000E+00 0.9000E+01
       24  2    1    2    0    0 0.35984697E+02 -.41603879E+02 -.26273677E+02 0.10058524E+03 0.80008149E+02 0.0000E+00 0.0000E+00
  9900012  1    3    3    0    0 0.34312343E+02 -.14480428E+02 0.62473358E+00 0.62349098E+02 0.50000000E+02 0.0000E+00 0.9000E+01
      -13  1    3    3    0    0 0.16723538E+01 -.27123451E+02 -.26898411E+02 0.38236146E+02 0.00000000E+00 0.0000E+00 0.9000E+01
        1  1    1    2  501    0 -.35984697E+02 0.41603879E+02 -.64110266E+03 0.64345815E+03 0.00000000E+00 0.0000E+00 0.9000E+01
#aMCatNLO 1  0  0  5  2 0.16531693D+02 0.00000000D+00  -5  6  0 0.00000000D+00 0.00000000D+00 0.00000000D+00 0.00000000D+00 0.00000000D+00
  <mgrwgt>
 0.2439224013D-03    7    2    0
 0.164475992577077D+03 0.000000000000000D+00 0.000000000000000D+00 0.164475992577077D+03
 0.164475992577077D+03 -.000000000000000D+00 -.000000000000000D+00 -.164475992577077D+03
 0.142292397852219D+03 0.343123428714136D+02 -.144804280429343D+02 0.127906633201341D+03
 0.319134402101777D+02 0.167235376279320D+01 -.271234514061159D+02 0.167328802888423D+02
 0.154746147091757D+03 -.359846966342068D+02 0.416038794490502D+02 -.144639513490183D+03
 0.000000000000000D+00 0.000000000000000D+00 0.000000000000000D+00 -.000000000000000D+00
 0.164475992577077D+03 0.000000000000000D+00 0.000000000000000D+00 0.164475992577077D+03
 0.164475992577077D+03 -.000000000000000D+00 -.000000000000000D+00 -.164475992577077D+03
 0.138388475301992D+03 0.333270582547276D+02 -.133412865119580D+02 0.123946308370608D+03
 0.312237339306893D+02 0.145072096778674D+01 -.268672095881249D+02 0.158420332721488D+02
 0.143319940328762D+03 -.459970612929752D+02 0.318936197031347D+02 -.131938139559727D+03
 0.160198355927114D+02 0.112192820704608D+02 0.831487639694824D+01 -.785020208303025D+01
0.116177842263D-05 0.000000000000D+00 0.000000000000D+00 0.970077295851D-05 0.000000000000D+00  6 22 2 9900012 -13 1 21 0 0.58974666D-02 0.10857075D+00 0.52220877D+04 0.52220877D+04 0.52220877D+04 0.12397260D+01  1  2  2  2  6  5        1 0.607719657862D-04 0.100000000000D+01
0.287009698378D-07 0.000000000000D+00 -.223076752310D-08 0.970077295851D-05 0.000000000000D+00  6 22 2 9900012 -13 1 21 2 0.58974666D-02 0.10857075D+00 0.52220877D+04 0.52220877D+04 0.52220877D+04 0.12397260D+01  1  2  3  2  6  5        1 0.230742703506D-05 0.100000000000D+01
-.200166828678D-06 0.000000000000D+00 0.000000000000D+00 0.970077295851D-05 0.000000000000D+00  6 22 2 9900012 -13 1 21 2 0.58974666D-02 0.10857075D+00 0.52220877D+04 0.52220877D+04 0.52220877D+04 0.12397260D+01  1  2 15  2  6  5        1 -.160924998222D-04 0.100000000000D+01
0.234072721270D-05 0.000000000000D+00 0.000000000000D+00 0.970077295851D-05 0.000000000000D+00  6 22 2 9900012 -13 1 21 2 0.58974666D-02 0.10857075D+00 0.62723081D+04 0.62723081D+04 0.62723081D+04 0.12309153D+01  1  2 12  2  6  5        1 0.187758095531D-03 0.100000000000D+01
-.135292848115D-06 0.000000000000D+00 0.000000000000D+00 0.970077295851D-05 0.000000000000D+00  6 22 2 9900012 -13 1 21 2 0.58974666D-02 0.10857075D+00 0.52220877D+04 0.52220877D+04 0.52220877D+04 0.12397260D+01  1  2  4  2  6  5        1 -.108769277538D-04 0.100000000000D+01
-.229165084765D-05 0.000000000000D+00 0.000000000000D+00 0.970077295851D-05 0.000000000000D+00  6 22 2 9900012 -13 1 21 2 0.58974666D-02 0.10857075D+00 0.52220877D+04 0.52220877D+04 0.52220877D+04 0.12397260D+01  1  2  5  2  6  5        1 -.184238273155D-03 0.100000000000D+01
0.254109709821D-05 0.000000000000D+00 -.000000000000D+00 0.970077295851D-05 0.000000000000D+00  6 22 2 9900012 -13 1 21 2 0.58974666D-02 0.10857075D+00 0.52220877D+04 0.52220877D+04 0.52220877D+04 0.12397260D+01  1  2  6  2  6  5        1 0.204292613673D-03 0.100000000000D+01
  </mgrwgt>
  </event>
  <event>
  6     66 0.17293500E-05 0.22071501E+02 0.78161638E-02 0.12603905E+00
       22 -1    0    0    0    0 0.00000000E+00 0.00000000E+00 0.18608642E+02 0.18608642E+02 0.00000000E+00 0.0000E+00 0.9000E+01
        2 -1    0    0  501    0 -.00000000E+00 -.00000000E+00 -.41426488E+03 0.41426488E+03 0.00000000E+00 0.0000E+00 0.9000E+01
       24  2    1    2    0    0 0.58672467E+01 -.21277372E+02 -.76572009E+02 0.11302685E+03 0.80153879E+02 0.0000E+00 0.0000E+00
  9900012  1    3    3    0    0 0.15787462E+02 -.28757795E+02 -.80238816E+02 0.10007259E+03 0.50000000E+02 0.0000E+00 0.9000E+01
      -13  1    3    3    0    0 -.99202151E+01 0.74804233E+01 0.36668075E+01 0.12954261E+02 0.00000000E+00 0.0000E+00 0.9000E+01
        1  1    1    2  501    0 -.58672467E+01 0.21277372E+02 -.31908423E+03 0.31984668E+03 0.00000000E+00 0.0000E+00 0.9000E+01
#aMCatNLO 1  0  0  5  5 0.76230128D+02 0.00000000D+00  -5  6  0 0.00000000D+00 0.00000000D+00 0.00000000D+00 0.00000000D+00 0.00000000D+00
  <mgrwgt>
 0.9707997080D-04    6    2    0
 0.878003817667153D+02 0.000000000000000D+00 0.000000000000000D+00 0.878003817667153D+02
 0.878003817667153D+02 -.000000000000000D+00 -.000000000000000D+00 -.878003817667153D+02
 0.658982580063264D+02 0.157874617340305D+02 -.287577950878172D+02 0.276825880645578D+02
 0.401954506948943D+02 -.992021508154494D+01 0.748042327242882D+01 0.382270435289845D+02
 0.695070548322100D+02 -.586724665248553D+01 0.212773718153883D+02 -.659096315935423D+02
 0.000000000000000D+00 0.000000000000000D+00 0.000000000000000D+00 0.000000000000000D+00
 0.878003817667153D+02 0.000000000000000D+00 0.000000000000000D+00 0.878003817667153D+02
 0.878003817667153D+02 -.000000000000000D+00 -.000000000000000D+00 -.878003817667153D+02
 0.630936402018574D+02 0.153344039262152D+02 -.271147962500800D+02 0.225931696418577D+02
 0.375738159619695D+02 -.101933638138017D+02 0.847098792419232D+01 0.351586311407543D+02
 0.395617266663076D+02 -.231305433957343D+02 0.237244826534438D+01 -.320074939391691D+02
 0.353715807032962D+02 0.179895032833209D+02 0.162713600605433D+02 -.257443068434429D+02
0.397015025881D-06 0.000000000000D+00 0.000000000000D+00 0.153945161999D-05 0.000000000000D+00  6 22 2 9900012 -13 1 21 0 0.28628681D-02 0.63733058D-01 0.22230171D+04 0.22230171D+04 0.22230171D+04 0.12835464D+01  1  2  2  2  6  5        1 0.908503165742D-04 0.100000000000D+01
0.282436493993D-07 0.000000000000D+00 -.762321117921D-09 0.153945161999D-05 0.000000000000D+00  6 22 2 9900012 -13 1 21 2 0.28628681D-02 0.63733058D-01 0.22230171D+04 0.22230171D+04 0.22230171D+04 0.12835464D+01  1  2  3  2  6  5        1 0.106478873795D-04 0.100000000000D+01
-.690833408569D-07 0.000000000000D+00 0.000000000000D+00 0.153945161999D-05 0.000000000000D+00  6 22 2 9900012 -13 1 21 2 0.28628681D-02 0.63733058D-01 0.22230171D+04 0.22230171D+04 0.22230171D+04 0.12835464D+01  1  2 15  2  6  5        1 -.260444966882D-04 0.100000000000D+01
-.741731780981D-08 0.000000000000D+00 0.000000000000D+00 0.153945161999D-05 0.000000000000D+00  6 22 2 9900012 -13 1 21 2 0.28628681D-02 0.63733058D-01 0.22230171D+04 0.22230171D+04 0.22230171D+04 0.12835464D+01  1  2  4  2  6  5        1 -.279633710149D-05 0.100000000000D+01
-.105962411477D-06 0.000000000000D+00 0.000000000000D+00 0.153945161999D-05 0.000000000000D+00  6 22 2 9900012 -13 1 21 2 0.28628681D-02 0.63733058D-01 0.22230171D+04 0.22230171D+04 0.22230171D+04 0.12835464D+01  1  2  5  2  6  5        1 -.399479475159D-04 0.100000000000D+01
0.170743653526D-06 0.000000000000D+00 -.000000000000D+00 0.153945161999D-05 0.000000000000D+00  6 22 2 9900012 -13 1 21 2 0.28628681D-02 0.63733058D-01 0.22230171D+04 0.22230171D+04 0.22230171D+04 0.12835464D+01  1  2  6  2  6  5        1 0.643705481471D-04 0.100000000000D+01
  </mgrwgt>
  </event>
  <event>
  6     66 0.17293500E-05 0.45759996E+02 0.78161638E-02 0.11551801E+00
       22 -1    0    0    0    0 0.00000000E+00 0.00000000E+00 0.31300288E+03 0.31300288E+03 0.00000000E+00 0.0000E+00 0.9000E+01
        2 -1    0    0  501    0 0.00000000E+00 0.00000000E+00 -.57414589E+02 0.57414589E+02 0.00000000E+00 0.0000E+00 0.9000E+01
       24  2    1    2    0    0 0.28446009E+02 -.35844133E+02 0.29533418E+03 0.30980630E+03 0.81631412E+02 0.0000E+00 0.0000E+00
  9900012  1    3    3    0    0 0.76498554E+01 -.45277781E+02 0.24989124E+03 0.25894832E+03 0.50000000E+02 0.0000E+00 0.9000E+01
      -13  1    3    3    0    0 0.20796153E+02 0.94336488E+01 0.45442940E+02 0.50857983E+02 0.00000000E+00 0.0000E+00 0.9000E+01
        1  1    1    2  501    0 -.28446009E+02 0.35844133E+02 -.39745895E+02 0.60611166E+02 0.00000000E+00 0.0000E+00 0.9000E+01
#aMCatNLO 1  0  0  5  2 0.11950039D+03 0.00000000D+00  -5  6  0 0.00000000D+00 0.00000000D+00 0.00000000D+00 0.00000000D+00 0.00000000D+00
  <mgrwgt>
 0.1641906595D-03    3    2    0
 0.134055703778300D+03 0.000000000000000D+00 0.000000000000000D+00 0.134055703778300D+03
 0.134055703778300D+03 -.000000000000000D+00 -.000000000000000D+00 -.134055703778300D+03
 0.119538758799870D+03 0.764985544611239D+01 -.452777814587780D+02 0.983916514407511D+02
 0.269440316540767D+02 0.207961532220398D+02 0.943364879695910D+01 0.143005987048432D+02
 0.121628617102653D+03 -.284460086681522D+02 0.358441326618189D+02 -.112692250145594D+03
 0.000000000000000D+00 0.000000000000000D+00 0.000000000000000D+00 0.000000000000000D+00
 0.134055703778300D+03 0.000000000000000D+00 0.000000000000000D+00 0.134055703778300D+03
 0.134055703778300D+03 -.000000000000000D+00 -.000000000000000D+00 -.134055703778300D+03
 0.815237205598520D+02 -.307018212049834D+01 -.317697194610511D+02 0.559229462835598D+02
 0.225237188355639D+02 0.181586837882927D+02 0.127570607166273D+02 0.385194952363298D+01
 0.609924965873433D+02 -.334415226160236D+02 -.484448005894575D+02 0.159640377388293D+02
 0.103071471573841D+03 0.183530209482293D+02 0.674574593338812D+02 -.757389335460220D+02
0.559077320736D-05 0.000000000000D+00 0.000000000000D+00 0.137909294109D-05 0.000000000000D+00  6 22 2 9900012 -13 1 21 0 0.48154289D-01 0.88330137D-02 0.46568647D+04 0.46568647D+04 0.46568647D+04 0.12453384D+01  1  2  2  2  6  5        1 0.211766659879D-03 0.100000000000D+01
0.201580312237D-06 0.000000000000D+00 -.107350206003D-07 0.137909294109D-05 0.000000000000D+00  6 22 2 9900012 -13 1 21 2 0.48154289D-01 0.88330137D-02 0.46568647D+04 0.46568647D+04 0.46568647D+04 0.12453384D+01  1  2  3  2  6  5        1 0.118415512432D-04 0.100000000000D+01
-.101147293689D-05 0.000000000000D+00 0.000000000000D+00 0.137909294109D-05 0.000000000000D+00  6 22 2 9900012 -13 1 21 2 0.48154289D-01 0.88330137D-02 0.46568647D+04 0.46568647D+04 0.46568647D+04 0.12453384D+01  1  2 15  2  6  5        1 -.594175516469D-04 0.100000000000D+01
  </mgrwgt>
  </event>
  <event>
  6     66 -.17293500E-05 0.29678359E+02 0.78161638E-02 0.12430573E+00
       22 -1    0    0    0    0 0.00000000E+00 0.00000000E+00 0.20757294E+03 0.20757294E+03 0.00000000E+00 0.0000E+00 0.9000E+01
        2 -1    0    0  501    0 -.00000000E+00 -.00000000E+00 -.96270487E+03 0.96270487E+03 0.00000000E+00 0.0000E+00 0.9000E+01
       24  2    1    2    0    0 -.22308335E+02 0.19574044E+02 0.19808024E+03 0.21660373E+03 0.82465683E+02 0.0000E+00 0.0000E+00
  9900012  1    3    3    0    0 -.19768886E+02 -.75589115E+01 0.89722467E+02 0.10487167E+03 0.50000000E+02 0.0000E+00 0.9000E+01
      -13  1    3    3    0    0 -.25394491E+01 0.27132956E+02 0.10835778E+03 0.11173206E+03 0.00000000E+00 0.0000E+00 0.9000E+01
        1  1    1    2  501    0 0.22308335E+02 -.19574044E+02 -.95321217E+03 0.95367408E+03 0.00000000E+00 0.0000E+00 0.9000E+01
#aMCatNLO 1  0  0  5  5 0.14947638D+02 0.00000000D+00  -5  6  0 0.00000000D+00 0.00000000D+00 0.00000000D+00 0.00000000D+00 0.00000000D+00
  <mgrwgt>
 -.1077921665D-02    4    2    0
 0.447025146070704D+03 0.000000000000000D+00 0.000000000000000D+00 0.447025146070704D+03
 0.447025146070704D+03 -.000000000000000D+00 -.000000000000000D+00 -.447025146070704D+03
 0.213054331718629D+03 -.197688857249643D+02 -.755891153434404D+01 0.206019907479061D+03
 0.237774061753551D+03 -.253944913206800D+01 0.271329558732537D+02 0.236207236016315D+03
 0.443221898669227D+03 0.223083348570324D+02 -.195740443389098D+02 -.442227143495376D+03
 0.000000000000000D+00 0.000000000000000D+00 -.000000000000000D+00 0.000000000000000D+00
 0.447025146070704D+03 0.000000000000000D+00 0.000000000000000D+00 0.447025146070704D+03
 0.447025146070704D+03 -.000000000000000D+00 -.000000000000000D+00 -.447025146070704D+03
 0.212634284021201D+03 -.197470415437396D+02 -.757807831548571D+01 0.205586881440725D+03
 0.237291294296528D+03 -.251507118690470D+01 0.271115658868394D+02 0.235723982150756D+03
 0.736993216354454D+02 0.198402527430212D+01 0.116003166759244D+02 -.727535999539135D+02
 0.370425392188233D+03 0.202780874563423D+02 -.311338042472783D+02 -.368557263637567D+03
0.854565827604D-04 0.000000000000D+00 0.000000000000D+00 0.183629785950D-03 0.000000000000D+00  6 22 2 9900012 -13 1 21 0 0.31934299D-01 0.14810844D+00 0.30927437D+04 0.30927437D+04 0.30927437D+04 0.12660396D+01  1  2  2  2  6  5        1 0.264194479037D-03 0.100000000000D+01
0.752929448935D-05 0.000000000000D+00 -.164087889517D-06 0.183629785950D-03 0.000000000000D+00  6 22 2 9900012 -13 1 21 2 0.31934299D-01 0.14810844D+00 0.30927437D+04 0.30927437D+04 0.30927437D+04 0.12660396D+01  1  2  3  2  6  5        1 0.373101588834D-04 0.100000000000D+01
-.137295443937D-04 0.000000000000D+00 0.000000000000D+00 0.183629785950D-03 0.000000000000D+00  6 22 2 9900012 -13 1 21 2 0.31934299D-01 0.14810844D+00 0.30927437D+04 0.30927437D+04 0.30927437D+04 0.12660396D+01  1  2 15  2  6  5        1 -.680344597291D-04 0.100000000000D+01
-.264642544481D-03 0.000000000000D+00 0.000000000000D+00 0.183629785950D-03 0.000000000000D+00  6 22 2 9900012 -13 1 21 2 0.31934299D-01 0.14810844D+00 0.30927437D+04 0.30927437D+04 0.30927437D+04 0.12660396D+01  1  2  5  2  6  5        1 -.131139184367D-02 0.100000000000D+01
  </mgrwgt>
  </event>
  <event>
  7     66 -.17293500E-05 0.10999742E+03 0.78161638E-02 0.11171360E+00
       22 -1    0    0    0    0 0.00000000E+00 0.00000000E+00 0.80286527E+02 0.80286527E+02 0.00000000E+00 0.0000E+00 0.9000E+01
        2 -1    0    0  501    0 -.00000000E+00 -.00000000E+00 -.62276200E+03 0.62276200E+03 0.00000000E+00 0.0000E+00 0.9000E+01
       24  2    1    2    0    0 -.18620111E+02 -.11751887E+03 0.33367681E+01 0.14313876E+03 0.79499542E+02 0.0000E+00 0.0000E+00
  9900012  1    3    3    0    0 -.37345633E+02 -.90595715E+02 0.64316418E+01 0.11019821E+03 0.50000000E+02 0.0000E+00 0.9000E+01
      -13  1    3    3    0    0 0.18725522E+02 -.26923152E+02 -.30948737E+01 0.32940545E+02 0.00000000E+00 0.0000E+00 0.9000E+01
        1  1    1    2  502    0 0.53234750E+01 0.99446148E+02 -.48429588E+03 0.49442935E+03 0.00000000E+00 0.0000E+00 0.9000E+01
       21  1    1    2  501  502 0.13296636E+02 0.18072718E+02 -.61516360E+02 0.65480426E+02 0.00000000E+00 0.0000E+00 0.9000E+01
#aMCatNLO 2  0  0  5  2 0.12712552D+02 0.00000000D+00  -5  6  0 0.00000000D+00 0.00000000D+00 0.00000000D+00 0.00000000D+00 0.00000000D+00
  <mgrwgt>
 -.1789403839D-03    2    2    0
 0.223605452506545D+03 0.000000000000000D+00 0.000000000000000D+00 0.223605452506545D+03
 0.223605452506545D+03 -.000000000000000D+00 -.000000000000000D+00 -.223605452506545D+03
 0.182325672915027D+03 -.374624034972318D+02 -.913326977584069D+02 0.144905340302901D+03
 0.483459950097535D+02 0.186945507065550D+02 -.271186239499156D+02 0.353896770602137D+02
 0.216539237088309D+03 0.187678527906768D+02 0.118451321708322D+03 -.180295017363115D+03
 0.000000000000000D+00 0.000000000000000D+00 0.000000000000000D+00 0.000000000000000D+00
 0.223605452506545D+03 0.000000000000000D+00 0.000000000000000D+00 0.223605452506545D+03
 0.223605452506545D+03 -.000000000000000D+00 -.000000000000000D+00 -.223605452506545D+03
 0.181041422833882D+03 -.373456332518620D+02 -.905957146813056D+02 0.143783576739895D+03
 0.480308253958731D+02 0.187255219890359D+02 -.269231519699407D+02 0.350921487294589D+02
 0.189819130959421D+03 0.532347500649436D+01 0.994461484497199D+02 -.161596493311462D+03
 0.283195258239138D+02 0.132966362563317D+02 0.180727182015264D+02 -.172792321578924D+02
-.889548257744D-05 0.000000000000D+00 0.000000000000D+00 0.544282036426D-05 0.000000000000D+00  6 22 2 9900012 -13 1 21 2 0.12351773D-01 0.95809539D-01 0.17533843D+05 0.17533843D+05 0.17533843D+05 0.11848352D+01  1  2 13  2  6  5        1 -.284873302216D-03 0.100000000000D+01
0.330787203424D-05 0.000000000000D+00 0.000000000000D+00 0.544282036426D-05 0.822621414733D-07  6 22 2 9900012 -13 1 21 2 0.12351773D-01 0.95809539D-01 0.17533843D+05 0.17533843D+05 0.17533843D+05 0.11848352D+01  1  2  1  2  6  5        1 0.105932918366D-03 0.100000000000D+01
  </mgrwgt>
  </event>
  <event>
  6     66 0.17293500E-05 0.95424451E+02 0.78161638E-02 0.10834519E+00
       22 -1    0    0    0    0 0.00000000E+00 0.00000000E+00 0.64486694E+03 0.64486694E+03 0.00000000E+00 0.0000E+00 0.9000E+01
        2 -1    0    0  501    0 0.00000000E+00 0.00000000E+00 -.12206475E+04 0.12206475E+04 0.00000000E+00 0.0000E+00 0.9000E+01
       24  2    1    2    0    0 0.10076534E+03 0.10013877E+03 0.63075276E+03 0.65064651E+03 0.72872531E+02 0.0000E+00 0.0000E+00
  9900012  1    3    3    0    0 0.75440886E+02 0.51142702E+02 0.43716652E+03 0.44935672E+03 0.50000000E+02 0.0000E+00 0.9000E+01
      -13  1    3    3    0    0 0.25324453E+02 0.48996067E+02 0.19358625E+03 0.20128978E+03 0.00000000E+00 0.0000E+00 0.9000E+01
        1  1    1    2  501    0 -.10076534E+03 -.10013877E+03 -.12065333E+04 0.12148679E+04 0.00000000E+00 0.0000E+00 0.9000E+01
#aMCatNLO 1  0  0  2  5 0.27623898D+02 0.00000000D+00  -5  6  0 0.00000000D+00 0.00000000D+00 0.00000000D+00 0.00000000D+00 0.00000000D+00
  <mgrwgt>
 0.1211384781D-02    9    2    0
 0.887217671643653D+03 0.000000000000000D+00 0.000000000000000D+00 0.887217671643653D+03
 0.887217671643653D+03 0.000000000000000D+00 0.000000000000000D+00 -.887217671643653D+03
 0.614276207851726D+03 0.754408859342543D+02 0.511427022446208D+02 0.605415853995640D+03
 0.274437828779491D+03 0.253244528914754D+02 0.489960673636151D+02 0.268838574862032D+03
 0.885721306656089D+03 -.100765338825730D+03 -.100138769608236D+03 -.874254428857672D+03
 0.000000000000000D+00 0.000000000000000D+00 -.000000000000000D+00 -.000000000000000D+00
 0.890333151631745D+03 0.000000000000000D+00 0.000000000000000D+00 0.890333151631745D+03
 0.947419851201784D+03 0.000000000000000D+00 0.000000000000000D+00 -.947419851201784D+03
 0.613717315806688D+03 0.672782072570858D+02 0.556258058815174D+02 0.605415853995640D+03
 0.274490472735134D+03 0.216756345095031D+02 0.510000701677864D+02 0.268838574862032D+03
 0.886431672149035D+03 -.112545136564139D+03 -.936690730574353D+02 -.874254428857672D+03
 0.631135421426727D+02 0.235912947975506D+02 -.129568029918685D+02 -.570866995700390D+02
0.212696661317D-03 0.000000000000D+00 0.000000000000D+00 0.249662549368D-04 0.000000000000D+00  6 22 2 9900012 -13 1 21 0 0.99210298D-01 0.18779192D+00 0.22676055D+05 0.22676055D+05 0.22676055D+05 0.11741212D+01  1  2  2  1  6  2        2 0.708691130122D-04 0.100000000000D+01
0.222152391284D-05 0.000000000000D+00 -.408405591887D-06 0.249662549368D-04 0.000000000000D+00  6 22 2 9900012 -13 1 21 2 0.99210298D-01 0.18779192D+00 0.22676055D+05 0.22676055D+05 0.22676055D+05 0.11741212D+01  1  2  3  1  6  2        2 0.102040638644D-05 0.100000000000D+01
-.338554076657D-04 0.000000000000D+00 0.000000000000D+00 0.249662549368D-04 0.000000000000D+00  6 22 2 9900012 -13 1 21 2 0.99210298D-01 0.18779192D+00 0.22676055D+05 0.22676055D+05 0.22676055D+05 0.11741212D+01  1  2 15  1  6  2        2 -.155507100320D-04 0.100000000000D+01
0.258326170131D-02 0.000000000000D+00 0.000000000000D+00 0.249662549368D-04 0.000000000000D+00  6 22 2 9900012 -13 1 21 2 0.99210298D-01 0.20123872D+00 0.27118937D+05 0.27118937D+05 0.27118937D+05 0.11668358D+01  1  2 12  1  6  2        2 0.105246530721D-02 0.100000000000D+01
-.152196324013D-03 0.000000000000D+00 0.000000000000D+00 0.249662549368D-04 0.000000000000D+00  6 22 2 9900012 -13 1 21 2 0.99210298D-01 0.18779192D+00 0.22676055D+05 0.22676055D+05 0.22676055D+05 0.11741212D+01  1  2  4  1  6  2        2 -.699079132653D-04 0.100000000000D+01
-.363572186258D-02 0.000000000000D+00 -.329582689960D-03 0.249662549368D-04 0.000000000000D+00  6 22 2 9900012 -13 1 21 2 0.99210298D-01 0.20082631D+00 0.22676055D+05 0.22676055D+05 0.22676055D+05 0.11741212D+01  1  2  5  1  6  2        2 -.150333330994D-02 0.100000000000D+01
0.365035727076D-02 0.000000000000D+00 0.328841991366D-03 0.249662549368D-04 0.000000000000D+00  6 22 2 9900012 -13 1 21 2 0.99210298D-01 0.18779192D+00 0.22676055D+05 0.22676055D+05 0.22676055D+05 0.11741212D+01  1  2  6  1  6  2        2 0.167670842989D-02 0.100000000000D+01
0.377521056520D-04 0.000000000000D+00 0.000000000000D+00 0.249662549368D-04 0.000000000000D+00  6 22 21 9900012 -13 1 -2 2 0.99210298D-01 0.20123872D+00 0.27118937D+05 0.27118937D+05 0.27118937D+05 0.11668358D+01  1  2 12  3  6  2        2 0.779759664788D-05 0.100000000000D+01
-.409680097048D-04 0.000000000000D+00 -.376012522522D-05 0.249662549368D-04 0.000000000000D+00  6 22 21 9900012 -13 1 -2 2 0.99210298D-01 0.20082631D+00 0.22676055D+05 0.22676055D+05 0.22676055D+05 0.11741212D+01  1  2  5  3  6  2        2 -.868413850637D-05 0.100000000000D+01
  </mgrwgt>
  </event>
  <event>
  6     66 0.17293500E-05 0.17190326E+02 0.78161638E-02 0.12998737E+00
       22 -1    0    0    0    0 0.00000000E+00 0.00000000E+00 0.37509693E+01 0.37509693E+01 0.00000000E+00 0.0000E+00 0.9000E+01
        2 -1    0    0  501    0 0.00000000E+00 0.00000000E+00 -.76689621E+03 0.76689621E+03 0.00000000E+00 0.0000E+00 0.9000E+01
       24  2    1    2    0    0 -.17383947E+01 -.17102201E+02 -.47817835E+03 0.48516227E+03 0.80202132E+02 0.0000E+00 0.0000E+00
  9900012  1    3    3    0    0 -.62554539E+01 -.33597398E+02 -.42520755E+03 0.42949898E+03 0.50000000E+02 0.0000E+00 0.9000E+01
      -13  1    3    3    0    0 0.45170592E+01 0.16495197E+02 -.52970801E+02 0.55663284E+02 0.00000000E+00 0.0000E+00 0.9000E+01
        1  1    1    2  501    0 0.17383947E+01 0.17102201E+02 -.28496689E+03 0.28548491E+03 0.00000000E+00 0.0000E+00 0.9000E+01
#aMCatNLO 1  0  0  2  5 0.71763883D+01 0.00000000D+00  -5  6  0 0.00000000D+00 0.00000000D+00 0.00000000D+00 0.00000000D+00 0.00000000D+00
  <mgrwgt>
 0.1782745628D-03    8    2    0
 0.536339832836250D+02 0.000000000000000D+00 0.000000000000000D+00 0.536339832836250D+02
 0.536339832836250D+02 0.000000000000000D+00 0.000000000000000D+00 -.536339832836250D+02
 0.605685179213765D+02 -.625545388692195D+01 -.335973984907417D+02 0.793394299836773D+00
 0.230482376612060D+02 0.451705919936277D+01 0.164951970416403D+02 0.154507575877156D+02
 0.236512109846674D+02 0.173839468755918D+01 0.171022014491014D+02 -.162441518875524D+02
 0.000000000000000D+00 -.000000000000000D+00 -.000000000000000D+00 0.000000000000000D+00
 0.567067316201679D+02 0.000000000000000D+00 0.000000000000000D+00 0.567067316201679D+02
 0.549685196784703D+02 0.000000000000000D+00 0.000000000000000D+00 -.549685196784703D+02
 0.597230998292539D+02 -.441013542736915D+01 -.323538233322165D+02 0.793394299836773D+00
 0.235438230964890D+02 0.523179885780692D+01 0.169768659261912D+02 0.154507575877156D+02
 0.240744832700663D+02 0.247052470833756D+01 0.175955898406483D+02 -.162441518875524D+02
 0.433384510282896D+01 -.329218813877532D+01 -.221863243462302D+01 0.173821194169766D+01
0.774030740267D-07 0.000000000000D+00 0.000000000000D+00 0.142960270761D-06 0.000000000000D+00  6 22 2 9900012 -13 1 21 0 0.57707220D-03 0.11798403D+00 0.22494220D+04 0.22494220D+04 0.22494220D+04 0.12829076D+01  1  2  2  1  6  2        2 0.755957378560D-04 0.100000000000D+01
0.358175869883D-08 0.000000000000D+00 -.148624092480D-09 0.142960270761D-06 0.000000000000D+00  6 22 2 9900012 -13 1 21 2 0.57707220D-03 0.11798403D+00 0.22494220D+04 0.22494220D+04 0.22494220D+04 0.12829076D+01  1  2  3  1  6  2        2 0.575739710477D-05 0.100000000000D+01
-.931391242008D-08 0.000000000000D+00 0.000000000000D+00 0.142960270761D-06 0.000000000000D+00  6 22 2 9900012 -13 1 21 2 0.57707220D-03 0.11798403D+00 0.22494220D+04 0.22494220D+04 0.22494220D+04 0.12829076D+01  1  2 15  1  6  2        2 -.149713861012D-04 0.100000000000D+01
0.793201433295D-07 0.000000000000D+00 0.000000000000D+00 0.142960270761D-06 0.000000000000D+00  6 22 2 9900012 -13 1 21 2 0.57707220D-03 0.12784737D+00 0.24611885D+04 0.24611885D+04 0.24611885D+04 0.12780725D+01  1  2 12  1  6  2        2 0.116610034513D-03 0.100000000000D+01
-.428202176580D-08 0.000000000000D+00 0.000000000000D+00 0.142960270761D-06 0.000000000000D+00  6 22 2 9900012 -13 1 21 2 0.57707220D-03 0.11798403D+00 0.22494220D+04 0.22494220D+04 0.22494220D+04 0.12829076D+01  1  2  4  1  6  2        2 -.688301524193D-05 0.100000000000D+01
0.123887236706D-09 0.000000000000D+00 0.000000000000D+00 0.142960270761D-06 0.384425235018D-08  6 22 2 9900012 -13 1 21 2 0.61013329D-03 0.12091975D+00 0.24611885D+04 0.24611885D+04 0.24611885D+04 0.12780725D+01  1  2 11  1  6  2        2 0.180578406969D-06 0.100000000000D+01
0.115609791747D-08 0.000000000000D+00 0.000000000000D+00 0.142960270761D-06 0.000000000000D+00  6 22 21 9900012 -13 1 -2 2 0.57707220D-03 0.12784737D+00 0.24611885D+04 0.24611885D+04 0.24611885D+04 0.12780725D+01  1  2 12  3  6  2        2 0.190550721091D-05 0.100000000000D+01
0.450801768683D-10 0.000000000000D+00 0.000000000000D+00 0.142960270761D-06 0.666789595246D-09  6 22 21 9900012 -13 1 -2 2 0.61013329D-03 0.12091975D+00 0.24611885D+04 0.24611885D+04 0.24611885D+04 0.12780725D+01  1  2 11  3  6  2        2 0.797090518249D-07 0.100000000000D+01
  </mgrwgt>
  </event>
  <event>
  6     66 0.17293500E-05 0.43450540E+02 0.78161638E-02 0.12296437E+00
       22 -1    0    0    0    0 0.00000000E+00 0.00000000E+00 0.38366925E+03 0.38366925E+03 0.00000000E+00 0.0000E+00 0.9000E+01
        4 -1    0    0  501    0 0.00000000E+00 0.00000000E+00 -.23804335E+02 0.23804335E+02 0.00000000E+00 0.0000E+00 0.9000E+01
       24  2    1    2    0    0 0.36490902E+02 -.23587359E+02 0.34922931E+03 0.36274031E+03 0.87928823E+02 0.0000E+00 0.0000E+00
  9900012  1    3    3    0    0 -.14276322E+01 -.31331106E+02 0.19558389E+03 0.20429570E+03 0.50000000E+02 0.0000E+00 0.9000E+01
      -13  1    3    3    0    0 0.37918534E+02 0.77437469E+01 0.15364542E+03 0.15844461E+03 0.00000000E+00 0.0000E+00 0.9000E+01
        3  1    1    2  501    0 -.36490902E+02 0.23587359E+02 0.10635610E+02 0.44733272E+02 0.00000000E+00 0.0000E+00 0.9000E+01
#aMCatNLO 1  0  0  5  2 0.92350500D+01 0.00000000D+00  -5  6  0 0.00000000D+00 0.00000000D+00 0.00000000D+00 0.00000000D+00 0.00000000D+00
  <mgrwgt>
 0.1081565324D-03    8    2    0
 0.955666858111308D+02 0.000000000000000D+00 0.000000000000000D+00 0.955666858111308D+02
 0.955666858111308D+02 -.000000000000000D+00 -.000000000000000D+00 -.955666858111308D+02
 0.672897808937290D+02 -.142763216116281D+01 -.313311055219041D+02 0.323146763238282D+02
 0.485022527381385D+02 0.379185342663133D+02 0.774374693664760D+01 0.292350416991297D+02
 0.753413379903939D+02 -.364909021051505D+02 0.235873585852565D+02 -.615497180229579D+02
 0.000000000000000D+00 0.000000000000000D+00 0.000000000000000D+00 0.000000000000000D+00
 0.955666858111308D+02 0.000000000000000D+00 0.000000000000000D+00 0.955666858111308D+02
 0.955666858111308D+02 -.000000000000000D+00 -.000000000000000D+00 -.955666858111308D+02
 0.666362854746086D+02 -.203511248640443D+01 -.309384362416634D+02 0.312900307117418D+02
 0.477647681619691D+02 0.374818730340958D+02 0.802600044287539D+01 0.284985190547429D+02
 0.613352704390548D+02 -.247392381508759D+02 0.131617134861975D+02 -.545596443688326D+02
 0.153970475466289D+02 -.107075223968154D+02 0.975072231259049D+01 -.522890539765219D+01
0.535985185009D-06 0.000000000000D+00 0.000000000000D+00 0.171375053334D-07 0.000000000000D+00  6 22 4 9900012 -13 3 21 0 0.59026038D-01 0.36622054D-02 0.49825521D+04 0.49825521D+04 0.49825521D+04 0.12420166D+01  1  2  2  2  6  5        3 0.265567841729D-04 0.100000000000D+01
0.141253419598D-07 0.000000000000D+00 -.102916211929D-08 0.171375053334D-07 0.000000000000D+00  6 22 4 9900012 -13 3 21 2 0.59026038D-01 0.36622054D-02 0.49825521D+04 0.49825521D+04 0.49825521D+04 0.12420166D+01  1  2  3  2  6  5        3 0.107963373991D-05 0.100000000000D+01
-.865907379258D-07 0.000000000000D+00 0.000000000000D+00 0.171375053334D-07 0.000000000000D+00  6 22 4 9900012 -13 3 21 2 0.59026038D-01 0.36622054D-02 0.49825521D+04 0.49825521D+04 0.49825521D+04 0.12420166D+01  1  2 15  2  6  5        3 -.661833762993D-05 0.100000000000D+01
0.116404663193D-05 0.000000000000D+00 0.000000000000D+00 0.171375053334D-07 0.000000000000D+00  6 22 4 9900012 -13 3 21 2 0.59026038D-01 0.36622054D-02 0.48768630D+04 0.48768630D+04 0.48768630D+04 0.12430671D+01  1  2 12  2  6  5        3 0.888555451705D-04 0.100000000000D+01
-.277217487458D-06 0.000000000000D+00 0.000000000000D+00 0.171375053334D-07 0.000000000000D+00  6 22 4 9900012 -13 3 21 2 0.59026038D-01 0.36622054D-02 0.49825521D+04 0.49825521D+04 0.49825521D+04 0.12420166D+01  1  2  4  2  6  5        3 -.211883969679D-04 0.100000000000D+01
-.113361317742D-05 0.000000000000D+00 0.000000000000D+00 0.171375053334D-07 0.000000000000D+00  6 22 4 9900012 -13 3 21 2 0.59026038D-01 0.36622054D-02 0.49825521D+04 0.49825521D+04 0.49825521D+04 0.12420166D+01  1  2  5  2  6  5        3 -.866447720577D-04 0.100000000000D+01
0.138834978351D-05 0.000000000000D+00 -.000000000000D+00 0.171375053334D-07 0.000000000000D+00  6 22 4 9900012 -13 3 21 2 0.59026038D-01 0.36622054D-02 0.49825521D+04 0.49825521D+04 0.49825521D+04 0.12420166D+01  1  2  6  2  6  5        3 0.106114901384D-03 0.100000000000D+01
0.153872759191D-10 0.000000000000D+00 0.000000000000D+00 0.171375053334D-07 0.273644340512D-09  6 22 4 9900012 -13 3 21 2 0.59026038D-01 0.36622054D-02 0.48768630D+04 0.48768630D+04 0.48768630D+04 0.12430671D+01  1  2 11  2  6  5        3 0.117456187148D-08 0.100000000000D+01
  </mgrwgt>
  </event>
  <event>
  6     66 0.17293500E-05 0.36155717E+02 0.78161638E-02 0.12334533E+00
       22 -1    0    0    0    0 0.00000000E+00 0.00000000E+00 0.11161858E+04 0.11161858E+04 0.00000000E+00 0.0000E+00 0.9000E+01
        2 -1    0    0  501    0 0.00000000E+00 0.00000000E+00 -.71304607E+01 0.71304607E+01 0.00000000E+00 0.0000E+00 0.9000E+01
       24  2    1    2    0    0 0.51861073E+02 -.20688489E+02 0.93949840E+03 0.94480256E+03 0.82928007E+02 0.0000E+00 0.0000E+00
  9900012  1    3    3    0    0 0.39542941E+02 -.28072087E+02 0.47477021E+03 0.47985252E+03 0.50000000E+02 0.0000E+00 0.9000E+01
      -13  1    3    3    0    0 0.12318131E+02 0.73835977E+01 0.46472819E+03 0.46495004E+03 0.00000000E+00 0.0000E+00 0.9000E+01
        1  1    1    2  501    0 -.51861073E+02 0.20688489E+02 0.16955693E+03 0.17851368E+03 0.00000000E+00 0.0000E+00 0.9000E+01
#aMCatNLO 1  0  0  5  2 0.91963810D+01 0.00000000D+00  -5  6  0 0.00000000D+00 0.00000000D+00 0.00000000D+00 0.00000000D+00 0.00000000D+00
  <mgrwgt>
 0.2956011872D-03    8    2    0
 0.892127729709456D+02 0.000000000000000D+00 0.000000000000000D+00 0.892127729709456D+02
 0.892127729709456D+02 -.000000000000000D+00 -.000000000000000D+00 -.892127729709456D+02
 0.699434557605816D+02 0.395429414691859D+02 -.280720871012430D+02 0.635615524332138D+01
 0.385408129342884D+02 0.123181313461814D+02 0.738359774223906D+01 0.357650721536366D+02
 0.699412772470212D+02 -.518610728153673D+02 0.206884893590039D+02 -.421212273969580D+02
 0.000000000000000D+00 -.000000000000000D+00 0.000000000000000D+00 0.000000000000000D+00
 0.892127729709456D+02 0.000000000000000D+00 0.000000000000000D+00 0.892127729709456D+02
 0.892127729709456D+02 -.000000000000000D+00 -.000000000000000D+00 -.892127729709456D+02
 0.690146081360930D+02 0.383660097244057D+02 -.276025838966941D+02 0.540025890409454D+01
 0.378999615360859D+02 0.116707016717390D+02 0.764187126423292D+01 0.352392339659498D+02
 0.582577266397100D+02 -.370244458893587D+02 0.175650912393337D+02 -.414079785737846D+02
 0.132532496300022D+02 -.130122655067860D+02 0.239562139312744D+01 0.768485703740281D+00
0.181470393892D-05 0.000000000000D+00 0.000000000000D+00 0.751774805732D-07 0.000000000000D+00  6 22 2 9900012 -13 1 21 0 0.17172089D+00 0.10969940D-02 0.48895701D+04 0.48895701D+04 0.48895701D+04 0.12429394D+01  1  2  2  2  6  5        1 0.920048530199D-04 0.100000000000D+01
-.234283396419D-07 0.000000000000D+00 -.348447047399D-08 0.751774805732D-07 0.000000000000D+00  6 22 2 9900012 -13 1 21 2 0.17172089D+00 0.10969940D-02 0.48895701D+04 0.48895701D+04 0.48895701D+04 0.12429394D+01  1  2  3  2  6  5        1 -.183504364800D-05 0.100000000000D+01
-.244356166769D-06 0.000000000000D+00 0.000000000000D+00 0.751774805732D-07 0.000000000000D+00  6 22 2 9900012 -13 1 21 2 0.17172089D+00 0.10969940D-02 0.48895701D+04 0.48895701D+04 0.48895701D+04 0.12429394D+01  1  2 15  2  6  5        1 -.191393943632D-04 0.100000000000D+01
0.336318564243D-05 0.000000000000D+00 0.000000000000D+00 0.751774805732D-07 0.000000000000D+00  6 22 2 9900012 -13 1 21 2 0.17172089D+00 0.10969940D-02 0.46897682D+04 0.46897682D+04 0.46897682D+04 0.12449912D+01  1  2 12  2  6  5        1 0.263016445470D-03 0.100000000000D+01
-.116581908397D-05 0.000000000000D+00 0.000000000000D+00 0.751774805732D-07 0.000000000000D+00  6 22 2 9900012 -13 1 21 2 0.17172089D+00 0.10969940D-02 0.48895701D+04 0.48895701D+04 0.48895701D+04 0.12429394D+01  1  2  4  2  6  5        1 -.913137225031D-04 0.100000000000D+01
-.325950855493D-05 0.000000000000D+00 0.000000000000D+00 0.751774805732D-07 0.000000000000D+00  6 22 2 9900012 -13 1 21 2 0.17172089D+00 0.10969940D-02 0.48895701D+04 0.48895701D+04 0.48895701D+04 0.12429394D+01  1  2  5  2  6  5        1 -.255303643398D-03 0.100000000000D+01
0.393440764491D-05 0.000000000000D+00 -.000000000000D+00 0.751774805732D-07 0.000000000000D+00  6 22 2 9900012 -13 1 21 2 0.17172089D+00 0.10969940D-02 0.48895701D+04 0.48895701D+04 0.48895701D+04 0.12429394D+01  1  2  6  2  6  5        1 0.308165660385D-03 0.100000000000D+01
0.771338665986D-10 0.000000000000D+00 0.000000000000D+00 0.751774805732D-07 0.169413428274D-08  6 22 2 9900012 -13 1 21 2 0.17172089D+00 0.10969940D-02 0.46897682D+04 0.46897682D+04 0.46897682D+04 0.12449912D+01  1  2 11  2  6  5        1 0.603221991737D-08 0.100000000000D+01
  </mgrwgt>
  </event>
  <event>
  7     66 0.17293500E-05 0.28959815E+02 0.78161638E-02 0.12739307E+00
       22 -1    0    0    0    0 0.00000000E+00 0.00000000E+00 0.15195398E+04 0.15195398E+04 0.00000000E+00 0.0000E+00 0.9000E+01
       21 -1    0    0  501  502 0.00000000E+00 0.00000000E+00 -.29993691E+01 0.29993691E+01 0.00000000E+00 0.0000E+00 0.9000E+01
       24  2    1    2    0    0 0.14714150E+02 0.21845119E+02 0.88112303E+03 0.88592764E+03 0.88296474E+02 0.0000E+00 0.0000E+00
  9900012  1    3    3    0    0 -.14797083E+01 0.30301892E+01 0.78674527E+03 0.78833971E+03 0.50000000E+02 0.0000E+00 0.9000E+01
      -13  1    3    3    0    0 0.16193859E+02 0.18814930E+02 0.94377761E+02 0.97587931E+02 0.00000000E+00 0.0000E+00 0.9000E+01
        1  1    1    2  501    0 -.16730442E+02 -.26906639E+02 0.44996857E+03 0.45108268E+03 0.00000000E+00 0.0000E+00 0.9000E+01
       -2  1    1    2    0  502 0.20162916E+01 0.50615204E+01 0.18544882E+03 0.18552884E+03 0.00000000E+00 0.0000E+00 0.9000E+01
#aMCatNLO 2  0  0  2  5 0.17359052D+02 0.00000000D+00  -5  6  0 0.00000000D+00 0.00000000D+00 0.00000000D+00 0.00000000D+00 0.00000000D+00
  <mgrwgt>
 0.1135210003D-02    2    2    0
 0.627735371646512D+02 0.000000000000000D+00 0.000000000000000D+00 0.627735371646512D+02
 0.627735371646512D+02 0.000000000000000D+00 0.000000000000000D+00 -.627735371646512D+02
 0.541681829816456D+02 -.611371958415745D+00 0.520998421303357D+01 0.201661681129916D+02
 0.396545338539585D+02 0.168219453756282D+02 0.203916234067743D+02 -.295581782894416D+02
 0.317243574936984D+02 -.162105734172125D+02 -.256016076198079D+02 0.939201017644994D+01
 0.000000000000000D+00 0.000000000000000D+00 0.000000000000000D+00 0.000000000000000D+00
 0.715689792450125D+02 0.000000000000000D+00 0.000000000000000D+00 0.715689792450125D+02
 0.636820700168870D+02 0.000000000000000D+00 0.000000000000000D+00 -.636820700168870D+02
 0.540189403823729D+02 -.147970834849594D+01 0.303018924760611D+01 0.201661681129916D+02
 0.385995924926267D+02 0.161938585620798D+02 0.188149297547926D+02 -.295581782894416D+02
 0.330467061284190D+02 -.167304418619815D+02 -.269066394387409D+02 0.939201017644994D+01
 0.958581025848098D+01 0.201629164839759D+01 0.506152043634218D+01 0.788690922812554D+01
-.595075397474D-08 0.000000000000D+00 0.000000000000D+00 0.189370579205D-09 0.000000000000D+00  6 22 21 9900012 -13 1 -2 2 0.20504562D+00 0.52609574D-03 0.31399295D+04 0.31399295D+04 0.31399295D+04 0.12652544D+01  1  2 13  3  6  2        2 -.152239424472D-04 0.100000000000D+01
0.524531655333D-06 0.000000000000D+00 0.000000000000D+00 0.189370579205D-09 0.129111817056D-10  6 22 21 9900012 -13 1 -2 2 0.23377535D+00 0.46144141D-03 0.31399295D+04 0.31399295D+04 0.31399295D+04 0.12652544D+01  1  2  1  3  6  2        2 0.115043394549D-02 0.100000000000D+01
  </mgrwgt>
  </event>
  <event>
  7     66 -.17293500E-05 0.28152105E+02 0.78161638E-02 0.12112484E+00
       22 -1    0    0    0    0 0.00000000E+00 0.00000000E+00 0.19047777E+03 0.19047777E+03 0.00000000E+00 0.0000E+00 0.9000E+01
        2 -1    0    0  502    0 0.00000000E+00 0.00000000E+00 -.11862088E+04 0.11862088E+04 0.00000000E+00 0.0000E+00 0.9000E+01
       24  2    1    2    0    0 -.29189382E+02 0.12715258E+02 0.17959999E+03 0.19860757E+03 0.78581867E+02 0.0000E+00 0.0000E+00
  9900012  1    3    3    0    0 -.15236092E+02 0.27682037E+02 0.97866120E+02 0.11435126E+03 0.50000000E+02 0.0000E+00 0.9000E+01
      -13  1    3    3    0    0 -.13953290E+02 -.14966778E+02 0.81733872E+02 0.84256303E+02 0.00000000E+00 0.0000E+00 0.9000E+01
        1  1    1    2  501    0 0.16028900E+02 -.40431997E+02 -.89865463E+03 0.89970652E+03 0.00000000E+00 0.0000E+00 0.9000E+01
       21  1    1    2  502  501 0.13160482E+02 0.27716739E+02 -.27667642E+03 0.27837251E+03 0.00000000E+00 0.0000E+00 0.9000E+01
#aMCatNLO 2  0  0  2  5 0.30973068D+02 0.00000000D+00  -5  6  0 0.00000000D+00 0.00000000D+00 0.00000000D+00 0.00000000D+00 0.00000000D+00
  <mgrwgt>
 -.9114435420D-03    2    2    0
 0.414823104928239D+03 0.000000000000000D+00 0.000000000000000D+00 0.414823104928239D+03
 0.414823104928239D+03 0.000000000000000D+00 0.000000000000000D+00 -.414823104928239D+03
 0.236885828590083D+03 -.114864074855747D+02 0.355790896958873D+02 0.228510583138501D+03
 0.181658808369531D+03 -.110679325870350D+02 -.889004779852604D+01 0.181103259431261D+03
 0.411101572896864D+03 0.225543400726097D+02 -.266890418973613D+02 -.409613842569762D+03
 0.000000000000000D+00 0.000000000000000D+00 0.000000000000000D+00 -.000000000000000D+00
 0.416963096629302D+03 0.000000000000000D+00 0.000000000000000D+00 0.416963096629302D+03
 0.541885871146165D+03 0.000000000000000D+00 0.000000000000000D+00 -.541885871146165D+03
 0.236041352857915D+03 -.152360920463760D+02 0.276820366275947D+02 0.228510583138501D+03
 0.182255560526906D+03 -.139532902996679D+02 -.149667784163143D+02 0.181103259431261D+03
 0.411916462468303D+03 0.160288999170642D+02 -.404319971691239D+02 -.409613842569762D+03
 0.128635591922343D+03 0.131604824289797D+02 0.277167389578435D+02 -.124922774516863D+03
-.234752234728D-03 0.000000000000D+00 0.000000000000D+00 0.299033815473D-03 0.000000000000D+00  6 22 2 9900012 -13 1 21 2 0.29153873D-01 0.18343511D+00 0.59124986D+04 0.59124986D+04 0.59124986D+04 0.12337340D+01  1  2 13  1  6  2        2 -.972547024781D-03 0.100000000000D+01
0.147559667354D-04 0.000000000000D+00 0.000000000000D+00 0.299033815473D-03 0.157230590641D-06  6 22 2 9900012 -13 1 21 2 0.29304272D-01 0.18249367D+00 0.59124986D+04 0.59124986D+04 0.59124986D+04 0.12337340D+01  1  2  1  1  6  2        2 0.611034827820D-04 0.100000000000D+01
  </mgrwgt>
  </event>
  <event>
  6     66 0.17293500E-05 0.41273493E+02 0.78161638E-02 0.10764956E+00
       22 -1    0    0    0    0 0.00000000E+00 0.00000000E+00 0.19816036E+03 0.19816036E+03 0.00000000E+00 0.0000E+00 0.9000E+01
        2 -1    0    0  501    0 0.00000000E+00 0.00000000E+00 -.16549582E+03 0.16549582E+03 0.00000000E+00 0.0000E+00 0.9000E+01
       24  2    1    2    0    0 0.37900158E+02 0.16342561E+02 0.18078345E+03 0.20989431E+03 0.98333433E+02 0.0000E+00 0.0000E+00
  9900012  1    3    3    0    0 -.12383191E+02 0.13584470E+01 0.66378040E+02 0.84031143E+02 0.50000000E+02 0.0000E+00 0.9000E+01
      -13  1    3    3    0    0 0.50283348E+02 0.14984114E+02 0.11440541E+03 0.12586317E+03 0.00000000E+00 0.0000E+00 0.9000E+01
        1  1    1    2  501    0 -.37900158E+02 -.16342561E+02 -.14811891E+03 0.15376187E+03 0.00000000E+00 0.0000E+00 0.9000E+01
#aMCatNLO 1  0  0  2  5 0.57698760D+03 0.00000000D+00  -5  6  0 0.00000000D+00 0.00000000D+00 0.00000000D+00 0.00000000D+00 0.00000000D+00
  <mgrwgt>
 0.2050779782D-03    5    2    0
 0.181093099364021D+03 0.000000000000000D+00 0.000000000000000D+00 0.181093099364021D+03
 0.181093099364021D+03 0.000000000000000D+00 0.000000000000000D+00 -.181093099364021D+03
 0.783857475974887D+02 -.123831906795240D+02 0.135844702370150D+01 0.590689143009718D+02
 0.116056098913281D+03 0.502833483080879D+02 0.149841136100141D+02 0.103518497464071D+03
 0.167744352217272D+03 -.379001576285639D+02 -.163425606337156D+02 -.162587411765043D+03
 0.000000000000000D+00 0.000000000000000D+00 -.000000000000000D+00 -.000000000000000D+00
 0.244880908756642D+03 0.000000000000000D+00 0.000000000000000D+00 0.244880908756642D+03
 0.293115058892423D+03 0.000000000000000D+00 0.000000000000000D+00 -.293115058892423D+03
 0.883178286421173D+02 -.374818368015057D+02 0.201497922904468D+02 0.590689143009718D+02
 0.112373592941560D+03 0.158913086833505D+02 0.407334184878582D+02 0.103518497464071D+03
 0.188058676622685D+03 -.914693401945564D+02 0.237646626946875D+02 -.162587411765043D+03
 0.149245869442703D+03 0.113059868312712D+03 -.846478734729925D+02 -.482341501357807D+02
0.809340510637D-05 0.000000000000D+00 0.000000000000D+00 0.857926309341D-07 0.000000000000D+00  6 22 2 9900012 -13 1 21 0 0.30486209D-01 0.25460895D-01 0.52758775D+04 0.52758775D+04 0.52758775D+04 0.12392279D+01  1  2  2  1  6  2        2 0.186788230939D-03 0.100000000000D+01
0.530525067413D-06 0.000000000000D+00 -.155404033255D-07 0.857926309341D-07 0.000000000000D+00  6 22 2 9900012 -13 1 21 2 0.30486209D-01 0.25460895D-01 0.52758775D+04 0.52758775D+04 0.52758775D+04 0.12392279D+01  1  2  3  1  6  2        2 0.188029733118D-04 0.100000000000D+01
-.144799770642D-05 0.000000000000D+00 0.000000000000D+00 0.857926309341D-07 0.000000000000D+00  6 22 2 9900012 -13 1 21 2 0.30486209D-01 0.25460895D-01 0.52758775D+04 0.52758775D+04 0.52758775D+04 0.12392279D+01  1  2 15  1  6  2        2 -.513202182173D-04 0.100000000000D+01
0.219206311511D-05 0.000000000000D+00 -.238821013569D-05 0.857926309341D-07 0.000000000000D+00  6 22 2 9900012 -13 1 21 2 0.30486209D-01 0.54154057D-01 0.52758775D+04 0.52758775D+04 0.52758775D+04 0.12392279D+01  1  2  5  1  6  2        2 0.345902900376D-04 0.100000000000D+01
0.327765915849D-06 0.000000000000D+00 -.194999335348D-06 0.857926309341D-07 0.000000000000D+00  6 22 21 9900012 -13 1 -2 2 0.30486209D-01 0.54154057D-01 0.52758775D+04 0.52758775D+04 0.52758775D+04 0.12392279D+01  1  2  5  3  6  2        2 0.162167021705D-04 0.100000000000D+01
  </mgrwgt>
  </event>
  <event>
  6     66 0.17293500E-05 0.68512881E+02 0.78161638E-02 0.10951711E+00
       22 -1    0    0    0    0 0.00000000E+00 0.00000000E+00 0.22604110E+03 0.22604110E+03 0.00000000E+00 0.0000E+00 0.9000E+01
        4 -1    0    0  501    0 0.00000000E+00 0.00000000E+00 -.19905811E+03 0.19905811E+03 0.00000000E+00 0.0000E+00 0.9000E+01
       24  2    1    2    0    0 0.84815697E+02 -.11219137E+03 0.16319626E+03 0.22930682E+03 0.78536566E+02 0.0000E+00 0.0000E+00
  9900012  1    3    3    0    0 0.81523160E+02 -.92127225E+02 0.16123731E+03 0.20888016E+03 0.50000000E+02 0.0000E+00 0.9000E+01
      -13  1    3    3    0    0 0.32925366E+01 -.20064149E+02 0.19589452E+01 0.20426657E+02 0.00000000E+00 0.0000E+00 0.9000E+01
        3  1    1    2  501    0 -.84815697E+02 0.11219137E+03 -.13621327E+03 0.19579239E+03 0.00000000E+00 0.0000E+00 0.9000E+01
#aMCatNLO 1  0  0  5  2 0.28111166D+02 0.00000000D+00  -5  6  0 0.00000000D+00 0.00000000D+00 0.00000000D+00 0.00000000D+00 0.00000000D+00
  <mgrwgt>
 0.2244097100D-04    5    2    0
 0.212120991413098D+03 0.000000000000000D+00 0.000000000000000D+00 0.212120991413098D+03
 0.212120991413098D+03 -.000000000000000D+00 -.000000000000000D+00 -.212120991413098D+03
 0.199047081097778D+03 0.815231604823221D+02 -.921272253460697D+02 0.148277743267671D+03
 0.203433372996771D+02 0.329253663875046D+01 -.200641487175951D+02 0.663710184603617D+00
 0.204851564428742D+03 -.848156971210726D+02 0.112191374063665D+03 -.148941453452275D+03
 0.000000000000000D+00 0.000000000000000D+00 -.000000000000000D+00 0.000000000000000D+00
 0.212120991413098D+03 0.000000000000000D+00 0.000000000000000D+00 0.212120991413098D+03
 0.212120991413098D+03 -.000000000000000D+00 -.000000000000000D+00 -.212120991413098D+03
 0.186334648853755D+03 0.760531244201370D+02 -.848916441644598D+02 0.138672031716716D+03
 0.195102081660812D+02 0.272686288215839D+01 -.193158943474963D+02 -.329646874837435D+00
 0.202175986991619D+03 -.811036513049311D+02 0.120035158889128D+03 -.141027969181668D+03
 0.162211388147417D+02 0.232366400263572D+01 -.158276203771715D+02 0.268558433978939D+01
0.280425178916D-05 0.000000000000D+00 0.000000000000D+00 0.116841181104D-05 0.000000000000D+00  6 22 4 9900012 -13 3 21 0 0.34775554D-01 0.30624325D-01 0.21574771D+05 0.21574771D+05 0.21574771D+05 0.11761723D+01  1  2  2  2  6  5        3 0.111908142638D-04 0.100000000000D+01
-.229061992374D-07 0.000000000000D+00 -.538453262341D-08 0.116841181104D-05 0.000000000000D+00  6 22 4 9900012 -13 3 21 2 0.34775554D-01 0.30624325D-01 0.21574771D+05 0.21574771D+05 0.21574771D+05 0.11761723D+01  1  2  3  2  6  5        3 -.126456042692D-06 0.100000000000D+01
-.410933128460D-06 0.000000000000D+00 0.000000000000D+00 0.116841181104D-05 0.000000000000D+00  6 22 4 9900012 -13 3 21 2 0.34775554D-01 0.30624325D-01 0.21574771D+05 0.21574771D+05 0.21574771D+05 0.11761723D+01  1  2 15  2  6  5        3 -.226859884948D-05 0.100000000000D+01
0.270354379693D-05 0.000000000000D+00 0.000000000000D+00 0.116841181104D-05 0.000000000000D+00  6 22 4 9900012 -13 3 21 2 0.34775554D-01 0.30624325D-01 0.23230715D+05 0.23230715D+05 0.23230715D+05 0.11731294D+01  1  2 12  2  6  5        3 0.149359093370D-04 0.100000000000D+01
-.233796490289D-06 0.000000000000D+00 0.000000000000D+00 0.116841181104D-05 0.000000000000D+00  6 22 4 9900012 -13 3 21 2 0.34775554D-01 0.30624325D-01 0.21574771D+05 0.21574771D+05 0.21574771D+05 0.11761723D+01  1  2  4  2  6  5        3 -.129069771247D-05 0.100000000000D+01
  </mgrwgt>
  </event>
  <event>
  6     66 0.17293500E-05 0.45532695E+02 0.78161638E-02 0.11825741E+00
       22 -1    0    0    0    0 0.00000000E+00 0.00000000E+00 0.23444616E+02 0.23444616E+02 0.00000000E+00 0.0000E+00 0.9000E+01
        2 -1    0    0  501    0 0.00000000E+00 0.00000000E+00 -.12847256E+04 0.12847256E+04 0.00000000E+00 0.0000E+00 0.9000E+01
       24  2    1    2    0    0 -.66762100E+02 0.61476859E+01 -.95795222E+02 0.14075768E+03 0.78364707E+02 0.0000E+00 0.0000E+00
  9900012  1    3    3    0    0 -.17750282E+02 0.87943701E+01 -.45021974E+02 0.70138374E+02 0.50000000E+02 0.0000E+00 0.9000E+01
      -13  1    3    3    0    0 -.49011818E+02 -.26466842E+01 -.50773248E+02 0.70619303E+02 0.00000000E+00 0.0000E+00 0.9000E+01
        1  1    1    2  501    0 0.66762100E+02 -.61476859E+01 -.11654858E+04 0.11674125E+04 0.00000000E+00 0.0000E+00 0.9000E+01
#aMCatNLO 1  0  0  2  5 0.11046488D+02 0.00000000D+00  -5  6  0 0.00000000D+00 0.00000000D+00 0.00000000D+00 0.00000000D+00 0.00000000D+00
  <mgrwgt>
 0.3221452047D-03    9    2    0
 0.173550851575470D+03 0.000000000000000D+00 0.000000000000000D+00 0.173550851575470D+03
 0.173550851575470D+03 0.000000000000000D+00 0.000000000000000D+00 -.173550851575470D+03
 0.100741577269190D+03 -.177502815278100D+02 0.879437012230644D+01 0.851848105622093D+02
 0.816554240192878D+02 -.490118181797422D+02 -.264668420227990D+01 0.652567622030007D+02
 0.164704701862462D+03 0.667620997075521D+02 -.614768592002655D+01 -.150441572765210D+03
 0.000000000000000D+00 0.000000000000000D+00 0.000000000000000D+00 -.000000000000000D+00
 0.175862217600613D+03 0.000000000000000D+00 0.000000000000000D+00 0.175862217600613D+03
 0.184896785944085D+03 0.000000000000000D+00 0.000000000000000D+00 -.184896785944085D+03
 0.100740574085593D+03 -.188441089512291D+02 0.609186953320573D+01 0.851848105622093D+02
 0.822929137091482D+02 -.499018781013060D+02 -.484573993160350D+01 0.652567622030007D+02
 0.164213601095516D+03 0.649764335459555D+02 -.105595005722570D+02 -.150441572765210D+03
 0.135119146544397D+02 0.376955350657957D+01 0.931337097065476D+01 -.903456834347168D+01
0.100599545807D-05 0.000000000000D+00 0.000000000000D+00 0.275855805755D-05 0.000000000000D+00  6 22 2 9900012 -13 1 21 0 0.36068640D-02 0.19765009D+00 0.72172622D+04 0.72172622D+04 0.72172622D+04 0.12242986D+01  1  2  2  1  6  2        2 0.486225380619D-04 0.100000000000D+01
0.207292324599D-07 0.000000000000D+00 -.193164372183D-08 0.275855805755D-05 0.000000000000D+00  6 22 2 9900012 -13 1 21 2 0.36068640D-02 0.19765009D+00 0.72172622D+04 0.72172622D+04 0.72172622D+04 0.12242986D+01  1  2  3  1  6  2        2 0.150175650412D-05 0.100000000000D+01
-.156104787186D-06 0.000000000000D+00 0.000000000000D+00 0.275855805755D-05 0.000000000000D+00  6 22 2 9900012 -13 1 21 2 0.36068640D-02 0.19765009D+00 0.72172622D+04 0.72172622D+04 0.72172622D+04 0.12242986D+01  1  2 15  1  6  2        2 -.113092165826D-04 0.100000000000D+01
0.381530774614D-05 0.000000000000D+00 0.000000000000D+00 0.275855805755D-05 0.000000000000D+00  6 22 2 9900012 -13 1 21 2 0.36068640D-02 0.21337593D+00 0.80812963D+04 0.80812963D+04 0.80812963D+04 0.12190433D+01  1  2 12  1  6  2        2 0.243945744427D-03 0.100000000000D+01
-.466942349659D-06 0.000000000000D+00 0.000000000000D+00 0.275855805755D-05 0.000000000000D+00  6 22 2 9900012 -13 1 21 2 0.36068640D-02 0.19765009D+00 0.72172622D+04 0.72172622D+04 0.72172622D+04 0.12242986D+01  1  2  4  1  6  2        2 -.338282525417D-04 0.100000000000D+01
-.905788026776D-05 0.000000000000D+00 -.148536618935D-05 0.275855805755D-05 0.000000000000D+00  6 22 2 9900012 -13 1 21 2 0.36068640D-02 0.21191154D+00 0.72172622D+04 0.72172622D+04 0.72172622D+04 0.12242986D+01  1  2  5  1  6  2        2 -.587509412665D-03 0.100000000000D+01
0.914276595422D-05 0.000000000000D+00 0.148176848059D-05 0.275855805755D-05 0.000000000000D+00  6 22 2 9900012 -13 1 21 2 0.36068640D-02 0.19765009D+00 0.72172622D+04 0.72172622D+04 0.72172622D+04 0.12242986D+01  1  2  6  1  6  2        2 0.662359702124D-03 0.100000000000D+01
0.552427685604D-07 0.000000000000D+00 0.000000000000D+00 0.275855805755D-05 0.000000000000D+00  6 22 21 9900012 -13 1 -2 2 0.36068640D-02 0.21337593D+00 0.80812963D+04 0.80812963D+04 0.80812963D+04 0.12190433D+01  1  2 12  3  6  2        2 0.172484186827D-05 0.100000000000D+01
-.104426662666D-06 0.000000000000D+00 -.175302572333D-07 0.275855805755D-05 0.000000000000D+00  6 22 21 9900012 -13 1 -2 2 0.36068640D-02 0.21191154D+00 0.72172622D+04 0.72172622D+04 0.72172622D+04 0.12242986D+01  1  2  5  3  6  2        2 -.336249649655D-05 0.100000000000D+01
  </mgrwgt>
  </event>
  <event>
  6     66 0.17293500E-05 0.63062665E+02 0.78161638E-02 0.11832181E+00
       22 -1    0    0    0    0 0.00000000E+00 0.00000000E+00 0.85524446E+03 0.85524446E+03 0.00000000E+00 0.0000E+00 0.9000E+01
        2 -1    0    0  501    0 0.00000000E+00 0.00000000E+00 -.37558323E+03 0.37558323E+03 0.00000000E+00 0.0000E+00 0.9000E+01
       24  2    1    2    0    0 -.18960326E+02 -.66586244E+02 0.84852624E+03 0.85552166E+03 0.84423342E+02 0.0000E+00 0.0000E+00
  9900012  1    3    3    0    0 -.91204093E+00 -.11698613E+02 0.41142990E+03 0.41462302E+03 0.50000000E+02 0.0000E+00 0.9000E+01
      -13  1    3    3    0    0 -.18048285E+02 -.54887631E+02 0.43709634E+03 0.44089863E+03 0.00000000E+00 0.0000E+00 0.9000E+01
        1  1    1    2  501    0 0.18960326E+02 0.66586244E+02 -.36886501E+03 0.37530603E+03 0.00000000E+00 0.0000E+00 0.9000E+01
#aMCatNLO 1  0  0  2  2 0.14072491D+01 0.00000000D+00  -5  6  0 0.00000000D+00 0.00000000D+00 0.00000000D+00 0.00000000D+00 0.00000000D+00
  <mgrwgt>
 0.3039452290D-03    7    2    0
 0.566758743650293D+03 0.000000000000000D+00 0.000000000000000D+00 0.566758743650293D+03
 0.566758743650293D+03 0.000000000000000D+00 0.000000000000000D+00 -.566758743650293D+03
 0.276116185574955D+03 -.912040929784006D+00 -.116986132454936D+02 0.271297730484311D+03
 0.293786444597070D+03 -.180482846068789D+02 -.548876309480634D+02 0.288048750076520D+03
 0.563614857128561D+03 0.189603255366629D+02 0.665862441935570D+02 -.559346480560831D+03
 0.000000000000000D+00 0.000000000000000D+00 0.000000000000000D+00 0.000000000000000D+00
 0.567278366662488D+03 0.000000000000000D+00 0.000000000000000D+00 0.567278366662488D+03
 0.567192743357880D+03 0.000000000000000D+00 0.000000000000000D+00 -.567192743357880D+03
 0.276126090725898D+03 -.944512120603164D+00 -.119275861129971D+02 0.271297730484311D+03
 0.293834185535154D+03 -.180828360029403D+02 -.551312725279636D+02 0.288048750076520D+03
 0.563557608610232D+03 0.188940491326428D+02 0.661188915066529D+02 -.559346480560831D+03
 0.953225149083800D+00 0.133298990900640D+00 0.939967134307774D+00 0.856233046076521D-01
0.458052719246D-03 0.000000000000D+00 0.000000000000D+00 0.681279650845D-04 0.000000000000D+00  6 22 2 9900012 -13 1 21 0 0.13157607D+00 0.57782035D-01 0.79539966D+04 0.79539966D+04 0.79539966D+04 0.12197773D+01  1  2  2  1  6  2        2 0.340769149233D-03 0.100000000000D+01
0.147300651550D-04 0.000000000000D+00 -.879521524978D-06 0.681279650845D-04 0.000000000000D+00  6 22 2 9900012 -13 1 21 2 0.13157607D+00 0.57782035D-01 0.79539966D+04 0.79539966D+04 0.79539966D+04 0.12197773D+01  1  2  3  1  6  2        2 0.163046147697D-04 0.100000000000D+01
-.730486195674D-04 0.000000000000D+00 0.000000000000D+00 0.681279650845D-04 0.000000000000D+00  6 22 2 9900012 -13 1 21 2 0.13157607D+00 0.57782035D-01 0.79539966D+04 0.79539966D+04 0.79539966D+04 0.12197773D+01  1  2 15  1  6  2        2 -.808570491013D-04 0.100000000000D+01
-.107402600218D-03 0.000000000000D+00 0.000000000000D+00 0.681279650845D-04 0.000000000000D+00  6 22 2 9900012 -13 1 21 2 0.13157607D+00 0.57782035D-01 0.79539966D+04 0.79539966D+04 0.79539966D+04 0.12197773D+01  1  2  4  1  6  2        2 -.118883250236D-03 0.100000000000D+01
0.107586143004D-03 0.000000000000D+00 0.000000000000D+00 0.681279650845D-04 0.213827233801D-05  6 22 2 9900012 -13 1 21 2 0.13169670D+00 0.57826282D-01 0.80234669D+04 0.80234669D+04 0.80234669D+04 0.12193751D+01  1  2 11  1  6  2        2 0.118722644577D-03 0.100000000000D+01
0.118299931623D-08 0.000000000000D+00 0.000000000000D+00 0.681279650845D-04 0.000000000000D+00  6 22 21 9900012 -13 1 -2 2 0.13157607D+00 0.57879299D-01 0.80234669D+04 0.80234669D+04 0.80234669D+04 0.12193751D+01  1  2 12  3  6  2        2 0.376961588625D-08 0.100000000000D+01
0.875090149122D-05 0.000000000000D+00 0.000000000000D+00 0.681279650845D-04 0.885523909858D-07  6 22 21 9900012 -13 1 -2 2 0.13169670D+00 0.57826282D-01 0.80234669D+04 0.80234669D+04 0.80234669D+04 0.12193751D+01  1  2 11  3  6  2        2 0.278853501605D-04 0.100000000000D+01
  </mgrwgt>
  </event>
  <event>
  7     66 -.17293500E-05 0.32605637E+02 0.78161638E-02 0.12344559E+00
       22 -1    0    0    0    0 0.00000000E+00 0.00000000E+00 0.63862113E+02 0.63862113E+02 0.00000000E+00 0.0000E+00 0.9000E+01
       21 -1    0    0  501  502 0.00000000E+00 0.00000000E+00 -.90633916E+03 0.90633916E+03 0.00000000E+00 0.0000E+00 0.9000E+01
       24  2    1    2    0    0 0.31625927E+02 -.17745169E+02 0.31511111E+02 0.93752820E+02 0.80508079E+02 0.0000E+00 0.0000E+00
  9900012  1    3    3    0    0 0.13059248E+02 -.29438270E+02 0.55070748E+01 0.59728415E+02 0.50000000E+02 0.0000E+00 0.9000E+01
      -13  1    3    3    0    0 0.18566680E+02 0.11693102E+02 0.26004036E+02 0.34024405E+02 0.00000000E+00 0.0000E+00 0.9000E+01
        1  1    1    2  501    0 -.25185115E+02 0.31100974E+02 -.35501319E+03 0.35726170E+03 0.00000000E+00 0.0000E+00 0.9000E+01
       -2  1    1    2    0  502 -.64408128E+01 -.13355805E+02 -.51897498E+03 0.51918676E+03 0.00000000E+00 0.0000E+00 0.9000E+01
#aMCatNLO 2  0  0  2  5 0.14849179D+02 0.00000000D+00  -5  6  0 0.00000000D+00 0.00000000D+00 0.00000000D+00 0.00000000D+00 0.00000000D+00
  <mgrwgt>
 -.6027585360D-05    2    2    0
 0.156955920288776D+03 0.000000000000000D+00 0.000000000000000D+00 0.156955920288776D+03
 0.156955920288776D+03 0.000000000000000D+00 0.000000000000000D+00 -.156955920288776D+03
 0.924749835605806D+02 0.111740517198094D+02 -.333474525137835D+02 0.693881154343712D+02
 0.748047760668953D+02 0.170245548285127D+02 0.849531935740012D+01 0.723446515253553D+02
 0.146632080950077D+03 -.281986065483221D+02 0.248521331563834D+02 -.141732766959726D+03
 0.000000000000000D+00 -.000000000000000D+00 -.000000000000000D+00 -.000000000000000D+00
 0.157391892642539D+03 0.000000000000000D+00 0.000000000000000D+00 0.157391892642539D+03
 0.367749144008705D+03 0.000000000000000D+00 0.000000000000000D+00 -.367749144008705D+03
 0.913885456244441D+02 0.130592478042937D+02 -.294382702379662D+02 0.693881154343712D+02
 0.755989339588753D+02 0.185666795037503D+02 0.116931015388692D+02 0.723446515253553D+02
 0.147274362275750D+03 -.251851145391675D+02 0.311009736072304D+02 -.141732766959726D+03
 0.210879194792175D+03 -.644081276887651D+01 -.133558049081334D+02 -.210357251366166D+03
-.123421491877D-05 0.000000000000D+00 0.000000000000D+00 0.111287362856D-04 0.000000000000D+00  6 22 21 9900012 -13 1 -2 2 0.97977255D-02 0.13982410D+00 0.46419148D+04 0.46419148D+04 0.46419148D+04 0.12454971D+01  1  2 13  3  6  2        2 -.349810749190D-04 0.100000000000D+01
0.101791127765D-05 0.000000000000D+00 0.000000000000D+00 0.111287362856D-04 0.452728519972D-07  6 22 21 9900012 -13 1 -2 2 0.98249404D-02 0.13943679D+00 0.46419148D+04 0.46419148D+04 0.46419148D+04 0.12454971D+01  1  2  1  3  6  2        2 0.289534895594D-04 0.100000000000D+01
  </mgrwgt>
  </event>
  <event>
  6     66 0.17293500E-05 0.61487632E+02 0.78161638E-02 0.11759109E+00
       22 -1    0    0    0    0 0.00000000E+00 0.00000000E+00 0.24105901E+02 0.24105901E+02 0.00000000E+00 0.0000E+00 0.9000E+01
        2 -1    0    0  501    0 -.00000000E+00 -.00000000E+00 -.11349675E+04 0.11349675E+04 0.00000000E+00 0.0000E+00 0.9000E+01
       24  2    1    2    0    0 0.24115487E+02 0.77352926E+02 -.11936116E+03 0.16426781E+03 0.78560784E+02 0.0000E+00 0.0000E+00
  9900012  1    3    3    0    0 -.48495081E+01 0.46708037E+02 -.58077684E+02 0.89878673E+02 0.50000000E+02 0.0000E+00 0.9000E+01
      -13  1    3    3    0    0 0.28964995E+02 0.30644888E+02 -.61283471E+02 0.74389139E+02 0.00000000E+00 0.0000E+00 0.9000E+01
        1  1    1    2  501    0 -.24115487E+02 -.77352926E+02 -.99150042E+03 0.99480557E+03 0.00000000E+00 0.0000E+00 0.9000E+01
#aMCatNLO 1  0  0  5  2 0.34989852D+02 0.00000000D+00  -5  6  0 0.00000000D+00 0.00000000D+00 0.00000000D+00 0.00000000D+00 0.00000000D+00
  <mgrwgt>
 0.2617535333D-03    5    2    0
 0.165406813595249D+03 0.000000000000000D+00 0.000000000000000D+00 0.165406813595249D+03
 0.165406813595249D+03 -.000000000000000D+00 -.000000000000000D+00 -.165406813595249D+03
 0.119885356062634D+03 -.484950814448955D+01 0.467080371932609D+02 0.983226328500919D+02
 0.548496656987484D+02 0.289649947624091D+02 0.306448884320625D+02 0.350771395450730D+02
 0.156078605429116D+03 -.241154866179195D+02 -.773529256253234D+02 -.133399772395165D+03
 0.000000000000000D+00 0.000000000000000D+00 0.000000000000000D+00 -.000000000000000D+00
 0.165406813595249D+03 0.000000000000000D+00 0.000000000000000D+00 0.165406813595249D+03
 0.165406813595249D+03 -.000000000000000D+00 -.000000000000000D+00 -.165406813595249D+03
 0.111383678058660D+03 -.634458449923648D+01 0.419124246516096D+02 0.900523106046169D+02
 0.508805895182737D+02 0.282814842995538D+02 0.284524576992700D+02 0.312961608893552D+02
 0.305449433995325D+02 0.785028176879196D+01 -.287232726561455D+02 0.680736743182996D+01
 0.138004416214032D+03 -.297871815691093D+02 -.416416096947341D+02 -.128155838925802D+03
0.565174858077D-05 0.000000000000D+00 0.000000000000D+00 0.152884372901D-05 0.000000000000D+00  6 22 2 9900012 -13 1 21 0 0.37086002D-02 0.17461038D+00 0.91954990D+04 0.91954990D+04 0.91954990D+04 0.12131240D+01  1  2  2  2  6  5        1 0.320079613389D-03 0.100000000000D+01
0.508700502085D-07 0.000000000000D+00 -.108521013449D-07 0.152884372901D-05 0.000000000000D+00  6 22 2 9900012 -13 1 21 2 0.37086002D-02 0.17461038D+00 0.91954990D+04 0.91954990D+04 0.91954990D+04 0.12131240D+01  1  2  3  2  6  5        1 0.423982343858D-05 0.100000000000D+01
-.985289173574D-06 0.000000000000D+00 0.000000000000D+00 0.152884372901D-05 0.000000000000D+00  6 22 2 9900012 -13 1 21 2 0.37086002D-02 0.17461038D+00 0.91954990D+04 0.91954990D+04 0.91954990D+04 0.12131240D+01  1  2 15  2  6  5        1 -.821200709411D-04 0.100000000000D+01
0.727036017584D-06 0.000000000000D+00 0.000000000000D+00 0.152884372901D-05 0.000000000000D+00  6 22 2 9900012 -13 1 21 2 0.37086002D-02 0.17461038D+00 0.87089281D+04 0.87089281D+04 0.87089281D+04 0.12156040D+01  1  2 12  2  6  5        1 0.606587413508D-04 0.100000000000D+01
-.493178965939D-06 0.000000000000D+00 0.000000000000D+00 0.152884372901D-05 0.000000000000D+00  6 22 2 9900012 -13 1 21 2 0.37086002D-02 0.17461038D+00 0.91954990D+04 0.91954990D+04 0.91954990D+04 0.12131240D+01  1  2  5  2  6  5        1 -.411045739218D-04 0.100000000000D+01
  </mgrwgt>
  </event>
  <event>
  6     66 0.17293500E-05 0.10299227E+03 0.78161638E-02 0.10606582E+00
       22 -1    0    0    0    0 0.00000000E+00 0.00000000E+00 0.50225002E+03 0.50225002E+03 0.00000000E+00 0.0000E+00 0.9000E+01
        2 -1    0    0  501    0 0.00000000E+00 0.00000000E+00 -.16394660E+03 0.16394660E+03 0.00000000E+00 0.0000E+00 0.9000E+01
       24  2    1    2    0    0 0.83169653E+02 0.60747159E+02 0.47640525E+03 0.49391916E+03 0.79917261E+02 0.0000E+00 0.0000E+00
  9900012  1    3    3    0    0 0.35750257E+02 0.54987348E+02 0.29128442E+03 0.30273470E+03 0.50000000E+02 0.0000E+00 0.9000E+01
      -13  1    3    3    0    0 0.47419395E+02 0.57598102E+01 0.18512083E+03 0.19118445E+03 0.00000000E+00 0.0000E+00 0.9000E+01
        1  1    1    2  501    0 -.83169653E+02 -.60747159E+02 -.13810183E+03 0.17227746E+03 0.00000000E+00 0.0000E+00 0.9000E+01
#aMCatNLO 1  0  0  2  5 0.39351459D+02 0.00000000D+00  -5  6  0 0.00000000D+00 0.00000000D+00 0.00000000D+00 0.00000000D+00 0.00000000D+00
  <mgrwgt>
 0.1083550988D-03    4    2    0
 0.286953278975460D+03 0.000000000000000D+00 0.000000000000000D+00 0.286953278975460D+03
 0.286953278975460D+03 0.000000000000000D+00 0.000000000000000D+00 -.286953278975460D+03
 0.179712746757899D+03 0.357502572975215D+02 0.549873484918824D+02 0.159671481349244D+03
 0.112804825380691D+03 0.474193954992785D+02 0.575981019575149D+01 0.102191751849942D+03
 0.281388985812331D+03 -.831696527968000D+02 -.607471586876339D+02 -.261863233199186D+03
 0.000000000000000D+00 0.000000000000000D+00 -.000000000000000D+00 0.000000000000000D+00
 0.411850336947934D+03 0.000000000000000D+00 0.000000000000000D+00 0.411850336947934D+03
 0.327475474542814D+03 0.000000000000000D+00 0.000000000000000D+00 -.327475474542814D+03
 0.177309009725859D+03 -.284164881853919D+01 0.586125243074806D+02 0.159671481349244D+03
 0.105240481646142D+03 0.238500082980535D+02 0.797382813550784D+01 0.102191751849942D+03
 0.305048196877056D+03 -.146559987661016D+03 -.547925134777982D+02 -.261863233199186D+03
 0.151728123241691D+03 0.125551628181502D+03 -.117938389651902D+02 0.843748624051195D+02
0.261072220007D-04 0.000000000000D+00 0.000000000000D+00 0.284720374747D-04 0.000000000000D+00  6 22 2 9900012 -13 1 21 0 0.77269233D-01 0.25222554D-01 0.13599356D+05 0.13599356D+05 0.13599356D+05 0.11957306D+01  1  2  2  1  6  2        2 0.137677866795D-03 0.100000000000D+01
0.337150924797D-06 0.000000000000D+00 -.501293033360D-07 0.284720374747D-04 0.000000000000D+00  6 22 2 9900012 -13 1 21 2 0.77269233D-01 0.25222554D-01 0.13599356D+05 0.13599356D+05 0.13599356D+05 0.11957306D+01  1  2  3  1  6  2        2 0.254211104328D-05 0.100000000000D+01
-.410217117217D-05 0.000000000000D+00 0.000000000000D+00 0.284720374747D-04 0.000000000000D+00  6 22 2 9900012 -13 1 21 2 0.77269233D-01 0.25222554D-01 0.13599356D+05 0.13599356D+05 0.13599356D+05 0.11957306D+01  1  2 15  1  6  2        2 -.309302863236D-04 0.100000000000D+01
-.123951630923D-06 0.000000000000D+00 0.000000000000D+00 0.284720374747D-04 0.000000000000D+00  6 22 2 9900012 -13 1 21 2 0.77269233D-01 0.25222554D-01 0.13599356D+05 0.13599356D+05 0.13599356D+05 0.11957306D+01  1  2  4  1  6  2        2 -.934592749501D-06 0.100000000000D+01
  </mgrwgt>
  </event>
  <event>
  6     66 0.17293500E-05 0.18276738E+02 0.78161638E-02 0.13171884E+00
       22 -1    0    0    0    0 0.00000000E+00 0.00000000E+00 0.59786095E+02 0.59786095E+02 0.00000000E+00 0.0000E+00 0.9000E+01
        4 -1    0    0  501    0 0.00000000E+00 0.00000000E+00 -.36327847E+02 0.36327847E+02 0.00000000E+00 0.0000E+00 0.9000E+01
       24  2    1    2    0    0 -.47355704E+00 0.19820740E+02 0.12426584E+02 0.73425099E+02 0.69596977E+02 0.0000E+00 0.0000E+00
  9900012  1    3    3    0    0 -.11323956E+02 0.12708212E+02 -.34396918E+01 0.52929785E+02 0.50000000E+02 0.0000E+00 0.9000E+01
      -13  1    3    3    0    0 0.10850399E+02 0.71125271E+01 0.15866276E+02 0.20495314E+02 0.00000000E+00 0.0000E+00 0.9000E+01
        3  1    1    2  501    0 0.47355704E+00 -.19820740E+02 0.11031664E+02 0.22688843E+02 0.00000000E+00 0.0000E+00 0.9000E+01
#aMCatNLO 1  0  0  2  5 0.68371543D+01 0.00000000D+00  -5  6  0 0.00000000D+00 0.00000000D+00 0.00000000D+00 0.00000000D+00 0.00000000D+00
  <mgrwgt>
 0.7471495332D-04   11    2    0
 0.466036489620904D+02 0.000000000000000D+00 0.000000000000000D+00 0.466036489620904D+02
 0.466036489620904D+02 0.000000000000000D+00 0.000000000000000D+00 -.466036489620904D+02
 0.554460809735234D+02 -.113239558087601D+02 0.127082124263893D+02 -.168682321862584D+02
 0.171412587362206D+02 0.108503987694677D+02 0.711252714280844D+01 0.112028369285822D+02
 0.206199582144369D+02 0.473557039292420D+00 -.198207395691977D+02 0.566539525767621D+01
 0.000000000000000D+00 -.000000000000000D+00 0.000000000000000D+00 -.000000000000000D+00
 0.484938318919112D+02 0.000000000000000D+00 0.000000000000000D+00 0.484938318919112D+02
 0.512735849107791D+02 0.000000000000000D+00 0.000000000000000D+00 -.512735849107791D+02
 0.548251536272459D+02 -.793039394688714D+01 0.125844771448307D+02 -.168682321862584D+02
 0.178262930204351D+02 0.119265139546660D+02 0.707329007542920D+01 0.112028369285822D+02
 0.207328035019147D+02 0.174617501216449D+01 -.198671414765738D+02 0.566539525767621D+01
 0.638316665309458D+01 -.574229501994339D+01 0.209374256313875D+00 -.277975301886788D+01
0.154494019895D-06 0.000000000000D+00 0.000000000000D+00 0.743918174705D-09 0.000000000000D+00  6 22 4 9900012 -13 3 21 0 0.91978607D-02 0.55888995D-02 0.18326141D+04 0.18326141D+04 0.18326141D+04 0.12941401D+01  1  2  2  1  6  2        4 0.573260686668D-04 0.100000000000D+01
-.307033187251D-08 0.000000000000D+00 -.296648857804D-09 0.743918174705D-09 0.000000000000D+00  6 22 4 9900012 -13 3 21 2 0.91978607D-02 0.55888995D-02 0.18326141D+04 0.18326141D+04 0.18326141D+04 0.12941401D+01  1  2  3  1  6  2        4 -.190804406638D-05 0.100000000000D+01
-.205752210723D-07 0.000000000000D+00 0.000000000000D+00 0.743918174705D-09 0.000000000000D+00  6 22 4 9900012 -13 3 21 2 0.91978607D-02 0.55888995D-02 0.18326141D+04 0.18326141D+04 0.18326141D+04 0.12941401D+01  1  2 15  1  6  2        4 -.127863794898D-04 0.100000000000D+01
0.244060126288D-06 0.000000000000D+00 0.000000000000D+00 0.743918174705D-09 0.000000000000D+00  6 22 4 9900012 -13 3 21 2 0.91978607D-02 0.63983301D-02 0.21032223D+04 0.21032223D+04 0.21032223D+04 0.12865565D+01  1  2 12  1  6  2        4 0.124806287623D-03 0.100000000000D+01
-.126780484181D-06 0.000000000000D+00 0.000000000000D+00 0.743918174705D-09 0.000000000000D+00  6 22 4 9900012 -13 3 21 2 0.91978607D-02 0.55888995D-02 0.18326141D+04 0.18326141D+04 0.18326141D+04 0.12941401D+01  1  2  4  1  6  2        4 -.787871671920D-04 0.100000000000D+01
-.737119627280D-06 0.000000000000D+00 -.152233265475D-06 0.743918174705D-09 0.000000000000D+00  6 22 4 9900012 -13 3 21 2 0.91978607D-02 0.63932244D-02 0.18326141D+04 0.18326141D+04 0.18326141D+04 0.12941401D+01  1  2  5  1  6  2        4 -.372954203978D-03 0.100000000000D+01
0.752145061265D-06 0.000000000000D+00 0.150867480289D-06 0.743918174705D-09 0.000000000000D+00  6 22 4 9900012 -13 3 21 2 0.91978607D-02 0.55888995D-02 0.18326141D+04 0.18326141D+04 0.18326141D+04 0.12941401D+01  1  2  6  1  6  2        4 0.467417198140D-03 0.100000000000D+01
0.662489521424D-08 0.000000000000D+00 0.000000000000D+00 0.743918174705D-09 0.137368436166D-09  6 22 4 9900012 -13 3 21 2 0.95709139D-02 0.61489373D-02 0.21032223D+04 0.21032223D+04 0.21032223D+04 0.12865565D+01  1  2 11  1  6  2        4 0.340767318146D-05 0.100000000000D+01
0.511594112020D-08 0.000000000000D+00 0.000000000000D+00 0.743918174705D-09 0.000000000000D+00  6 22 21 9900012 -13 3 -4 2 0.91978607D-02 0.63983301D-02 0.21032223D+04 0.21032223D+04 0.21032223D+04 0.12865565D+01  1  2 12  3  6  2        4 0.631890141798D-04 0.100000000000D+01
-.145091226733D-07 0.000000000000D+00 -.317554156697D-08 0.743918174705D-09 0.000000000000D+00  6 22 21 9900012 -13 3 -4 2 0.91978607D-02 0.63932244D-02 0.18326141D+04 0.18326141D+04 0.18326141D+04 0.12941401D+01  1  2  5  3  6  2        4 -.178324554623D-03 0.100000000000D+01
0.267642657560D-09 0.000000000000D+00 0.000000000000D+00 0.743918174705D-09 0.263198269958D-11  6 22 21 9900012 -13 3 -4 2 0.95709139D-02 0.61489373D-02 0.21032223D+04 0.21032223D+04 0.21032223D+04 0.12865565D+01  1  2 11  3  6  2        4 0.332906087299D-05 0.100000000000D+01
  </mgrwgt>
  </event>
  <event>
  6     66 0.17293500E-05 0.33407915E+02 0.78161638E-02 0.11398219E+00
       22 -1    0    0    0    0 0.00000000E+00 0.00000000E+00 0.69723317E+02 0.69723317E+02 0.00000000E+00 0.0000E+00 0.9000E+01
        2 -1    0    0  501    0 0.00000000E+00 0.00000000E+00 -.44388212E+03 0.44388212E+03 0.00000000E+00 0.0000E+00 0.9000E+01
       24  2    1    2    0    0 -.19885788E+02 0.26844818E+02 0.41738522E+02 0.96368486E+02 0.80179125E+02 0.0000E+00 0.0000E+00
  9900012  1    3    3    0    0 -.10605024E+02 0.43933562E+02 0.33145538E+02 0.75108262E+02 0.50000000E+02 0.0000E+00 0.9000E+01
      -13  1    3    3    0    0 -.92807637E+01 -.17088744E+02 0.85929844E+01 0.21260224E+02 0.00000000E+00 0.0000E+00 0.9000E+01
        1  1    1    2  501    0 0.19885788E+02 -.26844818E+02 -.41589732E+03 0.41723695E+03 0.00000000E+00 0.0000E+00 0.9000E+01
#aMCatNLO 1  0  0  2  5 0.11132491D+03 0.00000000D+00  -5  6  0 0.00000000D+00 0.00000000D+00 0.00000000D+00 0.00000000D+00 0.00000000D+00
  <mgrwgt>
 0.1617098665D-03    7    2    0
 0.175923090945744D+03 0.000000000000000D+00 0.000000000000000D+00 0.175923090945744D+03
 0.175923090945744D+03 0.000000000000000D+00 0.000000000000000D+00 -.175923090945744D+03
 0.144886343009188D+03 -.106050238696382D+02 0.439335615078529D+02 0.128255323603101D+03
 0.401724048992772D+02 -.928076368828616D+01 -.170887436611650D+02 0.351520181616455D+02
 0.166787433983023D+03 0.198857875579244D+02 -.268448178466879D+02 -.163407341764746D+03
 0.000000000000000D+00 0.000000000000000D+00 0.000000000000000D+00 -.000000000000000D+00
 0.203281389929722D+03 0.000000000000000D+00 0.000000000000000D+00 0.203281389929722D+03
 0.252637802637016D+03 0.000000000000000D+00 0.000000000000000D+00 -.252637802637016D+03
 0.139124582020870D+03 -.160971844473344D+02 0.121285589751635D+02 0.128255323603101D+03
 0.454646863374723D+02 -.109368008862541D+02 -.266788251109850D+02 0.351520181616455D+02
 0.176463738133373D+03 0.132480479866520D+02 -.652838476035721D+02 -.163407341764746D+03
 0.948661860750228D+02 0.137859373469365D+02 0.798341137393936D+02 -.493564127072941D+02
0.376442594528D-05 0.000000000000D+00 0.000000000000D+00 0.213793051018D-04 0.000000000000D+00  6 22 2 9900012 -13 1 21 0 0.10726664D-01 0.68289557D-01 0.36152072D+04 0.36152072D+04 0.36152072D+04 0.12580192D+01  1  2  2  1  6  2        2 0.137379022161D-03 0.100000000000D+01
0.277302445552D-06 0.000000000000D+00 -.722819341300D-08 0.213793051018D-04 0.000000000000D+00  6 22 2 9900012 -13 1 21 2 0.10726664D-01 0.68289557D-01 0.36152072D+04 0.36152072D+04 0.36152072D+04 0.12580192D+01  1  2  3  1  6  2        2 0.160158454334D-04 0.100000000000D+01
-.632236205795D-06 0.000000000000D+00 0.000000000000D+00 0.213793051018D-04 0.000000000000D+00  6 22 2 9900012 -13 1 21 2 0.10726664D-01 0.68289557D-01 0.36152072D+04 0.36152072D+04 0.36152072D+04 0.12580192D+01  1  2 15  1  6  2        2 -.365153553884D-04 0.100000000000D+01
-.334096160032D-07 0.000000000000D+00 0.000000000000D+00 0.213793051018D-04 0.000000000000D+00  6 22 2 9900012 -13 1 21 2 0.10726664D-01 0.68289557D-01 0.36152072D+04 0.36152072D+04 0.36152072D+04 0.12580192D+01  1  2  4  1  6  2        2 -.192960161181D-05 0.100000000000D+01
-.422419349727D-06 0.000000000000D+00 -.128657763991D-05 0.213793051018D-04 0.000000000000D+00  6 22 2 9900012 -13 1 21 2 0.10726664D-01 0.10919011D+00 0.36152072D+04 0.36152072D+04 0.36152072D+04 0.12580192D+01  1  2  5  1  6  2        2 -.147727611737D-04 0.100000000000D+01
0.103942176801D-05 0.000000000000D+00 0.115681366214D-05 0.213793051018D-04 0.000000000000D+00  6 22 2 9900012 -13 1 21 2 0.10726664D-01 0.68289557D-01 0.36152072D+04 0.36152072D+04 0.36152072D+04 0.12580192D+01  1  2  6  1  6  2        2 0.600327138965D-04 0.100000000000D+01
0.312358854994D-07 0.000000000000D+00 -.690414603454D-07 0.213793051018D-04 0.000000000000D+00  6 22 21 9900012 -13 1 -2 2 0.10726664D-01 0.10919011D+00 0.36152072D+04 0.36152072D+04 0.36152072D+04 0.12580192D+01  1  2  5  3  6  2        2 0.150000322686D-05 0.100000000000D+01
  </mgrwgt>
  </event>
  <event>
  7     66 -.17293500E-05 0.47885826E+02 0.78161638E-02 0.11423116E+00
       22 -1    0    0    0    0 0.00000000E+00 0.00000000E+00 0.37645773E+02 0.37645773E+02 0.00000000E+00 0.0000E+00 0.9000E+01
        2 -1    0    0  501    0 -.00000000E+00 -.00000000E+00 -.26234032E+04 0.26234032E+04 0.00000000E+00 0.0000E+00 0.9000E+01
       24  2    1    2    0    0 0.30195528E+02 0.85429905E+02 -.91607810E+02 0.16391331E+03 0.10131901E+03 0.0000E+00 0.0000E+00
  9900012  1    3    3    0    0 0.26609054E+02 0.89525723E+01 -.53362021E+02 0.78330681E+02 0.50000000E+02 0.0000E+00 0.9000E+01
      -13  1    3    3    0    0 0.35864733E+01 0.76477333E+02 -.38245789E+02 0.85582624E+02 0.00000000E+00 0.0000E+00 0.9000E+01
        1  1    1    2  502    0 -.30017492E+02 -.55321282E+02 -.22811871E+04 0.22820552E+04 0.00000000E+00 0.0000E+00 0.9000E+01
       21  1    1    2  501  502 -.17803580E+00 -.30108623E+02 -.21296252E+03 0.21508044E+03 0.00000000E+00 0.0000E+00 0.9000E+01
#aMCatNLO 2  0  0  5  2 0.25672490D+02 0.00000000D+00  -5  6  0 0.00000000D+00 0.00000000D+00 0.00000000D+00 0.00000000D+00 0.00000000D+00
  <mgrwgt>
 -.3259476364D-03    2    2    0
 0.314261106951380D+03 0.000000000000000D+00 0.000000000000000D+00 0.314261106951380D+03
 0.314261106951380D+03 -.000000000000000D+00 -.000000000000000D+00 -.314261106951380D+03
 0.113826835161210D+03 0.268083822780315D+02 0.951651565260613D+01 0.982206443283992D+02
 0.208600683439589D+03 0.395136907583989D+01 0.775097042874508D+02 0.193625611826437D+03
 0.306094695301962D+03 -.307597513538714D+02 -.870262199400569D+02 -.291846256154836D+03
 0.000000000000000D+00 0.000000000000000D+00 -.000000000000000D+00 0.000000000000000D+00
 0.314261106951380D+03 0.000000000000000D+00 0.000000000000000D+00 0.314261106951380D+03
 0.314261106951380D+03 -.000000000000000D+00 -.000000000000000D+00 -.314261106951380D+03
 0.112105086589528D+03 0.266090543225420D+02 0.895257226128714D+01 0.963294353622614D+02
 0.204997085097247D+03 0.358647332778166D+01 0.764773325605022D+02 0.190163507834357D+03
 0.276942076574875D+03 -.300174918533156D+02 -.553212816862199D+02 -.269695049552330D+03
 0.344779656411104D+02 -.178035797008047D+00 -.301086231355694D+02 -.167978936442885D+02
-.479242345548D-04 0.000000000000D+00 0.000000000000D+00 0.207500405922D-06 0.000000000000D+00  6 22 2 9900012 -13 1 21 2 0.57916575D-02 0.40360050D+00 0.12876993D+05 0.12876993D+05 0.12876993D+05 0.11981115D+01  1  2 13  2  6  5        1 -.347654455638D-03 0.100000000000D+01
0.299228927078D-05 0.000000000000D+00 0.000000000000D+00 0.207500405922D-06 0.168418565024D-09  6 22 2 9900012 -13 1 21 2 0.57916575D-02 0.40360050D+00 0.12876993D+05 0.12876993D+05 0.12876993D+05 0.11981115D+01  1  2  1  2  6  5        1 0.217068192577D-04 0.100000000000D+01
  </mgrwgt>
  </event>
  <event>
  7     66 0.17293500E-05 0.57441634E+02 0.78161638E-02 0.12007129E+00
       22 -1    0    0    0    0 0.00000000E+00 0.00000000E+00 0.23429518E+03 0.23429518E+03 0.00000000E+00 0.0000E+00 0.9000E+01
        2 -1    0    0  502    0 0.00000000E+00 0.00000000E+00 -.66454623E+02 0.66454623E+02 0.00000000E+00 0.0000E+00 0.9000E+01
       24  2    1    2    0    0 -.65906300E+02 -.10309071E+02 0.19808942E+03 0.22366957E+03 0.79616213E+02 0.0000E+00 0.0000E+00
  9900012  1    3    3    0    0 -.54727532E+02 0.78374327E+01 0.10889866E+03 0.13196759E+03 0.50000000E+02 0.0000E+00 0.9000E+01
      -13  1    3    3    0    0 -.11178768E+02 -.18146504E+02 0.89190768E+02 0.91701982E+02 0.00000000E+00 0.0000E+00 0.9000E+01
        1  1    1    2  501    0 0.60054622E+02 0.80060181E+01 -.17822020E+02 0.63152817E+02 0.00000000E+00 0.0000E+00 0.9000E+01
       21  1    1    2  502  501 0.58516778E+01 0.23030534E+01 -.12426848E+02 0.13927410E+02 0.00000000E+00 0.0000E+00 0.9000E+01
#aMCatNLO 2  0  0  2  5 0.63391519D+01 0.00000000D+00  -5  6  0 0.00000000D+00 0.00000000D+00 0.00000000D+00 0.00000000D+00 0.00000000D+00
  <mgrwgt>
 0.2125787180D-03    2    2    0
 0.111502467589732D+03 0.000000000000000D+00 0.000000000000000D+00 0.111502467589732D+03
 0.111502467589732D+03 0.000000000000000D+00 0.000000000000000D+00 -.111502467589732D+03
 0.803488247458960D+02 -.526022375183969D+02 0.867388781348741D+01 0.333721727836816D+02
 0.453657527918288D+02 -.998253455470416D+01 -.176757007185270D+02 0.405705574812884D+02
 0.972903576417389D+02 0.625847720731011D+02 0.900181290503962D+01 -.739427302649700D+02
 0.000000000000000D+00 0.000000000000000D+00 0.000000000000000D+00 -.000000000000000D+00
 0.111905144663030D+03 0.000000000000000D+00 0.000000000000000D+00 0.111905144663030D+03
 0.139135673945028D+03 0.000000000000000D+00 0.000000000000000D+00 -.139135673945028D+03
 0.816714760100792D+02 -.547275317037189D+02 0.783743267782825D+01 0.333721727836816D+02
 0.458282729855315D+02 -.111787681860232D+02 -.181465041354260D+02 0.405705574812884D+02
 0.955938351830293D+02 0.600546221379494D+02 0.800601810079008D+01 -.739427302649700D+02
 0.279472344294181D+02 0.585167775179267D+01 0.230305335680764D+01 -.272305292819975D+02
-.298064096079D-05 0.000000000000D+00 0.000000000000D+00 0.126439017185D-05 0.000000000000D+00  6 22 2 9900012 -13 1 21 2 0.35915707D-01 0.10260710D-01 0.66202639D+04 0.66202639D+04 0.66202639D+04 0.12283568D+01  1  2 13  1  6  2        2 -.234716809884D-03 0.100000000000D+01
0.568758995750D-05 0.000000000000D+00 0.000000000000D+00 0.126439017185D-05 0.596258609189D-06  6 22 2 9900012 -13 1 21 2 0.36045412D-01 0.10223788D-01 0.66202639D+04 0.66202639D+04 0.66202639D+04 0.12283568D+01  1  2  1  1  6  2        2 0.447295527852D-03 0.100000000000D+01
  </mgrwgt>
  </event>
  <event>
  7     66 -.17293500E-05 0.71979314E+02 0.78161638E-02 0.11774547E+00
       22 -1    0    0    0    0 0.00000000E+00 0.00000000E+00 0.34602772E+03 0.34602772E+03 0.00000000E+00 0.0000E+00 0.9000E+01
        2 -1    0    0  501    0 0.00000000E+00 0.00000000E+00 -.30332496E+02 0.30332496E+02 0.00000000E+00 0.0000E+00 0.9000E+01
       24  2    1    2    0    0 0.72923017E+02 -.13477975E+02 0.23120470E+03 0.25559630E+03 0.79840046E+02 0.0000E+00 0.0000E+00
  9900012  1    3    3    0    0 0.24854061E+02 0.36292734E+01 0.96449080E+02 0.11150480E+03 0.50000000E+02 0.0000E+00 0.9000E+01
      -13  1    3    3    0    0 0.48068956E+02 -.17107248E+02 0.13475562E+03 0.14409149E+03 0.00000000E+00 0.0000E+00 0.9000E+01
        1  1    1    2  502    0 -.71927789E+02 0.17400004E+02 0.58153825E+02 0.94118193E+02 0.00000000E+00 0.0000E+00 0.9000E+01
       21  1    1    2  501  502 -.99522838E+00 -.39220289E+01 0.26336708E+02 0.26645731E+02 0.00000000E+00 0.0000E+00 0.9000E+01
#aMCatNLO 2  0  0  5  2 0.12704548D+02 0.00000000D+00  -5  6  0 0.00000000D+00 0.00000000D+00 0.00000000D+00 0.00000000D+00 0.00000000D+00
  <mgrwgt>
 -.7477304461D-04    3    2    0
 0.102449423844197D+03 0.000000000000000D+00 0.000000000000000D+00 0.102449423844197D+03
 0.102449423844197D+03 -.000000000000000D+00 -.000000000000000D+00 -.102449423844197D+03
 0.576660294610967D+02 0.277895529057020D+02 0.308672189746537D+01 0.660180664946930D+01
 0.603384671119423D+02 0.510948693066358D+02 -.176665116662603D+02 0.267943895153937D+02
 0.868943511153552D+02 -.788844222123378D+02 0.145797897687949D+02 -.333961961648630D+02
 0.000000000000000D+00 0.000000000000000D+00 0.000000000000000D+00 0.000000000000000D+00
 0.102449423844197D+03 0.000000000000000D+00 0.000000000000000D+00 0.102449423844197D+03
 0.102449423844197D+03 -.000000000000000D+00 -.000000000000000D+00 -.102449423844197D+03
 0.562104559614248D+02 0.248540607405534D+02 0.362927335991517D+01 0.535904832737832D+01
 0.570457147444453D+02 0.480689562318399D+02 -.171072481861981D+02 0.255133509555664D+02
 0.832774755567600D+02 -.719277885913563D+02 0.174000037147826D+02 -.381938612107948D+02
 0.836520142576414D+01 -.995228381036970D+00 -.392202888849968D+01 0.732146192785013D+01
-.859923334529D-06 0.000000000000D+00 0.000000000000D+00 0.327109082558D-06 0.000000000000D+00  6 22 2 9900012 -13 1 21 2 0.53235035D-01 0.46665378D-02 0.85586174D+04 0.85586174D+04 0.85586174D+04 0.12164017D+01  1  2 13  2  6  5        1 -.968225267166D-04 0.100000000000D+01
-.979439523045D-08 0.000000000000D+00 0.000000000000D+00 0.327109082558D-06 0.000000000000D+00  6 22 2 9900012 -13 1 21 2 0.53235035D-01 0.46665378D-02 0.91747845D+04 0.91747845D+04 0.91747845D+04 0.12132266D+01  1  2  8  2  6  5        1 -.110428761297D-05 0.100000000000D+01
0.205638786115D-06 0.000000000000D+00 0.000000000000D+00 0.327109082558D-06 0.420807540223D-08  6 22 2 9900012 -13 1 21 2 0.53235035D-01 0.46665378D-02 0.85586174D+04 0.85586174D+04 0.85586174D+04 0.12164017D+01  1  2  1  2  6  5        1 0.231537697177D-04 0.100000000000D+01
  </mgrwgt>
  </event>
  <event>
  6     66 0.17293500E-05 0.90192663E+01 0.78161638E-02 0.13272892E+00
       22 -1    0    0    0    0 0.00000000E+00 0.00000000E+00 0.31032487E+03 0.31032487E+03 0.00000000E+00 0.0000E+00 0.9000E+01
        2 -1    0    0  501    0 0.00000000E+00 0.00000000E+00 -.10426198E+03 0.10426198E+03 0.00000000E+00 0.0000E+00 0.9000E+01
       24  2    1    2    0    0 0.14782032E+01 0.88973075E+01 0.30491571E+03 0.31532343E+03 0.79836888E+02 0.0000E+00 0.0000E+00
  9900012  1    3    3    0    0 0.12486705E+02 -.13202868E+02 0.24106038E+03 0.24686098E+03 0.50000000E+02 0.0000E+00 0.9000E+01
      -13  1    3    3    0    0 -.11008502E+02 0.22100175E+02 0.63855324E+02 0.68462451E+02 0.00000000E+00 0.0000E+00 0.9000E+01
        1  1    1    2  501    0 -.14782032E+01 -.88973075E+01 -.98852820E+02 0.99263424E+02 0.00000000E+00 0.0000E+00 0.9000E+01
#aMCatNLO 1  0  0  2  5 0.14688398D+01 0.00000000D+00  -5  6  0 0.00000000D+00 0.00000000D+00 0.00000000D+00 0.00000000D+00 0.00000000D+00
  <mgrwgt>
 0.5599930663D-03   11    2    0
 0.179875196029839D+03 0.000000000000000D+00 0.000000000000000D+00 0.179875196029839D+03
 0.179875196029839D+03 0.000000000000000D+00 0.000000000000000D+00 -.179875196029839D+03
 0.146411839984040D+03 0.124867051532341D+02 -.132028676470760D+02 0.136404521068116D+03
 0.423221771761558D+02 -.110085019803285D+02 0.221001751305821D+02 0.343738537885502D+02
 0.171016374899482D+03 -.147820317290559D+01 -.889730748350602D+01 -.170778374856666D+03
 0.000000000000000D+00 -.000000000000000D+00 -.000000000000000D+00 -.000000000000000D+00
 0.179889999719210D+03 0.000000000000000D+00 0.000000000000000D+00 0.179889999719210D+03
 0.220399478078666D+03 0.000000000000000D+00 0.000000000000000D+00 -.220399478078666D+03
 0.146365971485750D+03 0.125615372302533D+02 -.126099969690110D+02 0.136404521068116D+03
 0.424064077918571D+02 -.109868459130049D+02 0.222717492446493D+02 0.343738537885502D+02
 0.170981010157304D+03 -.139079089760219D+01 -.820476790696782D+01 -.170778374856666D+03
 0.405360883629648D+02 -.183900419646195D+00 -.145698436867043D+01 -.405094783594555D+02
0.107292081962D-06 0.000000000000D+00 0.000000000000D+00 0.324581251848D-04 0.000000000000D+00  6 22 2 9900012 -13 1 21 0 0.47742288D-01 0.16040305D-01 0.18883102D+04 0.18883102D+04 0.18883102D+04 0.12924792D+01  1  2  2  1  6  2        2 0.188021620915D-05 0.100000000000D+01
0.325482464484D-07 0.000000000000D+00 -.206014922693D-09 0.324581251848D-04 0.000000000000D+00  6 22 2 9900012 -13 1 21 2 0.47742288D-01 0.16040305D-01 0.18883102D+04 0.18883102D+04 0.18883102D+04 0.12924792D+01  1  2  3  1  6  2        2 0.952828734519D-06 0.100000000000D+01
-.173991640171D-07 0.000000000000D+00 0.000000000000D+00 0.324581251848D-04 0.000000000000D+00  6 22 2 9900012 -13 1 21 2 0.47742288D-01 0.16040305D-01 0.18883102D+04 0.18883102D+04 0.18883102D+04 0.12924792D+01  1  2 15  1  6  2        2 -.509349204369D-06 0.100000000000D+01
0.149705722812D-07 0.000000000000D+00 0.000000000000D+00 0.324581251848D-04 0.000000000000D+00  6 22 2 9900012 -13 1 21 2 0.47742288D-01 0.19655661D-01 0.19227440D+04 0.19227440D+04 0.19227440D+04 0.12914801D+01  1  2 12  1  6  2        2 0.348733224396D-06 0.100000000000D+01
-.437783541382D-04 0.000000000000D+00 0.000000000000D+00 0.324581251848D-04 0.000000000000D+00  6 22 2 9900012 -13 1 21 2 0.47742288D-01 0.16040305D-01 0.18883102D+04 0.18883102D+04 0.18883102D+04 0.12924792D+01  1  2  4  1  6  2        2 -.128158282932D-02 0.100000000000D+01
-.899915131409D-04 0.000000000000D+00 -.723945187073D-07 0.324581251848D-04 0.000000000000D+00  6 22 2 9900012 -13 1 21 2 0.47742288D-01 0.19654761D-01 0.18883102D+04 0.18883102D+04 0.18883102D+04 0.12924792D+01  1  2  5  1  6  2        2 -.209659637496D-02 0.100000000000D+01
0.881806510622D-04 0.000000000000D+00 0.709250008222D-07 0.324581251848D-04 0.000000000000D+00  6 22 2 9900012 -13 1 21 2 0.47742288D-01 0.16040305D-01 0.18883102D+04 0.18883102D+04 0.18883102D+04 0.12924792D+01  1  2  6  1  6  2        2 0.258143117768D-02 0.100000000000D+01
0.516204592911D-04 0.000000000000D+00 0.000000000000D+00 0.324581251848D-04 0.281785019050D-02  6 22 2 9900012 -13 1 21 2 0.47746217D-01 0.19654043D-01 0.19227440D+04 0.19227440D+04 0.19227440D+04 0.12914801D+01  1  2 11  1  6  2        2 0.120242525350D-02 0.100000000000D+01
0.433748917331D-09 0.000000000000D+00 0.000000000000D+00 0.324581251848D-04 0.000000000000D+00  6 22 21 9900012 -13 1 -2 2 0.47742288D-01 0.19655661D-01 0.19227440D+04 0.19227440D+04 0.19227440D+04 0.12914801D+01  1  2 12  3  6  2        2 0.737230848586D-07 0.100000000000D+01
-.260605756660D-05 0.000000000000D+00 -.209715683963D-08 0.324581251848D-04 0.000000000000D+00  6 22 21 9900012 -13 1 -2 2 0.47742288D-01 0.19654761D-01 0.18883102D+04 0.18883102D+04 0.18883102D+04 0.12924792D+01  1  2  5  3  6  2        2 -.443127101450D-03 0.100000000000D+01
0.349886564219D-05 0.000000000000D+00 0.000000000000D+00 0.324581251848D-04 0.556306059261D-05  6 22 21 9900012 -13 1 -2 2 0.47746217D-01 0.19654043D-01 0.19227440D+04 0.19227440D+04 0.19227440D+04 0.12914801D+01  1  2 11  3  6  2        2 0.594696788827D-03 0.100000000000D+01
  </mgrwgt>
  </event>
  <event>
  6     66 0.17293500E-05 0.51287551E+02 0.78161638E-02 0.11477896E+00
       22 -1    0    0    0    0 0.00000000E+00 0.00000000E+00 0.23039161E+02 0.23039161E+02 0.00000000E+00 0.0000E+00 0.9000E+01
        2 -1    0    0  501    0 0.00000000E+00 0.00000000E+00 -.96625320E+03 0.96625320E+03 0.00000000E+00 0.0000E+00 0.9000E+01
       24  2    1    2    0    0 -.81783286E+02 -.50240365E+02 -.17472301E+03 0.21483057E+03 0.80071495E+02 0.0000E+00 0.0000E+00
  9900012  1    3    3    0    0 -.64724572E+02 -.34920131E+02 -.16935137E+03 0.19128140E+03 0.50000000E+02 0.0000E+00 0.9000E+01
      -13  1    3    3    0    0 -.17058714E+02 -.15320234E+02 -.53716433E+01 0.23549179E+02 0.00000000E+00 0.0000E+00 0.9000E+01
        1  1    1    2  501    0 0.81783286E+02 0.50240365E+02 -.76849102E+03 0.77446178E+03 0.00000000E+00 0.0000E+00 0.9000E+01
#aMCatNLO 1  0  0  2  5 0.14720005D+02 0.00000000D+00  -5  6  0 0.00000000D+00 0.00000000D+00 0.00000000D+00 0.00000000D+00 0.00000000D+00
  <mgrwgt>
 0.1530384249D-03    9    2    0
 0.149203426713193D+03 0.000000000000000D+00 0.000000000000000D+00 0.149203426713193D+03
 0.149203426713193D+03 0.000000000000000D+00 0.000000000000000D+00 -.149203426713193D+03
 0.988537399372131D+02 -.647245717944225D+02 -.349201310181311D+02 0.431668409230902D+02
 0.610924768736452D+02 -.170587138045720D+02 -.153202342783795D+02 0.566266848362690D+02
 0.138460636615528D+03 0.817832855989945D+02 0.502403652965106D+02 -.997935257593593D+02
 0.000000000000000D+00 -.000000000000000D+00 -.000000000000000D+00 -.000000000000000D+00
 0.153796077353937D+03 0.000000000000000D+00 0.000000000000000D+00 0.153796077353937D+03
 0.156840044893984D+03 0.000000000000000D+00 0.000000000000000D+00 -.156840044893984D+03
 0.962665654350357D+02 -.609567671473527D+02 -.344695228328166D+02 0.431668409230902D+02
 0.604088568486625D+02 -.147125034040158D+02 -.150396407471350D+02 0.566266848362690D+02
 0.141957240807883D+03 0.871982001547177D+02 0.508879585371754D+02 -.997935257593593D+02
 0.120034591563395D+02 -.115289296033492D+02 -.137879495722376D+01 -.304396754004762D+01
0.509366009062D-06 0.000000000000D+00 0.000000000000D+00 0.191020077467D-05 0.000000000000D+00  6 22 2 9900012 -13 1 21 0 0.35444862D-02 0.14865434D+00 0.10799515D+05 0.10799515D+05 0.10799515D+05 0.12058833D+01  1  2  2  1  6  2        2 0.385130861304D-04 0.100000000000D+01
-.437772411976D-08 0.000000000000D+00 -.978049796973D-09 0.191020077467D-05 0.000000000000D+00  6 22 2 9900012 -13 1 21 2 0.35444862D-02 0.14865434D+00 0.10799515D+05 0.10799515D+05 0.10799515D+05 0.12058833D+01  1  2  3  1  6  2        2 -.481323754260D-06 0.100000000000D+01
-.725395673534D-07 0.000000000000D+00 0.000000000000D+00 0.191020077467D-05 0.000000000000D+00  6 22 2 9900012 -13 1 21 2 0.35444862D-02 0.14865434D+00 0.10799515D+05 0.10799515D+05 0.10799515D+05 0.12058833D+01  1  2 15  1  6  2        2 -.797560922885D-05 0.100000000000D+01
0.958605447505D-06 0.000000000000D+00 0.000000000000D+00 0.191020077467D-05 0.000000000000D+00  6 22 2 9900012 -13 1 21 2 0.35444862D-02 0.16107280D+00 0.12062301D+05 0.12062301D+05 0.12062301D+05 0.12009808D+01  1  2 12  1  6  2        2 0.946313331835D-04 0.100000000000D+01
-.130614876523D-06 0.000000000000D+00 0.000000000000D+00 0.191020077467D-05 0.000000000000D+00  6 22 2 9900012 -13 1 21 2 0.35444862D-02 0.14865434D+00 0.10799515D+05 0.10799515D+05 0.10799515D+05 0.12058833D+01  1  2  4  1  6  2        2 -.143608964408D-04 0.100000000000D+01
-.411309322471D-05 0.000000000000D+00 -.789508228268D-06 0.191020077467D-05 0.000000000000D+00  6 22 2 9900012 -13 1 21 2 0.35444862D-02 0.15950510D+00 0.10799515D+05 0.10799515D+05 0.10799515D+05 0.12058833D+01  1  2  5  1  6  2        2 -.412114885628D-03 0.100000000000D+01
0.416034189771D-05 0.000000000000D+00 0.787552906930D-06 0.191020077467D-05 0.000000000000D+00  6 22 2 9900012 -13 1 21 2 0.35444862D-02 0.14865434D+00 0.10799515D+05 0.10799515D+05 0.10799515D+05 0.12058833D+01  1  2  6  1  6  2        2 0.457422927171D-03 0.100000000000D+01
0.139697506821D-07 0.000000000000D+00 0.000000000000D+00 0.191020077467D-05 0.000000000000D+00  6 22 21 9900012 -13 1 -2 2 0.35444862D-02 0.16107280D+00 0.12062301D+05 0.12062301D+05 0.12062301D+05 0.12009808D+01  1  2 12  3  6  2        2 0.102458939847D-05 0.100000000000D+01
-.476896865651D-07 0.000000000000D+00 -.941190445623D-08 0.191020077467D-05 0.000000000000D+00  6 22 21 9900012 -13 1 -2 2 0.35444862D-02 0.15950510D+00 0.10799515D+05 0.10799515D+05 0.10799515D+05 0.12058833D+01  1  2  5  3  6  2        2 -.362079590561D-05 0.100000000000D+01
  </mgrwgt>
  </event>
  <event>
  6     66 0.17293500E-05 0.41199960E+02 0.78161638E-02 0.12436581E+00
       22 -1    0    0    0    0 0.00000000E+00 0.00000000E+00 0.87175421E+01 0.87175421E+01 0.00000000E+00 0.0000E+00 0.9000E+01
        2 -1    0    0  501    0 0.00000000E+00 0.00000000E+00 -.93042099E+03 0.93042099E+03 0.00000000E+00 0.0000E+00 0.9000E+01
       24  2    1    2    0    0 -.27351599E+02 -.34373659E+02 -.24463344E+03 0.26064502E+03 0.78489777E+02 0.0000E+00 0.0000E+00
  9900012  1    3    3    0    0 -.11299470E+02 -.22556306E+02 -.99746065E+02 0.11439293E+03 0.50000000E+02 0.0000E+00 0.9000E+01
      -13  1    3    3    0    0 -.16052129E+02 -.11817353E+02 -.14488738E+03 0.14625209E+03 0.00000000E+00 0.0000E+00 0.9000E+01
        1  1    1    2  501    0 0.27351599E+02 0.34373659E+02 -.67707000E+03 0.67849351E+03 0.00000000E+00 0.0000E+00 0.9000E+01
#aMCatNLO 1  0  0  2  5 0.93963804D+01 0.00000000D+00  -5  6  0 0.00000000D+00 0.00000000D+00 0.00000000D+00 0.00000000D+00 0.00000000D+00
  <mgrwgt>
 0.1689950456D-03   11    2    0
 0.900610025326004D+02 0.000000000000000D+00 0.000000000000000D+00 0.900610025326004D+02
 0.900610025326004D+02 0.000000000000000D+00 0.000000000000000D+00 -.900610025326004D+02
 0.860223401414626D+02 -.112994698342698D+02 -.225563062111241D+02 0.652945482792240D+02
 0.211399742659323D+02 -.160521292585318D+02 -.118173526298783D+02 -.704115296331330D+01
 0.729596906578059D+02 0.273515990928016D+02 0.343736588410024D+02 -.582533953159107D+02
 0.000000000000000D+00 -.000000000000000D+00 -.000000000000000D+00 -.000000000000000D+00
 0.905056765956780D+02 0.000000000000000D+00 0.000000000000000D+00 0.905056765956780D+02
 0.157908745235524D+03 0.000000000000000D+00 0.000000000000000D+00 -.157908745235524D+03
 0.849419455560124D+02 -.111051600153549D+02 -.181226791862028D+02 0.652945482792240D+02
 0.205186360916893D+02 -.160047820772079D+02 -.107370174010981D+02 -.704115296331330D+01
 0.749043250268014D+02 0.275196542511903D+02 0.382082251849505D+02 -.582533953159107D+02
 0.680495151566989D+02 -.409712158627538D+00 -.934852859764956D+01 -.674030686398460D+02
0.696743939084D-07 0.000000000000D+00 0.000000000000D+00 0.247443437371D-06 0.000000000000D+00  6 22 2 9900012 -13 1 21 0 0.13411603D-02 0.14314169D+00 0.35919005D+04 0.35919005D+04 0.35919005D+04 0.12583483D+01  1  2  2  1  6  2        2 0.188134211421D-04 0.100000000000D+01
0.435389661469D-09 0.000000000000D+00 -.133784009149D-09 0.247443437371D-06 0.000000000000D+00  6 22 2 9900012 -13 1 21 2 0.13411603D-02 0.14314169D+00 0.35919005D+04 0.35919005D+04 0.35919005D+04 0.12583483D+01  1  2  3  1  6  2        2 0.186154871700D-06 0.100000000000D+01
-.116367479200D-07 0.000000000000D+00 0.000000000000D+00 0.247443437371D-06 0.000000000000D+00  6 22 2 9900012 -13 1 21 2 0.13411603D-02 0.14314169D+00 0.35919005D+04 0.35919005D+04 0.35919005D+04 0.12583483D+01  1  2 15  1  6  2        2 -.497539906837D-05 0.100000000000D+01
0.120842424910D-05 0.000000000000D+00 0.000000000000D+00 0.247443437371D-06 0.000000000000D+00  6 22 2 9900012 -13 1 21 2 0.13411603D-02 0.25221714D+00 0.42280822D+04 0.42280822D+04 0.42280822D+04 0.12501307D+01  1  2 12  1  6  2        2 0.220491425159D-03 0.100000000000D+01
-.678528907143D-06 0.000000000000D+00 0.000000000000D+00 0.247443437371D-06 0.000000000000D+00  6 22 2 9900012 -13 1 21 2 0.13411603D-02 0.14314169D+00 0.35919005D+04 0.35919005D+04 0.35919005D+04 0.12583483D+01  1  2  4  1  6  2        2 -.290111302201D-03 0.100000000000D+01
-.119580463618D-05 0.000000000000D+00 -.199225100948D-07 0.247443437371D-06 0.000000000000D+00  6 22 2 9900012 -13 1 21 2 0.13411603D-02 0.25132285D+00 0.35919005D+04 0.35919005D+04 0.35919005D+04 0.12583483D+01  1  2  5  1  6  2        2 -.220336937169D-03 0.100000000000D+01
0.104055223971D-05 0.000000000000D+00 0.171353156777D-07 0.247443437371D-06 0.000000000000D+00  6 22 2 9900012 -13 1 21 2 0.13411603D-02 0.14314169D+00 0.35919005D+04 0.35919005D+04 0.35919005D+04 0.12583483D+01  1  2  6  1  6  2        2 0.444897722252D-03 0.100000000000D+01
0.138746898863D-10 0.000000000000D+00 0.000000000000D+00 0.247443437371D-06 0.149921490768D-07  6 22 2 9900012 -13 1 21 2 0.13477823D-02 0.25097794D+00 0.42280822D+04 0.42280822D+04 0.42280822D+04 0.12501307D+01  1  2 11  1  6  2        2 0.253860229557D-08 0.100000000000D+01
0.754678797887D-07 0.000000000000D+00 0.000000000000D+00 0.247443437371D-06 0.000000000000D+00  6 22 21 9900012 -13 1 -2 2 0.13411603D-02 0.25221714D+00 0.42280822D+04 0.42280822D+04 0.42280822D+04 0.12501307D+01  1  2 12  3  6  2        2 0.531297192664D-05 0.100000000000D+01
-.732654041320D-07 0.000000000000D+00 -.123757753227D-08 0.247443437371D-06 0.000000000000D+00  6 22 21 9900012 -13 1 -2 2 0.13411603D-02 0.25132285D+00 0.35919005D+04 0.35919005D+04 0.35919005D+04 0.12583483D+01  1  2  5  3  6  2        2 -.528562675670D-05 0.100000000000D+01
0.108007681192D-11 0.000000000000D+00 0.000000000000D+00 0.247443437371D-06 0.115624573615D-08  6 22 21 9900012 -13 1 -2 2 0.13477823D-02 0.25097794D+00 0.42280822D+04 0.42280822D+04 0.42280822D+04 0.12501307D+01  1  2 11  3  6  2        2 0.768574016741D-10 0.100000000000D+01
  </mgrwgt>
  </event>
  <event>
  7     66 -.17293500E-05 0.68304801E+02 0.78161638E-02 0.11941009E+00
       22 -1    0    0    0    0 0.00000000E+00 0.00000000E+00 0.67055270E+02 0.67055270E+02 0.00000000E+00 0.0000E+00 0.9000E+01
        4 -1    0    0  502    0 0.00000000E+00 0.00000000E+00 -.15014186E+03 0.15014186E+03 0.00000000E+00 0.0000E+00 0.9000E+01
       24  2    1    2    0    0 -.25033255E+02 -.61432643E+02 0.21352532E+01 0.99803595E+02 0.74535661E+02 0.0000E+00 0.0000E+00
  9900012  1    3    3    0    0 -.14257781E+02 -.48248014E+02 0.21403505E+02 0.74089575E+02 0.50000000E+02 0.0000E+00 0.9000E+01
      -13  1    3    3    0    0 -.10775473E+02 -.13184629E+02 -.19268252E+02 0.25714020E+02 0.00000000E+00 0.0000E+00 0.9000E+01
        3  1    1    2  501    0 0.32663506E+02 0.64667626E+02 -.76627704E+02 0.10545431E+03 0.00000000E+00 0.0000E+00 0.9000E+01
       21  1    1    2  502  501 -.76302514E+01 -.32349834E+01 -.85941415E+01 0.11939226E+02 0.00000000E+00 0.0000E+00 0.9000E+01
#aMCatNLO 2  0  0  2  5 0.96819524D+01 0.00000000D+00  -5  6  0 0.00000000D+00 0.00000000D+00 0.00000000D+00 0.00000000D+00 0.00000000D+00
  <mgrwgt>
 -.5277728300D-04    3    2    0
 0.955418711701722D+02 0.000000000000000D+00 0.000000000000000D+00 0.955418711701722D+02
 0.955418711701722D+02 0.000000000000000D+00 0.000000000000000D+00 -.955418711701722D+02
 0.893155135192585D+02 -.177932929997371D+02 -.497469580353240D+02 0.518256678265324D+02
 0.207633473890743D+02 -.115907762509530D+02 -.135302916462037D+02 -.106631003309727D+02
 0.810048814320116D+02 0.293840692506900D+02 0.632772496815277D+02 -.411625674955597D+02
 0.000000000000000D+00 -.000000000000000D+00 -.000000000000000D+00 -.000000000000000D+00
 0.980780275073452D+02 0.000000000000000D+00 0.000000000000000D+00 0.980780275073452D+02
 0.102650953244893D+03 0.000000000000000D+00 0.000000000000000D+00 -.102650953244893D+03
 0.878467700191648D+02 -.142577812685110D+02 -.482480137459900D+02 0.518256678265324D+02
 0.200909677277396D+02 -.107754734253074D+02 -.131846292336637D+02 -.106631003309727D+02
 0.833256472488027D+02 0.326635060492318D+02 0.646676263610872D+02 -.411625674955597D+02
 0.946559575653164D+01 -.763025135541340D+01 -.323498338143353D+01 -.457292573754820D+01
-.130330511039D-05 0.000000000000D+00 0.000000000000D+00 0.153984895133D-07 0.000000000000D+00  6 22 4 9900012 -13 3 21 2 0.10049433D-01 0.23711904D-01 0.71144802D+04 0.71144802D+04 0.71144802D+04 0.12249700D+01  1  2 13  1  6  2        4 -.719915548590D-04 0.100000000000D+01
-.185239551266D-08 0.000000000000D+00 0.000000000000D+00 0.153984895133D-07 0.000000000000D+00  6 22 4 9900012 -13 3 21 2 0.10049433D-01 0.21499046D-01 0.64260168D+04 0.64260168D+04 0.64260168D+04 0.12297660D+01  1  2  8  1  6  2        4 -.121666837194D-06 0.100000000000D+01
0.346345583580D-06 0.000000000000D+00 0.000000000000D+00 0.153984895133D-07 0.463319881621D-09  6 22 4 9900012 -13 3 21 2 0.10316195D-01 0.23098748D-01 0.71144802D+04 0.71144802D+04 0.71144802D+04 0.12249700D+01  1  2  1  1  6  2        4 0.193359386993D-04 0.100000000000D+01
  </mgrwgt>
  </event>
  <event>
  6     66 0.17293500E-05 0.30923247E+02 0.78161638E-02 0.12300380E+00
       22 -1    0    0    0    0 0.00000000E+00 0.00000000E+00 0.38870374E+02 0.38870374E+02 0.00000000E+00 0.0000E+00 0.9000E+01
        2 -1    0    0  501    0 0.00000000E+00 0.00000000E+00 -.87936755E+02 0.87936755E+02 0.00000000E+00 0.0000E+00 0.9000E+01
       24  2    1    2    0    0 0.11968241E+02 -.28513303E+02 -.34729880E+02 0.92722199E+02 0.80218417E+02 0.0000E+00 0.0000E+00
  9900012  1    3    3    0    0 0.22249323E+02 -.14386929E+01 -.32522139E+02 0.63677246E+02 0.50000000E+02 0.0000E+00 0.9000E+01
      -13  1    3    3    0    0 -.10281082E+02 -.27074610E+02 -.22077416E+01 0.29044953E+02 0.00000000E+00 0.0000E+00 0.9000E+01
        1  1    1    2  501    0 -.11968241E+02 0.28513303E+02 -.14336500E+02 0.34084930E+02 0.00000000E+00 0.0000E+00 0.9000E+01
#aMCatNLO 1  0  0  2  5 0.27555811D+02 0.00000000D+00  -5  6  0 0.00000000D+00 0.00000000D+00 0.00000000D+00 0.00000000D+00 0.00000000D+00
  <mgrwgt>
 0.2146519005D-03    9    2    0
 0.584648149094549D+02 0.000000000000000D+00 0.000000000000000D+00 0.584648149094549D+02
 0.584648149094549D+02 0.000000000000000D+00 0.000000000000000D+00 -.584648149094549D+02
 0.554092679721181D+02 0.222493230937956D+02 -.143869294469964D+01 -.854896260868889D+01
 0.305720729029632D+02 -.102810822039792D+02 -.270746098450319D+02 0.979369654616804D+01
 0.309482889438285D+02 -.119682408898165D+02 0.285133027897315D+02 -.124473393747915D+01
 0.000000000000000D+00 0.000000000000000D+00 -.000000000000000D+00 -.000000000000000D+00
 0.669603515500452D+02 0.000000000000000D+00 0.000000000000000D+00 0.669603515500452D+02
 0.766276411892683D+02 0.000000000000000D+00 0.000000000000000D+00 -.766276411892683D+02
 0.521373680274937D+02 0.119885560081377D+02 -.122266429951598D+01 -.854896260868889D+01
 0.330040556981124D+02 -.163467284394023D+02 -.269469046425394D+02 0.979369654616804D+01
 0.339374520464382D+02 -.181588341082213D+02 0.286436386071895D+02 -.124473393747915D+01
 0.245091169672692D+02 0.225170065394860D+02 -.474069665134091D+00 -.966728963922303D+01
0.295246901372D-06 0.000000000000D+00 0.000000000000D+00 0.880448442442D-07 0.000000000000D+00  6 22 2 9900012 -13 1 21 0 0.59800576D-02 0.13528731D-01 0.32850074D+04 0.32850074D+04 0.32850074D+04 0.12629212D+01  1  2  2  1  6  2        2 0.139803149324D-03 0.100000000000D+01
-.461481612921D-08 0.000000000000D+00 -.566912920781D-09 0.880448442442D-07 0.000000000000D+00  6 22 2 9900012 -13 1 21 2 0.59800576D-02 0.13528731D-01 0.32850074D+04 0.32850074D+04 0.32850074D+04 0.12629212D+01  1  2  3  1  6  2        2 -.348528687709D-05 0.100000000000D+01
-.402116751196D-07 0.000000000000D+00 0.000000000000D+00 0.880448442442D-07 0.000000000000D+00  6 22 2 9900012 -13 1 21 2 0.59800576D-02 0.13528731D-01 0.32850074D+04 0.32850074D+04 0.32850074D+04 0.12629212D+01  1  2 15  1  6  2        2 -.303694057740D-04 0.100000000000D+01
0.132244145507D-06 0.000000000000D+00 0.000000000000D+00 0.880448442442D-07 0.000000000000D+00  6 22 2 9900012 -13 1 21 2 0.59800576D-02 0.20308185D-01 0.48570999D+04 0.48570999D+04 0.48570999D+04 0.12432664D+01  1  2 12  1  6  2        2 0.632993796728D-04 0.100000000000D+01
-.614466772845D-07 0.000000000000D+00 0.000000000000D+00 0.880448442442D-07 0.000000000000D+00  6 22 2 9900012 -13 1 21 2 0.59800576D-02 0.13528731D-01 0.32850074D+04 0.32850074D+04 0.32850074D+04 0.12629212D+01  1  2  4  1  6  2        2 -.464068972597D-04 0.100000000000D+01
-.297466881848D-06 0.000000000000D+00 -.118066209647D-06 0.880448442442D-07 0.000000000000D+00  6 22 2 9900012 -13 1 21 2 0.59800576D-02 0.20175081D-01 0.32850074D+04 0.32850074D+04 0.32850074D+04 0.12629212D+01  1  2  5  1  6  2        2 -.142184464108D-03 0.100000000000D+01
0.327025432705D-06 0.000000000000D+00 0.109227366309D-06 0.880448442442D-07 0.000000000000D+00  6 22 2 9900012 -13 1 21 2 0.59800576D-02 0.13528731D-01 0.32850074D+04 0.32850074D+04 0.32850074D+04 0.12629212D+01  1  2  6  1  6  2        2 0.246982201928D-03 0.100000000000D+01
0.636646922486D-08 0.000000000000D+00 0.000000000000D+00 0.880448442442D-07 0.000000000000D+00  6 22 21 9900012 -13 1 -2 2 0.59800576D-02 0.20308185D-01 0.48570999D+04 0.48570999D+04 0.48570999D+04 0.12432664D+01  1  2 12  3  6  2        2 0.214873743969D-04 0.100000000000D+01
-.101249796270D-07 0.000000000000D+00 -.561613586402D-08 0.880448442442D-07 0.000000000000D+00  6 22 21 9900012 -13 1 -2 2 0.59800576D-02 0.20175081D-01 0.32850074D+04 0.32850074D+04 0.32850074D+04 0.12629212D+01  1  2  5  3  6  2        2 -.344741507566D-04 0.100000000000D+01
  </mgrwgt>
  </event>
  <event>
  6     66 -.17293500E-05 0.68433716E+02 0.78161638E-02 0.11592379E+00
       22 -1    0    0    0    0 0.00000000E+00 0.00000000E+00 0.83489102E+03 0.83489102E+03 0.00000000E+00 0.0000E+00 0.9000E+01
        2 -1    0    0  501    0 -.00000000E+00 -.00000000E+00 -.19818708E+04 0.19818708E+04 0.00000000E+00 0.0000E+00 0.9000E+01
       24  2    1    2    0    0 0.78376819E+02 0.51025689E+02 0.82902289E+03 0.83854720E+03 0.84474284E+02 0.0000E+00 0.0000E+00
  9900012  1    3    3    0    0 0.61845963E+02 0.51664769E+02 0.48838719E+03 0.49751002E+03 0.50000000E+02 0.0000E+00 0.9000E+01
      -13  1    3    3    0    0 0.16530856E+02 -.63907954E+00 0.34063570E+03 0.34103718E+03 0.00000000E+00 0.0000E+00 0.9000E+01
        1  1    1    2  501    0 -.78376819E+02 -.51025689E+02 -.19760027E+04 0.19782146E+04 0.00000000E+00 0.0000E+00 0.9000E+01
#aMCatNLO 1  0  0  5  2 0.81627026D+01 0.00000000D+00  -5  6  0 0.00000000D+00 0.00000000D+00 0.00000000D+00 0.00000000D+00 0.00000000D+00
  <mgrwgt>
 -.5445902035D-01    8    2    0
 0.128633048691263D+04 0.000000000000000D+00 0.000000000000000D+00 0.128633048691263D+04
 0.128633048691263D+04 -.000000000000000D+00 -.000000000000000D+00 -.128633048691263D+04
 0.762454702243776D+03 0.618459629117988D+02 0.516647685790458D+02 0.756533542900004D+03
 0.525262656997087D+03 0.165308563730122D+02 -.639079535904779D+00 0.525002077329759D+03
 0.128494361458440D+04 -.783768192848118D+02 -.510256890431415D+02 -.128153562022976D+04
 0.000000000000000D+00 0.000000000000000D+00 0.000000000000000D+00 -.000000000000000D+00
 0.128633048691263D+04 0.000000000000000D+00 0.000000000000000D+00 0.128633048691263D+04
 0.128633048691263D+04 -.000000000000000D+00 -.000000000000000D+00 -.128633048691263D+04
 0.762423576424036D+03 0.618440590986639D+02 0.516635291388911D+02 0.756502413742570D+03
 0.525241182212451D+03 0.165295448171750D+02 -.639933398576441D+00 0.524980632143049D+03
 0.721848652624339D+03 -.472626725888578D+02 -.361408165566985D+02 -.719392492631072D+03
 0.563147562564434D+03 -.311109313269819D+02 -.148827791836166D+02 -.562090553254547D+03
0.676226371328D-03 0.000000000000D+00 0.000000000000D+00 0.118852929940D-02 0.000000000000D+00  6 22 2 9900012 -13 1 21 0 0.12844477D+00 0.30490320D+00 0.10496390D+05 0.10496390D+05 0.10496390D+05 0.12071554D+01  1  2  2  2  6  5        1 0.539001443443D-04 0.100000000000D+01
0.828520172598D-05 0.000000000000D+00 -.129844366020D-05 0.118852929940D-02 0.000000000000D+00  6 22 2 9900012 -13 1 21 2 0.12844477D+00 0.30490320D+00 0.10496390D+05 0.10496390D+05 0.10496390D+05 0.12071554D+01  1  2  3  2  6  5        1 0.962337250863D-06 0.100000000000D+01
-.107712098290D-03 0.000000000000D+00 0.000000000000D+00 0.118852929940D-02 0.000000000000D+00  6 22 2 9900012 -13 1 21 2 0.12844477D+00 0.30490320D+00 0.10496390D+05 0.10496390D+05 0.10496390D+05 0.12071554D+01  1  2 15  2  6  5        1 -.125109041374D-04 0.100000000000D+01
0.452886949347D+00 0.000000000000D+00 0.000000000000D+00 0.118852929940D-02 0.000000000000D+00  6 22 2 9900012 -13 1 21 2 0.12844477D+00 0.30490320D+00 0.10543421D+05 0.10543421D+05 0.10543421D+05 0.12069554D+01  1  2 12  2  6  5        1 0.525823478509D-01 0.100000000000D+01
-.116036983526D+01 0.000000000000D+00 0.000000000000D+00 0.118852929940D-02 0.000000000000D+00  6 22 2 9900012 -13 1 21 2 0.12844477D+00 0.30490320D+00 0.10496390D+05 0.10496390D+05 0.10496390D+05 0.12071554D+01  1  2  4  2  6  5        1 -.134778506810D+00 0.100000000000D+01
-.454343732701D+00 0.000000000000D+00 0.000000000000D+00 0.118852929940D-02 0.000000000000D+00  6 22 2 9900012 -13 1 21 2 0.12844477D+00 0.30490320D+00 0.10496390D+05 0.10496390D+05 0.10496390D+05 0.12071554D+01  1  2  5  2  6  5        1 -.527726316311D-01 0.100000000000D+01
0.690730979119D+00 0.000000000000D+00 -.000000000000D+00 0.118852929940D-02 0.000000000000D+00  6 22 2 9900012 -13 1 21 2 0.12844477D+00 0.30490320D+00 0.10496390D+05 0.10496390D+05 0.10496390D+05 0.12071554D+01  1  2  6  2  6  5        1 0.802293261548D-01 0.100000000000D+01
0.205066893954D-02 0.000000000000D+00 0.000000000000D+00 0.118852929940D-02 0.723559622002D-04  6 22 2 9900012 -13 1 21 2 0.12844477D+00 0.30490320D+00 0.10543421D+05 0.10543421D+05 0.10543421D+05 0.12069554D+01  1  2 11  2  6  5        1 0.238092503352D-03 0.100000000000D+01
  </mgrwgt>
  </event>
  <event>
  6     66 0.17293500E-05 0.23940319E+02 0.78161638E-02 0.12660625E+00
       22 -1    0    0    0    0 0.00000000E+00 0.00000000E+00 0.10346031E+02 0.10346031E+02 0.00000000E+00 0.0000E+00 0.9000E+01
        2 -1    0    0  501    0 0.00000000E+00 0.00000000E+00 -.53690820E+03 0.53690820E+03 0.00000000E+00 0.0000E+00 0.9000E+01
       24  2    1    2    0    0 0.18947234E+02 -.14633565E+02 -.15827251E+03 0.17818729E+03 0.78277595E+02 0.0000E+00 0.0000E+00
  9900012  1    3    3    0    0 -.40813214E+01 -.25456587E+02 -.10377247E+03 0.11803991E+03 0.50000000E+02 0.0000E+00 0.9000E+01
      -13  1    3    3    0    0 0.23028555E+02 0.10823022E+02 -.54500042E+02 0.60147375E+02 0.00000000E+00 0.0000E+00 0.9000E+01
        1  1    1    2  501    0 -.18947234E+02 0.14633565E+02 -.36828966E+03 0.36906695E+03 0.00000000E+00 0.0000E+00 0.9000E+01
#aMCatNLO 1  0  0  2  5 0.12303251D+02 0.00000000D+00  -5  6  0 0.00000000D+00 0.00000000D+00 0.00000000D+00 0.00000000D+00 0.00000000D+00
  <mgrwgt>
 0.1306451264D-03    9    2    0
 0.745309934018585D+02 0.000000000000000D+00 0.000000000000000D+00 0.745309934018585D+02
 0.745309934018585D+02 0.000000000000000D+00 0.000000000000000D+00 -.745309934018585D+02
 0.667855291323584D+02 -.408132136810870D+01 -.254565865781676D+02 0.359946095570930D+02
 0.282985979542209D+02 0.230285552766081D+02 0.108230218250577D+02 0.123837993613092D+02
 0.539778597171377D+02 -.189472339084994D+02 0.146335647531100D+02 -.483784089184022D+02
 0.000000000000000D+00 0.000000000000000D+00 -.000000000000000D+00 -.000000000000000D+00
 0.788749932851432D+02 0.000000000000000D+00 0.000000000000000D+00 0.788749932851432D+02
 0.794150268993611D+02 0.000000000000000D+00 0.000000000000000D+00 -.794150268993611D+02
 0.661275211712598D+02 -.716377783574075D+01 -.229328896174901D+02 0.359946095570930D+02
 0.276917695729718D+02 0.217300532099184D+02 0.118861433171370D+02 0.123837993613092D+02
 0.555107640137175D+02 -.214864421772162D+02 0.167124885781755D+02 -.483784089184022D+02
 0.895996542655524D+01 0.692016680303855D+01 -.566574227782231D+01 -.540033614217897D+00
0.103779325255D-06 0.000000000000D+00 0.000000000000D+00 0.153562400992D-06 0.000000000000D+00  6 22 2 9900012 -13 1 21 0 0.15916971D-02 0.82601262D-01 0.27900064D+04 0.27900064D+04 0.27900064D+04 0.12714244D+01  1  2  2  1  6  2        2 0.403801789038D-04 0.100000000000D+01
0.669671005245D-08 0.000000000000D+00 -.199269967351D-09 0.153562400992D-06 0.000000000000D+00  6 22 2 9900012 -13 1 21 2 0.15916971D-02 0.82601262D-01 0.27900064D+04 0.27900064D+04 0.27900064D+04 0.12714244D+01  1  2  3  1  6  2        2 0.421211274052D-05 0.100000000000D+01
-.169242588103D-07 0.000000000000D+00 0.000000000000D+00 0.153562400992D-06 0.000000000000D+00  6 22 2 9900012 -13 1 21 2 0.15916971D-02 0.82601262D-01 0.27900064D+04 0.27900064D+04 0.27900064D+04 0.12714244D+01  1  2 15  1  6  2        2 -.106450608732D-04 0.100000000000D+01
0.119665301734D-06 0.000000000000D+00 0.000000000000D+00 0.153562400992D-06 0.000000000000D+00  6 22 2 9900012 -13 1 21 2 0.15916971D-02 0.93144000D-01 0.33875783D+04 0.33875783D+04 0.33875783D+04 0.12613410D+01  1  2 12  1  6  2        2 0.664507923095D-04 0.100000000000D+01
-.466340776040D-08 0.000000000000D+00 0.000000000000D+00 0.153562400992D-06 0.000000000000D+00  6 22 2 9900012 -13 1 21 2 0.15916971D-02 0.82601262D-01 0.27900064D+04 0.27900064D+04 0.27900064D+04 0.12714244D+01  1  2  4  1  6  2        2 -.293320139112D-05 0.100000000000D+01
-.461044475244D-06 0.000000000000D+00 -.113099741064D-06 0.153562400992D-06 0.000000000000D+00  6 22 2 9900012 -13 1 21 2 0.15916971D-02 0.92254469D-01 0.27900064D+04 0.27900064D+04 0.27900064D+04 0.12714244D+01  1  2  5  1  6  2        2 -.257951621748D-03 0.100000000000D+01
0.471350295411D-06 0.000000000000D+00 0.112412429785D-06 0.153562400992D-06 0.000000000000D+00  6 22 2 9900012 -13 1 21 2 0.15916971D-02 0.82601262D-01 0.27900064D+04 0.27900064D+04 0.27900064D+04 0.12714244D+01  1  2  6  1  6  2        2 0.296471038614D-03 0.100000000000D+01
0.227243744632D-08 0.000000000000D+00 0.000000000000D+00 0.153562400992D-06 0.000000000000D+00  6 22 21 9900012 -13 1 -2 2 0.15916971D-02 0.93144000D-01 0.33875783D+04 0.33875783D+04 0.33875783D+04 0.12613410D+01  1  2 12  3  6  2        2 0.214514917563D-05 0.100000000000D+01
-.771026880735D-08 0.000000000000D+00 -.200165993993D-08 0.153562400992D-06 0.000000000000D+00  6 22 21 9900012 -13 1 -2 2 0.15916971D-02 0.92254469D-01 0.27900064D+04 0.27900064D+04 0.27900064D+04 0.12714244D+01  1  2  5  3  6  2        2 -.748426137839D-05 0.100000000000D+01
  </mgrwgt>
  </event>
  <event>
  6     66 0.17293500E-05 0.74265225E+02 0.78161638E-02 0.10989600E+00
       22 -1    0    0    0    0 0.00000000E+00 0.00000000E+00 0.34059471E+03 0.34059471E+03 0.00000000E+00 0.0000E+00 0.9000E+01
        2 -1    0    0  501    0 0.00000000E+00 0.00000000E+00 -.36631539E+03 0.36631539E+03 0.00000000E+00 0.0000E+00 0.9000E+01
       24  2    1    2    0    0 -.71656520E+02 -.19510681E+02 0.32758189E+03 0.34588651E+03 0.82536436E+02 0.0000E+00 0.0000E+00
  9900012  1    3    3    0    0 -.31154284E+02 0.96396744E+01 0.15046528E+03 0.16187438E+03 0.50000000E+02 0.0000E+00 0.9000E+01
      -13  1    3    3    0    0 -.40502236E+02 -.29150356E+02 0.17711661E+03 0.18401214E+03 0.00000000E+00 0.0000E+00 0.9000E+01
        1  1    1    2  501    0 0.71656520E+02 0.19510681E+02 -.35330257E+03 0.36102359E+03 0.00000000E+00 0.0000E+00 0.9000E+01
#aMCatNLO 1  0  0  2  5 0.41756294D+03 0.00000000D+00  -5  6  0 0.00000000D+00 0.00000000D+00 0.00000000D+00 0.00000000D+00 0.00000000D+00
  <mgrwgt>
 0.3367098266D-03    4    2    0
 0.353221013276252D+03 0.000000000000000D+00 0.000000000000000D+00 0.353221013276252D+03
 0.353221013276252D+03 0.000000000000000D+00 0.000000000000000D+00 -.353221013276252D+03
 0.167459886874644D+03 -.311542839373718D+02 0.963967437535784D+01 0.156458623866999D+03
 0.190582656710105D+03 -.405022363920253D+02 -.291503556262811D+02 0.183933614798349D+03
 0.348399482967756D+03 0.716565203293971D+02 0.195106812509233D+02 -.340392238665348D+03
 0.000000000000000D+00 0.000000000000000D+00 -.000000000000000D+00 0.000000000000000D+00
 0.619406501371243D+03 0.000000000000000D+00 0.000000000000000D+00 0.619406501371243D+03
 0.367605555450682D+03 0.000000000000000D+00 0.000000000000000D+00 -.367605555450682D+03
 0.174116186794206D+03 -.543021741143774D+02 0.197083588320126D+02 0.156458623866999D+03
 0.196467452059125D+03 -.667318060294879D+02 -.177412268420167D+02 0.183933614798349D+03
 0.343617069780632D+03 0.247600179144783D+02 0.399093474501272D+02 -.340392238665348D+03
 0.272811348187963D+03 0.962739622293870D+02 -.418764794401231D+02 0.251800945920561D+03
0.994863006110D-04 0.000000000000D+00 0.000000000000D+00 0.252244742288D-04 0.000000000000D+00  6 22 2 9900012 -13 1 21 0 0.52399186D-01 0.56356214D-01 0.84513121D+04 0.84513121D+04 0.84513121D+04 0.12169809D+01  1  2  2  1  6  2        2 0.420976337698D-03 0.100000000000D+01
0.259379771814D-05 0.000000000000D+00 -.191026794845D-06 0.252244742288D-04 0.000000000000D+00  6 22 2 9900012 -13 1 21 2 0.52399186D-01 0.56356214D-01 0.84513121D+04 0.84513121D+04 0.84513121D+04 0.12169809D+01  1  2  3  1  6  2        2 0.162554135428D-04 0.100000000000D+01
-.159531451444D-04 0.000000000000D+00 0.000000000000D+00 0.252244742288D-04 0.000000000000D+00  6 22 2 9900012 -13 1 21 2 0.52399186D-01 0.56356214D-01 0.84513121D+04 0.84513121D+04 0.84513121D+04 0.12169809D+01  1  2 15  1  6  2        2 -.999788726071D-04 0.100000000000D+01
-.866521856267D-07 0.000000000000D+00 0.000000000000D+00 0.252244742288D-04 0.000000000000D+00  6 22 2 9900012 -13 1 21 2 0.52399186D-01 0.56356214D-01 0.84513121D+04 0.84513121D+04 0.84513121D+04 0.12169809D+01  1  2  4  1  6  2        2 -.543052028265D-06 0.100000000000D+01
  </mgrwgt>
  </event>
  <event>
  6     66 0.17293500E-05 0.12840070E+03 0.78161638E-02 0.10347787E+00
       22 -1    0    0    0    0 0.00000000E+00 0.00000000E+00 0.54277731E+02 0.54277731E+02 0.00000000E+00 0.0000E+00 0.9000E+01
        2 -1    0    0  501    0 -.00000000E+00 -.00000000E+00 -.13044891E+04 0.13044891E+04 0.00000000E+00 0.0000E+00 0.9000E+01
       24  2    1    2    0    0 0.15419669E+03 -.16296533E+03 -.30398958E+03 0.38631118E+03 0.80575092E+02 0.0000E+00 0.0000E+00
  9900012  1    3    3    0    0 0.14064585E+03 -.16362300E+03 -.26695511E+03 0.34686997E+03 0.50000000E+02 0.0000E+00 0.9000E+01
      -13  1    3    3    0    0 0.13550834E+02 0.65766468E+00 -.37034467E+02 0.39441214E+02 0.00000000E+00 0.0000E+00 0.9000E+01
        1  1    1    2  501    0 -.15419669E+03 0.16296533E+03 -.94622183E+03 0.97245569E+03 0.00000000E+00 0.0000E+00 0.9000E+01
#aMCatNLO 1  0  0  5  2 0.16319480D+02 0.00000000D+00  -5  6  0 0.00000000D+00 0.00000000D+00 0.00000000D+00 0.00000000D+00 0.00000000D+00
  <mgrwgt>
 0.1142039463D-03    5    2    0
 0.266091546016291D+03 0.000000000000000D+00 0.000000000000000D+00 0.266091546016291D+03
 0.266091546016291D+03 -.000000000000000D+00 -.000000000000000D+00 -.266091546016291D+03
 0.258492039011814D+03 0.140645854944415D+03 -.163622998191593D+03 0.133283127897847D+03
 0.136992362148813D+02 0.135508339157845D+02 0.657664682821284D+00 -.190038159928694D+01
 0.259991816805887D+03 -.154196688860200D+03 0.162965333508771D+03 -.131382746298560D+03
 0.000000000000000D+00 0.000000000000000D+00 0.000000000000000D+00 0.000000000000000D+00
 0.266091546016291D+03 0.000000000000000D+00 0.000000000000000D+00 0.266091546016291D+03
 0.266091546016291D+03 -.000000000000000D+00 -.000000000000000D+00 -.266091546016291D+03
 0.252154926414999D+03 0.136808814324357D+03 -.159567758037237D+03 0.130013790935758D+03
 0.135347430233657D+02 0.133461956986639D+02 0.873939983855354D+00 -.207474287229274D+01
 0.255808819562858D+03 -.159892103506321D+03 0.156334371921120D+03 -.124226533230610D+03
 0.106846030313596D+02 0.973709348330007D+01 0.235944613226165D+01 -.371251483285521D+01
0.429745087647D-05 0.000000000000D+00 0.000000000000D+00 0.107669580227D-05 0.000000000000D+00  6 22 2 9900012 -13 1 21 0 0.83504201D-02 0.20069064D+00 0.52762248D+05 0.52762248D+05 0.52762248D+05 0.11409223D+01  1  2  2  2  6  5        1 0.684087966449D-04 0.100000000000D+01
-.896047377248D-07 0.000000000000D+00 -.825167145523D-08 0.107669580227D-05 0.000000000000D+00  6 22 2 9900012 -13 1 21 2 0.83504201D-02 0.20069064D+00 0.52762248D+05 0.52762248D+05 0.52762248D+05 0.11409223D+01  1  2  3  2  6  5        1 -.185671041687D-05 0.100000000000D+01
-.660605954232D-06 0.000000000000D+00 0.000000000000D+00 0.107669580227D-05 0.000000000000D+00  6 22 2 9900012 -13 1 21 2 0.83504201D-02 0.20069064D+00 0.52762248D+05 0.52762248D+05 0.52762248D+05 0.11409223D+01  1  2 15  2  6  5        1 -.136884944682D-04 0.100000000000D+01
0.376703038702D-05 0.000000000000D+00 0.000000000000D+00 0.107669580227D-05 0.000000000000D+00  6 22 2 9900012 -13 1 21 2 0.83504201D-02 0.20069064D+00 0.53607489D+05 0.53607489D+05 0.53607489D+05 0.11403250D+01  1  2 12  2  6  5        1 0.780165120178D-04 0.100000000000D+01
-.804790400747D-06 0.000000000000D+00 0.000000000000D+00 0.107669580227D-05 0.000000000000D+00  6 22 2 9900012 -13 1 21 2 0.83504201D-02 0.20069064D+00 0.52762248D+05 0.52762248D+05 0.52762248D+05 0.11409223D+01  1  2  4  2  6  5        1 -.166761575158D-04 0.100000000000D+01
  </mgrwgt>
  </event>
  <event>
  6     66 0.17293500E-05 0.43429505E+02 0.78161638E-02 0.95775494E-01
       22 -1    0    0    0    0 0.00000000E+00 0.00000000E+00 0.10928103E+04 0.10928103E+04 0.00000000E+00 0.0000E+00 0.9000E+01
        2 -1    0    0  501    0 0.00000000E+00 0.00000000E+00 -.21961856E+03 0.21961856E+03 0.00000000E+00 0.0000E+00 0.9000E+01
       24  2    1    2    0    0 -.38316455E+02 -.20444344E+02 0.10887316E+04 0.10925572E+04 0.80365640E+02 0.0000E+00 0.0000E+00
  9900012  1    3    3    0    0 -.15531143E+02 -.17071542E+02 0.44226001E+03 0.44567541E+03 0.50000000E+02 0.0000E+00 0.9000E+01
      -13  1    3    3    0    0 -.22785311E+02 -.33728021E+01 0.64647157E+03 0.64688178E+03 0.00000000E+00 0.0000E+00 0.9000E+01
        1  1    1    2  501    0 0.38316455E+02 0.20444344E+02 -.21553985E+03 0.21987166E+03 0.00000000E+00 0.0000E+00 0.9000E+01
#aMCatNLO 1  0  0  2  5 0.82204691D+01 0.00000000D+00  -5  6  0 0.00000000D+00 0.00000000D+00 0.00000000D+00 0.00000000D+00 0.00000000D+00
  <mgrwgt>
 0.1027845710D-02    5    2    0
 0.489899401095048D+03 0.000000000000000D+00 0.000000000000000D+00 0.489899401095048D+03
 0.489899401095048D+03 0.000000000000000D+00 0.000000000000000D+00 -.489899401095048D+03
 0.202837033282508D+03 -.155311434535291D+02 -.170715415019529D+02 0.195218360111497D+03
 0.290358266968120D+03 -.227853114524765D+02 -.337280205205518D+01 0.289443218930866D+03
 0.486603501939469D+03 0.383164549060056D+02 0.204443435540081D+02 -.484661579042363D+03
 0.000000000000000D+00 0.000000000000000D+00 -.000000000000000D+00 -.000000000000000D+00
 0.732257377152042D+03 0.000000000000000D+00 0.000000000000000D+00 0.732257377152042D+03
 0.751876993378759D+03 0.000000000000000D+00 0.000000000000000D+00 -.751876993378759D+03
 0.224861970860680D+03 -.994775618723649D+02 0.754403729158368D+01 0.195218360111497D+03
 0.324643665499973D+03 -.143494522956919D+03 0.320227176480034D+02 0.289443218930866D+03
 0.515854635597786D+03 -.158440538787850D+03 0.781393277198097D+02 -.484661579042363D+03
 0.418774098572362D+03 0.401412623617133D+03 -.117706082659397D+03 -.196196162267168D+02
0.817182726233D-03 0.000000000000D+00 0.000000000000D+00 0.140521592004D-02 0.000000000000D+00  6 22 2 9900012 -13 1 21 0 0.16812466D+00 0.33787471D-01 0.36925451D+04 0.36925451D+04 0.36925451D+04 0.12569439D+01  1  2  2  1  6  2        2 0.607179364105D-03 0.100000000000D+01
0.345525168450D-04 0.000000000000D+00 -.156909841894D-05 0.140521592004D-02 0.000000000000D+00  6 22 2 9900012 -13 1 21 2 0.16812466D+00 0.33787471D-01 0.36925451D+04 0.36925451D+04 0.36925451D+04 0.12569439D+01  1  2  3  1  6  2        2 0.405610624235D-04 0.100000000000D+01
-.136353652455D-03 0.000000000000D+00 0.000000000000D+00 0.140521592004D-02 0.000000000000D+00  6 22 2 9900012 -13 1 21 2 0.16812466D+00 0.33787471D-01 0.36925451D+04 0.36925451D+04 0.36925451D+04 0.12569439D+01  1  2 15  1  6  2        2 -.160065011579D-03 0.100000000000D+01
0.887420857241D-03 0.000000000000D+00 -.236278149010D-03 0.140521592004D-02 0.000000000000D+00  6 22 2 9900012 -13 1 21 2 0.16812466D+00 0.76767204D-01 0.36925451D+04 0.36925451D+04 0.36925451D+04 0.12569439D+01  1  2  5  1  6  2        2 0.439724699292D-03 0.100000000000D+01
0.941053226534D-04 0.000000000000D+00 -.210763537294D-04 0.140521592004D-02 0.000000000000D+00  6 22 21 9900012 -13 1 -2 2 0.16812466D+00 0.76767204D-01 0.36925451D+04 0.36925451D+04 0.36925451D+04 0.12569439D+01  1  2  5  3  6  2        2 0.100445595627D-03 0.100000000000D+01
  </mgrwgt>
  </event>
  <event>
  6     66 0.17293500E-05 0.43553465E+02 0.78161638E-02 0.11938350E+00
       22 -1    0    0    0    0 0.00000000E+00 0.00000000E+00 0.22036434E+03 0.22036434E+03 0.00000000E+00 0.0000E+00 0.9000E+01
        4 -1    0    0  501    0 0.00000000E+00 0.00000000E+00 -.32668662E+02 0.32668662E+02 0.00000000E+00 0.0000E+00 0.9000E+01
       24  2    1    2    0    0 -.56875265E+02 0.23958190E+02 0.14852875E+03 0.17993828E+03 0.80673438E+02 0.0000E+00 0.0000E+00
  9900012  1    3    3    0    0 -.57390677E+02 0.56656955E+01 0.86951745E+02 0.11569959E+03 0.50000000E+02 0.0000E+00 0.9000E+01
      -13  1    3    3    0    0 0.51541223E+00 0.18292494E+02 0.61577007E+02 0.64238687E+02 0.00000000E+00 0.0000E+00 0.9000E+01
        3  1    1    2  501    0 0.56875265E+02 -.23958190E+02 0.39166929E+02 0.73094726E+02 0.00000000E+00 0.0000E+00 0.9000E+01
#aMCatNLO 1  0  0  2  5 0.22013917D+02 0.00000000D+00  -5  6  0 0.00000000D+00 0.00000000D+00 0.00000000D+00 0.00000000D+00 0.00000000D+00
  <mgrwgt>
 0.8895711397D-04    6    2    0
 0.848469699191792D+02 0.000000000000000D+00 0.000000000000000D+00 0.848469699191792D+02
 0.848469699191792D+02 0.000000000000000D+00 0.000000000000000D+00 -.848469699191792D+02
 0.763453831233640D+02 -.573906772760388D+02 0.566569547778860D+01 0.168154119895195D+01
 0.276778863377053D+02 0.515412225833931D+00 0.182924944964119D+02 0.207649798328612D+02
 0.656706703772892D+02 0.568752650502048D+02 -.239581899742005D+02 -.224465210318131D+02
 0.000000000000000D+00 0.000000000000000D+00 -.000000000000000D+00 0.000000000000000D+00
 0.944519166055441D+02 0.000000000000000D+00 0.000000000000000D+00 0.944519166055441D+02
 0.891339717954309D+02 0.000000000000000D+00 0.000000000000000D+00 -.891339717954309D+02
 0.807431947821535D+02 -.630693295986469D+02 0.623663264929464D+01 0.168154119895195D+01
 0.278468824601482D+02 -.149177290181968D+01 0.184942988215172D+02 0.207649798328612D+02
 0.615524420029425D+02 0.522762303384515D+02 -.234957985966667D+02 -.224465210318131D+02
 0.134433691557309D+02 0.122848721620150D+02 -.123513287414517D+01 0.531794481011328D+01
0.659720207963D-06 0.000000000000D+00 0.000000000000D+00 0.169603561193D-06 0.000000000000D+00  6 22 4 9900012 -13 3 21 0 0.33902207D-01 0.50259480D-02 0.61107066D+04 0.61107066D+04 0.61107066D+04 0.12321582D+01  1  2  2  1  6  2        4 0.513450808557D-04 0.100000000000D+01
-.154737266116D-07 0.000000000000D+00 -.126674965345D-08 0.169603561193D-06 0.000000000000D+00  6 22 4 9900012 -13 3 21 2 0.33902207D-01 0.50259480D-02 0.61107066D+04 0.61107066D+04 0.61107066D+04 0.12321582D+01  1  2  3  1  6  2        4 -.182838205213D-05 0.100000000000D+01
-.934725114852D-07 0.000000000000D+00 0.000000000000D+00 0.169603561193D-06 0.000000000000D+00  6 22 4 9900012 -13 3 21 2 0.33902207D-01 0.50259480D-02 0.61107066D+04 0.61107066D+04 0.61107066D+04 0.12321582D+01  1  2 15  1  6  2        4 -.110447513167D-04 0.100000000000D+01
0.396201673729D-06 0.000000000000D+00 0.000000000000D+00 0.169603561193D-06 0.000000000000D+00  6 22 4 9900012 -13 3 21 2 0.33902207D-01 0.58775909D-02 0.71352253D+04 0.71352253D+04 0.71352253D+04 0.12248336D+01  1  2 12  1  6  2        4 0.370683563170D-04 0.100000000000D+01
-.579336254600D-07 0.000000000000D+00 0.000000000000D+00 0.169603561193D-06 0.000000000000D+00  6 22 4 9900012 -13 3 21 2 0.33902207D-01 0.50259480D-02 0.61107066D+04 0.61107066D+04 0.61107066D+04 0.12321582D+01  1  2  4  1  6  2        4 -.684546157915D-05 0.100000000000D+01
0.935383145223D-08 0.000000000000D+00 0.000000000000D+00 0.169603561193D-06 0.000000000000D+00  6 22 21 9900012 -13 3 -4 2 0.33902207D-01 0.58775909D-02 0.71352253D+04 0.71352253D+04 0.71352253D+04 0.12248336D+01  1  2 12  3  6  2        4 0.202622717418D-04 0.100000000000D+01
  </mgrwgt>
  </event>
  <event>
  6     66 0.17293500E-05 0.12250216E+02 0.78161638E-02 0.13389842E+00
       22 -1    0    0    0    0 0.00000000E+00 0.00000000E+00 0.96468963E+01 0.96468963E+01 0.00000000E+00 0.0000E+00 0.9000E+01
        4 -1    0    0  501    0 0.00000000E+00 0.00000000E+00 -.25737328E+03 0.25737328E+03 0.00000000E+00 0.0000E+00 0.9000E+01
       24  2    1    2    0    0 0.11337842E+02 -.46390874E+01 -.23712117E+03 0.25081714E+03 0.80825251E+02 0.0000E+00 0.0000E+00
  9900012  1    3    3    0    0 -.48744826E+01 -.12491876E+02 -.10084717E+03 0.11335766E+03 0.50000000E+02 0.0000E+00 0.9000E+01
      -13  1    3    3    0    0 0.16212325E+02 0.78527886E+01 -.13627400E+03 0.13745948E+03 0.00000000E+00 0.0000E+00 0.9000E+01
        3  1    1    2  501    0 -.11337842E+02 0.46390874E+01 -.10605215E+02 0.16203036E+02 0.00000000E+00 0.0000E+00 0.9000E+01
#aMCatNLO 1  0  0  2  5 0.38314336D+01 0.00000000D+00  -5  6  0 0.00000000D+00 0.00000000D+00 0.00000000D+00 0.00000000D+00 0.00000000D+00
  <mgrwgt>
 0.1290614063D-02    8    2    0
 0.498282385427777D+02 0.000000000000000D+00 0.000000000000000D+00 0.498282385427777D+02
 0.498282385427777D+02 0.000000000000000D+00 0.000000000000000D+00 -.498282385427777D+02
 0.530449998201574D+02 -.487448258921458D+01 -.124918759815664D+02 0.115743017011440D+02
 0.295594387561093D+02 0.162123250134764D+02 0.785278862650099D+01 -.234361824540832D+02
 0.170520385092888D+02 -.113378424242619D+02 0.463908735506539D+01 0.118618807529392D+02
 0.000000000000000D+00 -.000000000000000D+00 -.000000000000000D+00 0.000000000000000D+00
 0.516816046129511D+02 0.000000000000000D+00 0.000000000000000D+00 0.516816046129511D+02
 0.500253465548590D+02 0.000000000000000D+00 0.000000000000000D+00 -.500253465548590D+02
 0.528878169776591D+02 -.464113228240578D+01 -.119002779770253D+02 0.115743017011440D+02
 0.297207109303661D+02 0.163429081654700D+02 0.818384768188651D+01 -.234361824540832D+02
 0.170551328222577D+02 -.112627106649527D+02 0.482956406577907D+01 0.118618807529392D+02
 0.204329043752722D+01 -.439065218111493D+00 -.111313377064024D+01 0.165625805809213D+01
0.197501022345D-06 0.000000000000D+00 0.000000000000D+00 0.864919611945D-08 0.000000000000D+00  6 22 4 9900012 -13 3 21 0 0.14841379D-02 0.39595889D-01 0.16822761D+04 0.16822761D+04 0.16822761D+04 0.12989261D+01  1  2  2  1  6  2        4 0.301270246946D-04 0.100000000000D+01
-.297244411206D-08 0.000000000000D+00 -.379227964509D-09 0.864919611945D-08 0.000000000000D+00  6 22 4 9900012 -13 3 21 2 0.14841379D-02 0.39595889D-01 0.16822761D+04 0.16822761D+04 0.16822761D+04 0.12989261D+01  1  2  3  1  6  2        4 -.765014132656D-06 0.100000000000D+01
-.260414521097D-07 0.000000000000D+00 0.000000000000D+00 0.864919611945D-08 0.000000000000D+00  6 22 4 9900012 -13 3 21 2 0.14841379D-02 0.39595889D-01 0.16822761D+04 0.16822761D+04 0.16822761D+04 0.12989261D+01  1  2 15  1  6  2        4 -.670225516369D-05 0.100000000000D+01
0.806766542038D-08 0.000000000000D+00 0.000000000000D+00 0.864919611945D-08 0.000000000000D+00  6 22 4 9900012 -13 3 21 2 0.14841379D-02 0.41231120D-01 0.17361545D+04 0.17361545D+04 0.17361545D+04 0.12971573D+01  1  2 12  1  6  2        4 0.192010347873D-05 0.100000000000D+01
-.293787614925D-07 0.000000000000D+00 0.000000000000D+00 0.864919611945D-08 0.000000000000D+00  6 22 4 9900012 -13 3 21 2 0.14841379D-02 0.39595889D-01 0.16822761D+04 0.16822761D+04 0.16822761D+04 0.12989261D+01  1  2  4  1  6  2        4 -.756117420358D-05 0.100000000000D+01
0.269374946855D-07 0.000000000000D+00 0.000000000000D+00 0.864919611945D-08 0.189239962181D-07  6 22 4 9900012 -13 3 21 2 0.15393405D-02 0.39752521D-01 0.17361545D+04 0.17361545D+04 0.17361545D+04 0.12971573D+01  1  2 11  1  6  2        4 0.657227141486D-05 0.100000000000D+01
0.191144383084D-09 0.000000000000D+00 0.000000000000D+00 0.864919611945D-08 0.000000000000D+00  6 22 21 9900012 -13 3 -4 2 0.14841379D-02 0.41231120D-01 0.17361545D+04 0.17361545D+04 0.17361545D+04 0.12971573D+01  1  2 12  3  6  2        4 0.112708373776D-05 0.100000000000D+01
0.209949630416D-06 0.000000000000D+00 0.000000000000D+00 0.864919611945D-08 0.369599018833D-08  6 22 21 9900012 -13 3 -4 2 0.15393405D-02 0.39752521D-01 0.17361545D+04 0.17361545D+04 0.17361545D+04 0.12971573D+01  1  2 11  3  6  2        4 0.126589602358D-02 0.100000000000D+01
  </mgrwgt>
  </event>
  <event>
  6     66 0.17293500E-05 0.11603962E+03 0.78161638E-02 0.93704898E-01
       22 -1    0    0    0    0 0.00000000E+00 0.00000000E+00 0.49402173E+03 0.49402173E+03 0.00000000E+00 0.0000E+00 0.9000E+01
        2 -1    0    0  501    0 -.00000000E+00 -.00000000E+00 -.15426139E+04 0.15426139E+04 0.00000000E+00 0.0000E+00 0.9000E+01
       24  2    1    2    0    0 -.10451350E+03 0.50419452E+02 0.48183692E+03 0.50181368E+03 0.78644462E+02 0.0000E+00 0.0000E+00
  9900012  1    3    3    0    0 -.53524151E+02 0.32098413E+02 0.35488093E+03 0.36377963E+03 0.50000000E+02 0.0000E+00 0.9000E+01
      -13  1    3    3    0    0 -.50989350E+02 0.18321039E+02 0.12695600E+03 0.13803405E+03 0.00000000E+00 0.0000E+00 0.9000E+01
        1  1    1    2  501    0 0.10451350E+03 -.50419452E+02 -.15304291E+04 0.15348220E+04 0.00000000E+00 0.0000E+00 0.9000E+01
#aMCatNLO 1  0  0  5  2 0.16749013D+01 0.00000000D+00  -5  6  0 0.00000000D+00 0.00000000D+00 0.00000000D+00 0.00000000D+00 0.00000000D+00
  <mgrwgt>
 0.1230382325D-02    3    2    0
 0.872974678600913D+03 0.000000000000000D+00 0.000000000000000D+00 0.872974678600913D+03
 0.872974678600913D+03 -.000000000000000D+00 -.000000000000000D+00 -.872974678600913D+03
 0.637482361848173D+03 -.535241506191111D+02 0.320984130870121D+02 0.632446534376878D+03
 0.237263545504280D+03 -.509893499131072D+02 0.183210385173386D+02 0.230994406357268D+03
 0.871203449849372D+03 0.104513500532218D+03 -.504194516043505D+02 -.863440940734146D+03
 0.000000000000000D+00 0.000000000000000D+00 0.000000000000000D+00 0.000000000000000D+00
 0.872974678600913D+03 0.000000000000000D+00 0.000000000000000D+00 0.872974678600913D+03
 0.872974678600913D+03 -.000000000000000D+00 -.000000000000000D+00 -.872974678600913D+03
 0.448632824574383D+03 -.307473116913912D+02 0.211103998430939D+02 0.444275100729048D+03
 0.167069596957381D+03 -.425101103498321D+02 0.142304798179823D+02 0.160942953215407D+03
 0.477085297439903D+03 0.201504295612863D+03 0.408078889804339D+03 -.143101431086283D+03
 0.653161638230159D+03 -.128246873571640D+03 -.443419769465415D+03 -.462116622858173D+03
0.419946681345D-02 0.000000000000D+00 0.000000000000D+00 0.784532671183D-03 0.000000000000D+00  6 22 2 9900012 -13 1 21 0 0.76003342D-01 0.23732522D+00 0.15648783D+05 0.15648783D+05 0.15648783D+05 0.11896722D+01  1  2  2  2  6  5        1 0.155439115232D-02 0.100000000000D+01
0.499178391779D-04 0.000000000000D+00 -.806352915433D-05 0.784532671183D-03 0.000000000000D+00  6 22 2 9900012 -13 1 21 2 0.76003342D-01 0.23732522D+00 0.15648783D+05 0.15648783D+05 0.15648783D+05 0.11896722D+01  1  2  3  2  6  5        1 0.261502954873D-04 0.100000000000D+01
-.668412590885D-03 0.000000000000D+00 0.000000000000D+00 0.784532671183D-03 0.000000000000D+00  6 22 2 9900012 -13 1 21 2 0.76003342D-01 0.23732522D+00 0.15648783D+05 0.15648783D+05 0.15648783D+05 0.11896722D+01  1  2 15  2  6  5        1 -.350159122409D-03 0.100000000000D+01
  </mgrwgt>
  </event>
  <event>
  6     66 0.17293500E-05 0.20412723E+02 0.78161638E-02 0.12810223E+00
       22 -1    0    0    0    0 0.00000000E+00 0.00000000E+00 0.14942097E+02 0.14942097E+02 0.00000000E+00 0.0000E+00 0.9000E+01
        4 -1    0    0  501    0 0.00000000E+00 0.00000000E+00 -.10386334E+04 0.10386334E+04 0.00000000E+00 0.0000E+00 0.9000E+01
       24  2    1    2    0    0 0.91563274E+01 0.25197366E+02 -.10312236E+03 0.13261626E+03 0.78956345E+02 0.0000E+00 0.0000E+00
  9900012  1    3    3    0    0 -.94345488E+01 0.23403124E+02 -.98605021E+02 0.11340047E+03 0.50000000E+02 0.0000E+00 0.9000E+01
      -13  1    3    3    0    0 0.18590876E+02 0.17942420E+01 -.45173402E+01 0.19215784E+02 0.00000000E+00 0.0000E+00 0.9000E+01
        3  1    1    2  501    0 -.91563274E+01 -.25197366E+02 -.92056898E+03 0.92095928E+03 0.00000000E+00 0.0000E+00 0.9000E+01
#aMCatNLO 1  0  0  2  5 0.22339832D+02 0.00000000D+00  -5  6  0 0.00000000D+00 0.00000000D+00 0.00000000D+00 0.00000000D+00 0.00000000D+00
  <mgrwgt>
 0.3387053230D-05    6    2    0
 0.124576727850957D+03 0.000000000000000D+00 0.000000000000000D+00 0.124576727850957D+03
 0.124576727850957D+03 0.000000000000000D+00 0.000000000000000D+00 -.124576727850957D+03
 0.743913295252127D+02 -.943454881094660D+01 0.234031235840398D+02 0.489627716104064D+02
 0.626959700580819D+02 0.185908761694928D+02 0.179424204668923D+01 0.598493498732641D+02
 0.112066156118619D+03 -.915632735854622D+01 -.251973656307290D+02 -.108812121483671D+03
 0.000000000000000D+00 0.000000000000000D+00 -.000000000000000D+00 0.000000000000000D+00
 0.135563815802070D+03 0.000000000000000D+00 0.000000000000000D+00 0.135563815802070D+03
 0.125893375971980D+03 0.000000000000000D+00 0.000000000000000D+00 -.125893375971980D+03
 0.748691068155680D+02 -.115897218373213D+02 0.239522128272447D+02 0.489627716104064D+02
 0.622000325880693D+02 0.167875014601328D+02 0.225370105172469D+01 0.598493498732641D+02
 0.112194974020928D+03 -.123944361996430D+02 -.243723688851248D+02 -.108812121483671D+03
 0.121930783494855D+02 0.719665657683152D+01 -.183354499384454D+01 0.967043983008985D+01
0.542515060710D-06 0.000000000000D+00 0.000000000000D+00 0.374158768456D-05 0.000000000000D+00  6 22 4 9900012 -13 3 21 0 0.22987841D-02 0.15978976D+00 0.25752118D+04 0.25752118D+04 0.25752118D+04 0.12756597D+01  1  2  2  1  6  2        4 0.169894033412D-05 0.100000000000D+01
0.391316090998D-07 0.000000000000D+00 -.104170034031D-08 0.374158768456D-05 0.000000000000D+00  6 22 4 9900012 -13 3 21 2 0.22987841D-02 0.15978976D+00 0.25752118D+04 0.25752118D+04 0.25752118D+04 0.12756597D+01  1  2  3  1  6  2        4 0.199417708830D-06 0.100000000000D+01
-.837974467751D-07 0.000000000000D+00 0.000000000000D+00 0.374158768456D-05 0.000000000000D+00  6 22 4 9900012 -13 3 21 2 0.22987841D-02 0.15978976D+00 0.25752118D+04 0.25752118D+04 0.25752118D+04 0.12756597D+01  1  2 15  1  6  2        4 -.427038274841D-06 0.100000000000D+01
0.346375895311D-06 0.000000000000D+00 0.000000000000D+00 0.374158768456D-05 0.000000000000D+00  6 22 4 9900012 -13 3 21 2 0.22987841D-02 0.17572023D+00 0.29347703D+04 0.29347703D+04 0.29347703D+04 0.12687711D+01  1  2 12  1  6  2        4 0.132520296896D-05 0.100000000000D+01
-.308271067251D-08 0.000000000000D+00 0.000000000000D+00 0.374158768456D-05 0.000000000000D+00  6 22 4 9900012 -13 3 21 2 0.22987841D-02 0.15978976D+00 0.25752118D+04 0.25752118D+04 0.25752118D+04 0.12756597D+01  1  2  4  1  6  2        4 -.157097321946D-07 0.100000000000D+01
0.544010409639D-08 0.000000000000D+00 0.000000000000D+00 0.374158768456D-05 0.000000000000D+00  6 22 21 9900012 -13 3 -4 2 0.22987841D-02 0.17572023D+00 0.29347703D+04 0.29347703D+04 0.29347703D+04 0.12687711D+01  1  2 12  3  6  2        4 0.606240225340D-06 0.100000000000D+01
  </mgrwgt>
  </event>
  <event>
  6     66 -.17293500E-05 0.81936186E+02 0.78161638E-02 0.11690814E+00
       22 -1    0    0    0    0 0.00000000E+00 0.00000000E+00 0.33931920E+03 0.33931920E+03 0.00000000E+00 0.0000E+00 0.9000E+01
        2 -1    0    0  501    0 -.00000000E+00 -.00000000E+00 -.16046484E+04 0.16046484E+04 0.00000000E+00 0.0000E+00 0.9000E+01
       24  2    1    2    0    0 0.42506016E+02 0.70048392E+02 0.32866812E+03 0.34786579E+03 0.79210709E+02 0.0000E+00 0.0000E+00
  9900012  1    3    3    0    0 0.60703260E+01 0.33541875E+02 0.14570215E+03 0.15776889E+03 0.50000000E+02 0.0000E+00 0.9000E+01
      -13  1    3    3    0    0 0.36435690E+02 0.36506518E+02 0.18296597E+03 0.19009690E+03 0.00000000E+00 0.0000E+00 0.9000E+01
        1  1    1    2  501    0 -.42506016E+02 -.70048392E+02 -.15939973E+04 0.15961018E+04 0.00000000E+00 0.0000E+00 0.9000E+01
#aMCatNLO 1  0  0  5  2 0.12095582D-01 0.00000000D+00  -5  6  0 0.00000000D+00 0.00000000D+00 0.00000000D+00 0.00000000D+00 0.00000000D+00
  <mgrwgt>
 -.6371845262D-02    7    2    0
 0.737894301215106D+03 0.000000000000000D+00 0.000000000000000D+00 0.737894301215106D+03
 0.737894301215106D+03 -.000000000000000D+00 -.000000000000000D+00 -.737894301215106D+03
 0.332743309479944D+03 0.607032603491962D+01 0.335418746639776D+02 0.327194443396463D+03
 0.407276748924348D+03 0.364356896327464D+02 0.365065176299389D+02 0.403997605074470D+03
 0.735768544025920D+03 -.425060156676658D+02 -.700483922939163D+02 -.731192048470933D+03
 0.000000000000000D+00 0.000000000000000D+00 0.000000000000000D+00 -.000000000000000D+00
 0.737894301215106D+03 0.000000000000000D+00 0.000000000000000D+00 0.737894301215106D+03
 0.737894301215106D+03 -.000000000000000D+00 -.000000000000000D+00 -.737894301215106D+03
 0.332743302710217D+03 0.607032563901955D+01 0.335418740115485D+02 0.327194436586157D+03
 0.407276740540738D+03 0.364356891481660D+02 0.365065168313678D+02 0.403997596738677D+03
 0.733353877210674D+03 -.423661839043463D+02 -.698305430624773D+02 -.728791267055878D+03
 0.241468196858229D+01 -.139830882839071D+00 -.217847780438680D+00 -.240076626895640D+01
0.342564766658D-05 0.000000000000D+00 0.000000000000D+00 0.199756561434D-02 0.000000000000D+00  6 22 2 9900012 -13 1 21 0 0.52202953D-01 0.24686898D+00 0.94116993D+04 0.94116993D+04 0.94116993D+04 0.12120689D+01  1  2  2  2  6  5        1 0.226102280495D-05 0.100000000000D+01
0.752170671272D-07 0.000000000000D+00 -.657769451671D-08 0.199756561434D-02 0.000000000000D+00  6 22 2 9900012 -13 1 21 2 0.52202953D-01 0.24686898D+00 0.94116993D+04 0.94116993D+04 0.94116993D+04 0.12120689D+01  1  2  3  2  6  5        1 0.729345459256D-07 0.100000000000D+01
-.552698005951D-06 0.000000000000D+00 0.000000000000D+00 0.199756561434D-02 0.000000000000D+00  6 22 2 9900012 -13 1 21 2 0.52202953D-01 0.24686898D+00 0.94116993D+04 0.94116993D+04 0.94116993D+04 0.12120689D+01  1  2 15  2  6  5        1 -.535925949224D-06 0.100000000000D+01
-.132965094000D+02 0.000000000000D+00 0.000000000000D+00 0.199756561434D-02 0.000000000000D+00  6 22 2 9900012 -13 1 21 2 0.52202953D-01 0.24686898D+00 0.94116993D+04 0.94116993D+04 0.94116993D+04 0.12120689D+01  1  2  4  2  6  5        1 -.128930163396D+02 0.100000000000D+01
-.122772100811D+02 0.000000000000D+00 0.000000000000D+00 0.199756561434D-02 0.000000000000D+00  6 22 2 9900012 -13 1 21 2 0.52202953D-01 0.24686898D+00 0.94116993D+04 0.94116993D+04 0.94116993D+04 0.12120689D+01  1  2  5  2  6  5        1 -.119046484621D+02 0.100000000000D+01
0.123175681583D+02 0.000000000000D+00 -.000000000000D+00 0.199756561434D-02 0.000000000000D+00  6 22 2 9900012 -13 1 21 2 0.52202953D-01 0.24686898D+00 0.94116993D+04 0.94116993D+04 0.94116993D+04 0.12120689D+01  1  2  6  2  6  5        1 0.119437818416D+02 0.100000000000D+01
0.132495789740D+02 0.000000000000D+00 0.000000000000D+00 0.199756561434D-02 0.114708203204D+03  6 22 2 9900012 -13 1 21 2 0.52202953D-01 0.24686898D+00 0.94117071D+04 0.94117071D+04 0.94117071D+04 0.12120689D+01  1  2 11  2  6  5        1 0.128475093168D+02 0.100000000000D+01
  </mgrwgt>
  </event>
  <event>
  6     66 0.17293500E-05 0.48251180E+02 0.78161638E-02 0.11960369E+00
       22 -1    0    0    0    0 0.00000000E+00 0.00000000E+00 0.56491290E+02 0.56491290E+02 0.00000000E+00 0.0000E+00 0.9000E+01
        4 -1    0    0  501    0 -.00000000E+00 -.00000000E+00 -.14907905E+03 0.14907905E+03 0.00000000E+00 0.0000E+00 0.9000E+01
       24  2    1    2    0    0 0.70326779E+02 -.12352968E+02 -.39658279E+02 0.11668850E+03 0.83336515E+02 0.0000E+00 0.0000E+00
  9900012  1    3    3    0    0 0.21475942E+02 -.16996025E+02 -.36122865E+02 0.67490313E+02 0.50000000E+02 0.0000E+00 0.9000E+01
      -13  1    3    3    0    0 0.48850837E+02 0.46430571E+01 -.35354134E+01 0.49198185E+02 0.00000000E+00 0.0000E+00 0.9000E+01
        3  1    1    2  501    0 -.70326779E+02 0.12352968E+02 -.52929479E+02 0.88881840E+02 0.00000000E+00 0.0000E+00 0.9000E+01
#aMCatNLO 1  0  0  5  2 0.31375401D+02 0.00000000D+00  -5  6  0 0.00000000D+00 0.00000000D+00 0.00000000D+00 0.00000000D+00 0.00000000D+00
  <mgrwgt>
 0.1014541888D-03    5    2    0
 0.917696451295082D+02 0.000000000000000D+00 0.000000000000000D+00 0.917696451295082D+02
 0.917696451295082D+02 -.000000000000000D+00 -.000000000000000D+00 -.917696451295082D+02
 0.573690319549768D+02 0.214759424142260D+02 -.169960252452266D+02 -.641286603131653D+01
 0.533201992735421D+02 0.488508370658927D+02 0.464305705091407D+01 0.208586046933587D+02
 0.728500590304975D+02 -.703267794801187D+02 0.123529681943126D+02 -.144457386620421D+02
 0.000000000000000D+00 0.000000000000000D+00 -.000000000000000D+00 0.000000000000000D+00
 0.917696451295082D+02 0.000000000000000D+00 0.000000000000000D+00 0.917696451295082D+02
 0.917696451295082D+02 -.000000000000000D+00 -.000000000000000D+00 -.917696451295082D+02
 0.544081733063132D+02 0.124283869915181D+02 -.154068132096523D+02 -.827131344115035D+01
 0.455454339111252D+02 0.408483799142004D+02 0.604869654417637D+01 0.192148296545740D+02
 0.406104311437614D+02 -.248618686175841D+02 0.283230673080025D+02 0.151293907607191D+02
 0.429752518978166D+02 -.284148982881344D+02 -.189649506425266D+02 -.260729069741427D+02
0.247481822325D-05 0.000000000000D+00 0.000000000000D+00 0.184419932005D-07 0.000000000000D+00  6 22 4 9900012 -13 3 21 0 0.86909677D-02 0.22935238D-01 0.78751352D+04 0.78751352D+04 0.78751352D+04 0.12202385D+01  1  2  2  2  6  5        3 0.120208410744D-03 0.100000000000D+01
-.751700213724D-07 0.000000000000D+00 -.475197680593D-08 0.184419932005D-07 0.000000000000D+00  6 22 4 9900012 -13 3 21 2 0.86909677D-02 0.22935238D-01 0.78751352D+04 0.78751352D+04 0.78751352D+04 0.12202385D+01  1  2  3  2  6  5        3 -.543657889867D-05 0.100000000000D+01
-.337203681362D-06 0.000000000000D+00 0.000000000000D+00 0.184419932005D-07 0.000000000000D+00  6 22 4 9900012 -13 3 21 2 0.86909677D-02 0.22935238D-01 0.78751352D+04 0.78751352D+04 0.78751352D+04 0.12202385D+01  1  2 15  2  6  5        3 -.243878395293D-04 0.100000000000D+01
0.408499992388D-06 0.000000000000D+00 0.000000000000D+00 0.184419932005D-07 0.000000000000D+00  6 22 4 9900012 -13 3 21 2 0.86909677D-02 0.22935238D-01 0.69654917D+04 0.69654917D+04 0.69654917D+04 0.12259626D+01  1  2 12  2  6  5        3 0.293946149671D-04 0.100000000000D+01
-.253366492388D-06 0.000000000000D+00 0.000000000000D+00 0.184419932005D-07 0.000000000000D+00  6 22 4 9900012 -13 3 21 2 0.86909677D-02 0.22935238D-01 0.78751352D+04 0.78751352D+04 0.78751352D+04 0.12202385D+01  1  2  4  2  6  5        3 -.183244184450D-04 0.100000000000D+01
  </mgrwgt>
  </event>
  <event>
  6     66 0.17293500E-05 0.11377474E+03 0.78161638E-02 0.10878844E+00
       22 -1    0    0    0    0 0.00000000E+00 0.00000000E+00 0.38070942E+02 0.38070942E+02 0.00000000E+00 0.0000E+00 0.9000E+01
        2 -1    0    0  501    0 -.00000000E+00 -.00000000E+00 -.18693143E+04 0.18693143E+04 0.00000000E+00 0.0000E+00 0.9000E+01
       24  2    1    2    0    0 -.80165242E+02 0.12565587E+03 -.17226126E+03 0.24172097E+03 0.80865451E+02 0.0000E+00 0.0000E+00
  9900012  1    3    3    0    0 -.41420769E+02 0.10886869E+03 -.12019846E+03 0.17468755E+03 0.50000000E+02 0.0000E+00 0.9000E+01
      -13  1    3    3    0    0 -.38744473E+02 0.16787184E+02 -.52062803E+02 0.67033418E+02 0.00000000E+00 0.0000E+00 0.9000E+01
        1  1    1    2  501    0 0.80165242E+02 -.12565587E+03 -.16589821E+04 0.16656643E+04 0.00000000E+00 0.0000E+00 0.9000E+01
#aMCatNLO 1  0  0  5  2 0.16172487D+02 0.00000000D+00  -5  6  0 0.00000000D+00 0.00000000D+00 0.00000000D+00 0.00000000D+00 0.00000000D+00
  <mgrwgt>
 0.1524575990D-03    7    2    0
 0.266770607361377D+03 0.000000000000000D+00 0.000000000000000D+00 0.266770607361377D+03
 0.266770607361377D+03 -.000000000000000D+00 -.000000000000000D+00 -.266770607361377D+03
 0.211949574684860D+03 -.414207691298307D+02 0.108868690200217D+03 0.169866272072697D+03
 0.609491639157016D+02 -.387444727948115D+02 0.167871837752186D+02 0.439528937701742D+02
 0.260642476122193D+03 0.801652419246423D+02 -.125655873975435D+03 -.213819165842871D+03
 0.000000000000000D+00 0.000000000000000D+00 -.000000000000000D+00 0.000000000000000D+00
 0.266770607361377D+03 0.000000000000000D+00 0.000000000000000D+00 0.266770607361377D+03
 0.266770607361377D+03 -.000000000000000D+00 -.000000000000000D+00 -.266770607361377D+03
 0.210656396440762D+03 -.410086001444057D+02 0.108222631473944D+03 0.168766922447672D+03
 0.605948095940286D+02 -.386259305600376D+02 0.166013734694564D+02 0.436367143244696D+02
 0.214596039966287D+03 0.738008256617008D+02 -.900865091754459D+02 -.180247938588617D+03
 0.476939687216772D+02 0.583370504274248D+01 -.347374957679548D+02 -.321556981835246D+02
0.145198235982D-05 0.000000000000D+00 0.000000000000D+00 0.378699549211D-05 0.000000000000D+00  6 22 2 9900012 -13 1 21 0 0.58570680D-02 0.28758682D+00 0.25286516D+05 0.25286516D+05 0.25286516D+05 0.11696683D+01  1  2  2  2  6  5        1 0.187587197814D-04 0.100000000000D+01
0.171057354246D-09 0.000000000000D+00 -.278799728872D-08 0.378699549211D-05 0.000000000000D+00  6 22 2 9900012 -13 1 21 2 0.58570680D-02 0.28758682D+00 0.25286516D+05 0.25286516D+05 0.25286516D+05 0.11696683D+01  1  2  3  2  6  5        1 0.302349363551D-08 0.100000000000D+01
-.251467998383D-06 0.000000000000D+00 0.000000000000D+00 0.378699549211D-05 0.000000000000D+00  6 22 2 9900012 -13 1 21 2 0.58570680D-02 0.28758682D+00 0.25286516D+05 0.25286516D+05 0.25286516D+05 0.11696683D+01  1  2 15  2  6  5        1 -.444477757765D-05 0.100000000000D+01
0.115813661120D-04 0.000000000000D+00 0.000000000000D+00 0.378699549211D-05 0.000000000000D+00  6 22 2 9900012 -13 1 21 2 0.58570680D-02 0.28758682D+00 0.25567016D+05 0.25567016D+05 0.25567016D+05 0.11692202D+01  1  2 12  2  6  5        1 0.204603928301D-03 0.100000000000D+01
-.604916210799D-05 0.000000000000D+00 0.000000000000D+00 0.378699549211D-05 0.000000000000D+00  6 22 2 9900012 -13 1 21 2 0.58570680D-02 0.28758682D+00 0.25286516D+05 0.25286516D+05 0.25286516D+05 0.11696683D+01  1  2  4  2  6  5        1 -.106920881679D-03 0.100000000000D+01
-.114795542772D-04 0.000000000000D+00 0.000000000000D+00 0.378699549211D-05 0.000000000000D+00  6 22 2 9900012 -13 1 21 2 0.58570680D-02 0.28758682D+00 0.25286516D+05 0.25286516D+05 0.25286516D+05 0.11696683D+01  1  2  5  2  6  5        1 -.202904806102D-03 0.100000000000D+01
0.137684850889D-04 0.000000000000D+00 -.000000000000D+00 0.378699549211D-05 0.000000000000D+00  6 22 2 9900012 -13 1 21 2 0.58570680D-02 0.28758682D+00 0.25286516D+05 0.25286516D+05 0.25286516D+05 0.11696683D+01  1  2  6  2  6  5        1 0.243362392809D-03 0.100000000000D+01
  </mgrwgt>
  </event>
  <event>
  6     66 0.17293500E-05 0.42417302E+02 0.78161638E-02 0.11935758E+00
       22 -1    0    0    0    0 0.00000000E+00 0.00000000E+00 0.40851775E+03 0.40851775E+03 0.00000000E+00 0.0000E+00 0.9000E+01
        2 -1    0    0  501    0 0.00000000E+00 0.00000000E+00 -.10893345E+03 0.10893345E+03 0.00000000E+00 0.0000E+00 0.9000E+01
       24  2    1    2    0    0 -.46833438E+02 0.31356064E+02 0.39429398E+03 0.40724005E+03 0.84853644E+02 0.0000E+00 0.0000E+00
  9900012  1    3    3    0    0 -.63931121E+01 0.32301071E+02 0.19945918E+03 0.20825032E+03 0.50000000E+02 0.0000E+00 0.9000E+01
      -13  1    3    3    0    0 -.40440326E+02 -.94500666E+00 0.19483480E+03 0.19898973E+03 0.00000000E+00 0.0000E+00 0.9000E+01
        1  1    1    2  501    0 0.46833438E+02 -.31356064E+02 -.94709686E+02 0.11021115E+03 0.00000000E+00 0.0000E+00 0.9000E+01
#aMCatNLO 1  0  0  2  5 0.16202144D+02 0.00000000D+00  -5  6  0 0.00000000D+00 0.00000000D+00 0.00000000D+00 0.00000000D+00 0.00000000D+00
  <mgrwgt>
 0.1732188895D-03    9    2    0
 0.210953192132663D+03 0.000000000000000D+00 0.000000000000000D+00 0.210953192132663D+03
 0.210953192132663D+03 0.000000000000000D+00 0.000000000000000D+00 -.210953192132663D+03
 0.113780074788915D+03 -.639311208215172D+01 0.323010710199565D+02 0.967557458130514D+02
 0.105705982809477D+03 -.404403256158988D+02 -.945006659243814D+00 0.976598270949293D+02
 0.202420326666935D+03 0.468334376980505D+02 -.313560643607126D+02 -.194415572907981D+03
 0.000000000000000D+00 0.000000000000000D+00 -.000000000000000D+00 -.000000000000000D+00
 0.214262273525368D+03 0.000000000000000D+00 0.000000000000000D+00 0.214262273525368D+03
 0.228338592155800D+03 0.000000000000000D+00 0.000000000000000D+00 -.228338592155800D+03
 0.114835003929841D+03 -.911810478443760D+01 0.352457649210050D+02 0.967557458130514D+02
 0.106711122022601D+03 -.429722454864170D+02 0.179104800776664D+01 0.976598270949293D+02
 0.200620220315592D+03 0.420293689751654D+02 -.261646699556447D+02 -.194415572907981D+03
 0.204345194131345D+02 0.100609812956893D+02 -.108721429731270D+02 -.140763186304319D+02
0.220093552135D-05 0.000000000000D+00 0.000000000000D+00 0.132048843968D-05 0.000000000000D+00  6 22 2 9900012 -13 1 21 0 0.62848884D-01 0.16758993D-01 0.61372272D+04 0.61372272D+04 0.61372272D+04 0.12319518D+01  1  2  2  1  6  2        2 0.253412275503D-04 0.100000000000D+01
0.794570498346D-07 0.000000000000D+00 -.422608596081D-08 0.132048843968D-05 0.000000000000D+00  6 22 2 9900012 -13 1 21 2 0.62848884D-01 0.16758993D-01 0.61372272D+04 0.61372272D+04 0.61372272D+04 0.12319518D+01  1  2  3  1  6  2        2 0.138848173603D-05 0.100000000000D+01
-.349901449750D-06 0.000000000000D+00 0.000000000000D+00 0.132048843968D-05 0.000000000000D+00  6 22 2 9900012 -13 1 21 2 0.62848884D-01 0.16758993D-01 0.61372272D+04 0.61372272D+04 0.61372272D+04 0.12319518D+01  1  2 15  1  6  2        2 -.611439480073D-05 0.100000000000D+01
0.899932612685D-05 0.000000000000D+00 0.000000000000D+00 0.132048843968D-05 0.000000000000D+00  6 22 2 9900012 -13 1 21 2 0.62848884D-01 0.18424713D-01 0.71555209D+04 0.71555209D+04 0.71555209D+04 0.12247006D+01  1  2 12  1  6  2        2 0.140848943697D-03 0.100000000000D+01
-.539119824638D-06 0.000000000000D+00 0.000000000000D+00 0.132048843968D-05 0.000000000000D+00  6 22 2 9900012 -13 1 21 2 0.62848884D-01 0.16758993D-01 0.61372272D+04 0.61372272D+04 0.61372272D+04 0.12319518D+01  1  2  4  1  6  2        2 -.942091396046D-05 0.100000000000D+01
-.154220105123D-04 0.000000000000D+00 -.301649667456D-05 0.132048843968D-05 0.000000000000D+00  6 22 2 9900012 -13 1 21 2 0.62848884D-01 0.18396627D-01 0.61372272D+04 0.61372272D+04 0.61372272D+04 0.12319518D+01  1  2  5  1  6  2        2 -.242091033860D-03 0.100000000000D+01
0.156482496904D-04 0.000000000000D+00 0.300343388472D-05 0.132048843968D-05 0.000000000000D+00  6 22 2 9900012 -13 1 21 2 0.62848884D-01 0.16758993D-01 0.61372272D+04 0.61372272D+04 0.61372272D+04 0.12319518D+01  1  2  6  1  6  2        2 0.273447213825D-03 0.100000000000D+01
0.141073315933D-06 0.000000000000D+00 0.000000000000D+00 0.132048843968D-05 0.000000000000D+00  6 22 21 9900012 -13 1 -2 2 0.62848884D-01 0.18424713D-01 0.71555209D+04 0.71555209D+04 0.71555209D+04 0.12247006D+01  1  2 12  3  6  2        2 0.164501983148D-04 0.100000000000D+01
-.226982063236D-06 0.000000000000D+00 -.461036223212D-07 0.132048843968D-05 0.000000000000D+00  6 22 21 9900012 -13 1 -2 2 0.62848884D-01 0.18396627D-01 0.61372272D+04 0.61372272D+04 0.61372272D+04 0.12319518D+01  1  2  5  3  6  2        2 -.266308330028D-04 0.100000000000D+01
  </mgrwgt>
  </event>
  <event>
  6     66 0.17293500E-05 0.62503015E+02 0.78161638E-02 0.11650044E+00
       22 -1    0    0    0    0 0.00000000E+00 0.00000000E+00 0.41550429E+02 0.41550429E+02 0.00000000E+00 0.0000E+00 0.9000E+01
        2 -1    0    0  501    0 -.00000000E+00 -.00000000E+00 -.46974747E+03 0.46974747E+03 0.00000000E+00 0.0000E+00 0.9000E+01
       24  2    1    2    0    0 -.63643965E+02 0.54619397E+02 -.55631700E+02 0.12940948E+03 0.81351668E+02 0.0000E+00 0.0000E+00
  9900012  1    3    3    0    0 -.72622670E+02 0.58528905E+02 -.45127939E+02 0.11504875E+03 0.50000000E+02 0.0000E+00 0.9000E+01
      -13  1    3    3    0    0 0.89787043E+01 -.39095080E+01 -.10503761E+02 0.14360724E+02 0.00000000E+00 0.0000E+00 0.9000E+01
        1  1    1    2  501    0 0.63643965E+02 -.54619397E+02 -.37256534E+03 0.38188842E+03 0.00000000E+00 0.0000E+00 0.9000E+01
#aMCatNLO 1  0  0  5  2 0.86467851D+01 0.00000000D+00  -5  6  0 0.00000000D+00 0.00000000D+00 0.00000000D+00 0.00000000D+00 0.00000000D+00
  <mgrwgt>
 0.1837246306D-03    8    2    0
 0.139707583043589D+03 0.000000000000000D+00 0.000000000000000D+00 0.139707583043589D+03
 0.139707583043589D+03 -.000000000000000D+00 -.000000000000000D+00 -.139707583043589D+03
 0.141368618913572D+03 -.726226695929386D+02 0.585289051538326D+02 0.937304728261796D+02
 0.101817248646856D+02 0.897870428965099D+01 -.390950799567262D+01 0.278677909618483D+01
 0.127864822308921D+03 0.636439653032876D+02 -.546193971581600D+02 -.965172519223644D+02
 0.000000000000000D+00 0.000000000000000D+00 0.000000000000000D+00 -.000000000000000D+00
 0.139707583043589D+03 0.000000000000000D+00 0.000000000000000D+00 0.139707583043589D+03
 0.139707583043589D+03 -.000000000000000D+00 -.000000000000000D+00 -.139707583043589D+03
 0.140128265719759D+03 -.719605374098503D+02 0.579606617939641D+02 0.927263371093603D+02
 0.102203218427393D+02 0.902669363682779D+01 -.395069256360958D+01 0.271400236253882D+01
 0.112595610761249D+03 0.620189751623672D+02 -.502049921262648D+02 -.794410287452899D+02
 0.164709677634316D+02 0.914868610655367D+00 -.380497710408966D+01 -.159993107266092D+02
0.429996970521D-06 0.000000000000D+00 0.000000000000D+00 0.798318363068D-06 0.000000000000D+00  6 22 2 9900012 -13 1 21 0 0.63923736D-02 0.72268842D-01 0.99490089D+04 0.99490089D+04 0.99490089D+04 0.12095601D+01  1  2  2  2  6  5        1 0.327431910434D-04 0.100000000000D+01
0.522961637544D-09 0.000000000000D+00 -.825650793803D-09 0.798318363068D-06 0.000000000000D+00  6 22 2 9900012 -13 1 21 2 0.63923736D-02 0.72268842D-01 0.99490089D+04 0.99490089D+04 0.99490089D+04 0.12095601D+01  1  2  3  2  6  5        1 0.582613230686D-07 0.100000000000D+01
-.768284623173D-07 0.000000000000D+00 0.000000000000D+00 0.798318363068D-06 0.000000000000D+00  6 22 2 9900012 -13 1 21 2 0.63923736D-02 0.72268842D-01 0.99490089D+04 0.99490089D+04 0.99490089D+04 0.12095601D+01  1  2 15  2  6  5        1 -.855918970453D-05 0.100000000000D+01
0.244345223651D-05 0.000000000000D+00 0.000000000000D+00 0.798318363068D-06 0.000000000000D+00  6 22 2 9900012 -13 1 21 2 0.63923736D-02 0.72268842D-01 0.98625113D+04 0.98625113D+04 0.98625113D+04 0.12099536D+01  1  2 12  2  6  5        1 0.272224970072D-03 0.100000000000D+01
-.134437705736D-05 0.000000000000D+00 0.000000000000D+00 0.798318363068D-06 0.000000000000D+00  6 22 2 9900012 -13 1 21 2 0.63923736D-02 0.72268842D-01 0.99490089D+04 0.99490089D+04 0.99490089D+04 0.12095601D+01  1  2  4  2  6  5        1 -.149772335945D-03 0.100000000000D+01
-.241634013081D-05 0.000000000000D+00 0.000000000000D+00 0.798318363068D-06 0.000000000000D+00  6 22 2 9900012 -13 1 21 2 0.63923736D-02 0.72268842D-01 0.99490089D+04 0.99490089D+04 0.99490089D+04 0.12095601D+01  1  2  5  2  6  5        1 -.269195984749D-03 0.100000000000D+01
0.274746068988D-05 0.000000000000D+00 -.000000000000D+00 0.798318363068D-06 0.000000000000D+00  6 22 2 9900012 -13 1 21 2 0.63923736D-02 0.72268842D-01 0.99490089D+04 0.99490089D+04 0.99490089D+04 0.12095601D+01  1  2  6  2  6  5        1 0.306084965665D-03 0.100000000000D+01
0.126337784423D-08 0.000000000000D+00 0.000000000000D+00 0.798318363068D-06 0.538802427890D-06  6 22 2 9900012 -13 1 21 2 0.63923736D-02 0.72268842D-01 0.98625113D+04 0.98625113D+04 0.98625113D+04 0.12099536D+01  1  2 11  2  6  5        1 0.140752903083D-06 0.100000000000D+01
  </mgrwgt>
  </event>
  <event>
  6     66 0.17293500E-05 0.11579279E+03 0.78161638E-02 0.10688061E+00
       22 -1    0    0    0    0 0.00000000E+00 0.00000000E+00 0.17329448E+02 0.17329448E+02 0.00000000E+00 0.0000E+00 0.9000E+01
        2 -1    0    0  501    0 0.00000000E+00 0.00000000E+00 -.17269835E+04 0.17269835E+04 0.00000000E+00 0.0000E+00 0.9000E+01
       24  2    1    2    0    0 -.18850745E+00 -.16293087E+03 -.94007830E+03 0.95767876E+03 0.82794298E+02 0.0000E+00 0.0000E+00
  9900012  1    3    3    0    0 0.19128174E+02 -.12862718E+03 -.80550894E+03 0.81746896E+03 0.50000000E+02 0.0000E+00 0.9000E+01
      -13  1    3    3    0    0 -.19316681E+02 -.34303693E+02 -.13456936E+03 0.14020981E+03 0.00000000E+00 0.0000E+00 0.9000E+01
        1  1    1    2  501    0 0.18850745E+00 0.16293087E+03 -.76957578E+03 0.78663421E+03 0.00000000E+00 0.0000E+00 0.9000E+01
#aMCatNLO 1  0  0  2  5 0.23349705D+02 0.00000000D+00  -5  6  0 0.00000000D+00 0.00000000D+00 0.00000000D+00 0.00000000D+00 0.00000000D+00
  <mgrwgt>
 0.4953538846D-04    9    2    0
 0.172996157390838D+03 0.000000000000000D+00 0.000000000000000D+00 0.172996157390838D+03
 0.172996157390838D+03 0.000000000000000D+00 0.000000000000000D+00 -.172996157390838D+03
 0.140985956711980D+03 0.191281739956719D+02 -.128627179567663D+03 -.215917027131160D+02
 0.419163394372707D+02 -.193166814505453D+02 -.343036925424513D+02 0.143910391393961D+02
 0.163090018632426D+03 0.188507454873316D+00 0.162930872110115D+03 0.720066357371982D+01
 0.000000000000000D+00 -.000000000000000D+00 -.000000000000000D+00 -.000000000000000D+00
 0.177634984736580D+03 0.000000000000000D+00 0.000000000000000D+00 0.177634984736580D+03
 0.200135655299560D+03 0.000000000000000D+00 0.000000000000000D+00 -.200135655299560D+03
 0.141942169554312D+03 0.278874684468733D+02 -.128076801081844D+03 -.215917027131160D+02
 0.406662776882040D+02 -.167599704246785D+02 -.341430450438503D+02 0.143910391393961D+02
 0.164050385429680D+03 0.103165889711236D+02 0.163567256490184D+03 0.720066357371982D+01
 0.311118073639432D+02 -.214440869933184D+02 -.134741036448998D+01 -.225006705629804D+02
0.533729405406D-06 0.000000000000D+00 0.000000000000D+00 0.263364630150D-07 0.000000000000D+00  6 22 2 9900012 -13 1 21 0 0.26660689D-02 0.26568977D+00 0.29176440D+05 0.29176440D+05 0.29176440D+05 0.11638988D+01  1  2  2  1  6  2        2 0.245019594574D-04 0.100000000000D+01
-.254096442020D-07 0.000000000000D+00 -.102483072547D-08 0.263364630150D-07 0.000000000000D+00  6 22 2 9900012 -13 1 21 2 0.26660689D-02 0.26568977D+00 0.29176440D+05 0.29176440D+05 0.29176440D+05 0.11638988D+01  1  2  3  1  6  2        2 -.158018780316D-05 0.100000000000D+01
-.650142458383D-07 0.000000000000D+00 0.000000000000D+00 0.263364630150D-07 0.000000000000D+00  6 22 2 9900012 -13 1 21 2 0.26660689D-02 0.26568977D+00 0.29176440D+05 0.29176440D+05 0.29176440D+05 0.11638988D+01  1  2 15  1  6  2        2 -.404313879757D-05 0.100000000000D+01
0.110983947654D-05 0.000000000000D+00 0.000000000000D+00 0.263364630150D-07 0.000000000000D+00  6 22 2 9900012 -13 1 21 2 0.26660689D-02 0.31561301D+00 0.33070107D+05 0.33070107D+05 0.33070107D+05 0.11589225D+01  1  2 12  1  6  2        2 0.462910251326D-04 0.100000000000D+01
-.911342077291D-06 0.000000000000D+00 0.000000000000D+00 0.263364630150D-07 0.000000000000D+00  6 22 2 9900012 -13 1 21 2 0.26660689D-02 0.26568977D+00 0.29176440D+05 0.29176440D+05 0.29176440D+05 0.11638988D+01  1  2  4  1  6  2        2 -.566750019637D-04 0.100000000000D+01
-.212382581143D-05 0.000000000000D+00 -.339834391536D-06 0.263364630150D-07 0.000000000000D+00  6 22 2 9900012 -13 1 21 2 0.26660689D-02 0.31046298D+00 0.29176440D+05 0.29176440D+05 0.29176440D+05 0.11638988D+01  1  2  5  1  6  2        2 -.927245029769D-04 0.100000000000D+01
0.215464815253D-05 0.000000000000D+00 0.335754547086D-06 0.263364630150D-07 0.000000000000D+00  6 22 2 9900012 -13 1 21 2 0.26660689D-02 0.26568977D+00 0.29176440D+05 0.29176440D+05 0.29176440D+05 0.11638988D+01  1  2  6  1  6  2        2 0.133994348904D-03 0.100000000000D+01
0.282677772820D-07 0.000000000000D+00 0.000000000000D+00 0.263364630150D-07 0.000000000000D+00  6 22 21 9900012 -13 1 -2 2 0.26660689D-02 0.31561301D+00 0.33070107D+05 0.33070107D+05 0.33070107D+05 0.11589225D+01  1  2 12  3  6  2        2 0.280053742588D-06 0.100000000000D+01
-.474128109289D-07 0.000000000000D+00 -.799020178791D-08 0.263364630150D-07 0.000000000000D+00  6 22 21 9900012 -13 1 -2 2 0.26660689D-02 0.31046298D+00 0.29176440D+05 0.29176440D+05 0.29176440D+05 0.11638988D+01  1  2  5  3  6  2        2 -.509167239231D-06 0.100000000000D+01
  </mgrwgt>
  </event>
  <event>
  6     66 0.17293500E-05 0.67691031E+02 0.78161638E-02 0.11650147E+00
       22 -1    0    0    0    0 0.00000000E+00 0.00000000E+00 0.23374188E+02 0.23374188E+02 0.00000000E+00 0.0000E+00 0.9000E+01
        2 -1    0    0  501    0 0.00000000E+00 0.00000000E+00 -.16278304E+04 0.16278304E+04 0.00000000E+00 0.0000E+00 0.9000E+01
       24  2    1    2    0    0 0.46719004E+02 0.48983777E+02 -.10941236E+03 0.15462910E+03 0.85773060E+02 0.0000E+00 0.0000E+00
  9900012  1    3    3    0    0 0.19929772E+02 0.39299522E+01 -.73096713E+02 0.90861267E+02 0.50000000E+02 0.0000E+00 0.9000E+01
      -13  1    3    3    0    0 0.26789232E+02 0.45053825E+02 -.36315645E+02 0.63767830E+02 0.00000000E+00 0.0000E+00 0.9000E+01
        1  1    1    2  501    0 -.46719004E+02 -.48983777E+02 -.14950439E+04 0.14965755E+04 0.00000000E+00 0.0000E+00 0.9000E+01
#aMCatNLO 1  0  0  2  5 0.69111993D+02 0.00000000D+00  -5  6  0 0.00000000D+00 0.00000000D+00 0.00000000D+00 0.00000000D+00 0.00000000D+00
  <mgrwgt>
 0.1660800290D-03    4    2    0
 0.195062079289734D+03 0.000000000000000D+00 0.000000000000000D+00 0.195062079289734D+03
 0.195062079289734D+03 0.000000000000000D+00 0.000000000000000D+00 -.195062079289734D+03
 0.839478029237895D+02 0.199297721714345D+02 0.392995216885782D+01 0.643008030500133D+02
 0.120543348601438D+03 0.267892317656952D+02 0.450538248325830D+02 0.108550397610542D+03
 0.185633007054241D+03 -.467190039371297D+02 -.489837770014409D+02 -.172851200660555D+03
 0.000000000000000D+00 -.000000000000000D+00 0.000000000000000D+00 0.000000000000000D+00
 0.229995515598123D+03 0.000000000000000D+00 0.000000000000000D+00 0.229995515598123D+03
 0.200015584052981D+03 0.000000000000000D+00 0.000000000000000D+00 -.200015584052981D+03
 0.853582494611759D+02 0.253186868286739D+02 0.322514735651977D+01 0.643008030500133D+02
 0.122123665254698D+03 0.345131838003478D+02 0.440436253934477D+02 0.108550397610542D+03
 0.183447073986773D+03 -.349713963920988D+02 -.505202218809443D+02 -.172851200660555D+03
 0.390821109484566D+02 -.248604742369228D+02 0.325144913097684D+01 0.299799315451426D+02
0.655456557096D-05 0.000000000000D+00 0.000000000000D+00 0.630114769738D-06 0.000000000000D+00  6 22 2 9900012 -13 1 21 0 0.35960289D-02 0.25043545D+00 0.75756666D+04 0.75756666D+04 0.75756666D+04 0.12220381D+01  1  2  2  1  6  2        2 0.212659089636D-03 0.100000000000D+01
0.154553816736D-06 0.000000000000D+00 -.125856288246D-07 0.630114769738D-06 0.000000000000D+00  6 22 2 9900012 -13 1 21 2 0.35960289D-02 0.25043545D+00 0.75756666D+04 0.75756666D+04 0.75756666D+04 0.12220381D+01  1  2  3  1  6  2        2 0.748840336756D-05 0.100000000000D+01
-.106378606010D-05 0.000000000000D+00 0.000000000000D+00 0.630114769738D-06 0.000000000000D+00  6 22 2 9900012 -13 1 21 2 0.35960289D-02 0.25043545D+00 0.75756666D+04 0.75756666D+04 0.75756666D+04 0.12220381D+01  1  2 15  1  6  2        2 -.515422995242D-04 0.100000000000D+01
-.521170912499D-07 0.000000000000D+00 0.000000000000D+00 0.630114769738D-06 0.000000000000D+00  6 22 2 9900012 -13 1 21 2 0.35960289D-02 0.25043545D+00 0.75756666D+04 0.75756666D+04 0.75756666D+04 0.12220381D+01  1  2  4  1  6  2        2 -.252516443700D-05 0.100000000000D+01
  </mgrwgt>
  </event>
  <event>
  7     66 0.17293500E-05 0.66216955E+02 0.78161638E-02 0.11772934E+00
       22 -1    0    0    0    0 0.00000000E+00 0.00000000E+00 0.27795373E+03 0.27795373E+03 0.00000000E+00 0.0000E+00 0.9000E+01
        2 -1    0    0  501    0 -.00000000E+00 -.00000000E+00 -.21776438E+04 0.21776438E+04 0.00000000E+00 0.0000E+00 0.9000E+01
       24  2    1    2    0    0 -.77224378E+02 -.25700394E+01 0.26610599E+03 0.28827318E+03 0.79491016E+02 0.0000E+00 0.0000E+00
  9900012  1    3    3    0    0 -.44643242E+02 -.19932181E+02 0.13458474E+03 0.15166859E+03 0.50000000E+02 0.0000E+00 0.9000E+01
      -13  1    3    3    0    0 -.32581136E+02 0.17362141E+02 0.13152125E+03 0.13660459E+03 0.00000000E+00 0.0000E+00 0.9000E+01
        1  1    1    2  502    0 0.44192584E+02 -.49455676E+01 -.92801625E+03 0.92908105E+03 0.00000000E+00 0.0000E+00 0.9000E+01
       21  1    1    2  501  502 0.33031794E+02 0.75156069E+01 -.12377798E+04 0.12382433E+04 0.00000000E+00 0.0000E+00 0.9000E+01
#aMCatNLO 2  0  0  5  2 0.12639132D+02 0.00000000D+00  -5  6  0 0.00000000D+00 0.00000000D+00 0.00000000D+00 0.00000000D+00 0.00000000D+00
  <mgrwgt>
 0.2620936736D-02    2    2    0
 0.778000138733361D+03 0.000000000000000D+00 0.000000000000000D+00 0.778000138733361D+03
 0.778000138733361D+03 -.000000000000000D+00 -.000000000000000D+00 -.778000138733361D+03
 0.403775285106218D+03 -.446540946770463D+02 -.199325418398661D+02 0.397672209824855D+03
 0.376255322928108D+03 -.325912495692435D+02 0.173618047291311D+02 0.374438841761639D+03
 0.775969669432396D+03 0.772453442462898D+02 0.257073711073496D+01 -.772111051586494D+03
 0.000000000000000D+00 0.000000000000000D+00 0.000000000000000D+00 -.000000000000000D+00
 0.778000138733361D+03 0.000000000000000D+00 0.000000000000000D+00 0.778000138733361D+03
 0.778000138733361D+03 -.000000000000000D+00 -.000000000000000D+00 -.778000138733361D+03
 0.403667226485298D+03 -.446432418162667D+02 -.199321806549657D+02 0.397563729322489D+03
 0.376153863783624D+03 -.325811364131545D+02 0.173621412965439D+02 0.374337755027429D+03
 0.333229940149909D+03 0.441925839468545D+02 -.494556755729142D+01 -.330249526718735D+03
 0.442949247047891D+03 0.330317942825666D+02 0.751560691571322D+01 -.441651957631183D+03
-.875962913445D-02 0.000000000000D+00 0.000000000000D+00 0.312500537150D-02 0.000000000000D+00  6 22 2 9900012 -13 1 21 2 0.42762112D-01 0.33502213D+00 0.85741764D+04 0.85741764D+04 0.85741764D+04 0.12163184D+01  1  2 13  2  6  5        1 -.601749334187D-02 0.100000000000D+01
0.125749110942D-01 0.000000000000D+00 0.000000000000D+00 0.312500537150D-02 0.665808193205D-04  6 22 2 9900012 -13 1 21 2 0.42762112D-01 0.33502213D+00 0.85741764D+04 0.85741764D+04 0.85741764D+04 0.12163184D+01  1  2  1  2  6  5        1 0.863843007761D-02 0.100000000000D+01
  </mgrwgt>
  </event>
  <event>
  6     66 0.17293500E-05 0.46164880E+02 0.78161638E-02 0.10772733E+00
       22 -1    0    0    0    0 0.00000000E+00 0.00000000E+00 0.80197484E+03 0.80197484E+03 0.00000000E+00 0.0000E+00 0.9000E+01
        2 -1    0    0  501    0 0.00000000E+00 0.00000000E+00 -.39827136E+03 0.39827136E+03 0.00000000E+00 0.0000E+00 0.9000E+01
       24  2    1    2    0    0 -.36687951E+02 -.13580014E+03 0.78072791E+03 0.79783459E+03 0.84948698E+02 0.0000E+00 0.0000E+00
  9900012  1    3    3    0    0 -.16892165E+02 -.99682468E+02 0.42433301E+03 0.43906770E+03 0.50000000E+02 0.0000E+00 0.9000E+01
      -13  1    3    3    0    0 -.19795786E+02 -.36117677E+02 0.35639490E+03 0.35876689E+03 0.00000000E+00 0.0000E+00 0.9000E+01
        1  1    1    2  501    0 0.36687951E+02 0.13580014E+03 -.37702443E+03 0.40241161E+03 0.00000000E+00 0.0000E+00 0.9000E+01
#aMCatNLO 1  0  0  5  2 0.57261056D+02 0.00000000D+00  -5  6  0 0.00000000D+00 0.00000000D+00 0.00000000D+00 0.00000000D+00 0.00000000D+00
  <mgrwgt>
 0.3091189202D-03    7    2    0
 0.565158042351970D+03 0.000000000000000D+00 0.000000000000000D+00 0.565158042351970D+03
 0.565158042351970D+03 -.000000000000000D+00 -.000000000000000D+00 -.565158042351970D+03
 0.314677134241366D+03 -.168921648972921D+02 -.996824675378481D+02 0.293768206661319D+03
 0.253673060012848D+03 -.197957863283462D+02 -.361176774062603D+02 0.250307134534160D+03
 0.561965890449725D+03 0.366879512256383D+02 0.135800144944109D+03 -.544075341195479D+03
 0.000000000000000D+00 0.000000000000000D+00 0.000000000000000D+00 -.000000000000000D+00
 0.565158042351970D+03 0.000000000000000D+00 0.000000000000000D+00 0.565158042351970D+03
 0.565158042351970D+03 -.000000000000000D+00 -.000000000000000D+00 -.565158042351970D+03
 0.310068747727986D+03 -.165863045486955D+02 -.985503280128957D+02 0.289232355844864D+03
 0.249916478239307D+03 -.195492411710834D+02 -.352050925664682D+02 0.246650916727588D+03
 0.443024335461643D+03 0.849959256311941D+02 0.103094629902265D+03 -.422395255326859D+03
 0.127306523275003D+03 -.488603799114152D+02 0.306607906770988D+02 -.113488017245593D+03
0.752914835137D-04 0.000000000000D+00 0.000000000000D+00 0.109051305651D-04 0.000000000000D+00  6 22 2 9900012 -13 1 21 0 0.12338074D+00 0.61272517D-01 0.21704239D+05 0.21704239D+05 0.21704239D+05 0.11759252D+01  1  2  2  2  6  5        1 0.623686554586D-04 0.100000000000D+01
0.629580569835D-06 0.000000000000D+00 -.144569560698D-06 0.109051305651D-04 0.000000000000D+00  6 22 2 9900012 -13 1 21 2 0.12338074D+00 0.61272517D-01 0.21704239D+05 0.21704239D+05 0.21704239D+05 0.11759252D+01  1  2  3  2  6  5        1 0.721159367588D-06 0.100000000000D+01
-.114833816067D-04 0.000000000000D+00 0.000000000000D+00 0.109051305651D-04 0.000000000000D+00  6 22 2 9900012 -13 1 21 2 0.12338074D+00 0.61272517D-01 0.21704239D+05 0.21704239D+05 0.21704239D+05 0.11759252D+01  1  2 15  2  6  5        1 -.131537544423D-04 0.100000000000D+01
0.197399878535D-03 0.000000000000D+00 0.000000000000D+00 0.109051305651D-04 0.000000000000D+00  6 22 2 9900012 -13 1 21 2 0.12338074D+00 0.61272517D-01 0.29466025D+05 0.29466025D+05 0.29466025D+05 0.11635040D+01  1  2 12  2  6  5        1 0.223625440514D-03 0.100000000000D+01
-.283067275646D-04 0.000000000000D+00 0.000000000000D+00 0.109051305651D-04 0.000000000000D+00  6 22 2 9900012 -13 1 21 2 0.12338074D+00 0.61272517D-01 0.21704239D+05 0.21704239D+05 0.21704239D+05 0.11759252D+01  1  2  4  2  6  5        1 -.324242245187D-04 0.100000000000D+01
-.236097892612D-03 0.000000000000D+00 0.000000000000D+00 0.109051305651D-04 0.000000000000D+00  6 22 2 9900012 -13 1 21 2 0.12338074D+00 0.61272517D-01 0.21704239D+05 0.21704239D+05 0.21704239D+05 0.11759252D+01  1  2  5  2  6  5        1 -.270440695096D-03 0.100000000000D+01
0.295446663502D-03 0.000000000000D+00 -.000000000000D+00 0.109051305651D-04 0.000000000000D+00  6 22 2 9900012 -13 1 21 2 0.12338074D+00 0.61272517D-01 0.21704239D+05 0.21704239D+05 0.21704239D+05 0.11759252D+01  1  2  6  2  6  5        1 0.338422338960D-03 0.100000000000D+01
  </mgrwgt>
  </event>
  <event>
  6     66 0.17293500E-05 0.43023155E+02 0.78161638E-02 0.12518345E+00
       22 -1    0    0    0    0 0.00000000E+00 0.00000000E+00 0.33936018E+03 0.33936018E+03 0.00000000E+00 0.0000E+00 0.9000E+01
        2 -1    0    0  501    0 0.00000000E+00 0.00000000E+00 -.33101526E+02 0.33101526E+02 0.00000000E+00 0.0000E+00 0.9000E+01
       24  2    1    2    0    0 -.39200352E+02 0.17729194E+02 0.31531232E+03 0.32849626E+03 0.81467393E+02 0.0000E+00 0.0000E+00
  9900012  1    3    3    0    0 -.48564016E+02 0.23107829E+02 0.20685497E+03 0.21950265E+03 0.50000000E+02 0.0000E+00 0.9000E+01
      -13  1    3    3    0    0 0.93636643E+01 -.53786356E+01 0.10845736E+03 0.10899361E+03 0.00000000E+00 0.0000E+00 0.9000E+01
        1  1    1    2  501    0 0.39200352E+02 -.17729194E+02 -.90536704E+01 0.43965451E+02 0.00000000E+00 0.0000E+00 0.9000E+01
#aMCatNLO 1  0  0  5  2 0.22639943D+02 0.00000000D+00  -5  6  0 0.00000000D+00 0.00000000D+00 0.00000000D+00 0.00000000D+00 0.00000000D+00
  <mgrwgt>
 0.7559741563D-04    5    2    0
 0.105987451361150D+03 0.000000000000000D+00 0.000000000000000D+00 0.105987451361150D+03
 0.105987451361150D+03 -.000000000000000D+00 -.000000000000000D+00 -.105987451361150D+03
 0.868272941554325D+02 -.485640161265440D+02 0.231078293738378D+02 0.463308058384955D+02
 0.348151616815429D+02 0.936366433980938D+01 -.537863563691372D+01 0.330981502765438D+02
 0.903324468853245D+02 0.392003517867346D+02 -.177291937369241D+02 -.794289561150393D+02
 0.000000000000000D+00 0.000000000000000D+00 0.000000000000000D+00 0.000000000000000D+00
 0.105987451361150D+03 0.000000000000000D+00 0.000000000000000D+00 0.105987451361150D+03
 0.105987451361150D+03 -.000000000000000D+00 -.000000000000000D+00 -.105987451361150D+03
 0.789236287886359D+02 -.439024537928839D+02 0.209995385559433D+02 0.368854051430582D+02
 0.319870211046149D+02 0.112424022288727D+02 -.622833484872984D+01 0.292913938945113D+02
 0.879861682885841D+02 0.356721461805950D+02 -.158141845106808D+02 -.788604803766719D+02
 0.130780845404650D+02 -.301209461658375D+01 0.104298080346738D+01 0.126836813391024D+02
0.777258354317D-06 0.000000000000D+00 0.000000000000D+00 0.536397233724D-06 0.000000000000D+00  6 22 2 9900012 -13 1 21 0 0.52209259D-01 0.50925425D-02 0.40484508D+04 0.40484508D+04 0.40484508D+04 0.12523025D+01  1  2  2  2  6  5        1 0.507282616779D-04 0.100000000000D+01
0.192755708966D-07 0.000000000000D+00 -.149243836870D-08 0.536397233724D-06 0.000000000000D+00  6 22 2 9900012 -13 1 21 2 0.52209259D-01 0.50925425D-02 0.40484508D+04 0.40484508D+04 0.40484508D+04 0.12523025D+01  1  2  3  2  6  5        1 0.197292383902D-05 0.100000000000D+01
-.132076205342D-06 0.000000000000D+00 0.000000000000D+00 0.536397233724D-06 0.000000000000D+00  6 22 2 9900012 -13 1 21 2 0.52209259D-01 0.50925425D-02 0.40484508D+04 0.40484508D+04 0.40484508D+04 0.12523025D+01  1  2 15  2  6  5        1 -.135184734856D-04 0.100000000000D+01
0.369944681014D-06 0.000000000000D+00 0.000000000000D+00 0.536397233724D-06 0.000000000000D+00  6 22 2 9900012 -13 1 21 2 0.52209259D-01 0.50925425D-02 0.38959000D+04 0.38959000D+04 0.38959000D+04 0.12542335D+01  1  2 12  2  6  5        1 0.378341171576D-04 0.100000000000D+01
-.138677460151D-07 0.000000000000D+00 0.000000000000D+00 0.536397233724D-06 0.000000000000D+00  6 22 2 9900012 -13 1 21 2 0.52209259D-01 0.50925425D-02 0.40484508D+04 0.40484508D+04 0.40484508D+04 0.12523025D+01  1  2  4  2  6  5        1 -.141941355996D-05 0.100000000000D+01
  </mgrwgt>
  </event>
  <event>
  6     66 0.17293500E-05 0.10377960E+03 0.78161638E-02 0.10584701E+00
       22 -1    0    0    0    0 0.00000000E+00 0.00000000E+00 0.80217696E+02 0.80217696E+02 0.00000000E+00 0.0000E+00 0.9000E+01
        2 -1    0    0  501    0 -.00000000E+00 -.00000000E+00 -.13521613E+04 0.13521613E+04 0.00000000E+00 0.0000E+00 0.9000E+01
       24  2    1    2    0    0 0.19777568E+03 0.52161993E+02 -.91065575E+02 0.23391789E+03 0.67738814E+02 0.0000E+00 0.0000E+00
  9900012  1    3    3    0    0 0.16561966E+03 0.52510797E+02 -.63692014E+02 0.19168706E+03 0.50000000E+02 0.0000E+00 0.9000E+01
      -13  1    3    3    0    0 0.32156022E+02 -.34880392E+00 -.27373561E+02 0.42230833E+02 0.00000000E+00 0.0000E+00 0.9000E+01
        1  1    1    2  501    0 -.19777568E+03 -.52161993E+02 -.11808780E+04 0.11984611E+04 0.00000000E+00 0.0000E+00 0.9000E+01
#aMCatNLO 1  0  0  5  2 0.85035347D+02 0.00000000D+00  -5  6  0 0.00000000D+00 0.00000000D+00 0.00000000D+00 0.00000000D+00 0.00000000D+00
  <mgrwgt>
 0.1010644088D-03    7    2    0
 0.329343686034912D+03 0.000000000000000D+00 0.000000000000000D+00 0.329343686034912D+03
 0.329343686034912D+03 -.000000000000000D+00 -.000000000000000D+00 -.329343686034912D+03
 0.293850886052734D+03 0.165619662143942D+03 0.525107967655234D+02 0.231648628246215D+03
 0.389758991579158D+02 0.321560222333603D+02 -.348803921532220D+00 0.220224722753823D+02
 0.325860586859174D+03 -.197775684377302D+03 -.521619928439911D+02 -.253671100521597D+03
 0.000000000000000D+00 -.000000000000000D+00 0.000000000000000D+00 0.000000000000000D+00
 0.329343686034912D+03 0.000000000000000D+00 0.000000000000000D+00 0.329343686034912D+03
 0.329343686034912D+03 -.000000000000000D+00 -.000000000000000D+00 -.329343686034912D+03
 0.270745784851847D+03 0.151354128526080D+03 0.487483592098982D+02 0.213351365750248D+03
 0.360582361523110D+02 0.302601520752167D+02 -.848826793067660D+00 0.195907907925116D+02
 0.245496327474201D+03 -.753437403723816D+02 -.444149116048920D+02 -.229388498441289D+03
 0.106387023591464D+03 -.106270540228915D+03 -.348462081193848D+01 -.355365810147131D+01
0.785330969158D-05 0.000000000000D+00 0.000000000000D+00 0.457985038658D-07 0.000000000000D+00  6 22 2 9900012 -13 1 21 0 0.12341184D-01 0.20802481D+00 0.43575065D+05 0.43575065D+05 0.43575065D+05 0.11481919D+01  1  2  2  2  6  5        1 0.666483168948D-04 0.100000000000D+01
-.410988350620D-07 0.000000000000D+00 -.150793885198D-07 0.457985038658D-07 0.000000000000D+00  6 22 2 9900012 -13 1 21 2 0.12341184D-01 0.20802481D+00 0.43575065D+05 0.43575065D+05 0.43575065D+05 0.11481919D+01  1  2  3  2  6  5        1 -.459827498658D-06 0.100000000000D+01
-.128400933685D-05 0.000000000000D+00 0.000000000000D+00 0.457985038658D-07 0.000000000000D+00  6 22 2 9900012 -13 1 21 2 0.12341184D-01 0.20802481D+00 0.43575065D+05 0.43575065D+05 0.43575065D+05 0.11481919D+01  1  2 15  2  6  5        1 -.143659254751D-04 0.100000000000D+01
0.357905207778D-05 0.000000000000D+00 0.000000000000D+00 0.457985038658D-07 0.000000000000D+00  6 22 2 9900012 -13 1 21 2 0.12341184D-01 0.20802481D+00 0.38170825D+05 0.38170825D+05 0.38170825D+05 0.11533051D+01  1  2 12  2  6  5        1 0.402561090653D-04 0.100000000000D+01
-.689022154825D-06 0.000000000000D+00 0.000000000000D+00 0.457985038658D-07 0.000000000000D+00  6 22 2 9900012 -13 1 21 2 0.12341184D-01 0.20802481D+00 0.43575065D+05 0.43575065D+05 0.43575065D+05 0.11481919D+01  1  2  4  2  6  5        1 -.770901008497D-05 0.100000000000D+01
-.396990637586D-05 0.000000000000D+00 0.000000000000D+00 0.457985038658D-07 0.000000000000D+00  6 22 2 9900012 -13 1 21 2 0.12341184D-01 0.20802481D+00 0.43575065D+05 0.43575065D+05 0.43575065D+05 0.11481919D+01  1  2  5  2  6  5        1 -.444166389622D-04 0.100000000000D+01
0.546206291170D-05 0.000000000000D+00 -.000000000000D+00 0.457985038658D-07 0.000000000000D+00  6 22 2 9900012 -13 1 21 2 0.12341184D-01 0.20802481D+00 0.43575065D+05 0.43575065D+05 0.43575065D+05 0.11481919D+01  1  2  6  2  6  5        1 0.611113848461D-04 0.100000000000D+01
  </mgrwgt>
  </event>
  <event>
  6     66 0.17293500E-05 0.34348685E+03 0.78161638E-02 0.92535562E-01
       22 -1    0    0    0    0 0.00000000E+00 0.00000000E+00 0.68561694E+03 0.68561694E+03 0.00000000E+00 0.0000E+00 0.9000E+01
        2 -1    0    0  501    0 0.00000000E+00 0.00000000E+00 -.68292165E+03 0.68292165E+03 0.00000000E+00 0.0000E+00 0.9000E+01
       24  2    1    2    0    0 0.16185575E+03 -.30296194E+03 0.59043856E+03 0.68778505E+03 0.80295503E+02 0.0000E+00 0.0000E+00
  9900012  1    3    3    0    0 0.82980314E+02 -.18147005E+03 0.38348870E+03 0.43517892E+03 0.50000000E+02 0.0000E+00 0.9000E+01
      -13  1    3    3    0    0 0.78875435E+02 -.12149188E+03 0.20694986E+03 0.25260613E+03 0.00000000E+00 0.0000E+00 0.9000E+01
        1  1    1    2  501    0 -.16185575E+03 0.30296194E+03 -.58774327E+03 0.68075353E+03 0.00000000E+00 0.0000E+00 0.9000E+01
#aMCatNLO 1  0  0  2  5 0.95668578D+03 0.00000000D+00  -5  6  0 0.00000000D+00 0.00000000D+00 0.00000000D+00 0.00000000D+00 0.00000000D+00
  <mgrwgt>
 0.5576295829D-04    3    2    0
 0.684267964513835D+03 0.000000000000000D+00 0.000000000000000D+00 0.684267964513835D+03
 0.684267964513835D+03 0.000000000000000D+00 0.000000000000000D+00 -.684267964513835D+03
 0.434424499628266D+03 0.829803144118409D+02 -.181470052085214D+03 0.382632373817965D+03
 0.252199036154436D+03 0.788754348707126D+02 -.121491884424814D+03 0.206452758833807D+03
 0.681912393244967D+03 -.161855749282553D+03 0.302961936510028D+03 -.589085132651772D+03
 0.000000000000000D+00 -.000000000000000D+00 0.000000000000000D+00 0.000000000000000D+00
 0.125960678389928D+04 0.000000000000000D+00 0.000000000000000D+00 0.125960678389928D+04
 0.791323267232941D+03 0.000000000000000D+00 0.000000000000000D+00 -.791323267232941D+03
 0.510762731250680D+03 0.174172770869060D+03 -.285718182881100D+03 0.382632373817965D+03
 0.306209370297427D+03 0.132751146081234D+03 -.183080774637796D+03 0.206452758833807D+03
 0.611627379077882D+03 -.370539475765162D+02 0.160292739371813D+03 -.589085132651772D+03
 0.622330570506228D+03 -.269869969373778D+03 0.308506218147082D+03 0.468283516666334D+03
0.109195630202D-03 0.000000000000D+00 0.000000000000D+00 0.137921544299D-04 0.000000000000D+00  6 22 2 9900012 -13 1 21 0 0.10547953D+00 0.10506487D+00 0.12042579D+06 0.12042579D+06 0.12042579D+06 0.11111302D+01  1  2  2  1  6  2        2 0.712153053879D-04 0.100000000000D+01
-.511086054638D-07 0.000000000000D+00 -.209669985924D-06 0.137921544299D-04 0.000000000000D+00  6 22 2 9900012 -13 1 21 2 0.10547953D+00 0.10506487D+00 0.12042579D+06 0.12042579D+06 0.12042579D+06 0.11111302D+01  1  2  3  1  6  2        2 -.411521040618D-07 0.100000000000D+01
-.191398399282D-04 0.000000000000D+00 0.000000000000D+00 0.137921544299D-04 0.000000000000D+00  6 22 2 9900012 -13 1 21 2 0.10547953D+00 0.10506487D+00 0.12042579D+06 0.12042579D+06 0.12042579D+06 0.11111302D+01  1  2 15  1  6  2        2 -.154111949896D-04 0.100000000000D+01
  </mgrwgt>
  </event>
  <event>
  6     66 0.17293500E-05 0.45351422E+02 0.78161638E-02 0.11148177E+00
       22 -1    0    0    0    0 0.00000000E+00 0.00000000E+00 0.23069200E+04 0.23069200E+04 0.00000000E+00 0.0000E+00 0.9000E+01
        2 -1    0    0  501    0 0.00000000E+00 0.00000000E+00 -.32507376E+01 0.32507376E+01 0.00000000E+00 0.0000E+00 0.9000E+01
       24  2    1    2    0    0 0.45159703E+02 0.41656648E+01 0.20812708E+04 0.20831953E+04 0.77187842E+02 0.0000E+00 0.0000E+00
  9900012  1    3    3    0    0 0.57543697E+02 0.66927755E+01 0.18456905E+04 0.18472762E+04 0.50000000E+02 0.0000E+00 0.9000E+01
      -13  1    3    3    0    0 -.12383995E+02 -.25271107E+01 0.23558033E+03 0.23591914E+03 0.00000000E+00 0.0000E+00 0.9000E+01
        1  1    1    2  501    0 -.45159703E+02 -.41656648E+01 0.22239847E+03 0.22697540E+03 0.00000000E+00 0.0000E+00 0.9000E+01
#aMCatNLO 1  0  0  2  2 0.12103152D+03 0.00000000D+00  -5  6  0 0.00000000D+00 0.00000000D+00 0.00000000D+00 0.00000000D+00 0.00000000D+00
  <mgrwgt>
 0.7188460834D-04    5    2    0
 0.865978725638485D+02 0.000000000000000D+00 0.000000000000000D+00 0.865978725638485D+02
 0.865978725638485D+02 0.000000000000000D+00 0.000000000000000D+00 -.865978725638485D+02
 0.904354300048168D+02 0.575436971143596D+02 0.669277552639151D+01 0.481922885773264D+02
 0.133625273794033D+02 -.123839945484065D+02 -.252711068719381D+01 0.433676475785944D+01
 0.693977877434769D+02 -.451597025659531D+02 -.416566483919771D+01 -.525290533351858D+02
 0.000000000000000D+00 -.000000000000000D+00 0.000000000000000D+00 -.000000000000000D+00
 0.116299836246877D+03 0.000000000000000D+00 0.000000000000000D+00 0.116299836246877D+03
 0.344500500980574D+03 0.000000000000000D+00 0.000000000000000D+00 -.344500500980574D+03
 0.143851449505328D+03 0.125878660040138D+03 -.503048635451171D+01 0.481922885773264D+02
 0.828731423046137D+01 -.606933823110714D+01 -.361042684814651D+01 0.433676475785944D+01
 0.543044158407681D+02 -.907921221395068D+01 -.103554836241635D+02 -.525290533351858D+02
 0.254357157650893D+03 -.110730109595081D+03 0.189963968268217D+02 -.228200664733696D+03
0.653548523515D-05 0.000000000000D+00 0.000000000000D+00 0.120226367004D-06 0.000000000000D+00  6 22 2 9900012 -13 1 21 0 0.35491077D+00 0.50011347D-03 0.45236114D+04 0.45236114D+04 0.45236114D+04 0.12467731D+01  1  2  2  1  6  2        2 0.117467914736D-03 0.100000000000D+01
0.909486038685D-07 0.000000000000D+00 -.125489920679D-07 0.120226367004D-06 0.000000000000D+00  6 22 2 9900012 -13 1 21 2 0.35491077D+00 0.50011347D-03 0.45236114D+04 0.45236114D+04 0.45236114D+04 0.12467731D+01  1  2  3  1  6  2        2 0.254104479476D-05 0.100000000000D+01
-.107425539502D-05 0.000000000000D+00 0.000000000000D+00 0.120226367004D-06 0.000000000000D+00  6 22 2 9900012 -13 1 21 2 0.35491077D+00 0.50011347D-03 0.45236114D+04 0.45236114D+04 0.45236114D+04 0.12467731D+01  1  2 15  1  6  2        2 -.300139965174D-04 0.100000000000D+01
-.979367301772D-06 0.000000000000D+00 -.296285830262D-05 0.120226367004D-06 0.000000000000D+00  6 22 2 9900012 -13 1 21 2 0.35491077D+00 0.29694517D-02 0.45236114D+04 0.45236114D+04 0.45236114D+04 0.12467731D+01  1  2  5  1  6  2        2 -.256394006812D-05 0.100000000000D+01
-.397067900217D-06 0.000000000000D+00 -.646794106261D-06 0.120226367004D-06 0.000000000000D+00  6 22 21 9900012 -13 1 -2 2 0.35491077D+00 0.29694517D-02 0.45236114D+04 0.45236114D+04 0.45236114D+04 0.12467731D+01  1  2  5  3  6  2        2 -.155464146054D-04 0.100000000000D+01
  </mgrwgt>
  </event>
  <event>
  6     66 0.17293500E-05 0.57254102E+02 0.78161638E-02 0.11640713E+00
       22 -1    0    0    0    0 0.00000000E+00 0.00000000E+00 0.81283665E+03 0.81283665E+03 0.00000000E+00 0.0000E+00 0.9000E+01
        2 -1    0    0  501    0 0.00000000E+00 0.00000000E+00 -.25991057E+02 0.25991057E+02 0.00000000E+00 0.0000E+00 0.9000E+01
       24  2    1    2    0    0 0.65193342E+02 -.30261399E+02 0.75073862E+03 0.75839365E+03 0.79915796E+02 0.0000E+00 0.0000E+00
  9900012  1    3    3    0    0 0.17969455E+02 -.23897740E+02 0.47620468E+03 0.47975504E+03 0.50000000E+02 0.0000E+00 0.9000E+01
      -13  1    3    3    0    0 0.47223887E+02 -.63636587E+01 0.27453394E+03 0.27863861E+03 0.00000000E+00 0.0000E+00 0.9000E+01
        1  1    1    2  501    0 -.65193342E+02 0.30261399E+02 0.36106980E+02 0.80434061E+02 0.00000000E+00 0.0000E+00 0.9000E+01
#aMCatNLO 1  0  0  2  5 0.27964586D+02 0.00000000D+00  -5  6  0 0.00000000D+00 0.00000000D+00 0.00000000D+00 0.00000000D+00 0.00000000D+00
  <mgrwgt>
 0.1172236957D-03    9    2    0
 0.145349523482264D+03 0.000000000000000D+00 0.000000000000000D+00 0.145349523482264D+03
 0.145349523482264D+03 0.000000000000000D+00 0.000000000000000D+00 -.145349523482264D+03
 0.953985522265262D+02 0.179694551084450D+02 -.238977403090692D+02 0.755438975572688D+02
 0.609357586283150D+02 0.472238867607494D+02 -.636365865090119D+01 0.379812459957674D+02
 0.134364736109686D+03 -.651933418691944D+02 0.302613989599704D+02 -.113525143553036D+03
 0.000000000000000D+00 -.000000000000000D+00 0.000000000000000D+00 -.000000000000000D+00
 0.152926816833206D+03 0.000000000000000D+00 0.000000000000000D+00 0.152926816833206D+03
 0.165710276738657D+03 0.000000000000000D+00 0.000000000000000D+00 -.165710276738657D+03
 0.978998446005536D+02 0.250277275066741D+02 -.274064220671196D+02 0.755438975572688D+02
 0.648246485387935D+02 0.518160159520314D+02 -.864641553743115D+01 0.379812459957674D+02
 0.128942924447322D+03 -.555786879286634D+02 0.254819346678907D+02 -.113525143553036D+03
 0.269696759851939D+02 -.212650555300420D+02 0.105709029366601D+02 -.127834599054515D+02
0.244899849199D-05 0.000000000000D+00 0.000000000000D+00 0.309224163012D-05 0.000000000000D+00  6 22 2 9900012 -13 1 21 0 0.12505179D+00 0.39986242D-02 0.79017133D+04 0.79017133D+04 0.79017133D+04 0.12200825D+01  1  2  2  1  6  2        2 0.467598477137D-04 0.100000000000D+01
0.272087928313D-07 0.000000000000D+00 -.470239952268D-08 0.309224163012D-05 0.000000000000D+00  6 22 2 9900012 -13 1 21 2 0.12505179D+00 0.39986242D-02 0.79017133D+04 0.79017133D+04 0.79017133D+04 0.12200825D+01  1  2  3  1  6  2        2 0.773343153085D-06 0.100000000000D+01
-.432623198813D-06 0.000000000000D+00 0.000000000000D+00 0.309224163012D-05 0.000000000000D+00  6 22 2 9900012 -13 1 21 2 0.12505179D+00 0.39986242D-02 0.79017133D+04 0.79017133D+04 0.79017133D+04 0.12200825D+01  1  2 15  1  6  2        2 -.122962525659D-04 0.100000000000D+01
0.303184688077D-05 0.000000000000D+00 0.000000000000D+00 0.309224163012D-05 0.000000000000D+00  6 22 2 9900012 -13 1 21 2 0.12505179D+00 0.47964117D-02 0.99691631D+04 0.99691631D+04 0.99691631D+04 0.12094690D+01  1  2 12  1  6  2        2 0.681388399958D-04 0.100000000000D+01
-.366961581636D-06 0.000000000000D+00 0.000000000000D+00 0.309224163012D-05 0.000000000000D+00  6 22 2 9900012 -13 1 21 2 0.12505179D+00 0.39986242D-02 0.79017133D+04 0.79017133D+04 0.79017133D+04 0.12200825D+01  1  2  4  1  6  2        2 -.104299822621D-04 0.100000000000D+01
-.643497654891D-05 0.000000000000D+00 -.183805306505D-05 0.309224163012D-05 0.000000000000D+00  6 22 2 9900012 -13 1 21 2 0.12505179D+00 0.47984632D-02 0.79017133D+04 0.79017133D+04 0.79017133D+04 0.12200825D+01  1  2  5  1  6  2        2 -.144217028572D-03 0.100000000000D+01
0.668876810656D-05 0.000000000000D+00 0.180791328989D-05 0.309224163012D-05 0.000000000000D+00  6 22 2 9900012 -13 1 21 2 0.12505179D+00 0.39986242D-02 0.79017133D+04 0.79017133D+04 0.79017133D+04 0.12200825D+01  1  2  6  1  6  2        2 0.190111816053D-03 0.100000000000D+01
0.806267153505D-07 0.000000000000D+00 0.000000000000D+00 0.309224163012D-05 0.000000000000D+00  6 22 21 9900012 -13 1 -2 2 0.12505179D+00 0.47964117D-02 0.99691631D+04 0.99691631D+04 0.99691631D+04 0.12094690D+01  1  2 12  3  6  2        2 0.240877054383D-04 0.100000000000D+01
-.153407091795D-06 0.000000000000D+00 -.489695160770D-07 0.309224163012D-05 0.000000000000D+00  6 22 21 9900012 -13 1 -2 2 0.12505179D+00 0.47984632D-02 0.79017133D+04 0.79017133D+04 0.79017133D+04 0.12200825D+01  1  2  5  3  6  2        2 -.457045932441D-04 0.100000000000D+01
  </mgrwgt>
  </event>
  <event>
  6     66 0.17293500E-05 0.26242207E+02 0.78161638E-02 0.12689238E+00
       22 -1    0    0    0    0 0.00000000E+00 0.00000000E+00 0.15597920E+02 0.15597920E+02 0.00000000E+00 0.0000E+00 0.9000E+01
        2 -1    0    0  501    0 -.00000000E+00 -.00000000E+00 -.14005746E+04 0.14005746E+04 0.00000000E+00 0.0000E+00 0.9000E+01
       24  2    1    2    0    0 0.13233990E+02 -.22660868E+02 -.97617500E+02 0.12854590E+03 0.79411706E+02 0.0000E+00 0.0000E+00
  9900012  1    3    3    0    0 -.22245523E+01 0.41814379E+01 -.74701020E+02 0.90014862E+02 0.50000000E+02 0.0000E+00 0.9000E+01
      -13  1    3    3    0    0 0.15458543E+02 -.26842306E+02 -.22916480E+02 0.38531039E+02 0.00000000E+00 0.0000E+00 0.9000E+01
        1  1    1    2  501    0 -.13233990E+02 0.22660868E+02 -.12873592E+04 0.12876266E+04 0.00000000E+00 0.0000E+00 0.9000E+01
#aMCatNLO 1  0  0  5  2 0.11774612D+02 0.00000000D+00  -5  6  0 0.00000000D+00 0.00000000D+00 0.00000000D+00 0.00000000D+00 0.00000000D+00
  <mgrwgt>
 0.2546524308D-03    7    2    0
 0.147804097043209D+03 0.000000000000000D+00 0.000000000000000D+00 0.147804097043209D+03
 0.147804097043209D+03 -.000000000000000D+00 -.000000000000000D+00 -.147804097043209D+03
 0.812474224251535D+02 -.222455231706769D+01 0.418143788519860D+01 0.638647836834369D+02
 0.772231905041118D+02 0.154585425456331D+02 -.268423056185054D+02 0.707385696991532D+02
 0.137137581157153D+03 -.132339902285655D+02 0.226608677333068D+02 -.134603353382590D+03
 0.000000000000000D+00 0.000000000000000D+00 0.000000000000000D+00 0.000000000000000D+00
 0.147804097043209D+03 0.000000000000000D+00 0.000000000000000D+00 0.147804097043209D+03
 0.147804097043209D+03 -.000000000000000D+00 -.000000000000000D+00 -.147804097043209D+03
 0.800470984165468D+02 -.237773057860051D+01 0.444372856731809D+01 0.623068025068203D+02
 0.757547843604536D+02 0.153132623456593D+02 -.265935389699726D+02 0.692609199685102D+02
 0.126196632511154D+03 -.187512940440376D+02 0.123042251638518D+02 -.124187700968922D+03
 0.136096787982636D+02 0.581576227697882D+01 0.984558523880278D+01 -.738002150640805D+01
0.602005994421D-06 0.000000000000D+00 0.000000000000D+00 0.113658690996D-04 0.000000000000D+00  6 22 2 9900012 -13 1 21 0 0.23996801D-02 0.21547301D+00 0.28859160D+04 0.28859160D+04 0.28859160D+04 0.12696498D+01  1  2  2  2  6  5        1 0.417577355546D-04 0.100000000000D+01
0.554016124635D-07 0.000000000000D+00 -.115593076520D-08 0.113658690996D-04 0.000000000000D+00  6 22 2 9900012 -13 1 21 2 0.23996801D-02 0.21547301D+00 0.28859160D+04 0.28859160D+04 0.28859160D+04 0.12696498D+01  1  2  3  2  6  5        1 0.619478762108D-05 0.100000000000D+01
-.996909460106D-07 0.000000000000D+00 0.000000000000D+00 0.113658690996D-04 0.000000000000D+00  6 22 2 9900012 -13 1 21 2 0.23996801D-02 0.21547301D+00 0.28859160D+04 0.28859160D+04 0.28859160D+04 0.12696498D+01  1  2 15  2  6  5        1 -.111470444779D-04 0.100000000000D+01
0.180776829632D-05 0.000000000000D+00 0.000000000000D+00 0.113658690996D-04 0.000000000000D+00  6 22 2 9900012 -13 1 21 2 0.23996801D-02 0.21547301D+00 0.32949575D+04 0.32949575D+04 0.32949575D+04 0.12627655D+01  1  2 12  2  6  5        1 0.201517195073D-03 0.100000000000D+01
-.395819031464D-07 0.000000000000D+00 0.000000000000D+00 0.113658690996D-04 0.000000000000D+00  6 22 2 9900012 -13 1 21 2 0.23996801D-02 0.21547301D+00 0.28859160D+04 0.28859160D+04 0.28859160D+04 0.12696498D+01  1  2  4  2  6  5        1 -.442589074084D-05 0.100000000000D+01
-.178246173682D-05 0.000000000000D+00 0.000000000000D+00 0.113658690996D-04 0.000000000000D+00  6 22 2 9900012 -13 1 21 2 0.23996801D-02 0.21547301D+00 0.28859160D+04 0.28859160D+04 0.28859160D+04 0.12696498D+01  1  2  5  2  6  5        1 -.199307771223D-03 0.100000000000D+01
0.196808494574D-05 0.000000000000D+00 -.000000000000D+00 0.113658690996D-04 0.000000000000D+00  6 22 2 9900012 -13 1 21 2 0.23996801D-02 0.21547301D+00 0.28859160D+04 0.28859160D+04 0.28859160D+04 0.12696498D+01  1  2  6  2  6  5        1 0.220063419041D-03 0.100000000000D+01
  </mgrwgt>
  </event>
  <event>
  7     66 -.17293500E-05 0.39325398E+02 0.78161638E-02 0.12515039E+00
       22 -1    0    0    0    0 0.00000000E+00 0.00000000E+00 0.20404002E+01 0.20404002E+01 0.00000000E+00 0.0000E+00 0.9000E+01
        2 -1    0    0  502    0 0.00000000E+00 0.00000000E+00 -.28589959E+04 0.28589959E+04 0.00000000E+00 0.0000E+00 0.9000E+01
       24  2    1    2    0    0 0.28214930E+02 0.28725045E+02 -.12320946E+04 0.12356730E+04 0.84907983E+02 0.0000E+00 0.0000E+00
  9900012  1    3    3    0    0 -.38751157E+00 0.25048193E+02 -.10316341E+04 0.10331488E+04 0.50000000E+02 0.0000E+00 0.9000E+01
      -13  1    3    3    0    0 0.28602442E+02 0.36768525E+01 -.20046051E+03 0.20252416E+03 0.00000000E+00 0.0000E+00 0.9000E+01
        1  1    1    2  501    0 -.22027187E+02 -.21811839E+02 -.13033347E+04 0.13037033E+04 0.00000000E+00 0.0000E+00 0.9000E+01
       21  1    1    2  502  501 -.61877430E+01 -.69132059E+01 -.32152615E+03 0.32165998E+03 0.00000000E+00 0.0000E+00 0.9000E+01
#aMCatNLO 2  0  0  2  5 0.10544115D+02 0.00000000D+00  -5  6  0 0.00000000D+00 0.00000000D+00 0.00000000D+00 0.00000000D+00 0.00000000D+00
  <mgrwgt>
 -.1746046218D-03    2    2    0
 0.706116204835330D+02 0.000000000000000D+00 0.000000000000000D+00 0.706116204835330D+02
 0.706116204835330D+02 0.000000000000000D+00 0.000000000000000D+00 -.706116204835330D+02
 0.548599213936418D+02 -.281245162399119D+01 0.223389479625373D+02 -.163477677568303D+01
 0.412764125552946D+02 0.267664952272442D+02 0.162565617252966D+01 0.313792002557986D+02
 0.450869070181296D+02 -.239540436032530D+02 -.239646041350670D+02 -.297444234801156D+02
 0.000000000000000D+00 -.000000000000000D+00 -.000000000000000D+00 -.000000000000000D+00
 0.731633169949175D+02 0.000000000000000D+00 0.000000000000000D+00 0.731633169949175D+02
 0.797325228587760D+02 0.000000000000000D+00 0.000000000000000D+00 -.797325228587760D+02
 0.559484996695063D+02 -.387511572024775D+00 0.250481926482526D+02 -.163477677568303D+01
 0.426177559738934D+02 0.286024416963028D+02 0.367685253531040D+01 0.313792002557986D+02
 0.429614249316223D+02 -.220271871007845D+02 -.218118392717808D+02 -.297444234801156D+02
 0.113681592786715D+02 -.618774302349347D+01 -.691320591178219D+01 -.656920586385848D+01
-.740665159726D-06 0.000000000000D+00 0.000000000000D+00 0.198043637940D-07 0.000000000000D+00  6 22 2 9900012 -13 1 21 2 0.30295966D-03 0.45574024D+00 0.39087269D+04 0.39087269D+04 0.39087269D+04 0.12540679D+01  1  2 13  1  6  2        2 -.187334598657D-03 0.100000000000D+01
0.458128175158D-07 0.000000000000D+00 0.000000000000D+00 0.198043637940D-07 0.488650539876D-07  6 22 2 9900012 -13 1 21 2 0.31390773D-03 0.43984552D+00 0.39087269D+04 0.39087269D+04 0.39087269D+04 0.12540679D+01  1  2  1  1  6  2        2 0.127299768485D-04 0.100000000000D+01
  </mgrwgt>
  </event>
  <event>
  6     66 0.17293500E-05 0.31348790E+02 0.78161638E-02 0.12293251E+00
       22 -1    0    0    0    0 0.00000000E+00 0.00000000E+00 0.20893791E+03 0.20893791E+03 0.00000000E+00 0.0000E+00 0.9000E+01
        2 -1    0    0  501    0 0.00000000E+00 0.00000000E+00 -.18966497E+03 0.18966497E+03 0.00000000E+00 0.0000E+00 0.9000E+01
       24  2    1    2    0    0 -.41160047E+02 0.19549732E+02 0.19646378E+03 0.21564678E+03 0.76349029E+02 0.0000E+00 0.0000E+00
  9900012  1    3    3    0    0 -.23738251E+02 0.33508536E+02 0.12463267E+03 0.14042659E+03 0.50000000E+02 0.0000E+00 0.9000E+01
      -13  1    3    3    0    0 -.17421796E+02 -.13958804E+02 0.71831114E+02 0.75220185E+02 0.00000000E+00 0.0000E+00 0.9000E+01
        1  1    1    2  501    0 0.41160047E+02 -.19549732E+02 -.17719084E+03 0.18295610E+03 0.00000000E+00 0.0000E+00 0.9000E+01
#aMCatNLO 1  0  0  2  5 0.59924943D+01 0.00000000D+00  -5  6  0 0.00000000D+00 0.00000000D+00 0.00000000D+00 0.00000000D+00 0.00000000D+00
  <mgrwgt>
 0.4528205048D-03   11    2    0
 0.199068335176254D+03 0.000000000000000D+00 0.000000000000000D+00 0.199068335176254D+03
 0.199068335176254D+03 0.000000000000000D+00 0.000000000000000D+00 -.199068335176254D+03
 0.134557829444196D+03 -.237382513353065D+02 0.335085362935282D+02 0.117980858124276D+03
 0.718310750577472D+02 -.174217958180211D+02 -.139588043482065D+02 0.682739786126118D+02
 0.191747765850564D+03 0.411600471533276D+02 -.195497319453217D+02 -.186254836736888D+03
 0.000000000000000D+00 -.000000000000000D+00 0.000000000000000D+00 -.000000000000000D+00
 0.199346670991116D+03 0.000000000000000D+00 0.000000000000000D+00 0.199346670991116D+03
 0.233861288415276D+03 0.000000000000000D+00 0.000000000000000D+00 -.233861288415276D+03
 0.133959286569521D+03 -.227032268549125D+02 0.317831883996695D+02 0.117980858124276D+03
 0.718842196591344D+02 -.168678316966747D+02 -.148822422457087D+02 0.682739786126118D+02
 0.192337873020727D+03 0.426405413754511D+02 -.220176615802211D+02 -.186254836736888D+03
 0.350265801570097D+02 -.306948282386390D+01 0.511671542626028D+01 -.345146174241596D+02
0.611747241166D-06 0.000000000000D+00 0.000000000000D+00 0.248983410744D-05 0.000000000000D+00  6 22 2 9900012 -13 1 21 0 0.32144294D-01 0.29179226D-01 0.43952165D+04 0.43952165D+04 0.43952165D+04 0.12482008D+01  1  2  2  1  6  2        2 0.110571639049D-04 0.100000000000D+01
0.265213740910D-07 0.000000000000D+00 -.117463524141D-08 0.248983410744D-05 0.000000000000D+00  6 22 2 9900012 -13 1 21 2 0.32144294D-01 0.29179226D-01 0.43952165D+04 0.43952165D+04 0.43952165D+04 0.12482008D+01  1  2  3  1  6  2        2 0.746855665450D-06 0.100000000000D+01
-.926355309359D-07 0.000000000000D+00 0.000000000000D+00 0.248983410744D-05 0.000000000000D+00  6 22 2 9900012 -13 1 21 2 0.32144294D-01 0.29179226D-01 0.43952165D+04 0.43952165D+04 0.43952165D+04 0.12482008D+01  1  2 15  1  6  2        2 -.260866465154D-05 0.100000000000D+01
0.226483798019D-04 0.000000000000D+00 0.000000000000D+00 0.248983410744D-05 0.000000000000D+00  6 22 2 9900012 -13 1 21 2 0.32144294D-01 0.34327069D-01 0.48928992D+04 0.48928992D+04 0.48928992D+04 0.12429061D+01  1  2 12  1  6  2        2 0.534549816361D-03 0.100000000000D+01
-.912780644771D-05 0.000000000000D+00 0.000000000000D+00 0.248983410744D-05 0.000000000000D+00  6 22 2 9900012 -13 1 21 2 0.32144294D-01 0.29179226D-01 0.43952165D+04 0.43952165D+04 0.43952165D+04 0.12482008D+01  1  2  4  1  6  2        2 -.257043769121D-03 0.100000000000D+01
-.294301838798D-04 0.000000000000D+00 -.497729657812D-06 0.248983410744D-05 0.000000000000D+00  6 22 2 9900012 -13 1 21 2 0.32144294D-01 0.34302253D-01 0.43952165D+04 0.43952165D+04 0.43952165D+04 0.12482008D+01  1  2  5  1  6  2        2 -.696062431025D-03 0.100000000000D+01
0.291351516358D-04 0.000000000000D+00 0.491288505700D-06 0.248983410744D-05 0.000000000000D+00  6 22 2 9900012 -13 1 21 2 0.32144294D-01 0.29179226D-01 0.43952165D+04 0.43952165D+04 0.43952165D+04 0.12482008D+01  1  2  6  1  6  2        2 0.820460998298D-03 0.100000000000D+01
0.192330731108D-05 0.000000000000D+00 0.000000000000D+00 0.248983410744D-05 0.190953778378D-06  6 22 2 9900012 -13 1 21 2 0.32189238D-01 0.34279140D-01 0.48928992D+04 0.48928992D+04 0.48928992D+04 0.12429061D+01  1  2 11  1  6  2        2 0.453636261327D-04 0.100000000000D+01
0.550893653301D-06 0.000000000000D+00 0.000000000000D+00 0.248983410744D-05 0.000000000000D+00  6 22 21 9900012 -13 1 -2 2 0.32144294D-01 0.34327069D-01 0.48928992D+04 0.48928992D+04 0.48928992D+04 0.12429061D+01  1  2 12  3  6  2        2 0.623998949836D-04 0.100000000000D+01
-.709355412547D-06 0.000000000000D+00 -.120636311037D-07 0.248983410744D-05 0.000000000000D+00  6 22 21 9900012 -13 1 -2 2 0.32144294D-01 0.34302253D-01 0.43952165D+04 0.43952165D+04 0.43952165D+04 0.12482008D+01  1  2  5  3  6  2        2 -.807733662750D-04 0.100000000000D+01
0.129982567645D-06 0.000000000000D+00 0.000000000000D+00 0.248983410744D-05 0.120072659279D-07  6 22 21 9900012 -13 1 -2 2 0.32189238D-01 0.34279140D-01 0.48928992D+04 0.48928992D+04 0.48928992D+04 0.12429061D+01  1  2 11  3  6  2        2 0.147303805317D-04 0.100000000000D+01
  </mgrwgt>
  </event>
</LesHouchesEvents>
