<LesHouchesEvents version="3.0">
  <!--
  <scalesfunctionalform>
    muR  H_T/2 := sum_i mT(i)/2, i=final state
    muF1 H_T/2 := sum_i mT(i)/2, i=final state
    muF2 H_T/2 := sum_i mT(i)/2, i=final state
    QES  H_T/2 := sum_i mT(i)/2, i=final state
  </scalesfunctionalform>
PYTHIA8   
  -->
  <header>
        7
  </header>
  <init>
   2212   2212 0.65000000D+04 0.65000000D+04 -1 -1  82200  82200 -4   1
 0.85807953D-05 0.17836395D-06 0.15536137D-05     66
  </init>
  <event>
  6     66 0.15536137E-05 0.13393459E+02 0.78161638E-02 0.10072622E+00
       -2 -1    0    0    0  501 0.00000000E+00 0.00000000E+00 0.21515905E+03 0.21515905E+03 0.00000000E+00 0.0000E+00 0.9000E+01
       22 -1    0    0    0    0 0.00000000E+00 0.00000000E+00 -.72645134E+02 0.72645134E+02 0.00000000E+00 0.0000E+00 0.9000E+01
      -24  2    1    2    0    0 -.69706850E+00 0.13375307E+02 0.20591008E+03 0.22300866E+03 0.84584377E+02 0.0000E+00 0.0000E+00
  9900012  1    3    3    0    0 0.20738214E+02 0.16890968E+01 0.17735688E+03 0.18544107E+03 0.50000000E+02 0.0000E+00 0.9000E+01
       11  1    3    3    0    0 -.21435282E+02 0.11686211E+02 0.28553203E+02 0.37567595E+02 0.00000000E+00 0.0000E+00 0.9000E+01
       -1  1    1    2    0  501 0.69706850E+00 -.13375307E+02 -.63396170E+02 0.64795518E+02 0.00000000E+00 0.0000E+00 0.9000E+01
#aMCatNLO 1  0  0  1  5 0.33726756D+01 0.00000000D+00  -5  6  0 0.00000000D+00 0.00000000D+00 0.00000000D+00 0.00000000D+00 0.00000000D+00
  <mgrwgt>
 0.1740961062D-04    5    4    0
 0.125021029947876D+03 0.000000000000000D+00 0.000000000000000D+00 0.125021029947876D+03
 0.125021029947876D+03 0.000000000000000D+00 0.000000000000000D+00 -.125021029947876D+03
 0.112360663797550D+03 0.207382136908791D+02 0.168909681353782D+01 0.984479162496185D+02
 0.269669927080068D+02 -.214352821861051D+02 0.116862105635977D+02 0.114533774922071D+02
 0.110714403390195D+03 0.697068495226007D+00 -.133753073771355D+02 -.109901293741826D+03
 0.000000000000000D+00 -.000000000000000D+00 -.000000000000000D+00 0.000000000000000D+00
 0.334605328054097D+03 0.000000000000000D+00 0.000000000000000D+00 0.334605328054097D+03
 0.310968647125802D+03 0.000000000000000D+00 0.000000000000000D+00 -.310968647125802D+03
 0.188577436203822D+03 0.145389716711191D+03 0.472365060726814D+02 0.984479162496185D+02
 0.223351715866327D+02 -.101384375257627D+01 0.191481632192410D+02 0.114533774922071D+02
 0.159864495118454D+03 0.112773493462785D+03 0.275771935764012D+02 -.109901293741826D+03
 0.274796872270990D+03 -.257149366421399D+03 -.939618628683235D+02 0.236366809282952D+02
 0.125021029947876D+03 0.000000000000000D+00 0.000000000000000D+00 0.125021029947876D+03
 0.125021029947876D+03 0.000000000000000D+00 0.000000000000000D+00 -.125021029947876D+03
 0.112360663797550D+03 0.207382136908791D+02 0.168909681353782D+01 0.984479162496185D+02
 0.269669927080068D+02 -.214352821861051D+02 0.116862105635977D+02 0.114533774922071D+02
 0.000000000000000D+00 -.000000000000000D+00 -.000000000000000D+00 0.000000000000000D+00
 0.110714403390195D+03 0.697068495226007D+00 -.133753073771355D+02 -.109901293741826D+03
 0.334605328054097D+03 0.000000000000000D+00 0.000000000000000D+00 0.334605328054097D+03
 0.310968647125802D+03 0.000000000000000D+00 0.000000000000000D+00 -.310968647125802D+03
 0.188577436203822D+03 0.145389716711191D+03 0.472365060726814D+02 0.984479162496185D+02
 0.223351715866327D+02 -.101384375257627D+01 0.191481632192410D+02 0.114533774922071D+02
 0.274796872270990D+03 -.257149366421399D+03 -.939618628683235D+02 0.236366809282952D+02
 0.159864495118454D+03 0.112773493462785D+03 0.275771935764012D+02 -.109901293741826D+03
0.534699845957D-06 0.000000000000D+00 0.000000000000D+00 0.122684230987D-06 0.000000000000D+00  6 -2 22 9900012 11 -1 21 0 0.33101392D-01 0.11176174D-01 0.21143382D+04 0.21143382D+04 0.21143382D+04 0.12862691D+01  1  2  2  1  6  1       -2 0.153693675379D-04 0.100000000000D+01
-.815222842493D-08 0.000000000000D+00 -.102669409909D-08 0.122684230987D-06 0.000000000000D+00  6 -2 22 9900012 11 -1 21 2 0.33101392D-01 0.11176174D-01 0.21143382D+04 0.21143382D+04 0.21143382D+04 0.12862691D+01  1  2  3  1  6  1       -2 -.387691227116D-06 0.100000000000D+01
0.110049402878D-07 0.000000000000D+00 0.000000000000D+00 0.122684230987D-06 0.000000000000D+00  6 -2 22 9900012 11 -1 21 2 0.33101392D-01 0.11176174D-01 0.21143382D+04 0.21143382D+04 0.21143382D+04 0.12862691D+01  1  2 15  1  6  1       -2 0.523356140446D-06 0.100000000000D+01
0.575234275732D-06 0.000000000000D+00 -.158171792779D-06 0.122684230987D-06 0.000000000000D+00  6 -2 22 9900012 11 -1 21 2 0.18664438D+00 0.11176174D-01 0.21143382D+04 0.21143382D+04 0.21143382D+04 0.12862691D+01  1  2  5  1  6  1       -2 0.638079368468D-06 0.100000000000D+01
0.113665145460D-06 0.000000000000D+00 -.335031387564D-07 0.122684230987D-06 0.000000000000D+00  6 21 22 9900012 11 2 -1 2 0.18664438D+00 0.11176174D-01 0.21143382D+04 0.21143382D+04 0.21143382D+04 0.12862691D+01  3  4  5  3  5  1       -2 0.126649880064D-05 0.100000000000D+01
  </mgrwgt>
  </event>
  <event>
  6     66 0.15536137E-05 0.16134252E+02 0.78161638E-02 0.12900553E+00
       -4 -1    0    0    0  501 0.00000000E+00 0.00000000E+00 0.57322488E+02 0.57322488E+02 0.00000000E+00 0.0000E+00 0.9000E+01
       22 -1    0    0    0    0 -.00000000E+00 -.00000000E+00 -.58764239E+02 0.58764239E+02 0.00000000E+00 0.0000E+00 0.9000E+01
      -24  2    1    2    0    0 -.13866218E+02 0.82487616E+01 0.25250275E+02 0.84897332E+02 0.79433409E+02 0.0000E+00 0.0000E+00
  9900012  1    3    3    0    0 -.27615595E+02 -.13832828E+00 0.34096466E+02 0.66522246E+02 0.50000000E+02 0.0000E+00 0.9000E+01
       11  1    3    3    0    0 0.13749377E+02 0.83870899E+01 -.88461914E+01 0.18375085E+02 0.00000000E+00 0.0000E+00 0.9000E+01
       -3  1    1    2    0  501 0.13866218E+02 -.82487616E+01 -.26692026E+02 0.31189395E+02 0.00000000E+00 0.0000E+00 0.9000E+01
#aMCatNLO 1  0  0  5  1 0.15367686D+02 0.00000000D+00  -5  6  0 0.00000000D+00 0.00000000D+00 0.00000000D+00 0.00000000D+00 0.00000000D+00
  <mgrwgt>
 0.2604914524D-05    5    2    0
 0.580388863797862D+02 0.000000000000000D+00 0.000000000000000D+00 0.580388863797862D+02
 0.580388863797862D+02 -.000000000000000D+00 -.000000000000000D+00 -.580388863797862D+02
 0.669508746672316D+02 -.276155953974443D+02 -.138328279914555D+00 0.349253400103562D+02
 0.182666278078389D+02 0.137493772683485D+02 0.838708988223348D+01 -.861864487666530D+01
 0.308602702845019D+02 0.138662181290958D+02 -.824876160231893D+01 -.263066951336909D+02
 0.000000000000000D+00 0.000000000000000D+00 0.000000000000000D+00 0.000000000000000D+00
 0.580388863797862D+02 0.000000000000000D+00 0.000000000000000D+00 0.580388863797862D+02
 0.580388863797862D+02 -.000000000000000D+00 -.000000000000000D+00 -.580388863797862D+02
 0.604052228384958D+02 -.224734128352357D+02 -.319731939604712D+01 0.251697002442432D+02
 0.206083377294188D+02 0.153190089845147D+02 0.745334445074299D+01 -.115965168995144D+02
 0.143921390781683D+02 -.119265229936946D+02 0.135842641596317D+01 -.794017595514269D+01
 0.206720731134895D+02 0.190809268444156D+02 -.561445147065904D+01 -.563300738958619D+01
0.130227770412D-07 0.000000000000D+00 0.000000000000D+00 0.139410214338D-06 0.000000000000D+00  6 -4 22 9900012 11 -3 21 0 0.88188442D-02 0.90406521D-02 0.19962722D+04 0.19962722D+04 0.19962722D+04 0.12894132D+01  1  2  2  2  6  5       -3 0.248040639664D-05 0.100000000000D+01
-.651548480151D-09 0.000000000000D+00 -.250054464071D-10 0.139410214338D-06 0.000000000000D+00  6 -4 22 9900012 11 -3 21 2 0.88188442D-02 0.90406521D-02 0.19962722D+04 0.19962722D+04 0.19962722D+04 0.12894132D+01  1  2  3  2  6  5       -3 -.206324210345D-06 0.100000000000D+01
0.308937194099D-09 0.000000000000D+00 0.000000000000D+00 0.139410214338D-06 0.000000000000D+00  6 -4 22 9900012 11 -3 21 2 0.88188442D-02 0.90406521D-02 0.19962722D+04 0.19962722D+04 0.19962722D+04 0.12894132D+01  1  2 15  2  6  5       -3 0.978303603807D-07 0.100000000000D+01
0.291196049214D-08 0.000000000000D+00 0.000000000000D+00 0.139410214338D-06 0.000000000000D+00  6 -4 22 9900012 11 -3 21 2 0.88188442D-02 0.90406521D-02 0.26957352D+04 0.26957352D+04 0.26957352D+04 0.12732366D+01  1  2 12  2  6  5       -3 0.943476242788D-06 0.100000000000D+01
-.224359723596D-08 0.000000000000D+00 0.000000000000D+00 0.139410214338D-06 0.000000000000D+00  6 -4 22 9900012 11 -3 21 2 0.88188442D-02 0.90406521D-02 0.19962722D+04 0.19962722D+04 0.19962722D+04 0.12894132D+01  1  2  4  2  6  5       -3 -.710474265760D-06 0.100000000000D+01
  </mgrwgt>
  </event>
  <event>
  6     66 0.15536137E-05 0.11009993E+02 0.78161638E-02 0.12552418E+00
       -2 -1    0    0    0  501 0.00000000E+00 0.00000000E+00 0.70109789E+02 0.70109789E+02 0.00000000E+00 0.0000E+00 0.9000E+01
       22 -1    0    0    0    0 0.00000000E+00 0.00000000E+00 -.32776223E+02 0.32776223E+02 0.00000000E+00 0.0000E+00 0.9000E+01
      -24  2    1    2    0    0 -.44208483E+01 0.10083454E+02 0.42516483E+02 0.90717094E+02 0.79377074E+02 0.0000E+00 0.0000E+00
  9900012  1    3    3    0    0 -.84739985E+01 -.64700585E+01 0.50532730E+02 0.71883427E+02 0.50000000E+02 0.0000E+00 0.9000E+01
       11  1    3    3    0    0 0.40531502E+01 0.16553512E+02 -.80162471E+01 0.18833667E+02 0.00000000E+00 0.0000E+00 0.9000E+01
       -1  1    1    2    0  501 0.44208483E+01 -.10083454E+02 -.51829170E+01 0.12168918E+02 0.00000000E+00 0.0000E+00 0.9000E+01
#aMCatNLO 1  0  0  1  5 0.39232395D+02 0.00000000D+00  -5  6  0 0.00000000D+00 0.00000000D+00 0.00000000D+00 0.00000000D+00 0.00000000D+00
  <mgrwgt>
 0.5510522954D-05    5    4    0
 0.479367719655135D+02 0.000000000000000D+00 0.000000000000000D+00 0.479367719655135D+02
 0.479367719655135D+02 0.000000000000000D+00 0.000000000000000D+00 -.479367719655135D+02
 0.574635291774406D+02 -.847399846322672D+01 -.647005845541020D+01 0.262371278755006D+02
 0.233327766909419D+02 0.405315016959593D+01 0.165535122824607D+02 -.159364887263942D+02
 0.150772380626446D+02 0.442084829363079D+01 -.100834538270505D+02 -.103006391491064D+02
 0.000000000000000D+00 -.000000000000000D+00 -.000000000000000D+00 0.000000000000000D+00
 0.105415927486857D+03 0.000000000000000D+00 0.000000000000000D+00 0.105415927486857D+03
 0.570752961284976D+02 0.000000000000000D+00 0.000000000000000D+00 -.570752961284976D+02
 0.576428486825054D+02 0.217671688581080D+01 0.113830149203923D+02 0.262371278755006D+02
 0.309896507553515D+02 0.907956766753149D+01 0.249789557824759D+02 -.159364887263942D+02
 0.137063124616499D+02 0.708417077035671D+01 -.561910659381895D+01 -.103006391491064D+02
 0.601524117158482D+02 -.183404553236990D+02 -.307428641090493D+02 0.483406313583599D+02
 0.479367719655135D+02 0.000000000000000D+00 0.000000000000000D+00 0.479367719655135D+02
 0.479367719655135D+02 0.000000000000000D+00 0.000000000000000D+00 -.479367719655135D+02
 0.574635291774406D+02 -.847399846322672D+01 -.647005845541020D+01 0.262371278755006D+02
 0.233327766909419D+02 0.405315016959593D+01 0.165535122824607D+02 -.159364887263942D+02
 0.000000000000000D+00 -.000000000000000D+00 -.000000000000000D+00 0.000000000000000D+00
 0.150772380626446D+02 0.442084829363079D+01 -.100834538270505D+02 -.103006391491064D+02
 0.105415927486857D+03 0.000000000000000D+00 0.000000000000000D+00 0.105415927486857D+03
 0.570752961284976D+02 0.000000000000000D+00 0.000000000000000D+00 -.570752961284976D+02
 0.576428486825054D+02 0.217671688581080D+01 0.113830149203923D+02 0.262371278755006D+02
 0.309896507553515D+02 0.907956766753149D+01 0.249789557824759D+02 -.159364887263942D+02
 0.601524117158482D+02 -.183404553236990D+02 -.307428641090493D+02 0.483406313583599D+02
 0.137063124616499D+02 0.708417077035671D+01 -.561910659381895D+01 -.103006391491064D+02
0.154837705554D-07 0.000000000000D+00 0.000000000000D+00 0.144116681872D-06 0.000000000000D+00  6 -2 22 9900012 11 -1 21 0 0.10786121D-01 0.50424959D-02 0.15672319D+04 0.15672319D+04 0.15672319D+04 0.13029264D+01  1  2  2  1  6  1       -2 0.744379942035D-05 0.100000000000D+01
-.110128049544D-09 0.000000000000D+00 -.297308779516D-10 0.144116681872D-06 0.000000000000D+00  6 -2 22 9900012 11 -1 21 2 0.10786121D-01 0.50424959D-02 0.15672319D+04 0.15672319D+04 0.15672319D+04 0.13029264D+01  1  2  3  1  6  1       -2 -.898784647854D-07 0.100000000000D+01
-.907442643366D-11 0.000000000000D+00 0.000000000000D+00 0.144116681872D-06 0.000000000000D+00  6 -2 22 9900012 11 -1 21 2 0.10786121D-01 0.50424959D-02 0.15672319D+04 0.15672319D+04 0.15672319D+04 0.13029264D+01  1  2 15  1  6  1       -2 -.740588360591D-08 0.100000000000D+01
-.520953447758D-08 0.000000000000D+00 -.321139521216D-08 0.144116681872D-06 0.000000000000D+00  6 -2 22 9900012 11 -1 21 2 0.27781877D-01 0.50424959D-02 0.15672319D+04 0.15672319D+04 0.15672319D+04 0.13029264D+01  1  2  5  1  6  1       -2 -.985893359912D-06 0.100000000000D+01
-.350417020393D-09 0.000000000000D+00 -.336102377983D-09 0.144116681872D-06 0.000000000000D+00  6 21 22 9900012 11 2 -1 2 0.27781877D-01 0.50424959D-02 0.15672319D+04 0.15672319D+04 0.15672319D+04 0.13029264D+01  3  4  5  3  5  1       -2 -.850098757897D-06 0.100000000000D+01
  </mgrwgt>
  </event>
  <event>
  6     66 0.15536137E-05 0.29457767E+02 0.78161638E-02 0.11635081E+00
       -4 -1    0    0    0  501 0.00000000E+00 0.00000000E+00 0.93799456E+02 0.93799456E+02 0.00000000E+00 0.0000E+00 0.9000E+01
       22 -1    0    0    0    0 -.00000000E+00 -.00000000E+00 -.15380800E+03 0.15380800E+03 0.00000000E+00 0.0000E+00 0.9000E+01
      -24  2    1    2    0    0 0.73293278E+02 0.59332811E+02 -.80842373E+02 0.15103450E+03 0.85928137E+02 0.0000E+00 0.0000E+00
  9900012  1    3    3    0    0 0.60558886E+02 0.46784585E+02 -.28544349E+02 0.95765108E+02 0.50000000E+02 0.0000E+00 0.9000E+01
       11  1    3    3    0    0 0.12734392E+02 0.12548226E+02 -.52298023E+02 0.55269395E+02 0.00000000E+00 0.0000E+00 0.9000E+01
       -3  1    1    2    0  501 -.73293278E+02 -.59332811E+02 0.20833828E+02 0.96572954E+02 0.00000000E+00 0.0000E+00 0.9000E+01
#aMCatNLO 1  0  0  5  1 0.16567287D+02 0.00000000D+00  -5  6  0 0.00000000D+00 0.00000000D+00 0.00000000D+00 0.00000000D+00 0.00000000D+00
  <mgrwgt>
 0.2181778413D-04    7    2    0
 0.120112891752365D+03 0.000000000000000D+00 0.000000000000000D+00 0.120112891752365D+03
 0.120112891752365D+03 -.000000000000000D+00 -.000000000000000D+00 -.120112891752365D+03
 0.915773884525366D+02 0.605588856011019D+02 0.467845846552922D+02 -.549928078672526D+01
 0.439036385211904D+02 0.127343920471705D+02 0.125482264835585D+02 -.400987125317714D+02
 0.104744756531002D+03 -.732932776482723D+02 -.593328111388507D+02 0.455979933184967D+02
 0.000000000000000D+00 -.000000000000000D+00 0.000000000000000D+00 0.000000000000000D+00
 0.120112891752365D+03 0.000000000000000D+00 0.000000000000000D+00 0.120112891752365D+03
 0.120112891752365D+03 -.000000000000000D+00 -.000000000000000D+00 -.120112891752365D+03
 0.895294417551881D+02 0.587036380404147D+02 0.452827135879030D+02 -.434507444487853D+01
 0.429421289495479D+02 0.118447491879183D+02 0.118280374915701D+02 -.395452384553807D+02
 0.803087278329519D+02 -.440023646427969D+02 -.501849456749860D+02 0.446626790462483D+02
 0.274454849670413D+02 -.265460225855362D+02 -.692580540448714D+01 -.772366145989148D+00
0.201116474002D-06 0.000000000000D+00 0.000000000000D+00 0.300886437373D-07 0.000000000000D+00  6 -4 22 9900012 11 -3 21 0 0.14430686D-01 0.23662769D-01 0.10362124D+05 0.10362124D+05 0.10362124D+05 0.12077321D+01  1  2  2  2  6  5       -3 0.531964824685D-05 0.100000000000D+01
-.532228625003D-08 0.000000000000D+00 -.386170107675D-09 0.300886437373D-07 0.000000000000D+00  6 -4 22 9900012 11 -3 21 2 0.14430686D-01 0.23662769D-01 0.10362124D+05 0.10362124D+05 0.10362124D+05 0.12077321D+01  1  2  3  2  6  5       -3 -.205340541727D-06 0.100000000000D+01
-.191749931732D-08 0.000000000000D+00 0.000000000000D+00 0.300886437373D-07 0.000000000000D+00  6 -4 22 9900012 11 -3 21 2 0.14430686D-01 0.23662769D-01 0.10362124D+05 0.10362124D+05 0.10362124D+05 0.12077321D+01  1  2 15  2  6  5       -3 -.739795512838D-07 0.100000000000D+01
0.578484312459D-06 0.000000000000D+00 0.000000000000D+00 0.300886437373D-07 0.000000000000D+00  6 -4 22 9900012 11 -3 21 2 0.14430686D-01 0.23662769D-01 0.10034186D+05 0.10034186D+05 0.10034186D+05 0.12091763D+01  1  2 12  2  6  5       -3 0.222932980258D-04 0.100000000000D+01
-.306897259665D-06 0.000000000000D+00 0.000000000000D+00 0.300886437373D-07 0.000000000000D+00  6 -4 22 9900012 11 -3 21 2 0.14430686D-01 0.23662769D-01 0.10362124D+05 0.10362124D+05 0.10362124D+05 0.12077321D+01  1  2  4  2  6  5       -3 -.118404848206D-04 0.100000000000D+01
-.556026921876D-06 0.000000000000D+00 0.000000000000D+00 0.300886437373D-07 0.000000000000D+00  6 -4 22 9900012 11 -3 21 2 0.14430686D-01 0.23662769D-01 0.10362124D+05 0.10362124D+05 0.10362124D+05 0.12077321D+01  1  2  5  2  6  5       -3 -.214522225956D-04 0.100000000000D+01
0.719957332207D-06 0.000000000000D+00 -.000000000000D+00 0.300886437373D-07 0.000000000000D+00  6 -4 22 9900012 11 -3 21 2 0.14430686D-01 0.23662769D-01 0.10362124D+05 0.10362124D+05 0.10362124D+05 0.12077321D+01  1  2  6  2  6  5       -3 0.277768653678D-04 0.100000000000D+01
  </mgrwgt>
  </event>
  <event>
  7     66 -.15536137E-05 0.66015298E+01 0.78161638E-02 0.13127951E+00
       -2 -1    0    0    0  501 0.00000000E+00 0.00000000E+00 0.14089193E+04 0.14089193E+04 0.00000000E+00 0.0000E+00 0.9000E+01
       22 -1    0    0    0    0 0.00000000E+00 0.00000000E+00 -.28278373E+01 0.28278373E+01 0.00000000E+00 0.0000E+00 0.9000E+01
      -24  2    1    2    0    0 -.11319591E+02 -.14128297E+01 0.13006475E+04 0.13031327E+04 0.79629360E+02 0.0000E+00 0.0000E+00
  9900012  1    3    3    0    0 -.26086000E+02 -.50799037E+01 0.12006358E+04 0.12019703E+04 0.50000000E+02 0.0000E+00 0.9000E+01
       11  1    3    3    0    0 0.14766409E+02 0.36670739E+01 0.10001169E+03 0.10116241E+03 0.00000000E+00 0.0000E+00 0.9000E+01
       -1  1    1    2    0  502 0.30488464E+01 0.96005810E+01 0.80041856E+02 0.80673201E+02 0.00000000E+00 0.0000E+00 0.9000E+01
       21  1    1    2  502  501 0.82707443E+01 -.81877513E+01 0.25402082E+02 0.27941193E+02 0.00000000E+00 0.0000E+00 0.9000E+01
#aMCatNLO 2  0  0  5  1 0.10335994D+02 0.00000000D+00  -5  6  0 0.00000000D+00 0.00000000D+00 0.00000000D+00 0.00000000D+00 0.00000000D+00
  <mgrwgt>
 -.3481604695D-05    2    2    0
 0.631204761887733D+02 0.000000000000000D+00 0.000000000000000D+00 0.631204761887733D+02
 0.631204761887733D+02 -.000000000000000D+00 -.000000000000000D+00 -.631204761887733D+02
 0.716584101837126D+02 -.275826040481990D+02 -.526669899892263D+01 0.429696356236846D+02
 0.165760832501765D+02 0.144047086597050D+02 0.362192907840270D+01 -.735884054024963D+01
 0.380064589436576D+02 0.131778953884940D+02 0.164476992051993D+01 -.356107950834349D+02
 0.000000000000000D+00 0.000000000000000D+00 0.000000000000000D+00 -.000000000000000D+00
 0.631204761887733D+02 0.000000000000000D+00 0.000000000000000D+00 0.631204761887733D+02
 0.631204761887733D+02 -.000000000000000D+00 -.000000000000000D+00 -.631204761887733D+02
 0.687129331872091D+02 -.260860000473841D+02 -.507990367456306D+01 0.389253435100438D+02
 0.173489957851472D+02 0.147664093301764D+02 0.366707394907322D+01 -.833626888354511D+01
 0.106462278585271D+02 0.304884639350642D+01 0.960058103591794D+01 -.344609156251769D+01
 0.295327955466632D+02 0.827074432370126D+01 -.818775131042809D+01 -.271429830639810D+02
-.149181552271D-06 0.000000000000D+00 0.000000000000D+00 0.326337903482D-06 0.000000000000D+00  6 -2 22 9900012 11 -1 21 2 0.21675681D+00 0.43505189D-03 0.21879066D+04 0.21879066D+04 0.21879066D+04 0.12844092D+01  1  2 13  2  6  5       -1 -.786277239938D-05 0.100000000000D+01
0.831245476337D-07 0.000000000000D+00 0.000000000000D+00 0.326337903482D-06 0.205093433551D-08  6 -2 22 9900012 11 -1 21 2 0.21675681D+00 0.43505189D-03 0.21879066D+04 0.21879066D+04 0.21879066D+04 0.12844092D+01  1  2  1  2  6  5       -1 0.438116770403D-05 0.100000000000D+01
  </mgrwgt>
  </event>
  <event>
  7     66 0.15536137E-05 0.38667527E+02 0.78161638E-02 0.12501557E+00
       -2 -1    0    0    0  501 0.00000000E+00 0.00000000E+00 0.95458698E+02 0.95458698E+02 0.00000000E+00 0.0000E+00 0.9000E+01
       22 -1    0    0    0    0 -.00000000E+00 -.00000000E+00 -.27774120E+03 0.27774120E+03 0.00000000E+00 0.0000E+00 0.9000E+01
      -24  2    1    2    0    0 0.28918047E+02 -.37875375E+02 0.66371502E+02 0.11287034E+03 0.77870013E+02 0.0000E+00 0.0000E+00
  9900012  1    3    3    0    0 0.32819689E+02 -.25350290E+02 0.73375799E+02 0.97998862E+02 0.50000000E+02 0.0000E+00 0.9000E+01
       11  1    3    3    0    0 -.39016412E+01 -.12525085E+02 -.70042962E+01 0.14871474E+02 0.00000000E+00 0.0000E+00 0.9000E+01
       -1  1    1    2    0  502 -.46165637E+01 0.39726463E+01 -.17926125E+03 0.17936468E+03 0.00000000E+00 0.0000E+00 0.9000E+01
       21  1    1    2  502  501 -.24301484E+02 0.33902729E+02 -.69392756E+02 0.80964879E+02 0.00000000E+00 0.0000E+00 0.9000E+01
#aMCatNLO 2  0  0  5  1 0.28682999D+02 0.00000000D+00  -5  6  0 0.00000000D+00 0.00000000D+00 0.00000000D+00 0.00000000D+00 0.00000000D+00
  <mgrwgt>
 0.6085605742D-04    2    2    0
 0.162827557621643D+03 0.000000000000000D+00 0.000000000000000D+00 0.162827557621643D+03
 0.162827557621643D+03 -.000000000000000D+00 -.000000000000000D+00 -.162827557621643D+03
 0.158903603015006D+03 0.339701911607901D+02 -.268571592813697D+02 0.144482089405521D+03
 0.132340169483600D+02 -.380454043540394D+01 -.126522626175899D+02 0.764805413418319D+00
 0.153517495279919D+03 -.301656507253862D+02 0.395094218989595D+02 -.145246894818940D+03
 0.000000000000000D+00 0.000000000000000D+00 0.000000000000000D+00 0.000000000000000D+00
 0.162827557621643D+03 0.000000000000000D+00 0.000000000000000D+00 0.162827557621643D+03
 0.162827557621643D+03 -.000000000000000D+00 -.000000000000000D+00 -.162827557621643D+03
 0.153377875222570D+03 0.328196885483239D+02 -.253502899774190D+02 0.138942446536118D+03
 0.131220778843886D+02 -.390164115405884D+01 -.125250850773156D+02 0.297267749546774D+00
 0.105211591829343D+03 -.461656368067873D+01 0.397264631970325D+01 -.105035158286476D+03
 0.539435703069834D+02 -.243014837135863D+02 0.339027287350313D+02 -.342045559991887D+02
-.149369981462D-06 0.000000000000D+00 0.000000000000D+00 0.858912642229D-07 0.000000000000D+00  6 -2 22 9900012 11 -1 21 2 0.14685954D-01 0.42729416D-01 0.39615560D+04 0.39615560D+04 0.39615560D+04 0.12533922D+01  1  2 13  2  6  5       -1 -.353496663980D-05 0.100000000000D+01
0.272084210392D-05 0.000000000000D+00 0.000000000000D+00 0.858912642229D-07 0.600346418065D-08  6 -2 22 9900012 11 -1 21 2 0.14685954D-01 0.42729416D-01 0.39615560D+04 0.39615560D+04 0.39615560D+04 0.12533922D+01  1  2  1  2  6  5       -1 0.643910240559D-04 0.100000000000D+01
  </mgrwgt>
  </event>
  <event>
  6     66 0.15536137E-05 0.11516503E+02 0.78161638E-02 0.11013403E+00
       -2 -1    0    0    0  501 0.00000000E+00 0.00000000E+00 0.45516597E+03 0.45516597E+03 0.00000000E+00 0.0000E+00 0.9000E+01
       22 -1    0    0    0    0 0.00000000E+00 0.00000000E+00 -.16844534E+02 0.16844534E+02 0.00000000E+00 0.0000E+00 0.9000E+01
      -24  2    1    2    0    0 0.11148528E+02 0.28879326E+01 0.44911942E+03 0.45622360E+03 0.79366855E+02 0.0000E+00 0.0000E+00
  9900012  1    3    3    0    0 0.31059995E+02 0.67308876E+01 0.30696495E+03 0.31262998E+03 0.50000000E+02 0.0000E+00 0.9000E+01
       11  1    3    3    0    0 -.19911467E+02 -.38429551E+01 0.14215447E+03 0.14359362E+03 0.00000000E+00 0.0000E+00 0.9000E+01
       -1  1    1    2    0  501 -.11148528E+02 -.28879326E+01 -.10797979E+02 0.15786899E+02 0.00000000E+00 0.0000E+00 0.9000E+01
#aMCatNLO 1  0  0  1  5 0.84968075D+01 0.00000000D+00  -5  6  0 0.00000000D+00 0.00000000D+00 0.00000000D+00 0.00000000D+00 0.00000000D+00
  <mgrwgt>
 0.7012888019D-05    5    4    0
 0.875617408992750D+02 0.000000000000000D+00 0.000000000000000D+00 0.875617408992750D+02
 0.875617408992750D+02 0.000000000000000D+00 0.000000000000000D+00 -.875617408992750D+02
 0.743208136872648D+02 0.310599951010593D+02 0.673088761900153D+01 0.448726554074938D+02
 0.312256587958872D+02 -.199114669692241D+02 -.384295506316171D+01 0.237446193221367D+02
 0.695770093153980D+02 -.111485281318352D+02 -.288793255583982D+01 -.686172747296304D+02
 0.000000000000000D+00 0.000000000000000D+00 0.000000000000000D+00 0.000000000000000D+00
 0.303320796340984D+03 0.000000000000000D+00 0.000000000000000D+00 0.303320796340984D+03
 0.129263126452644D+03 0.000000000000000D+00 0.000000000000000D+00 -.129263126452644D+03
 0.768314122834288D+02 0.749576001557972D+01 -.365147133623609D+02 0.448726554074938D+02
 0.480487734577078D+02 -.322701427736665D+02 -.265238679193687D+02 0.237446193221367D+02
 0.918419366148332D+02 -.363133178974042D+02 -.490709065855067D+02 -.686172747296304D+02
 0.215861800437658D+03 0.610877006554910D+02 0.112109487867236D+03 0.174057669888341D+03
 0.875617408992750D+02 0.000000000000000D+00 0.000000000000000D+00 0.875617408992750D+02
 0.875617408992750D+02 0.000000000000000D+00 0.000000000000000D+00 -.875617408992750D+02
 0.743208136872648D+02 0.310599951010593D+02 0.673088761900153D+01 0.448726554074938D+02
 0.312256587958872D+02 -.199114669692241D+02 -.384295506316171D+01 0.237446193221367D+02
 0.000000000000000D+00 0.000000000000000D+00 0.000000000000000D+00 0.000000000000000D+00
 0.695770093153980D+02 -.111485281318352D+02 -.288793255583982D+01 -.686172747296304D+02
 0.303320796340984D+03 0.000000000000000D+00 0.000000000000000D+00 0.303320796340984D+03
 0.129263126452644D+03 0.000000000000000D+00 0.000000000000000D+00 -.129263126452644D+03
 0.768314122834288D+02 0.749576001557972D+01 -.365147133623609D+02 0.448726554074938D+02
 0.480487734577078D+02 -.322701427736665D+02 -.265238679193687D+02 0.237446193221367D+02
 0.215861800437658D+03 0.610877006554910D+02 0.112109487867236D+03 0.174057669888341D+03
 0.918419366148332D+02 -.363133178974042D+02 -.490709065855067D+02 -.686172747296304D+02
0.134680302826D-06 0.000000000000D+00 0.000000000000D+00 0.464843329558D-06 0.000000000000D+00  6 -2 22 9900012 11 -1 21 0 0.70025534D-01 0.25914667D-02 0.20721122D+04 0.20721122D+04 0.20721122D+04 0.12873702D+01  1  2  2  1  6  1       -2 0.712149609015D-05 0.100000000000D+01
-.676705360847D-08 0.000000000000D+00 -.258603912495D-09 0.464843329558D-06 0.000000000000D+00  6 -2 22 9900012 11 -1 21 2 0.70025534D-01 0.25914667D-02 0.20721122D+04 0.20721122D+04 0.20721122D+04 0.12873702D+01  1  2  3  1  6  1       -2 -.593025881925D-06 0.100000000000D+01
0.387802648736D-08 0.000000000000D+00 0.000000000000D+00 0.464843329558D-06 0.000000000000D+00  6 -2 22 9900012 11 -1 21 2 0.70025534D-01 0.25914667D-02 0.20721122D+04 0.20721122D+04 0.20721122D+04 0.12873702D+01  1  2 15  1  6  1       -2 0.339848065474D-06 0.100000000000D+01
0.301833383149D-07 0.000000000000D+00 -.315820920202D-07 0.464843329558D-06 0.000000000000D+00  6 -2 22 9900012 11 -1 21 2 0.29426465D+00 0.25914667D-02 0.20721122D+04 0.20721122D+04 0.20721122D+04 0.12873702D+01  1  2  5  1  6  1       -2 0.499709154115D-07 0.100000000000D+01
0.530857371748D-08 0.000000000000D+00 -.544354381058D-08 0.464843329558D-06 0.000000000000D+00  6 21 22 9900012 11 2 -1 2 0.29426465D+00 0.25914667D-02 0.20721122D+04 0.20721122D+04 0.20721122D+04 0.12873702D+01  3  4  5  3  5  1       -2 0.945988296992D-07 0.100000000000D+01
  </mgrwgt>
  </event>
</LesHouchesEvents>
