<LesHouchesEvents version="3.0">
  <!--
  <scalesfunctionalform>
    muR  H_T/2 := sum_i mT(i)/2, i=final state
    muF1 H_T/2 := sum_i mT(i)/2, i=final state
    muF2 H_T/2 := sum_i mT(i)/2, i=final state
    QES  H_T/2 := sum_i mT(i)/2, i=final state
  </scalesfunctionalform>
PYTHIA8   
  -->
  <header>
        3
  </header>
  <init>
   2212   2212 0.65000000D+04 0.65000000D+04 -1 -1  82200  82200 -4   1
 0.96428132D-06 0.21478831D-07 0.67013590D-06     66
  </init>
  <event>
  5     66 0.67013590E-06 0.31823905E+02 0.78161638E-02 0.11227694E+00
       -4 -1    0    0    0  501 0.00000000E+00 0.00000000E+00 0.21891537E+03 0.21891537E+03 0.00000000E+00 0.0000E+00 0.9000E+01
       22 -1    0    0    0    0 0.00000000E+00 0.00000000E+00 -.50365049E+02 0.50365049E+02 0.00000000E+00 0.0000E+00 0.9000E+01
  9900012  1    1    2    0    0 0.16599737E+02 -.40328665E+01 0.19961365E+03 0.20648832E+03 0.50000000E+02 0.0000E+00 0.9000E+01
       11  1    1    2    0    0 0.16660520E+01 -.22027100E+02 -.80175402E+01 0.23499996E+02 0.00000000E+00 0.0000E+00 0.9000E+01
       -3  1    1    2    0  501 -.18265789E+02 0.26059967E+02 -.23045792E+02 0.39292104E+02 0.00000000E+00 0.0000E+00 0.9000E+01
#aMCatNLO 1  0  0  1  1 0.13470728D+03 0.00000000D+00  -5  6  0 0.00000000D+00 0.00000000D+00 0.00000000D+00 0.00000000D+00 0.00000000D+00
  <mgrwgt>
 0.3091248959D-05    3    2    0
 0.105003254283046D+03 0.000000000000000D+00 0.000000000000000D+00 0.105003254283046D+03
 0.105003254283046D+03 0.000000000000000D+00 0.000000000000000D+00 -.105003254283046D+03
 0.104560167971417D+03 0.165997374147918D+02 -.403286653073305D+01 0.902275646990219D+02
 0.365676659797079D+02 0.166605201720728D+01 -.220271003665072D+02 -.291414707131137D+02
 0.688786746149677D+02 -.182657894319991D+02 0.260599668972402D+02 -.610860939859082D+02
 0.000000000000000D+00 0.000000000000000D+00 0.000000000000000D+00 -.000000000000000D+00
 0.152217767959883D+03 0.000000000000000D+00 0.000000000000000D+00 0.152217767959883D+03
 0.199513939143753D+03 0.000000000000000D+00 0.000000000000000D+00 -.199513939143753D+03
 0.111001967826902D+03 -.276764633506790D+02 -.302396561873151D+02 0.902275646990219D+02
 0.459394523640172D+02 -.152808098369779D+02 -.320578355306258D+02 -.291414707131137D+02
 0.784382687444266D+02 -.485245105945999D+02 0.815003047370086D+01 -.610860939859082D+02
 0.116352018168290D+03 0.914817837822568D+02 0.541474612442401D+02 -.472961711838700D+02
0.160575158959D-06 0.000000000000D+00 0.000000000000D+00 0.105924557278D-08 0.000000000000D+00  6 -4 22 9900012 11 -3 21 0 0.33679288D-01 0.77484691D-02 0.28489736D+04 0.28489736D+04 0.28489736D+04 0.12703254D+01  1  2  2  1  6  1       -4 0.396397094088D-05 0.100000000000D+01
-.779999527460D-08 0.000000000000D+00 -.308325445406D-09 0.105924557278D-08 0.000000000000D+00  6 -4 22 9900012 11 -3 21 2 0.33679288D-01 0.77484691D-02 0.28489736D+04 0.28489736D+04 0.28489736D+04 0.12703254D+01  1  2  3  1  6  1       -4 -.310725159921D-06 0.100000000000D+01
-.141075558729D-07 0.000000000000D+00 0.000000000000D+00 0.105924557278D-08 0.000000000000D+00  6 -4 22 9900012 11 -3 21 2 0.33679288D-01 0.77484691D-02 0.28489736D+04 0.28489736D+04 0.28489736D+04 0.12703254D+01  1  2 15  1  6  1       -4 -.561996821842D-06 0.100000000000D+01
  </mgrwgt>
  </event>
  <event>
  5     66 0.67013590E-06 0.97697126E+02 0.78161638E-02 0.11007812E+00
       -2 -1    0    0    0  501 0.00000000E+00 0.00000000E+00 0.61560880E+01 0.61560880E+01 0.00000000E+00 0.0000E+00 0.9000E+01
       22 -1    0    0    0    0 0.00000000E+00 0.00000000E+00 -.31699345E+04 0.31699345E+04 0.00000000E+00 0.0000E+00 0.9000E+01
  9900012  1    1    2    0    0 -.86148385E+02 0.30628375E+02 -.64958649E+03 0.65789228E+03 0.50000000E+02 0.0000E+00 0.9000E+01
       11  1    1    2    0    0 -.10488829E+02 -.16276470E+02 -.12797275E+04 0.12798740E+04 0.00000000E+00 0.0000E+00 0.9000E+01
       -1  1    1    2    0  501 0.96637215E+02 -.14351904E+02 -.12344644E+04 0.12383243E+04 0.00000000E+00 0.0000E+00 0.9000E+01
#aMCatNLO 1  0  0  1  5 0.12287846D+03 0.00000000D+00  -5  6  0 0.00000000D+00 0.00000000D+00 0.00000000D+00 0.00000000D+00 0.00000000D+00
  <mgrwgt>
 0.2208475644D-05    4    2    0
 0.139693937242443D+03 0.000000000000000D+00 0.000000000000000D+00 0.139693937242443D+03
 0.139693937242443D+03 0.000000000000000D+00 0.000000000000000D+00 -.139693937242443D+03
 0.123046711781745D+03 -.861483854647726D+02 0.306283749254251D+02 0.654282172425662D+02
 0.580607705250874D+02 -.104888293733995D+02 -.162764704975526D+02 -.547367704608600D+02
 0.982803921780528D+02 0.966372148381720D+02 -.143519044278725D+02 -.106914467817062D+02
 0.000000000000000D+00 0.000000000000000D+00 -.000000000000000D+00 -.000000000000000D+00
 0.156552302915215D+03 0.000000000000000D+00 0.000000000000000D+00 0.156552302915215D+03
 0.204480843820196D+03 0.000000000000000D+00 0.000000000000000D+00 -.204480843820196D+03
 0.143854958444629D+03 -.113767456432082D+03 0.311506551221595D+02 0.654282172425662D+02
 0.614480239382820D+02 -.228556379913518D+02 -.160426125504259D+02 -.547367704608600D+02
 0.801353136312530D+02 0.781747000241943D+02 -.140027758898174D+02 -.106914467817062D+02
 0.755948507212475D+02 0.584483943992395D+02 -.110526668191620D+01 -.479285409049815D+02
0.154020369444D-05 0.000000000000D+00 0.000000000000D+00 0.149063206381D-08 0.000000000000D+00  6 -2 22 9900012 11 -1 21 0 0.94709047D-03 0.48768224D+00 0.12240111D+05 0.12240111D+05 0.12240111D+05 0.12003366D+01  1  2  2  1  6  1       -2 0.298954296548D-05 0.100000000000D+01
-.765525317842D-07 0.000000000000D+00 -.295739386580D-08 0.149063206381D-08 0.000000000000D+00  6 -2 22 9900012 11 -1 21 2 0.94709047D-03 0.48768224D+00 0.12240111D+05 0.12240111D+05 0.12240111D+05 0.12003366D+01  1  2  3  1  6  1       -2 -.214087980088D-06 0.100000000000D+01
-.183213606388D-06 0.000000000000D+00 0.000000000000D+00 0.149063206381D-08 0.000000000000D+00  6 -2 22 9900012 11 -1 21 2 0.94709047D-03 0.48768224D+00 0.12240111D+05 0.12240111D+05 0.12240111D+05 0.12003366D+01  1  2 15  1  6  1       -2 -.512377971076D-06 0.100000000000D+01
-.195240906139D-07 0.000000000000D+00 0.000000000000D+00 0.149063206381D-08 0.000000000000D+00  6 -2 22 9900012 11 -1 21 2 0.94709047D-03 0.48768224D+00 0.12240111D+05 0.12240111D+05 0.12240111D+05 0.12003366D+01  1  2  4  1  6  1       -2 -.546013701333D-07 0.100000000000D+01
  </mgrwgt>
  </event>
  <event>
  5     66 0.67013590E-06 0.17992863E+03 0.78161638E-02 0.10596355E+00
       -2 -1    0    0    0  501 0.00000000E+00 0.00000000E+00 0.23467635E+03 0.23467635E+03 0.00000000E+00 0.0000E+00 0.9000E+01
       22 -1    0    0    0    0 -.00000000E+00 -.00000000E+00 -.26253471E+03 0.26253471E+03 0.00000000E+00 0.0000E+00 0.9000E+01
  9900012  1    1    2    0    0 0.45581890E+01 0.18828848E+03 -.82018511E+02 0.21142461E+03 0.50000000E+02 0.0000E+00 0.9000E+01
       11  1    1    2    0    0 0.16056450E+02 -.24919485E+01 -.63071955E+02 0.65131336E+02 0.00000000E+00 0.0000E+00 0.9000E+01
       -1  1    1    2    0  501 -.20614638E+02 -.18579653E+03 0.11723211E+03 0.22065512E+03 0.00000000E+00 0.0000E+00 0.9000E+01
#aMCatNLO 1  0  0  5  1 0.32417830D+02 0.00000000D+00  -5  6  0 0.00000000D+00 0.00000000D+00 0.00000000D+00 0.00000000D+00 0.00000000D+00
  <mgrwgt>
 0.2191075302D-05    7    2    0
 0.248215006502630D+03 0.000000000000000D+00 0.000000000000000D+00 0.248215006502630D+03
 0.248215006502630D+03 -.000000000000000D+00 -.000000000000000D+00 -.248215006502630D+03
 0.207154589299082D+03 0.455818895188696D+01 0.188288483291245D+03 -.702829555513485D+02
 0.616943758989162D+02 0.160564495294480D+02 -.249194854179467D+01 -.595161880376264D+02
 0.227581047807262D+03 -.206146384813349D+02 -.185796534749451D+03 0.129799143588975D+03
 0.000000000000000D+00 0.000000000000000D+00 0.000000000000000D+00 0.000000000000000D+00
 0.248215006502630D+03 0.000000000000000D+00 0.000000000000000D+00 0.248215006502630D+03
 0.248215006502630D+03 -.000000000000000D+00 -.000000000000000D+00 -.248215006502630D+03
 0.201803387321879D+03 0.404023103896454D+01 0.183620209071730D+03 -.670216568594827D+02
 0.607852983090035D+02 0.159013252378219D+02 -.389005968818614D+01 -.585394549156200D+02
 0.183441177092047D+03 -.176183172195281D+02 -.165429034197895D+03 0.772883884915424D+02
 0.504001502823309D+02 -.232323905725833D+01 -.143011151856488D+02 0.482727232835602D+02
0.151647119983D-06 0.000000000000D+00 0.000000000000D+00 0.702044988615D-08 0.000000000000D+00  6 -2 22 9900012 11 -1 21 0 0.36104055D-01 0.40389956D-01 0.39611509D+05 0.39611509D+05 0.39611509D+05 0.11518677D+01  1  2  2  2  6  5       -1 0.659278099627D-06 0.100000000000D+01
-.278807506652D-08 0.000000000000D+00 -.291182435168D-09 0.702044988615D-08 0.000000000000D+00  6 -2 22 9900012 11 -1 21 2 0.36104055D-01 0.40389956D-01 0.39611509D+05 0.39611509D+05 0.39611509D+05 0.11518677D+01  1  2  3  2  6  5       -1 -.160821514237D-07 0.100000000000D+01
-.235518596259D-07 0.000000000000D+00 0.000000000000D+00 0.702044988615D-08 0.000000000000D+00  6 -2 22 9900012 11 -1 21 2 0.36104055D-01 0.40389956D-01 0.39611509D+05 0.39611509D+05 0.39611509D+05 0.11518677D+01  1  2 15  2  6  5       -1 -.135851640926D-06 0.100000000000D+01
0.297323077457D-06 0.000000000000D+00 0.000000000000D+00 0.702044988615D-08 0.000000000000D+00  6 -2 22 9900012 11 -1 21 2 0.36104055D-01 0.40389956D-01 0.37553073D+05 0.37553073D+05 0.37553073D+05 0.11539399D+01  1  2 12  2  6  5       -1 0.171678300501D-05 0.100000000000D+01
-.761464805925D-07 0.000000000000D+00 0.000000000000D+00 0.702044988615D-08 0.000000000000D+00  6 -2 22 9900012 11 -1 21 2 0.36104055D-01 0.40389956D-01 0.39611509D+05 0.39611509D+05 0.39611509D+05 0.11518677D+01  1  2  4  2  6  5       -1 -.439227496410D-06 0.100000000000D+01
-.287140084664D-06 0.000000000000D+00 0.000000000000D+00 0.702044988615D-08 0.000000000000D+00  6 -2 22 9900012 11 -1 21 2 0.36104055D-01 0.40389956D-01 0.39611509D+05 0.39611509D+05 0.39611509D+05 0.11518677D+01  1  2  5  2  6  5       -1 -.165627904960D-05 0.100000000000D+01
0.357556518101D-06 0.000000000000D+00 -.000000000000D+00 0.702044988615D-08 0.000000000000D+00  6 -2 22 9900012 11 -1 21 2 0.36104055D-01 0.40389956D-01 0.39611509D+05 0.39611509D+05 0.39611509D+05 0.11518677D+01  1  2  6  2  6  5       -1 0.206245453564D-05 0.100000000000D+01
  </mgrwgt>
  </event>
</LesHouchesEvents>
