<LesHouchesEvents version="3.0">
  <!--
  <scalesfunctionalform>
    muR  H_T/2 := sum_i mT(i)/2, i=final state
    muF1 H_T/2 := sum_i mT(i)/2, i=final state
    muF2 H_T/2 := sum_i mT(i)/2, i=final state
    QES  H_T/2 := sum_i mT(i)/2, i=final state
  </scalesfunctionalform>
PYTHIA8   
  -->
  <header>
        5
  </header>
  <init>
   2212   2212 0.65000000D+04 0.65000000D+04 -1 -1  82200  82200 -4   1
 0.36042953D-05 0.52297069D-07 0.10147021D-05     66
  </init>
  <event>
  6     66 0.10147021E-05 0.19506225E+02 0.78161638E-02 0.12729641E+00
        2 -1    0    0  501    0 0.00000000E+00 0.00000000E+00 0.24580601E+01 0.24580601E+01 0.00000000E+00 0.0000E+00 0.9000E+01
       22 -1    0    0    0    0 -.00000000E+00 -.00000000E+00 -.14461745E+04 0.14461745E+04 0.00000000E+00 0.0000E+00 0.9000E+01
       24  2    1    2    0    0 -.25325174E+02 0.12864106E+02 -.91808717E+03 0.92223634E+03 0.82637572E+02 0.0000E+00 0.0000E+00
  9900012  1    3    3    0    0 -.37278391E+02 -.51359816E+01 -.55723174E+03 0.56073458E+03 0.50000000E+02 0.0000E+00 0.9000E+01
      -13  1    3    3    0    0 0.11953217E+02 0.18000087E+02 -.36085542E+03 0.36150176E+03 0.00000000E+00 0.0000E+00 0.9000E+01
        1  1    1    2  501    0 0.25325174E+02 -.12864106E+02 -.52562930E+03 0.52639624E+03 0.00000000E+00 0.0000E+00 0.9000E+01
#aMCatNLO 1  0  0  5  1 0.11605022D+02 0.00000000D+00  -5  6  0 0.00000000D+00 0.00000000D+00 0.00000000D+00 0.00000000D+00 0.00000000D+00
  <mgrwgt>
 0.9864463598D-05    7    2    0
 0.596220089025809D+02 0.000000000000000D+00 0.000000000000000D+00 0.596220089025809D+02
 0.596220089025809D+02 -.000000000000000D+00 -.000000000000000D+00 -.596220089025809D+02
 0.655273613014782D+02 -.372783905854606D+02 -.513598158234390D+01 0.194365214912065D+02
 0.227290747196338D+02 0.119532166035023D+02 0.180000871944861D+02 -.705183036036401D+01
 0.309875817840498D+02 0.253251739819583D+02 -.128641056121422D+02 -.123846911308425D+02
 0.000000000000000D+00 0.000000000000000D+00 0.000000000000000D+00 -.000000000000000D+00
 0.596220089025809D+02 0.000000000000000D+00 0.000000000000000D+00 0.596220089025809D+02
 0.596220089025809D+02 -.000000000000000D+00 -.000000000000000D+00 -.596220089025809D+02
 0.627674651592505D+02 -.329537046772692D+02 -.733273712297516D+01 0.173216337810959D+02
 0.232291935471175D+02 0.135024222934054D+02 0.172131569398690D+02 -.780943360452190D+01
 0.162849823002015D+02 0.973438099478971D+01 -.123728457947074D+02 0.416595272495312D+01
 0.169623767985923D+02 0.971690138907404D+01 0.249242597781355D+01 -.136781529015271D+02
0.803261015822D-07 0.000000000000D+00 0.000000000000D+00 0.108745092433D-07 0.000000000000D+00  6 2 22 9900012 -13 1 21 0 0.37816310D-03 0.22248839D+00 0.31691815D+04 0.31691815D+04 0.31691815D+04 0.12647742D+01  1  2  2  2  6  5        1 0.839940799995D-05 0.100000000000D+01
-.264339797601D-08 0.000000000000D+00 -.154236690212D-09 0.108745092433D-07 0.000000000000D+00  6 2 22 9900012 -13 1 21 2 0.37816310D-03 0.22248839D+00 0.31691815D+04 0.31691815D+04 0.31691815D+04 0.12647742D+01  1  2  3  2  6  5        1 -.442161122151D-06 0.100000000000D+01
-.274352970079D-08 0.000000000000D+00 0.000000000000D+00 0.108745092433D-07 0.000000000000D+00  6 2 22 9900012 -13 1 21 2 0.37816310D-03 0.22248839D+00 0.31691815D+04 0.31691815D+04 0.31691815D+04 0.12647742D+01  1  2 15  2  6  5        1 -.458910153584D-06 0.100000000000D+01
0.239298237239D-07 0.000000000000D+00 0.000000000000D+00 0.108745092433D-07 0.000000000000D+00  6 2 22 9900012 -13 1 21 2 0.37816310D-03 0.22248839D+00 0.29150145D+04 0.29150145D+04 0.29150145D+04 0.12691244D+01  1  2 12  2  6  5        1 0.398355977628D-05 0.100000000000D+01
-.229031335929D-07 0.000000000000D+00 0.000000000000D+00 0.108745092433D-07 0.000000000000D+00  6 2 22 9900012 -13 1 21 2 0.37816310D-03 0.22248839D+00 0.31691815D+04 0.31691815D+04 0.31691815D+04 0.12647742D+01  1  2  4  2  6  5        1 -.383100665965D-05 0.100000000000D+01
-.200522425621D-07 0.000000000000D+00 0.000000000000D+00 0.108745092433D-07 0.000000000000D+00  6 2 22 9900012 -13 1 21 2 0.37816310D-03 0.22248839D+00 0.31691815D+04 0.31691815D+04 0.31691815D+04 0.12647742D+01  1  2  5  2  6  5        1 -.335413817872D-05 0.100000000000D+01
0.332857814136D-07 0.000000000000D+00 -.000000000000D+00 0.108745092433D-07 0.000000000000D+00  6 2 22 9900012 -13 1 21 2 0.37816310D-03 0.22248839D+00 0.31691815D+04 0.31691815D+04 0.31691815D+04 0.12647742D+01  1  2  6  2  6  5        1 0.556771193557D-05 0.100000000000D+01
  </mgrwgt>
  </event>
  <event>
  7     66 -.10147021E-05 0.17114993E+02 0.78161638E-02 0.12788437E+00
        4 -1    0    0  502    0 0.00000000E+00 0.00000000E+00 0.16295393E+03 0.16295393E+03 0.00000000E+00 0.0000E+00 0.9000E+01
       22 -1    0    0    0    0 0.00000000E+00 0.00000000E+00 -.27845203E+02 0.27845203E+02 0.00000000E+00 0.0000E+00 0.9000E+01
       24  2    1    2    0    0 0.38234955E+01 0.19244805E+02 0.52801851E+02 0.98606867E+02 0.80933907E+02 0.0000E+00 0.0000E+00
  9900012  1    3    3    0    0 0.97558728E+00 -.10085765E+02 0.45234217E+02 0.68182174E+02 0.50000000E+02 0.0000E+00 0.9000E+01
      -13  1    3    3    0    0 0.28479083E+01 0.29330570E+02 0.75676338E+01 0.30424694E+02 0.00000000E+00 0.0000E+00 0.9000E+01
        3  1    1    2  501    0 -.11568712E+02 -.17613059E+02 0.18941219E+02 0.28334161E+02 0.00000000E+00 0.0000E+00 0.9000E+01
       21  1    1    2  502  501 0.77452168E+01 -.16317462E+01 0.63365660E+02 0.63858107E+02 0.00000000E+00 0.0000E+00 0.9000E+01
#aMCatNLO 2  0  0  1  5 0.80043830D+01 0.00000000D+00  -5  6  0 0.00000000D+00 0.00000000D+00 0.00000000D+00 0.00000000D+00 0.00000000D+00
  <mgrwgt>
 -.1566255616D-05    2    2    0
 0.522118421643657D+02 0.000000000000000D+00 0.000000000000000D+00 0.522118421643657D+02
 0.522118421643657D+02 0.000000000000000D+00 0.000000000000000D+00 -.522118421643657D+02
 0.520369234232224D+02 0.481568980296294D+01 -.108947899452206D+02 0.812121192467420D+01
 0.315389588752845D+02 0.518961962157283D+01 0.288372230503969D+02 -.116699760866052D+02
 0.208478020302245D+02 -.100053094245358D+02 -.179424331051762D+02 0.354876416193096D+01
 0.000000000000000D+00 0.000000000000000D+00 -.000000000000000D+00 0.000000000000000D+00
 0.858904351411912D+02 0.000000000000000D+00 0.000000000000000D+00 0.858904351411912D+02
 0.528287623990681D+02 0.000000000000000D+00 0.000000000000000D+00 -.528287623990681D+02
 0.516587699438331D+02 0.975587279821129D+00 -.100857651392375D+02 0.812121192467420D+01
 0.316951298387578D+02 0.284790825695686D+01 0.293305699261664D+02 -.116699760866052D+02
 0.213693394145671D+02 -.115687123597775D+02 -.176130586291733D+02 0.354876416193096D+01
 0.339959583431012D+02 0.774521682299950D+01 -.163174615775560D+01 0.330616727421231D+02
-.528115724229D-07 0.000000000000D+00 0.000000000000D+00 0.606835307937D-07 0.000000000000D+00  6 4 22 9900012 -13 3 21 2 0.25366054D-01 0.42338515D-02 0.29960718D+04 0.29960718D+04 0.29960718D+04 0.12676918D+01  1  2 13  1  6  1        4 -.816233462891D-05 0.100000000000D+01
0.424424314024D-07 0.000000000000D+00 0.000000000000D+00 0.606835307937D-07 0.769554827427D-08  6 4 22 9900012 -13 3 21 2 0.25069836D-01 0.42838774D-02 0.29960718D+04 0.29960718D+04 0.29960718D+04 0.12676918D+01  1  2  1  1  6  1        4 0.659607901284D-05 0.100000000000D+01
  </mgrwgt>
  </event>
  <event>
  6     66 0.10147021E-05 0.80583541E+02 0.78161638E-02 0.10679000E+00
        2 -1    0    0  501    0 0.00000000E+00 0.00000000E+00 0.56608388E+03 0.56608388E+03 0.00000000E+00 0.0000E+00 0.9000E+01
       22 -1    0    0    0    0 0.00000000E+00 0.00000000E+00 -.34445035E+02 0.34445035E+02 0.00000000E+00 0.0000E+00 0.9000E+01
       24  2    1    2    0    0 -.10163373E+03 0.80728347E+02 0.26211038E+03 0.30137665E+03 0.72660538E+02 0.0000E+00 0.0000E+00
  9900012  1    3    3    0    0 -.60045874E+02 0.32417269E+02 0.16040606E+03 0.18134633E+03 0.50000000E+02 0.0000E+00 0.9000E+01
      -13  1    3    3    0    0 -.41587860E+02 0.48311078E+02 0.10170431E+03 0.12003032E+03 0.00000000E+00 0.0000E+00 0.9000E+01
        1  1    1    2  501    0 0.10163373E+03 -.80728347E+02 0.26952847E+03 0.29915226E+03 0.00000000E+00 0.0000E+00 0.9000E+01
#aMCatNLO 1  0  0  1  5 0.11579334D+03 0.00000000D+00  -5  6  0 0.00000000D+00 0.00000000D+00 0.00000000D+00 0.00000000D+00 0.00000000D+00
  <mgrwgt>
 0.6044773571D-05    6    2    0
 0.139638027771625D+03 0.000000000000000D+00 0.000000000000000D+00 0.139638027771625D+03
 0.139638027771625D+03 0.000000000000000D+00 0.000000000000000D+00 -.139638027771625D+03
 0.845959400197745D+02 -.600458735178963D+02 0.324172693618757D+02 -.294598746912826D+00
 0.644943011774221D+02 -.415878602740531D+02 0.483110777298714D+02 -.979819017820071D+01
 0.130185814346054D+03 0.101633733791949D+03 -.807283470917471D+02 0.100927889251136D+02
 0.000000000000000D+00 0.000000000000000D+00 0.000000000000000D+00 -.000000000000000D+00
 0.178538472081610D+03 0.000000000000000D+00 0.000000000000000D+00 0.178538472081610D+03
 0.189273764782668D+03 0.000000000000000D+00 0.000000000000000D+00 -.189273764782668D+03
 0.102911130465579D+03 -.852436611339974D+02 0.287077031779615D+02 -.294598746912826D+00
 0.763589535541533D+02 -.605161619566292D+02 0.455244922998179D+02 -.979819017820071D+01
 0.110505090529696D+03 0.692889358785283D+02 -.854900813516428D+02 0.100927889251136D+02
 0.780370623148500D+02 0.764708872120983D+02 0.112578858738635D+02 -.107352927010578D+02
0.911932014767D-07 0.000000000000D+00 0.000000000000D+00 0.217840651920D-08 0.000000000000D+00  6 2 22 9900012 -13 1 21 0 0.87089827D-01 0.52992361D-02 0.19339783D+05 0.19339783D+05 0.19339783D+05 0.11807159D+01  1  2  2  1  6  1        2 0.770725825879D-05 0.100000000000D+01
-.373962861242D-08 0.000000000000D+00 -.175102952696D-09 0.217840651920D-08 0.000000000000D+00  6 2 22 9900012 -13 1 21 2 0.87089827D-01 0.52992361D-02 0.19339783D+05 0.19339783D+05 0.19339783D+05 0.11807159D+01  1  2  3  1  6  1        2 -.440612438585D-06 0.100000000000D+01
-.425135021376D-08 0.000000000000D+00 0.000000000000D+00 0.217840651920D-08 0.000000000000D+00  6 2 22 9900012 -13 1 21 2 0.87089827D-01 0.52992361D-02 0.19339783D+05 0.19339783D+05 0.19339783D+05 0.11807159D+01  1  2 15  1  6  1        2 -.500904763308D-06 0.100000000000D+01
0.107627988267D-08 0.000000000000D+00 0.000000000000D+00 0.217840651920D-08 0.000000000000D+00  6 2 22 9900012 -13 1 21 2 0.15093232D+00 0.52992361D-02 0.33484748D+05 0.33484748D+05 0.33484748D+05 0.11584312D+01  1  2 12  1  6  1        2 0.653632513748D-07 0.100000000000D+01
-.670040896588D-08 0.000000000000D+00 0.000000000000D+00 0.217840651920D-08 0.000000000000D+00  6 2 22 9900012 -13 1 21 2 0.87089827D-01 0.52992361D-02 0.19339783D+05 0.19339783D+05 0.19339783D+05 0.11807159D+01  1  2  4  1  6  1        2 -.789459018516D-06 0.100000000000D+01
0.655579153441D-10 0.000000000000D+00 0.000000000000D+00 0.217840651920D-08 0.000000000000D+00  6 21 22 9900012 -13 1 -2 2 0.15093232D+00 0.52992361D-02 0.33484748D+05 0.33484748D+05 0.33484748D+05 0.11584312D+01  1  2 12  3  6  1        2 0.312828133768D-08 0.100000000000D+01
  </mgrwgt>
  </event>
  <event>
  6     66 0.10147021E-05 0.36429003E+02 0.78161638E-02 0.11531623E+00
        2 -1    0    0  501    0 0.00000000E+00 0.00000000E+00 0.84395047E+03 0.84395047E+03 0.00000000E+00 0.0000E+00 0.9000E+01
       22 -1    0    0    0    0 0.00000000E+00 0.00000000E+00 -.19467155E+02 0.19467155E+02 0.00000000E+00 0.0000E+00 0.9000E+01
       24  2    1    2    0    0 -.84812065E+01 0.35427975E+02 0.82249115E+03 0.82693419E+03 0.77468682E+02 0.0000E+00 0.0000E+00
  9900012  1    3    3    0    0 0.31109190E+01 0.29134937E+01 0.54467255E+03 0.54697930E+03 0.50000000E+02 0.0000E+00 0.9000E+01
      -13  1    3    3    0    0 -.11592125E+02 0.32514481E+02 0.27781860E+03 0.27995489E+03 0.00000000E+00 0.0000E+00 0.9000E+01
        1  1    1    2  501    0 0.84812065E+01 -.35427975E+02 0.19921674E+01 0.36483434E+02 0.00000000E+00 0.0000E+00 0.9000E+01
#aMCatNLO 1  0  0  1  5 0.11135682D+03 0.00000000D+00  -5  6  0 0.00000000D+00 0.00000000D+00 0.00000000D+00 0.00000000D+00 0.00000000D+00
  <mgrwgt>
 0.4079272006D-05    7    2    0
 0.128176889389650D+03 0.000000000000000D+00 0.000000000000000D+00 0.128176889389650D+03
 0.128176889389650D+03 0.000000000000000D+00 0.000000000000000D+00 -.128176889389650D+03
 0.904926693609761D+02 0.311091895368148D+01 0.291349372273138D+01 0.753044284598600D+02
 0.493895217670782D+02 -.115921254976253D+02 0.325144810066768D+02 0.353235900170757D+02
 0.116471587651246D+03 0.848120654394384D+01 -.354279747294082D+02 -.110628018476936D+03
 0.000000000000000D+00 -.000000000000000D+00 -.000000000000000D+00 0.000000000000000D+00
 0.174686449203039D+03 0.000000000000000D+00 0.000000000000000D+00 0.174686449203039D+03
 0.173052405719175D+03 0.000000000000000D+00 0.000000000000000D+00 -.173052405719175D+03
 0.960034113974197D+02 0.179205183552071D+02 0.269212383845305D+02 0.753044284598600D+02
 0.583852956794738D+02 -.303375866511412D+01 0.463883934648203D+02 0.353235900170757D+02
 0.113969140165516D+03 0.267804375566502D+02 -.576321110217092D+01 -.110628018476936D+03
 0.793810076798047D+02 -.416671972467432D+02 -.675464207471799D+02 0.163404348386393D+01
0.467211539977D-07 0.000000000000D+00 0.000000000000D+00 0.188605472505D-07 0.000000000000D+00  6 2 22 9900012 -13 1 21 0 0.12983853D+00 0.29949470D-02 0.36680856D+04 0.36680856D+04 0.36680856D+04 0.12572812D+01  1  2  2  1  6  1        2 0.487573012288D-05 0.100000000000D+01
-.194953396211D-08 0.000000000000D+00 -.897107666567D-10 0.188605472505D-07 0.000000000000D+00  6 2 22 9900012 -13 1 21 2 0.12983853D+00 0.29949470D-02 0.36680856D+04 0.36680856D+04 0.36680856D+04 0.12572812D+01  1  2  3  1  6  1        2 -.321604237675D-06 0.100000000000D+01
0.175670657745D-09 0.000000000000D+00 0.000000000000D+00 0.188605472505D-07 0.000000000000D+00  6 2 22 9900012 -13 1 21 2 0.12983853D+00 0.29949470D-02 0.36680856D+04 0.36680856D+04 0.36680856D+04 0.12572812D+01  1  2 15  1  6  1        2 0.289794530713D-07 0.100000000000D+01
-.940877135892D-08 0.000000000000D+00 0.000000000000D+00 0.188605472505D-07 0.000000000000D+00  6 2 22 9900012 -13 1 21 2 0.12983853D+00 0.29949470D-02 0.36680856D+04 0.36680856D+04 0.36680856D+04 0.12572812D+01  1  2  4  1  6  1        2 -.155211491523D-05 0.100000000000D+01
0.409679545534D-10 0.000000000000D+00 -.111187320606D-07 0.188605472505D-07 0.000000000000D+00  6 2 22 9900012 -13 1 21 2 0.21795040D+00 0.29949470D-02 0.36680856D+04 0.36680856D+04 0.36680856D+04 0.12572812D+01  1  2  5  1  6  1        2 0.332306192755D-08 0.100000000000D+01
0.620792597373D-08 0.000000000000D+00 0.977749604532D-08 0.188605472505D-07 0.000000000000D+00  6 2 22 9900012 -13 1 21 2 0.12983853D+00 0.29949470D-02 0.36680856D+04 0.36680856D+04 0.36680856D+04 0.12572812D+01  1  2  6  1  6  1        2 0.102408849455D-05 0.100000000000D+01
0.523843935481D-09 0.000000000000D+00 -.644856727414D-09 0.188605472505D-07 0.000000000000D+00  6 21 22 9900012 -13 1 -2 2 0.21795040D+00 0.29949470D-02 0.36680856D+04 0.36680856D+04 0.36680856D+04 0.12572812D+01  1  2  5  3  6  1        2 0.208700260520D-07 0.100000000000D+01
  </mgrwgt>
  </event>
  <event>
  6     66 0.10147021E-05 0.20781301E+02 0.78161638E-02 0.12926017E+00
        2 -1    0    0  501    0 0.00000000E+00 0.00000000E+00 0.10684499E+03 0.10684499E+03 0.00000000E+00 0.0000E+00 0.9000E+01
       22 -1    0    0    0    0 0.00000000E+00 0.00000000E+00 -.25486739E+02 0.25486739E+02 0.00000000E+00 0.0000E+00 0.9000E+01
       24  2    1    2    0    0 -.11904816E+02 0.17033433E+02 0.58234214E+02 0.10124180E+03 0.80167425E+02 0.0000E+00 0.0000E+00
  9900012  1    3    3    0    0 0.51261213E+01 -.23361286E+01 0.56104188E+02 0.75361890E+02 0.50000000E+02 0.0000E+00 0.9000E+01
      -13  1    3    3    0    0 -.17030937E+02 0.19369561E+02 0.21300260E+01 0.25879910E+02 0.00000000E+00 0.0000E+00 0.9000E+01
        1  1    1    2  501    0 0.11904816E+02 -.17033433E+02 0.23124034E+02 0.31089925E+02 0.00000000E+00 0.0000E+00 0.9000E+01
#aMCatNLO 1  0  0  1  5 0.82816144D+01 0.00000000D+00  -5  6  0 0.00000000D+00 0.00000000D+00 0.00000000D+00 0.00000000D+00 0.00000000D+00
  <mgrwgt>
 0.3611309470D-04    8    2    0
 0.521836205470266D+02 0.000000000000000D+00 0.000000000000000D+00 0.521836205470266D+02
 0.521836205470266D+02 0.000000000000000D+00 0.000000000000000D+00 -.521836205470266D+02
 0.518192344593937D+02 0.512612127925713D+01 -.233612859276943D+01 0.123894488895191D+02
 0.311538173823727D+02 -.170309373853385D+02 0.193695613408198D+02 -.174736259183699D+02
 0.213941892522868D+02 0.119048161060814D+02 -.170334327480503D+02 0.508417702885079D+01
 0.000000000000000D+00 0.000000000000000D+00 -.000000000000000D+00 -.000000000000000D+00
 0.545065268071537D+02 0.000000000000000D+00 0.000000000000000D+00 0.545065268071537D+02
 0.554364875297273D+02 0.000000000000000D+00 0.000000000000000D+00 -.554364875297273D+02
 0.516216218366601D+02 0.333969511061177D+01 -.373943617793722D+00 0.123894488895191D+02
 0.325188168217760D+02 -.181305653664075D+02 0.205773770011515D+02 -.174736259183699D+02
 0.203642573730326D+02 0.111836466911652D+02 -.162413105684735D+02 0.508417702885079D+01
 0.543831830541228D+01 0.360722356463050D+01 -.396212281488436D+01 -.929960722573598D+00
0.243359145629D-07 0.000000000000D+00 0.000000000000D+00 0.132219540936D-06 0.000000000000D+00  6 2 22 9900012 -13 1 21 0 0.16437690D-01 0.39210367D-02 0.23469060D+04 0.23469060D+04 0.23469060D+04 0.12806207D+01  1  2  2  1  6  1        2 0.156936761701D-04 0.100000000000D+01
0.212192248555D-09 0.000000000000D+00 -.467281598575D-10 0.132219540936D-06 0.000000000000D+00  6 2 22 9900012 -13 1 21 2 0.16437690D-01 0.39210367D-02 0.23469060D+04 0.23469060D+04 0.23469060D+04 0.12806207D+01  1  2  3  1  6  1        2 0.224412765967D-06 0.100000000000D+01
-.725586006431D-09 0.000000000000D+00 0.000000000000D+00 0.132219540936D-06 0.000000000000D+00  6 2 22 9900012 -13 1 21 2 0.16437690D-01 0.39210367D-02 0.23469060D+04 0.23469060D+04 0.23469060D+04 0.12806207D+01  1  2 15  1  6  1        2 -.767373755445D-06 0.100000000000D+01
0.206527034847D-07 0.000000000000D+00 0.000000000000D+00 0.132219540936D-06 0.000000000000D+00  6 2 22 9900012 -13 1 21 2 0.18239654D-01 0.39210367D-02 0.26324947D+04 0.26324947D+04 0.26324947D+04 0.12744925D+01  1  2 12  1  6  1        2 0.194899643108D-04 0.100000000000D+01
-.970651598810D-09 0.000000000000D+00 0.000000000000D+00 0.132219540936D-06 0.000000000000D+00  6 2 22 9900012 -13 1 21 2 0.16437690D-01 0.39210367D-02 0.23469060D+04 0.23469060D+04 0.23469060D+04 0.12806207D+01  1  2  4  1  6  1        2 -.102655309778D-05 0.100000000000D+01
0.209535385729D-11 0.000000000000D+00 0.000000000000D+00 0.132219540936D-06 0.131534342130D-06  6 2 22 9900012 -13 1 21 2 0.17169399D-01 0.41654546D-02 0.26324947D+04 0.26324947D+04 0.26324947D+04 0.12744925D+01  1  2 11  1  6  1        2 0.195175926373D-08 0.100000000000D+01
0.347087625119D-09 0.000000000000D+00 0.000000000000D+00 0.132219540936D-06 0.000000000000D+00  6 21 22 9900012 -13 1 -2 2 0.18239654D-01 0.39210367D-02 0.26324947D+04 0.26324947D+04 0.26324947D+04 0.12744925D+01  1  2 12  3  6  1        2 0.248980584300D-05 0.100000000000D+01
0.982967878673D-12 0.000000000000D+00 0.000000000000D+00 0.132219540936D-06 0.426441575942D-09  6 21 22 9900012 -13 1 -2 2 0.17169399D-01 0.41654546D-02 0.26324947D+04 0.26324947D+04 0.26324947D+04 0.12744925D+01  1  2 11  3  6  1        2 0.721070704015D-08 0.100000000000D+01
  </mgrwgt>
  </event>
</LesHouchesEvents>
