<LesHouchesEvents version="3.0">
  <!--
  <scalesfunctionalform>
    muR  H_T/2 := sum_i mT(i)/2, i=final state
    muF1 H_T/2 := sum_i mT(i)/2, i=final state
    muF2 H_T/2 := sum_i mT(i)/2, i=final state
    QES  H_T/2 := sum_i mT(i)/2, i=final state
  </scalesfunctionalform>
PYTHIA8   
  -->
  <header>
        4
  </header>
  <init>
   2212   2212 0.65000000D+04 0.65000000D+04 -1 -1  82200  82200 -4   1
 0.19429100D-05 0.30335449D-07 0.98403644D-06     66
  </init>
  <event>
  5     66 0.98403644E-06 0.40917817E+02 0.78161638E-02 0.11324618E+00
       22 -1    0    0    0    0 0.00000000E+00 0.00000000E+00 0.13316909E+02 0.13316909E+02 0.00000000E+00 0.0000E+00 0.9000E+01
        2 -1    0    0  501    0 -.00000000E+00 -.00000000E+00 -.25259936E+04 0.25259936E+04 0.00000000E+00 0.0000E+00 0.9000E+01
  9900012  1    1    2    0    0 0.59730678E+02 -.48213950E+02 -.10510806E+04 0.10550653E+04 0.50000000E+02 0.0000E+00 0.9000E+01
      -11  1    1    2    0    0 -.61169762E+02 0.89106453E+02 -.25505355E+03 0.27700904E+03 0.00000000E+00 0.0000E+00 0.9000E+01
        1  1    1    2  501    0 0.14390843E+01 -.40892503E+02 -.12065426E+04 0.12072362E+04 0.00000000E+00 0.0000E+00 0.9000E+01
#aMCatNLO 1  0  0  5  2 0.20429252D+01 0.00000000D+00  -5  6  0 0.00000000D+00 0.00000000D+00 0.00000000D+00 0.00000000D+00 0.00000000D+00
  <mgrwgt>
 0.4764231621D-06    8    2    0
 0.183407820017796D+03 0.000000000000000D+00 0.000000000000000D+00 0.183407820017796D+03
 0.183407820017796D+03 -.000000000000000D+00 -.000000000000000D+00 -.183407820017796D+03
 0.103901394833132D+03 0.597306780663899D+02 -.482139503324960D+02 -.490220454421806D+02
 0.170507672551168D+03 -.611697623472887D+02 0.891064531709561D+02 0.131875572326663D+03
 0.924065726512924D+02 0.143908428089885D+01 -.408925028384601D+02 -.828535268844821D+02
 0.000000000000000D+00 0.000000000000000D+00 0.000000000000000D+00 -.000000000000000D+00
 0.183407820017796D+03 0.000000000000000D+00 0.000000000000000D+00 0.183407820017796D+03
 0.183407820017796D+03 -.000000000000000D+00 -.000000000000000D+00 -.183407820017796D+03
 0.103931704001285D+03 0.597314185146587D+02 -.482349906449620D+02 -.490646758505331D+02
 0.170435112636584D+03 -.611685476683156D+02 0.890719372888679D+02 0.131805638662396D+03
 0.148252420056181D+02 -.174785712916458D+01 -.696274682462718D+01 -.129712355863779D+02
 0.776235813921049D+02 0.318498628282151D+01 -.338741998192787D+02 -.697697272254848D+02
0.271442241824D-07 0.000000000000D+00 0.000000000000D+00 0.721072095094D-09 0.000000000000D+00  6 22 2 9900012 -11 1 21 0 0.20487553D-02 0.38861441D+00 0.14473226D+05 0.14473226D+05 0.14473226D+05 0.11930306D+01  1  2  2  2  6  5        1 0.648708688940D-06 0.100000000000D+01
0.171704240826D-08 0.000000000000D+00 -.521204840494D-10 0.721072095094D-09 0.000000000000D+00  6 22 2 9900012 -11 1 21 2 0.20487553D-02 0.38861441D+00 0.14473226D+05 0.14473226D+05 0.14473226D+05 0.11930306D+01  1  2  3  2  6  5        1 0.584058684526D-07 0.100000000000D+01
-.434627697615D-08 0.000000000000D+00 0.000000000000D+00 0.721072095094D-09 0.000000000000D+00  6 22 2 9900012 -11 1 21 2 0.20487553D-02 0.38861441D+00 0.14473226D+05 0.14473226D+05 0.14473226D+05 0.11930306D+01  1  2 15  2  6  5        1 -.147840309654D-06 0.100000000000D+01
0.267352506829D-09 0.000000000000D+00 0.000000000000D+00 0.721072095094D-09 0.000000000000D+00  6 22 2 9900012 -11 1 21 2 0.20487553D-02 0.38861441D+00 0.14505362D+05 0.14505362D+05 0.14505362D+05 0.11929348D+01  1  2 12  2  6  5        1 0.909316166354D-08 0.100000000000D+01
-.374692857636D-06 0.000000000000D+00 0.000000000000D+00 0.721072095094D-09 0.000000000000D+00  6 22 2 9900012 -11 1 21 2 0.20487553D-02 0.38861441D+00 0.14473226D+05 0.14473226D+05 0.14473226D+05 0.11930306D+01  1  2  4  2  6  5        1 -.127453239640D-04 0.100000000000D+01
-.188816773941D-06 0.000000000000D+00 0.000000000000D+00 0.721072095094D-09 0.000000000000D+00  6 22 2 9900012 -11 1 21 2 0.20487553D-02 0.38861441D+00 0.14473226D+05 0.14473226D+05 0.14473226D+05 0.11930306D+01  1  2  5  2  6  5        1 -.642267634588D-05 0.100000000000D+01
0.368209998889D-06 0.000000000000D+00 -.000000000000D+00 0.721072095094D-09 0.000000000000D+00  6 22 2 9900012 -11 1 21 2 0.20487553D-02 0.38861441D+00 0.14473226D+05 0.14473226D+05 0.14473226D+05 0.11930306D+01  1  2  6  2  6  5        1 0.125248069905D-04 0.100000000000D+01
0.192616487762D-06 0.000000000000D+00 0.000000000000D+00 0.721072095094D-09 0.109916821736D-09  6 22 2 9900012 -11 1 21 2 0.20487553D-02 0.38861441D+00 0.14505362D+05 0.14505362D+05 0.14505362D+05 0.11929348D+01  1  2 11  2  6  5        1 0.655124907207D-05 0.100000000000D+01
  </mgrwgt>
  </event>
  <event>
  5     66 0.98403644E-06 0.35792333E+02 0.78161638E-02 0.12327491E+00
       22 -1    0    0    0    0 0.00000000E+00 0.00000000E+00 0.20932906E+04 0.20932906E+04 0.00000000E+00 0.0000E+00 0.9000E+01
        4 -1    0    0  501    0 0.00000000E+00 0.00000000E+00 -.43387748E+02 0.43387748E+02 0.00000000E+00 0.0000E+00 0.9000E+01
  9900012  1    1    2    0    0 0.31918640E+02 0.10985252E+02 0.12492268E+04 0.12506827E+04 0.50000000E+02 0.0000E+00 0.9000E+01
      -11  1    1    2    0    0 0.98243666E+01 -.18781742E+02 0.83259981E+03 0.83286957E+03 0.00000000E+00 0.0000E+00 0.9000E+01
        3  1    1    2  501    0 -.41743007E+02 0.77964901E+01 -.31923736E+02 0.53126160E+02 0.00000000E+00 0.0000E+00 0.9000E+01
#aMCatNLO 1  0  0  5  2 0.17273079D+02 0.00000000D+00  -5  6  0 0.00000000D+00 0.00000000D+00 0.00000000D+00 0.00000000D+00 0.00000000D+00
  <mgrwgt>
 0.1678913713D-04    7    2    0
 0.301368822395031D+03 0.000000000000000D+00 0.000000000000000D+00 0.301368822395031D+03
 0.301368822395031D+03 -.000000000000000D+00 -.000000000000000D+00 -.301368822395031D+03
 0.185010752297926D+03 0.319186403962542D+02 0.109852523364069D+02 0.174898550857932D+03
 0.120824784061323D+03 0.982436661509121D+01 -.187817424536687D+02 0.118951067311234D+03
 0.296902108430813D+03 -.417430070113453D+02 0.779649011726185D+01 -.293849618169165D+03
 0.000000000000000D+00 -.000000000000000D+00 0.000000000000000D+00 0.000000000000000D+00
 0.301368822395031D+03 0.000000000000000D+00 0.000000000000000D+00 0.301368822395031D+03
 0.301368822395031D+03 -.000000000000000D+00 -.000000000000000D+00 -.301368822395031D+03
 0.183338244422598D+03 0.316731671548833D+02 0.110311002481273D+02 0.173170543620025D+03
 0.119696366271865D+03 0.966407974878718D+01 -.187518051046721D+02 0.117822728989843D+03
 0.270343740414317D+03 -.312626891112451D+02 0.223237830935518D+02 -.267600506275921D+03
 0.293592936812806D+02 -.100745577924253D+02 -.146030782370070D+02 -.233927663339465D+02
0.333907283441D-05 0.000000000000D+00 0.000000000000D+00 0.497220696310D-05 0.000000000000D+00  6 22 4 9900012 -11 3 21 0 0.32204471D+00 0.66750382D-02 0.38433154D+04 0.38433154D+04 0.38433154D+04 0.12549188D+01  1  2  2  2  6  5        3 0.140482349964D-05 0.100000000000D+01
0.159581001775D-06 0.000000000000D+00 -.641145944110D-08 0.497220696310D-05 0.000000000000D+00  6 22 4 9900012 -11 3 21 2 0.32204471D+00 0.66750382D-02 0.38433154D+04 0.38433154D+04 0.38433154D+04 0.12549188D+01  1  2  3  2  6  5        3 0.105732459141D-06 0.100000000000D+01
-.510462760843D-06 0.000000000000D+00 0.000000000000D+00 0.497220696310D-05 0.000000000000D+00  6 22 4 9900012 -11 3 21 2 0.32204471D+00 0.66750382D-02 0.38433154D+04 0.38433154D+04 0.38433154D+04 0.12549188D+01  1  2 15  2  6  5        3 -.338213712180D-06 0.100000000000D+01
0.217336019236D-04 0.000000000000D+00 0.000000000000D+00 0.497220696310D-05 0.000000000000D+00  6 22 4 9900012 -11 3 21 2 0.32204471D+00 0.66750382D-02 0.47237147D+04 0.47237147D+04 0.47237147D+04 0.12446358D+01  1  2 12  2  6  5        3 0.144795876184D-04 0.100000000000D+01
-.573605074484D-06 0.000000000000D+00 0.000000000000D+00 0.497220696310D-05 0.000000000000D+00  6 22 4 9900012 -11 3 21 2 0.32204471D+00 0.66750382D-02 0.38433154D+04 0.38433154D+04 0.38433154D+04 0.12549188D+01  1  2  4  2  6  5        3 -.380049469713D-06 0.100000000000D+01
-.220724885088D-04 0.000000000000D+00 0.000000000000D+00 0.497220696310D-05 0.000000000000D+00  6 22 4 9900012 -11 3 21 2 0.32204471D+00 0.66750382D-02 0.38433154D+04 0.38433154D+04 0.38433154D+04 0.12549188D+01  1  2  5  2  6  5        3 -.146244130782D-04 0.100000000000D+01
0.243624697700D-04 0.000000000000D+00 -.000000000000D+00 0.497220696310D-05 0.000000000000D+00  6 22 4 9900012 -11 3 21 2 0.32204471D+00 0.66750382D-02 0.38433154D+04 0.38433154D+04 0.38433154D+04 0.12549188D+01  1  2  6  2  6  5        3 0.161416698158D-04 0.100000000000D+01
  </mgrwgt>
  </event>
  <event>
  5     66 0.98403644E-06 0.60913711E+02 0.78161638E-02 0.11332559E+00
       22 -1    0    0    0    0 0.00000000E+00 0.00000000E+00 0.11479518E+03 0.11479518E+03 0.00000000E+00 0.0000E+00 0.9000E+01
        2 -1    0    0  501    0 -.00000000E+00 -.00000000E+00 -.85336727E+03 0.85336727E+03 0.00000000E+00 0.0000E+00 0.9000E+01
  9900012  1    1    2    0    0 -.23326784E+02 -.35503523E+02 -.31815073E+03 0.32484539E+03 0.50000000E+02 0.0000E+00 0.9000E+01
      -11  1    1    2    0    0 -.50871086E+02 -.21907441E+02 0.10010373E+03 0.11440524E+03 0.00000000E+00 0.0000E+00 0.9000E+01
        1  1    1    2  501    0 0.74197870E+02 0.57410964E+02 -.52052509E+03 0.52891182E+03 0.00000000E+00 0.0000E+00 0.9000E+01
#aMCatNLO 1  0  0  5  2 0.41783158D+02 0.00000000D+00  -5  6  0 0.00000000D+00 0.00000000D+00 0.00000000D+00 0.00000000D+00 0.00000000D+00
  <mgrwgt>
 0.1306545533D-04    7    2    0
 0.312989533068869D+03 0.000000000000000D+00 0.000000000000000D+00 0.312989533068869D+03
 0.312989533068869D+03 -.000000000000000D+00 -.000000000000000D+00 -.312989533068869D+03
 0.127042356416316D+03 -.233267840555131D+02 -.355035230191841D+02 -.108789343791862D+03
 0.295052484826972D+03 -.508710859446694D+02 -.219074410294257D+02 0.289807117657457D+03
 0.203884224894450D+03 0.741978700001825D+02 0.574109640486098D+02 -.181017773865595D+03
 0.000000000000000D+00 0.000000000000000D+00 0.000000000000000D+00 -.000000000000000D+00
 0.312989533068869D+03 0.000000000000000D+00 0.000000000000000D+00 0.312989533068869D+03
 0.312989533068869D+03 -.000000000000000D+00 -.000000000000000D+00 -.312989533068869D+03
 0.129731592474462D+03 -.217611248100862D+02 -.342920865365552D+02 -.112609024211779D+03
 0.285766313117647D+03 -.473295883556498D+02 -.191671899850097D+02 0.281167058182527D+03
 0.146602563073162D+03 0.531639152881734D+02 0.783496459616015D+02 -.111925165126276D+03
 0.638785974724665D+02 0.159267978775626D+02 -.248903694400366D+02 -.566328688444719D+02
0.762912442345D-06 0.000000000000D+00 0.000000000000D+00 0.987140687626D-08 0.000000000000D+00  6 22 2 9900012 -11 1 21 0 0.17660797D-01 0.13128727D+00 0.11536153D+05 0.11536153D+05 0.11536153D+05 0.12029507D+01  1  2  2  2  6  5        1 0.702402461706D-05 0.100000000000D+01
-.261934097862D-07 0.000000000000D+00 -.146489232903D-08 0.987140687626D-08 0.000000000000D+00  6 22 2 9900012 -11 1 21 2 0.17660797D-01 0.13128727D+00 0.11536153D+05 0.11536153D+05 0.11536153D+05 0.12029507D+01  1  2  3  2  6  5        1 -.348978769103D-06 0.100000000000D+01
-.107271911669D-06 0.000000000000D+00 0.000000000000D+00 0.987140687626D-08 0.000000000000D+00  6 22 2 9900012 -11 1 21 2 0.17660797D-01 0.13128727D+00 0.11536153D+05 0.11536153D+05 0.11536153D+05 0.12029507D+01  1  2 15  2  6  5        1 -.142919993996D-05 0.100000000000D+01
0.538424331540D-06 0.000000000000D+00 0.000000000000D+00 0.987140687626D-08 0.000000000000D+00  6 22 2 9900012 -11 1 21 2 0.17660797D-01 0.13128727D+00 0.14365684D+05 0.14365684D+05 0.14365684D+05 0.11933530D+01  1  2 12  2  6  5        1 0.712278615887D-05 0.100000000000D+01
-.171607051320D-06 0.000000000000D+00 0.000000000000D+00 0.987140687626D-08 0.000000000000D+00  6 22 2 9900012 -11 1 21 2 0.17660797D-01 0.13128727D+00 0.11536153D+05 0.11536153D+05 0.11536153D+05 0.12029507D+01  1  2  4  2  6  5        1 -.228634675775D-05 0.100000000000D+01
-.623501194292D-06 0.000000000000D+00 0.000000000000D+00 0.987140687626D-08 0.000000000000D+00  6 22 2 9900012 -11 1 21 2 0.17660797D-01 0.13128727D+00 0.11536153D+05 0.11536153D+05 0.11536153D+05 0.12029507D+01  1  2  5  2  6  5        1 -.830700092483D-05 0.100000000000D+01
0.847409929443D-06 0.000000000000D+00 -.000000000000D+00 0.987140687626D-08 0.000000000000D+00  6 22 2 9900012 -11 1 21 2 0.17660797D-01 0.13128727D+00 0.11536153D+05 0.11536153D+05 0.11536153D+05 0.12029507D+01  1  2  6  2  6  5        1 0.112901709444D-04 0.100000000000D+01
  </mgrwgt>
  </event>
  <event>
  5     66 0.98403644E-06 0.63133001E+02 0.78161638E-02 0.11000056E+00
       22 -1    0    0    0    0 0.00000000E+00 0.00000000E+00 0.74656600E+02 0.74656600E+02 0.00000000E+00 0.0000E+00 0.9000E+01
        2 -1    0    0  501    0 -.00000000E+00 -.00000000E+00 -.35566804E+04 0.35566804E+04 0.00000000E+00 0.0000E+00 0.9000E+01
  9900012  1    1    2    0    0 -.70364090E+02 -.42999806E+00 -.26423803E+02 0.90274622E+02 0.50000000E+02 0.0000E+00 0.9000E+01
      -11  1    1    2    0    0 0.99128861E+01 -.17775160E+02 0.40006469E+02 0.44885846E+02 0.00000000E+00 0.0000E+00 0.9000E+01
        1  1    1    2  501    0 0.60451204E+02 0.18205158E+02 -.34956064E+04 0.34961765E+04 0.00000000E+00 0.0000E+00 0.9000E+01
#aMCatNLO 1  0  0  5  2 0.20286753D+02 0.00000000D+00  -5  6  0 0.00000000D+00 0.00000000D+00 0.00000000D+00 0.00000000D+00 0.00000000D+00
  <mgrwgt>
 0.2988819787D-04    6    2    0
 0.515295705075055D+03 0.000000000000000D+00 0.000000000000000D+00 0.515295705075055D+03
 0.515295705075055D+03 -.000000000000000D+00 -.000000000000000D+00 -.515295705075055D+03
 0.228809653844006D+03 -.703640901737135D+02 -.429998059280016D+00 0.211902259563008D+03
 0.293325855739595D+03 0.991288606479514D+01 -.177751604116454D+02 0.292618926263446D+03
 0.508455900566510D+03 0.604512041089184D+02 0.182051584709255D+02 -.504521185826454D+03
 0.000000000000000D+00 0.000000000000000D+00 0.000000000000000D+00 -.000000000000000D+00
 0.515295705075055D+03 0.000000000000000D+00 0.000000000000000D+00 0.515295705075055D+03
 0.515295705075055D+03 -.000000000000000D+00 -.000000000000000D+00 -.515295705075055D+03
 0.221420039454323D+03 -.694432115894419D+02 -.152671233350458D+00 0.204216676418927D+03
 0.283525012349908D+03 0.110927496292139D+02 -.174198390664227D+02 0.282771874026713D+03
 0.399304631166719D+03 0.960407143154627D+02 0.740502668041262D+02 -.380443067555716D+03
 0.126341727179160D+03 -.376902523552346D+02 -.564777565043530D+02 -.106545482889923D+03
0.440501773974D-04 0.000000000000D+00 0.000000000000D+00 0.222213487149D-05 0.000000000000D+00  6 22 2 9900012 -11 1 21 0 0.11485631D-01 0.54718160D+00 0.72085442D+04 0.72085442D+04 0.72085442D+04 0.12243551D+01  1  2  2  2  6  5        1 0.221832217564D-04 0.100000000000D+01
0.159246272636D-05 0.000000000000D+00 -.845821399420D-07 0.222213487149D-05 0.000000000000D+00  6 22 2 9900012 -11 1 21 2 0.11485631D-01 0.54718160D+00 0.72085442D+04 0.72085442D+04 0.72085442D+04 0.12243551D+01  1  2  3  2  6  5        1 0.120215657456D-05 0.100000000000D+01
-.734195754605D-05 0.000000000000D+00 0.000000000000D+00 0.222213487149D-05 0.000000000000D+00  6 22 2 9900012 -11 1 21 2 0.11485631D-01 0.54718160D+00 0.72085442D+04 0.72085442D+04 0.72085442D+04 0.12243551D+01  1  2 15  2  6  5        1 -.554247354620D-05 0.100000000000D+01
-.901916160222D-06 0.000000000000D+00 0.000000000000D+00 0.222213487149D-05 0.000000000000D+00  6 22 2 9900012 -11 1 21 2 0.11485631D-01 0.54718160D+00 0.72085442D+04 0.72085442D+04 0.72085442D+04 0.12243551D+01  1  2  4  2  6  5        1 -.680860169453D-06 0.100000000000D+01
-.606108670403D-04 0.000000000000D+00 0.000000000000D+00 0.222213487149D-05 0.000000000000D+00  6 22 2 9900012 -11 1 21 2 0.11485631D-01 0.54718160D+00 0.72085442D+04 0.72085442D+04 0.72085442D+04 0.12243551D+01  1  2  5  2  6  5        1 -.457553894961D-04 0.100000000000D+01
0.774688414000D-04 0.000000000000D+00 -.000000000000D+00 0.222213487149D-05 0.000000000000D+00  6 22 2 9900012 -11 1 21 2 0.11485631D-01 0.54718160D+00 0.72085442D+04 0.72085442D+04 0.72085442D+04 0.12243551D+01  1  2  6  2  6  5        1 0.584815427522D-04 0.100000000000D+01
  </mgrwgt>
  </event>
</LesHouchesEvents>
