<LesHouchesEvents version="3.0">
  <!--
  <scalesfunctionalform>
    muR  H_T/2 := sum_i mT(i)/2, i=final state
    muF1 H_T/2 := sum_i mT(i)/2, i=final state
    muF2 H_T/2 := sum_i mT(i)/2, i=final state
    QES  H_T/2 := sum_i mT(i)/2, i=final state
  </scalesfunctionalform>
PYTHIA8   
  -->
  <header>
        4
  </header>
  <init>
   2212   2212 0.65000000D+04 0.65000000D+04 -1 -1  82200  82200 -4   1
 0.13434691D-05 0.28184401D-07 0.69259055D-06     66
  </init>
  <event>
  5     66 0.69259055E-06 0.10159496E+03 0.78161638E-02 0.10360203E+00
       22 -1    0    0    0    0 0.00000000E+00 0.00000000E+00 0.15835961E+03 0.15835961E+03 0.00000000E+00 0.0000E+00 0.9000E+01
        1 -1    0    0  501    0 0.00000000E+00 0.00000000E+00 -.20681747E+03 0.20681747E+03 0.00000000E+00 0.0000E+00 0.9000E+01
  9900012  1    1    2    0    0 -.49874136E+02 0.66070139E+02 -.10263256E+03 0.14101821E+03 0.50000000E+02 0.0000E+00 0.9000E+01
       11  1    1    2    0    0 0.18010434E+01 0.23431334E+02 0.10707001E+03 0.10961870E+03 0.00000000E+00 0.0000E+00 0.9000E+01
        2  1    1    2  501    0 0.48073092E+02 -.89501474E+02 -.52895310E+02 0.11454017E+03 0.00000000E+00 0.0000E+00 0.9000E+01
#aMCatNLO 1  0  0  2  2 0.18188447D+03 0.00000000D+00  -5  6  0 0.00000000D+00 0.00000000D+00 0.00000000D+00 0.00000000D+00 0.00000000D+00
  <mgrwgt>
 0.5296223066D-05    5    2    0
 0.180973846203055D+03 0.000000000000000D+00 0.000000000000000D+00 0.180973846203055D+03
 0.180973846203055D+03 0.000000000000000D+00 0.000000000000000D+00 -.180973846203055D+03
 0.128535875441952D+03 -.498741356577104D+02 0.660701393742007D+02 -.846686397144709D+02
 0.124931364468201D+03 0.180104338844450D+01 0.234313342455260D+02 0.122701159921468D+03
 0.108480452495957D+03 0.480730922692659D+02 -.895014736197267D+02 -.380325202069974D+02
 0.000000000000000D+00 0.000000000000000D+00 -.000000000000000D+00 -.000000000000000D+00
 0.228308705181369D+03 0.000000000000000D+00 0.000000000000000D+00 0.228308705181369D+03
 0.420377484921727D+03 0.000000000000000D+00 0.000000000000000D+00 -.420377484921727D+03
 0.177514525986393D+03 -.986197706956835D+02 0.110076197304439D+03 -.846686397144709D+02
 0.143453017937672D+03 -.409454032543039D+02 0.620215096695871D+02 0.122701159921468D+03
 0.759188835762590D+02 0.187032149697411D+02 -.629872529958685D+02 -.380325202069974D+02
 0.251799762602772D+03 0.120861958980246D+03 -.109110453978158D+03 -.192068779740358D+03
0.373836530006D-06 0.000000000000D+00 0.000000000000D+00 0.918089048822D-09 0.000000000000D+00  6 22 1 9900012 11 2 21 0 0.24363016D-01 0.31818072D-01 0.12299335D+05 0.12299335D+05 0.12299335D+05 0.12001243D+01  1  2  2  1  6  2        1 0.783555257075D-05 0.100000000000D+01
-.155119489246D-07 0.000000000000D+00 -.717815354322D-09 0.918089048822D-09 0.000000000000D+00  6 22 1 9900012 11 2 21 2 0.24363016D-01 0.31818072D-01 0.12299335D+05 0.12299335D+05 0.12299335D+05 0.12001243D+01  1  2  3  1  6  2        1 -.468281207762D-06 0.100000000000D+01
-.597209328826D-07 0.000000000000D+00 0.000000000000D+00 0.918089048822D-09 0.000000000000D+00  6 22 1 9900012 11 2 21 2 0.24363016D-01 0.31818072D-01 0.12299335D+05 0.12299335D+05 0.12299335D+05 0.12001243D+01  1  2 15  1  6  2        1 -.180288052229D-05 0.100000000000D+01
-.378169168387D-07 0.000000000000D+00 -.107734853018D-06 0.918089048822D-09 0.000000000000D+00  6 22 1 9900012 11 2 21 2 0.24363016D-01 0.88474295D-01 0.12299335D+05 0.12299335D+05 0.12299335D+05 0.12001243D+01  1  2  5  1  6  2        1 -.306692874839D-06 0.100000000000D+01
0.172699516106D-08 0.000000000000D+00 -.123569744610D-07 0.918089048822D-09 0.000000000000D+00  6 22 21 9900012 11 2 -1 2 0.24363016D-01 0.88474295D-01 0.12299335D+05 0.12299335D+05 0.12299335D+05 0.12001243D+01  1  2  5  3  6  2        1 0.385250999126D-07 0.100000000000D+01
  </mgrwgt>
  </event>
  <event>
  5     66 -.69259055E-06 0.60733302E+02 0.78161638E-02 0.11141273E+00
       22 -1    0    0    0    0 0.00000000E+00 0.00000000E+00 0.20423852E+03 0.20423852E+03 0.00000000E+00 0.0000E+00 0.9000E+01
        1 -1    0    0  501    0 -.00000000E+00 -.00000000E+00 -.40637995E+03 0.40637995E+03 0.00000000E+00 0.0000E+00 0.9000E+01
  9900012  1    1    2    0    0 0.66595409E+02 0.57020309E+02 0.10227108E+03 0.14368590E+03 0.50000000E+02 0.0000E+00 0.9000E+01
       11  1    1    2    0    0 0.34910732E+02 0.20425918E+02 0.64733143E+02 0.76330578E+02 0.00000000E+00 0.0000E+00 0.9000E+01
        2  1    1    2  501    0 -.10150614E+03 -.77446226E+02 -.36914564E+03 0.39060200E+03 0.00000000E+00 0.0000E+00 0.9000E+01
#aMCatNLO 1  0  0  5  2 0.10201910D+02 0.00000000D+00  -5  6  0 0.00000000D+00 0.00000000D+00 0.00000000D+00 0.00000000D+00 0.00000000D+00
  <mgrwgt>
 -.2424772604D-05    7    2    0
 0.288094500666510D+03 0.000000000000000D+00 0.000000000000000D+00 0.288094500666510D+03
 0.288094500666510D+03 -.000000000000000D+00 -.000000000000000D+00 -.288094500666510D+03
 0.188150908790548D+03 0.665954093565800D+02 0.570203086083705D+02 0.158790743866086D+03
 0.103601615189034D+03 0.349107322142719D+02 0.204259176308930D+02 0.953798581199195D+02
 0.284436477353439D+03 -.101506141570852D+03 -.774462262392635D+02 -.254170601986006D+03
 0.000000000000000D+00 0.000000000000000D+00 0.000000000000000D+00 -.000000000000000D+00
 0.288094500666510D+03 0.000000000000000D+00 0.000000000000000D+00 0.288094500666510D+03
 0.288094500666510D+03 -.000000000000000D+00 -.000000000000000D+00 -.288094500666510D+03
 0.187860350515862D+03 0.664877258290146D+02 0.569381492167415D+02 0.158521105136826D+03
 0.103436032230037D+03 0.348514399892091D+02 0.203806793920498D+02 0.952313908419394D+02
 0.207410820309309D+03 -.743588338530430D+02 -.660982193869845D+02 -.181991861365463D+03
 0.774817982778128D+02 -.269803319651807D+02 -.112206092218067D+02 -.717606346133020D+02
0.194713374455D-07 0.000000000000D+00 0.000000000000D+00 0.568070487530D-07 0.000000000000D+00  6 22 1 9900012 11 2 21 0 0.31421311D-01 0.62519992D-01 0.18097142D+05 0.18097142D+05 0.18097142D+05 0.11835016D+01  1  2  2  2  6  5        2 0.119562596253D-06 0.100000000000D+01
0.823544646229D-10 0.000000000000D+00 -.373875313559D-10 0.568070487530D-07 0.000000000000D+00  6 22 1 9900012 11 2 21 2 0.31421311D-01 0.62519992D-01 0.18097142D+05 0.18097142D+05 0.18097142D+05 0.11835016D+01  1  2  3  2  6  5        2 0.708311650038D-09 0.100000000000D+01
-.306796097587D-08 0.000000000000D+00 0.000000000000D+00 0.568070487530D-07 0.000000000000D+00  6 22 1 9900012 11 2 21 2 0.31421311D-01 0.62519992D-01 0.18097142D+05 0.18097142D+05 0.18097142D+05 0.11835016D+01  1  2 15  2  6  5        2 -.263868208120D-07 0.100000000000D+01
0.510274406307D-06 0.000000000000D+00 0.000000000000D+00 0.568070487530D-07 0.000000000000D+00  6 22 1 9900012 11 2 21 2 0.31421311D-01 0.62519992D-01 0.18210567D+05 0.18210567D+05 0.18210567D+05 0.11832386D+01  1  2 12  2  6  5        2 0.438799441300D-05 0.100000000000D+01
-.959631709664D-06 0.000000000000D+00 0.000000000000D+00 0.568070487530D-07 0.000000000000D+00  6 22 1 9900012 11 2 21 2 0.31421311D-01 0.62519992D-01 0.18097142D+05 0.18097142D+05 0.18097142D+05 0.11835016D+01  1  2  4  2  6  5        2 -.825356977078D-05 0.100000000000D+01
-.508940936223D-06 0.000000000000D+00 0.000000000000D+00 0.568070487530D-07 0.000000000000D+00  6 22 1 9900012 11 2 21 2 0.31421311D-01 0.62519992D-01 0.18097142D+05 0.18097142D+05 0.18097142D+05 0.11835016D+01  1  2  5  2  6  5        2 -.437728295556D-05 0.100000000000D+01
0.665545399398D-06 0.000000000000D+00 -.000000000000D+00 0.568070487530D-07 0.000000000000D+00  6 22 1 9900012 11 2 21 2 0.31421311D-01 0.62519992D-01 0.18097142D+05 0.18097142D+05 0.18097142D+05 0.11835016D+01  1  2  6  2  6  5        2 0.572420162260D-05 0.100000000000D+01
  </mgrwgt>
  </event>
  <event>
  5     66 0.69259055E-06 0.66332464E+02 0.78161638E-02 0.11175582E+00
       22 -1    0    0    0    0 0.00000000E+00 0.00000000E+00 0.74836513E+02 0.74836513E+02 0.00000000E+00 0.0000E+00 0.9000E+01
        1 -1    0    0  501    0 -.00000000E+00 -.00000000E+00 -.23794693E+04 0.23794693E+04 0.00000000E+00 0.0000E+00 0.9000E+01
  9900012  1    1    2    0    0 0.53496284E+02 -.79652936E+02 -.53743918E+02 0.12080915E+03 0.50000000E+02 0.0000E+00 0.9000E+01
       11  1    1    2    0    0 0.25100789E+02 0.53541039E+02 0.18990062E+02 0.62107286E+02 0.00000000E+00 0.0000E+00 0.9000E+01
        2  1    1    2  501    0 -.78597073E+02 0.26111897E+02 -.22698790E+04 0.22713894E+04 0.00000000E+00 0.0000E+00 0.9000E+01
#aMCatNLO 1  0  0  5  2 0.13399530D+02 0.00000000D+00  -5  6  0 0.00000000D+00 0.00000000D+00 0.00000000D+00 0.00000000D+00 0.00000000D+00
  <mgrwgt>
 0.4305461871D-05    7    2    0
 0.421984818780655D+03 0.000000000000000D+00 0.000000000000000D+00 0.421984818780655D+03
 0.421984818780655D+03 -.000000000000000D+00 -.000000000000000D+00 -.421984818780655D+03
 0.204560216475043D+03 0.534962839065035D+02 -.796529362068222D+02 0.173604261255717D+03
 0.232467360215983D+03 0.251007891806388D+02 0.535410393000489D+02 0.224820775416702D+03
 0.406942060870284D+03 -.785970730871423D+02 0.261118969067734D+02 -.398425036672419D+03
 0.000000000000000D+00 0.000000000000000D+00 0.000000000000000D+00 -.000000000000000D+00
 0.421984818780655D+03 0.000000000000000D+00 0.000000000000000D+00 0.421984818780655D+03
 0.421984818780655D+03 -.000000000000000D+00 -.000000000000000D+00 -.421984818780655D+03
 0.202850535351532D+03 0.531316431603096D+02 -.795317935077542D+02 0.171755820888052D+03
 0.230424166323065D+03 0.246864920348533D+02 0.536786790865524D+02 0.222720616352002D+03
 0.398704192598664D+03 -.845536738358013D+02 0.174240914949034D+02 -.389245565770760D+03
 0.119907432880482D+02 0.673553864063844D+01 0.842902292629837D+01 -.523087146929424D+01
0.187248055764D-05 0.000000000000D+00 0.000000000000D+00 0.544731174306D-07 0.000000000000D+00  6 22 1 9900012 11 2 21 0 0.11513310D-01 0.36607221D+00 0.15643785D+05 0.15643785D+05 0.15643785D+05 0.11896859D+01  1  2  2  2  6  5        2 0.166565263990D-05 0.100000000000D+01
0.916541159930D-07 0.000000000000D+00 -.359540918839D-08 0.544731174306D-07 0.000000000000D+00  6 22 1 9900012 11 2 21 2 0.11513310D-01 0.36607221D+00 0.15643785D+05 0.15643785D+05 0.15643785D+05 0.11896859D+01  1  2  3  2  6  5        2 0.115394136016D-06 0.100000000000D+01
-.319073821668D-06 0.000000000000D+00 0.000000000000D+00 0.544731174306D-07 0.000000000000D+00  6 22 1 9900012 11 2 21 2 0.11513310D-01 0.36607221D+00 0.15643785D+05 0.15643785D+05 0.15643785D+05 0.11896859D+01  1  2 15  2  6  5        2 -.401719525389D-06 0.100000000000D+01
0.194917942145D-05 0.000000000000D+00 0.000000000000D+00 0.544731174306D-07 0.000000000000D+00  6 22 1 9900012 11 2 21 2 0.11513310D-01 0.36607221D+00 0.17441205D+05 0.17441205D+05 0.17441205D+05 0.11850591D+01  1  2 12  2  6  5        2 0.243403027996D-05 0.100000000000D+01
-.331762436577D-07 0.000000000000D+00 0.000000000000D+00 0.544731174306D-07 0.000000000000D+00  6 22 1 9900012 11 2 21 2 0.11513310D-01 0.36607221D+00 0.15643785D+05 0.15643785D+05 0.15643785D+05 0.11896859D+01  1  2  4  2  6  5        2 -.417694713614D-07 0.100000000000D+01
-.141822282902D-04 0.000000000000D+00 0.000000000000D+00 0.544731174306D-07 0.000000000000D+00  6 22 1 9900012 11 2 21 2 0.11513310D-01 0.36607221D+00 0.15643785D+05 0.15643785D+05 0.15643785D+05 0.11896859D+01  1  2  5  2  6  5        2 -.178556736116D-04 0.100000000000D+01
0.146062683147D-04 0.000000000000D+00 -.000000000000D+00 0.544731174306D-07 0.000000000000D+00  6 22 1 9900012 11 2 21 2 0.11513310D-01 0.36607221D+00 0.15643785D+05 0.15643785D+05 0.15643785D+05 0.11896859D+01  1  2  6  2  6  5        2 0.183895474232D-04 0.100000000000D+01
  </mgrwgt>
  </event>
  <event>
  6     66 -.69259055E-06 0.19173417E+02 0.78161638E-02 0.12821429E+00
       22 -1    0    0    0    0 0.00000000E+00 0.00000000E+00 0.19678752E+03 0.19678752E+03 0.00000000E+00 0.0000E+00 0.9000E+01
        1 -1    0    0  502    0 0.00000000E+00 0.00000000E+00 -.10328588E+03 0.10328588E+03 0.00000000E+00 0.0000E+00 0.9000E+01
  9900012  1    1    2    0    0 -.21597138E+02 0.16578442E+02 0.12699796E+03 0.13917530E+03 0.50000000E+02 0.0000E+00 0.9000E+01
       11  1    1    2    0    0 0.15749205E+02 0.12549222E+02 0.55801459E+02 0.59323884E+02 0.00000000E+00 0.0000E+00 0.9000E+01
        2  1    1    2  501    0 0.12268951E+01 -.22984339E+02 -.90859766E+02 0.93729836E+02 0.00000000E+00 0.0000E+00 0.9000E+01
       21  1    1    2  502  501 0.46210373E+01 -.61433242E+01 0.15619809E+01 0.78443739E+01 0.00000000E+00 0.0000E+00 0.9000E+01
#aMCatNLO 2  0  0  2  5 0.10272963D+02 0.00000000D+00  -5  6  0 0.00000000D+00 0.00000000D+00 0.00000000D+00 0.00000000D+00 0.00000000D+00
  <mgrwgt>
 -.8636235592D-05    3    2    0
 0.138641448524312D+03 0.000000000000000D+00 0.000000000000000D+00 0.138641448524312D+03
 0.138641448524312D+03 0.000000000000000D+00 0.000000000000000D+00 -.138641448524312D+03
 0.103840750586485D+03 -.198611959729800D+02 0.142706364191584D+02 0.876628958743640D+02
 0.440037138407236D+02 0.164823939910723D+02 0.115745021476953D+02 0.391240133438832D+02
 0.129438432621416D+03 0.337880198190776D+01 -.258451385668537D+02 -.126786909218247D+03
 0.000000000000000D+00 0.000000000000000D+00 -.000000000000000D+00 -.000000000000000D+00
 0.142090652886218D+03 0.000000000000000D+00 0.000000000000000D+00 0.142090652886218D+03
 0.143045097632783D+03 0.000000000000000D+00 0.000000000000000D+00 -.143045097632783D+03
 0.104527816393703D+03 -.215971378333635D+02 0.165784415541037D+02 0.876628958743640D+02
 0.440023732879096D+02 0.157492054260730D+02 0.125492216206243D+02 0.391240133438832D+02
 0.128859246695634D+03 0.122689509660006D+01 -.229843389783581D+02 -.126786909218247D+03
 0.774631414175420D+01 0.462103731069037D+01 -.614332419636991D+01 -.954444746564556D+00
-.168163683473D-06 0.000000000000D+00 0.000000000000D+00 0.215264261079D-06 0.000000000000D+00  6 22 1 9900012 11 2 21 2 0.29540087D-01 0.16285459D-01 0.29038162D+04 0.29038162D+04 0.29038162D+04 0.12693259D+01  1  2 13  1  6  2        1 -.875781119884D-05 0.100000000000D+01
-.135530525483D-08 0.000000000000D+00 0.000000000000D+00 0.215264261079D-06 0.000000000000D+00  6 22 1 9900012 11 2 21 2 0.29540087D-01 0.15400957D-01 0.25941843D+04 0.25941843D+04 0.25941843D+04 0.12752699D+01  1  2  8  1  6  2        1 -.756255777409D-07 0.100000000000D+01
0.381356581241D-08 0.000000000000D+00 0.000000000000D+00 0.215264261079D-06 0.590835400992D-09  6 22 1 9900012 11 2 21 2 0.30275002D-01 0.15890135D-01 0.29038162D+04 0.29038162D+04 0.29038162D+04 0.12693259D+01  1  2  1  1  6  2        1 0.197201184314D-06 0.100000000000D+01
  </mgrwgt>
  </event>
</LesHouchesEvents>
