<LesHouchesEvents version="3.0">
  <!--
  <scalesfunctionalform>
    muR  H_T/2 := sum_i mT(i)/2, i=final state
    muF1 H_T/2 := sum_i mT(i)/2, i=final state
    muF2 H_T/2 := sum_i mT(i)/2, i=final state
    QES  H_T/2 := sum_i mT(i)/2, i=final state
  </scalesfunctionalform>
PYTHIA8   
  -->
  <header>
        3
  </header>
  <init>
   2212   2212 0.65000000D+04 0.65000000D+04 -1 -1  82200  82200 -4   1
 0.26860814D-05 0.58199859D-07 0.12973556D-05     66
  </init>
  <event>
  6     66 0.12973556E-05 0.59476332E+02 0.78161638E-02 0.11321549E+00
       -2 -1    0    0    0  501 0.00000000E+00 0.00000000E+00 0.19903469E+03 0.19903469E+03 0.00000000E+00 0.0000E+00 0.9000E+01
       22 -1    0    0    0    0 -.00000000E+00 -.00000000E+00 -.21332418E+03 0.21332418E+03 0.00000000E+00 0.0000E+00 0.9000E+01
      -24  2    1    2    0    0 -.28370504E+02 0.10324804E+03 -.17450241E+03 0.21965904E+03 0.79586176E+02 0.0000E+00 0.0000E+00
  9900012  1    3    3    0    0 -.58930751E+01 0.42824388E+02 -.65721504E+02 0.93209295E+02 0.50000000E+02 0.0000E+00 0.9000E+01
       11  1    3    3    0    0 -.22477429E+02 0.60423650E+02 -.10878091E+03 0.12644974E+03 0.00000000E+00 0.0000E+00 0.9000E+01
       -1  1    1    2    0  501 0.28370504E+02 -.10324804E+03 0.16021292E+03 0.19269983E+03 0.00000000E+00 0.0000E+00 0.9000E+01
#aMCatNLO 1  0  0  5  1 0.18007417D+02 0.00000000D+00  -5  6  0 0.00000000D+00 0.00000000D+00 0.00000000D+00 0.00000000D+00 0.00000000D+00
  <mgrwgt>
 0.3322889726D-05    7    2    0
 0.206055603006295D+03 0.000000000000000D+00 0.000000000000000D+00 0.206055603006295D+03
 0.206055603006295D+03 -.000000000000000D+00 -.000000000000000D+00 -.206055603006295D+03
 0.909864913001444D+02 -.589307514404039D+01 0.428243880350726D+02 -.625290736688100D+02
 0.122753881444176D+03 -.224774290592748D+02 0.604236502477961D+02 -.104461778097197D+03
 0.198370833268270D+03 0.283705042033151D+02 -.103248038282869D+03 0.166990851766007D+03
 0.000000000000000D+00 0.000000000000000D+00 0.000000000000000D+00 0.000000000000000D+00
 0.206055603006295D+03 0.000000000000000D+00 0.000000000000000D+00 0.206055603006295D+03
 0.206055603006295D+03 -.000000000000000D+00 -.000000000000000D+00 -.206055603006295D+03
 0.901081160078249D+02 -.574189697217690D+01 0.422742092450083D+02 -.616392279506306D+02
 0.121330937293876D+03 -.222736665219746D+02 0.596821025438493D+02 -.103262416978413D+03
 0.156754976315813D+03 0.494306774686771D+01 -.796561657976336D+02 0.134916951979508D+03
 0.439171763950765D+02 0.230724957472838D+02 -.223001459912240D+02 0.299846929495357D+02
0.586975271798D-07 0.000000000000D+00 0.000000000000D+00 0.680462063265D-05 0.000000000000D+00  6 -2 22 9900012 11 -1 21 0 0.30620722D-01 0.32819104D-01 0.14118164D+05 0.14118164D+05 0.14118164D+05 0.11941053D+01  1  2  2  2  6  5       -1 0.449054538039D-06 0.100000000000D+01
0.216625425494D-09 0.000000000000D+00 -.112706979892D-09 0.680462063265D-05 0.000000000000D+00  6 -2 22 9900012 11 -1 21 2 0.30620722D-01 0.32819104D-01 0.14118164D+05 0.14118164D+05 0.14118164D+05 0.11941053D+01  1  2  3  2  6  5       -1 0.236305580963D-08 0.100000000000D+01
-.571059164662D-08 0.000000000000D+00 0.000000000000D+00 0.680462063265D-05 0.000000000000D+00  6 -2 22 9900012 11 -1 21 2 0.30620722D-01 0.32819104D-01 0.14118164D+05 0.14118164D+05 0.14118164D+05 0.11941053D+01  1  2 15  2  6  5       -1 -.622939192673D-07 0.100000000000D+01
0.328103695816D-06 0.000000000000D+00 0.000000000000D+00 0.680462063265D-05 0.000000000000D+00  6 -2 22 9900012 11 -1 21 2 0.30620722D-01 0.32819104D-01 0.14559755D+05 0.14559755D+05 0.14559755D+05 0.11927732D+01  1  2 12  2  6  5       -1 0.357770488233D-05 0.100000000000D+01
-.138381089375D-06 0.000000000000D+00 0.000000000000D+00 0.680462063265D-05 0.000000000000D+00  6 -2 22 9900012 11 -1 21 2 0.30620722D-01 0.32819104D-01 0.14118164D+05 0.14118164D+05 0.14118164D+05 0.11941053D+01  1  2  4  2  6  5       -1 -.150952842422D-05 0.100000000000D+01
-.323682313382D-06 0.000000000000D+00 0.000000000000D+00 0.680462063265D-05 0.000000000000D+00  6 -2 22 9900012 11 -1 21 2 0.30620722D-01 0.32819104D-01 0.14118164D+05 0.14118164D+05 0.14118164D+05 0.11941053D+01  1  2  5  2  6  5       -1 -.353088456430D-05 0.100000000000D+01
0.403032413005D-06 0.000000000000D+00 -.000000000000D+00 0.680462063265D-05 0.000000000000D+00  6 -2 22 9900012 11 -1 21 2 0.30620722D-01 0.32819104D-01 0.14118164D+05 0.14118164D+05 0.14118164D+05 0.11941053D+01  1  2  6  2  6  5       -1 0.439647415740D-05 0.100000000000D+01
  </mgrwgt>
  </event>
  <event>
  6     66 0.12973556E-05 0.27966731E+03 0.78161638E-02 0.96718101E-01
       -2 -1    0    0    0  501 0.00000000E+00 0.00000000E+00 0.68741603E+03 0.68741603E+03 0.00000000E+00 0.0000E+00 0.9000E+01
       22 -1    0    0    0    0 0.00000000E+00 0.00000000E+00 -.12546150E+03 0.12546150E+03 0.00000000E+00 0.0000E+00 0.9000E+01
      -24  2    1    2    0    0 0.33480737E+02 -.27765599E+03 0.19120656E+03 0.34847699E+03 0.81623864E+02 0.0000E+00 0.0000E+00
  9900012  1    3    3    0    0 0.21147519E+02 -.11199104E+03 0.94382556E+02 0.15619628E+03 0.50000000E+02 0.0000E+00 0.9000E+01
       11  1    3    3    0    0 0.12333217E+02 -.16566495E+03 0.96824001E+02 0.19228071E+03 0.00000000E+00 0.0000E+00 0.9000E+01
       -1  1    1    2    0  501 -.33480737E+02 0.27765599E+03 0.37074798E+03 0.46440055E+03 0.00000000E+00 0.0000E+00 0.9000E+01
#aMCatNLO 1  0  0  1  1 0.37423248D+03 0.00000000D+00  -5  6  0 0.00000000D+00 0.00000000D+00 0.00000000D+00 0.00000000D+00 0.00000000D+00
  <mgrwgt>
 0.2937882043D-05    3    2    0
 0.293673707611960D+03 0.000000000000000D+00 0.000000000000000D+00 0.293673707611960D+03
 0.293673707611960D+03 0.000000000000000D+00 0.000000000000000D+00 -.293673707611960D+03
 0.125870544117804D+03 0.211475194609428D+02 -.111991036908645D+03 -.188197754845157D+02
 0.173474811198573D+03 0.123332172362395D+02 -.165664949743478D+03 -.499652509197641D+02
 0.288002059907543D+03 -.334807366971823D+02 0.277655986652124D+03 0.687850264042798D+02
 0.000000000000000D+00 0.000000000000000D+00 -.000000000000000D+00 -.000000000000000D+00
 0.355004246287805D+03 0.000000000000000D+00 0.000000000000000D+00 0.355004246287805D+03
 0.500234308890513D+03 0.000000000000000D+00 0.000000000000000D+00 -.500234308890513D+03
 0.955672461694297D+02 0.147842884107874D+02 -.778481817854950D+02 -.188197754845157D+02
 0.129122924262940D+03 0.363777594097648D+01 -.119008276422025D+03 -.499652509197641D+02
 0.392282833743111D+03 -.530293871448518D+02 0.382547155120946D+03 0.687850264042798D+02
 0.238265551002837D+03 0.346073227930879D+02 -.185690696913426D+03 -.145230062602708D+03
0.217121641801D-05 0.000000000000D+00 0.000000000000D+00 0.851923191432D-07 0.000000000000D+00  6 -2 22 9900012 11 -1 21 0 0.10575631D+00 0.19301769D-01 0.81295230D+05 0.81295230D+05 0.81295230D+05 0.11250163D+01  1  2  2  1  6  1       -2 0.333168211712D-05 0.100000000000D+01
-.751063156410D-07 0.000000000000D+00 -.416902136978D-08 0.851923191432D-07 0.000000000000D+00  6 -2 22 9900012 11 -1 21 2 0.10575631D+00 0.19301769D-01 0.81295230D+05 0.81295230D+05 0.81295230D+05 0.11250163D+01  1  2  3  1  6  1       -2 -.145866144633D-06 0.100000000000D+01
-.127660904678D-06 0.000000000000D+00 0.000000000000D+00 0.851923191432D-07 0.000000000000D+00  6 -2 22 9900012 11 -1 21 2 0.10575631D+00 0.19301769D-01 0.81295230D+05 0.81295230D+05 0.81295230D+05 0.11250163D+01  1  2 15  1  6  1       -2 -.247933929746D-06 0.100000000000D+01
  </mgrwgt>
  </event>
  <event>
  6     66 -.12973556E-05 0.10416478E+03 0.78161638E-02 0.10373026E+00
       -2 -1    0    0    0  501 0.00000000E+00 0.00000000E+00 0.24047912E+03 0.24047912E+03 0.00000000E+00 0.0000E+00 0.9000E+01
       22 -1    0    0    0    0 0.00000000E+00 0.00000000E+00 -.46559920E+03 0.46559920E+03 0.00000000E+00 0.0000E+00 0.9000E+01
      -24  2    1    2    0    0 -.34847606E+02 0.21188254E+03 -.37805321E+03 0.44245527E+03 0.82060167E+02 0.0000E+00 0.0000E+00
  9900012  1    3    3    0    0 -.60382767E+01 0.17842943E+03 -.29573140E+03 0.34904238E+03 0.50000000E+02 0.0000E+00 0.9000E+01
       11  1    3    3    0    0 -.28809330E+02 0.33453118E+02 -.82321806E+02 0.93412892E+02 0.00000000E+00 0.0000E+00 0.9000E+01
       -1  1    1    2    0  501 0.34847606E+02 -.21188254E+03 0.15293313E+03 0.26362305E+03 0.00000000E+00 0.0000E+00 0.9000E+01
#aMCatNLO 1  0  0  1  5 0.10364909D+02 0.00000000D+00  -5  6  0 0.00000000D+00 0.00000000D+00 0.00000000D+00 0.00000000D+00 0.00000000D+00
  <mgrwgt>
 -.5459187920D-05    9    4    0
 0.334614531925677D+03 0.000000000000000D+00 0.000000000000000D+00 0.334614531925677D+03
 0.334614531925677D+03 0.000000000000000D+00 0.000000000000000D+00 -.334614531925677D+03
 0.268781183170402D+03 -.603827673472788D+01 0.178429426306113D+03 -.194601653303942D+03
 0.708644146798220D+02 -.288093295259927D+02 0.334531182175147D+02 -.554317299179948D+02
 0.329583466001129D+03 0.348476062607206D+02 -.211882544523628D+03 0.250033383221937D+03
 0.000000000000000D+00 0.000000000000000D+00 -.000000000000000D+00 0.000000000000000D+00
 0.510787226955734D+03 0.000000000000000D+00 0.000000000000000D+00 0.510787226955734D+03
 0.334806894715424D+03 0.000000000000000D+00 0.000000000000000D+00 -.334806894715424D+03
 0.270817934436109D+03 -.901310917063239D+01 0.181359626175980D+03 -.194601653303942D+03
 0.715539198250288D+02 -.295944877427663D+02 0.342264964007182D+02 -.554317299179948D+02
 0.326937364052563D+03 0.312281795486204D+02 -.208317421475761D+03 0.250033383221937D+03
 0.176284903357458D+03 0.737941736477828D+01 -.726870110093742D+01 0.175980332240310D+03
 0.334614531925677D+03 0.000000000000000D+00 0.000000000000000D+00 0.334614531925677D+03
 0.334614531925677D+03 0.000000000000000D+00 0.000000000000000D+00 -.334614531925677D+03
 0.268781183170402D+03 -.603827673472788D+01 0.178429426306113D+03 -.194601653303942D+03
 0.708644146798220D+02 -.288093295259927D+02 0.334531182175147D+02 -.554317299179948D+02
 0.000000000000000D+00 0.000000000000000D+00 -.000000000000000D+00 0.000000000000000D+00
 0.329583466001129D+03 0.348476062607206D+02 -.211882544523628D+03 0.250033383221937D+03
 0.510787226955734D+03 0.000000000000000D+00 0.000000000000000D+00 0.510787226955734D+03
 0.334806894715424D+03 0.000000000000000D+00 0.000000000000000D+00 -.334806894715424D+03
 0.270817934436109D+03 -.901310917063239D+01 0.181359626175980D+03 -.194601653303942D+03
 0.715539198250288D+02 -.295944877427663D+02 0.342264964007182D+02 -.554317299179948D+02
 0.176284903357458D+03 0.737941736477828D+01 -.726870110093742D+01 0.175980332240310D+03
 0.326937364052563D+03 0.312281795486204D+02 -.208317421475761D+03 0.250033383221937D+03
0.148706305346D-06 0.000000000000D+00 0.000000000000D+00 0.967415169285D-06 0.000000000000D+00  6 -2 22 9900012 11 -1 21 0 0.36996788D-01 0.71630646D-01 0.49345850D+05 0.49345850D+05 0.49345850D+05 0.11434494D+01  1  2  2  1  6  1       -2 0.235092303215D-06 0.100000000000D+01
-.823349637047D-09 0.000000000000D+00 -.285535683899D-09 0.967415169285D-06 0.000000000000D+00  6 -2 22 9900012 11 -1 21 2 0.36996788D-01 0.71630646D-01 0.49345850D+05 0.49345850D+05 0.49345850D+05 0.11434494D+01  1  2  3  1  6  1       -2 -.170187332599D-08 0.100000000000D+01
-.132972208350D-07 0.000000000000D+00 0.000000000000D+00 0.967415169285D-06 0.000000000000D+00  6 -2 22 9900012 11 -1 21 2 0.36996788D-01 0.71630646D-01 0.49345850D+05 0.49345850D+05 0.49345850D+05 0.11434494D+01  1  2 15  1  6  1       -2 -.274855109308D-07 0.100000000000D+01
0.171368727468D-04 0.000000000000D+00 0.000000000000D+00 0.967415169285D-06 0.000000000000D+00  6 -2 22 9900012 11 -1 21 2 0.56507857D-01 0.71630646D-01 0.51663400D+05 0.51663400D+05 0.51663400D+05 0.11417149D+01  1  2 12  1  6  1       -2 0.158671039935D-04 0.100000000000D+01
-.184500040810D-04 0.000000000000D+00 0.000000000000D+00 0.967415169285D-06 0.000000000000D+00  6 -2 22 9900012 11 -1 21 2 0.36996788D-01 0.71630646D-01 0.49345850D+05 0.49345850D+05 0.49345850D+05 0.11434494D+01  1  2  4  1  6  1       -2 -.381363741441D-04 0.100000000000D+01
-.171393532082D-04 0.000000000000D+00 -.451431271720D-07 0.967415169285D-06 0.000000000000D+00  6 -2 22 9900012 11 -1 21 2 0.56487678D-01 0.71630646D-01 0.49345850D+05 0.49345850D+05 0.49345850D+05 0.11434494D+01  1  2  5  1  6  1       -2 -.159065669638D-04 0.100000000000D+01
0.157323104416D-04 0.000000000000D+00 0.413819278165D-07 0.967415169285D-06 0.000000000000D+00  6 -2 22 9900012 11 -1 21 2 0.36996788D-01 0.71630646D-01 0.49345850D+05 0.49345850D+05 0.49345850D+05 0.11434494D+01  1  2  6  1  6  1       -2 0.325188696176D-04 0.100000000000D+01
0.850921269174D-06 0.000000000000D+00 0.000000000000D+00 0.967415169285D-06 0.000000000000D+00  6 21 22 9900012 11 2 -1 2 0.56507857D-01 0.71630646D-01 0.51663400D+05 0.51663400D+05 0.51663400D+05 0.11417149D+01  3  4 12  3  5  1       -2 0.821694716982D-05 0.100000000000D+01
-.848849541862D-06 0.000000000000D+00 -.224014880946D-08 0.967415169285D-06 0.000000000000D+00  6 21 22 9900012 11 2 -1 2 0.56487678D-01 0.71630646D-01 0.49345850D+05 0.49345850D+05 0.49345850D+05 0.11434494D+01  3  4  5  3  5  1       -2 -.822507251159D-05 0.100000000000D+01
  </mgrwgt>
  </event>
</LesHouchesEvents>
