<LesHouchesEvents version="3.0">
  <!--
  <scalesfunctionalform>
    muR  H_T/2 := sum_i mT(i)/2, i=final state
    muF1 H_T/2 := sum_i mT(i)/2, i=final state
    muF2 H_T/2 := sum_i mT(i)/2, i=final state
    QES  H_T/2 := sum_i mT(i)/2, i=final state
  </scalesfunctionalform>
PYTHIA8   
  -->
  <header>
        8
  </header>
  <init>
   2212   2212 0.65000000D+04 0.65000000D+04 -1 -1  82200  82200 -4   1
 0.40438807D-05 0.75433727D-07 0.10482246D-05     66
  </init>
  <event>
  5     66 0.10482246E-05 0.42641569E+02 0.78161638E-02 0.12338020E+00
        2 -1    0    0  501    0 0.00000000E+00 0.00000000E+00 0.23073996E+04 0.23073996E+04 0.00000000E+00 0.0000E+00 0.9000E+01
       22 -1    0    0    0    0 0.00000000E+00 0.00000000E+00 -.17978169E+02 0.17978169E+02 0.00000000E+00 0.0000E+00 0.9000E+01
  9900012  1    1    2    0    0 0.13616676E+02 -.26253304E+02 0.34930118E+03 0.35409880E+03 0.50000000E+02 0.0000E+00 0.9000E+01
      -13  1    1    2    0    0 0.96947506E+01 -.94521692E+01 -.12360037E+02 0.18333091E+02 0.00000000E+00 0.0000E+00 0.9000E+01
        1  1    1    2  501    0 -.23311427E+02 0.35705473E+02 0.19524803E+04 0.19529459E+04 0.00000000E+00 0.0000E+00 0.9000E+01
#aMCatNLO 1  0  0  1  1 0.94424376D+02 0.00000000D+00  -5  6  0 0.00000000D+00 0.00000000D+00 0.00000000D+00 0.00000000D+00 0.00000000D+00
  <mgrwgt>
 0.1224898857D-04    4    2    0
 0.203673315816434D+03 0.000000000000000D+00 0.000000000000000D+00 0.203673315816434D+03
 0.203673315816434D+03 0.000000000000000D+00 0.000000000000000D+00 -.203673315816434D+03
 0.582203985586662D+02 0.136166763022945D+02 -.262533036689182D+02 0.386845980669840D+01
 0.174123683830090D+03 0.969475061225033D+01 -.945216923010863D+01 -.173596444600611D+03
 0.175002549244112D+03 -.233114269145449D+02 0.357054728990268D+02 0.169727984793912D+03
 0.000000000000000D+00 -.000000000000000D+00 -.000000000000000D+00 -.000000000000000D+00
 0.205515955364559D+03 0.000000000000000D+00 0.000000000000000D+00 0.205515955364559D+03
 0.255516722667596D+03 0.000000000000000D+00 0.000000000000000D+00 -.255516722667596D+03
 0.577628429207283D+02 0.152906851571466D+02 -.242440918253027D+02 0.386845980669840D+01
 0.174253170437114D+03 0.147229420253384D+02 -.341713440346512D+01 -.173596444600611D+03
 0.175745030165226D+03 -.182490183608619D+02 0.417815764953717D+02 0.169727984793912D+03
 0.532716345090871D+02 -.117646088216232D+02 -.141203502666038D+02 -.500007673030361D+02
0.810949245488D-06 0.000000000000D+00 0.000000000000D+00 0.226328794128D-06 0.000000000000D+00  6 2 22 9900012 -13 1 21 0 0.35498455D+00 0.27658721D-02 0.32645973D+04 0.32645973D+04 0.32645973D+04 0.12632423D+01  1  2  2  1  6  1        2 0.163356240188D-04 0.100000000000D+01
0.938653937071D-08 0.000000000000D+00 -.155712931526D-08 0.226328794128D-06 0.000000000000D+00  6 2 22 9900012 -13 1 21 2 0.35498455D+00 0.27658721D-02 0.32645973D+04 0.32645973D+04 0.32645973D+04 0.12632423D+01  1  2  3  1  6  1        2 0.301731671706D-06 0.100000000000D+01
-.134898830218D-06 0.000000000000D+00 0.000000000000D+00 0.226328794128D-06 0.000000000000D+00  6 2 22 9900012 -13 1 21 2 0.35498455D+00 0.27658721D-02 0.32645973D+04 0.32645973D+04 0.32645973D+04 0.12632423D+01  1  2 15  1  6  1        2 -.433634249484D-05 0.100000000000D+01
-.161842860281D-08 0.000000000000D+00 0.000000000000D+00 0.226328794128D-06 0.000000000000D+00  6 2 22 9900012 -13 1 21 2 0.35498455D+00 0.27658721D-02 0.32645973D+04 0.32645973D+04 0.32645973D+04 0.12632423D+01  1  2  4  1  6  1        2 -.520246225552D-07 0.100000000000D+01
  </mgrwgt>
  </event>
  <event>
  5     66 0.10482246E-05 0.16127177E+02 0.78161638E-02 0.13151165E+00
        2 -1    0    0  501    0 0.00000000E+00 0.00000000E+00 0.22290397E+01 0.22290397E+01 0.00000000E+00 0.0000E+00 0.9000E+01
       22 -1    0    0    0    0 -.00000000E+00 -.00000000E+00 -.17776670E+04 0.17776670E+04 0.00000000E+00 0.0000E+00 0.9000E+01
  9900012  1    1    2    0    0 0.53867848E+01 -.25426638E+02 -.95107350E+03 0.95274148E+03 0.50000000E+02 0.0000E+00 0.9000E+01
      -13  1    1    2    0    0 -.74690004E+01 0.68075146E+01 -.76127414E+03 0.76134122E+03 0.00000000E+00 0.0000E+00 0.9000E+01
        1  1    1    2  501    0 0.20822156E+01 0.18619124E+02 -.63090297E+02 0.65813319E+02 0.00000000E+00 0.0000E+00 0.9000E+01
#aMCatNLO 1  0  0  5  1 0.10772161D+02 0.00000000D+00  -5  6  0 0.00000000D+00 0.00000000D+00 0.00000000D+00 0.00000000D+00 0.00000000D+00
  <mgrwgt>
 0.8045900587D-04    7    2    0
 0.629483142902900D+02 0.000000000000000D+00 0.000000000000000D+00 0.629483142902900D+02
 0.629483142902900D+02 -.000000000000000D+00 -.000000000000000D+00 -.629483142902900D+02
 0.572596573092495D+02 0.538678478847440D+01 -.254266381756339D+02 -.101556376412684D+02
 0.279054787853106D+02 -.746900037463861D+01 0.680751460559721D+01 -.260112960948825D+02
 0.407314924860198D+02 0.208221558616421D+01 0.186191235700367D+02 0.361669337361509D+02
 0.000000000000000D+00 0.000000000000000D+00 0.000000000000000D+00 0.000000000000000D+00
 0.629483142902900D+02 0.000000000000000D+00 0.000000000000000D+00 0.629483142902900D+02
 0.629483142902900D+02 -.000000000000000D+00 -.000000000000000D+00 -.629483142902900D+02
 0.563502193915966D+02 0.552573563839075D+01 -.241841428922708D+02 -.774213818669738D+01
 0.269623612624211D+02 -.740189412270787D+01 0.740757715691165D+01 -.248456975934653D+02
 0.197958863285373D+02 0.110069308888811D+02 0.104866961884223D+02 0.126788718343350D+02
 0.227881615980249D+02 -.913077240456395D+01 0.628986954693679D+01 0.199089639458277D+02
0.783976148873D-06 0.000000000000D+00 0.000000000000D+00 0.250401885484D-07 0.000000000000D+00  6 2 22 9900012 -13 1 21 0 0.34292918D-03 0.27348723D+00 0.18144574D+04 0.18144574D+04 0.18144574D+04 0.12946940D+01  1  2  2  2  6  5        1 0.484961539951D-04 0.100000000000D+01
0.418381085935D-07 0.000000000000D+00 -.150533741867D-08 0.250401885484D-07 0.000000000000D+00  6 2 22 9900012 -13 1 21 2 0.34292918D-03 0.27348723D+00 0.18144574D+04 0.18144574D+04 0.18144574D+04 0.12946940D+01  1  2  3  2  6  5        1 0.433821220981D-05 0.100000000000D+01
-.133705986666D-06 0.000000000000D+00 0.000000000000D+00 0.250401885484D-07 0.000000000000D+00  6 2 22 9900012 -13 1 21 2 0.34292918D-03 0.27348723D+00 0.18144574D+04 0.18144574D+04 0.18144574D+04 0.12946940D+01  1  2 15  2  6  5        1 -.138640336138D-04 0.100000000000D+01
0.291035801156D-06 0.000000000000D+00 0.000000000000D+00 0.250401885484D-07 0.000000000000D+00  6 2 22 9900012 -13 1 21 2 0.34292918D-03 0.27348723D+00 0.21426707D+04 0.21426707D+04 0.21426707D+04 0.12855443D+01  1  2 12  2  6  5        1 0.304804152116D-04 0.100000000000D+01
-.687640619666D-07 0.000000000000D+00 0.000000000000D+00 0.250401885484D-07 0.000000000000D+00  6 2 22 9900012 -13 1 21 2 0.34292918D-03 0.27348723D+00 0.18144574D+04 0.18144574D+04 0.18144574D+04 0.12946940D+01  1  2  4  2  6  5        1 -.713017636906D-05 0.100000000000D+01
-.259172133145D-06 0.000000000000D+00 0.000000000000D+00 0.250401885484D-07 0.000000000000D+00  6 2 22 9900012 -13 1 21 2 0.34292918D-03 0.27348723D+00 0.18144574D+04 0.18144574D+04 0.18144574D+04 0.12946940D+01  1  2  5  2  6  5        1 -.268736745099D-04 0.100000000000D+01
0.434100825619D-06 0.000000000000D+00 -.000000000000D+00 0.250401885484D-07 0.000000000000D+00  6 2 22 9900012 -13 1 21 2 0.34292918D-03 0.27348723D+00 0.18144574D+04 0.18144574D+04 0.18144574D+04 0.12946940D+01  1  2  6  2  6  5        1 0.450121089432D-04 0.100000000000D+01
  </mgrwgt>
  </event>
  <event>
  5     66 0.10482246E-05 0.16589936E+02 0.78161638E-02 0.13329112E+00
        2 -1    0    0  501    0 0.00000000E+00 0.00000000E+00 0.68135773E+03 0.68135773E+03 0.00000000E+00 0.0000E+00 0.9000E+01
       22 -1    0    0    0    0 0.00000000E+00 0.00000000E+00 -.65517469E+01 0.65517469E+01 0.00000000E+00 0.0000E+00 0.9000E+01
  9900012  1    1    2    0    0 -.12676576E+02 0.24306789E+02 0.21448367E+03 0.22193413E+03 0.50000000E+02 0.0000E+00 0.9000E+01
      -13  1    1    2    0    0 0.60850062E+01 -.90825584E+01 0.84988392E+01 0.13847398E+02 0.00000000E+00 0.0000E+00 0.9000E+01
        1  1    1    2  501    0 0.65915697E+01 -.15224231E+02 0.45182347E+03 0.45212794E+03 0.00000000E+00 0.0000E+00 0.9000E+01
#aMCatNLO 1  0  0  5  1 0.14337832D+01 0.00000000D+00  -5  6  0 0.00000000D+00 0.00000000D+00 0.00000000D+00 0.00000000D+00 0.00000000D+00
  <mgrwgt>
 0.2716101246D-04    8    2    0
 0.668137963577020D+02 0.000000000000000D+00 0.000000000000000D+00 0.668137963577020D+02
 0.668137963577020D+02 -.000000000000000D+00 -.000000000000000D+00 -.668137963577020D+02
 0.593869179918144D+02 -.126765759166249D+02 0.243067890036439D+02 -.165918793368585D+02
 0.283675607374934D+02 0.608500618296905D+01 -.908255838943800D+01 -.261762933787627D+02
 0.458731139860963D+02 0.659156973365585D+01 -.152242306142059D+02 0.427681727156212D+02
 0.000000000000000D+00 0.000000000000000D+00 0.000000000000000D+00 0.000000000000000D+00
 0.668137963577020D+02 0.000000000000000D+00 0.000000000000000D+00 0.668137963577020D+02
 0.668137963577020D+02 -.000000000000000D+00 -.000000000000000D+00 -.668137963577020D+02
 0.592684528391285D+02 -.126365289053753D+02 0.242142943537639D+02 -.163320417620359D+02
 0.282714964539714D+02 0.610412225790632D+01 -.912670986549650D+01 -.260522622863831D+02
 0.443712316199288D+02 0.527574232357515D+01 -.154294407204481D+02 0.412662706996741D+02
 0.171641180237547D+01 0.125666432389383D+01 0.341856232180651D+00 0.111803334874481D+01
0.331403398099D-07 0.000000000000D+00 0.000000000000D+00 0.338876654704D-07 0.000000000000D+00  6 2 22 9900012 -13 1 21 0 0.10482427D+00 0.10079611D-02 0.17869442D+04 0.17869442D+04 0.17869442D+04 0.12955456D+01  1  2  2  2  6  5        1 0.174068135416D-04 0.100000000000D+01
0.267467596044D-08 0.000000000000D+00 -.636338154610D-10 0.338876654704D-07 0.000000000000D+00  6 2 22 9900012 -13 1 21 2 0.10482427D+00 0.10079611D-02 0.17869442D+04 0.17869442D+04 0.17869442D+04 0.12955456D+01  1  2  3  2  6  5        1 0.235797346310D-05 0.100000000000D+01
-.564778811151D-08 0.000000000000D+00 0.000000000000D+00 0.338876654704D-07 0.000000000000D+00  6 2 22 9900012 -13 1 21 2 0.10482427D+00 0.10079611D-02 0.17869442D+04 0.17869442D+04 0.17869442D+04 0.12955456D+01  1  2 15  2  6  5        1 -.497904594393D-05 0.100000000000D+01
0.549900662538D-11 0.000000000000D+00 0.000000000000D+00 0.338876654704D-07 0.000000000000D+00  6 2 22 9900012 -13 1 21 2 0.10482427D+00 0.10079611D-02 0.18302336D+04 0.18302336D+04 0.18302336D+04 0.12942124D+01  1  2 12  2  6  5        1 0.485014897565D-08 0.100000000000D+01
-.435958313240D-07 0.000000000000D+00 0.000000000000D+00 0.338876654704D-07 0.000000000000D+00  6 2 22 9900012 -13 1 21 2 0.10482427D+00 0.10079611D-02 0.17869442D+04 0.17869442D+04 0.17869442D+04 0.12955456D+01  1  2  4  2  6  5        1 -.384337448290D-04 0.100000000000D+01
-.363040890075D-06 0.000000000000D+00 0.000000000000D+00 0.338876654704D-07 0.000000000000D+00  6 2 22 9900012 -13 1 21 2 0.10482427D+00 0.10079611D-02 0.17869442D+04 0.17869442D+04 0.17869442D+04 0.12955456D+01  1  2  5  2  6  5        1 -.320054016815D-03 0.100000000000D+01
0.376878556043D-06 0.000000000000D+00 -.000000000000D+00 0.338876654704D-07 0.000000000000D+00  6 2 22 9900012 -13 1 21 2 0.10482427D+00 0.10079611D-02 0.17869442D+04 0.17869442D+04 0.17869442D+04 0.12955456D+01  1  2  6  2  6  5        1 0.332253195193D-03 0.100000000000D+01
0.437696005196D-07 0.000000000000D+00 0.000000000000D+00 0.338876654704D-07 0.262159155373D-07  6 2 22 9900012 -13 1 21 2 0.10482427D+00 0.10079611D-02 0.18302336D+04 0.18302336D+04 0.18302336D+04 0.12942124D+01  1  2 11  2  6  5        1 0.386049876981D-04 0.100000000000D+01
  </mgrwgt>
  </event>
  <event>
  5     66 0.10482246E-05 0.84110207E+02 0.78161638E-02 0.98475590E-01
        2 -1    0    0  501    0 0.00000000E+00 0.00000000E+00 0.44233034E+03 0.44233034E+03 0.00000000E+00 0.0000E+00 0.9000E+01
       22 -1    0    0    0    0 0.00000000E+00 0.00000000E+00 -.80116871E+02 0.80116871E+02 0.00000000E+00 0.0000E+00 0.9000E+01
  9900012  1    1    2    0    0 -.13395953E+03 0.10999084E+02 0.11974375E+03 0.18682800E+03 0.50000000E+02 0.0000E+00 0.9000E+01
      -13  1    1    2    0    0 0.94656165E+02 -.85361525E+02 0.74165984E+02 0.14746855E+03 0.00000000E+00 0.0000E+00 0.9000E+01
        1  1    1    2  501    0 0.39303361E+02 0.74362442E+02 0.16830373E+03 0.18815067E+03 0.00000000E+00 0.0000E+00 0.9000E+01
#aMCatNLO 1  0  0  1  5 0.42521564D+02 0.00000000D+00  -5  6  0 0.00000000D+00 0.00000000D+00 0.00000000D+00 0.00000000D+00 0.00000000D+00
  <mgrwgt>
 0.2154630243D-05    3    2    0
 0.188250161213245D+03 0.000000000000000D+00 0.000000000000000D+00 0.188250161213245D+03
 0.188250161213245D+03 0.000000000000000D+00 0.000000000000000D+00 -.188250161213245D+03
 0.144050252623049D+03 -.133959525813379D+03 0.109990835778291D+02 -.135772193422240D+02
 0.133281728459682D+03 0.946561651071330D+02 -.853615250930686D+02 -.389568938982181D+02
 0.991683413437589D+02 0.393033607062457D+02 0.743624415152395D+02 0.525341132404422D+02
 0.000000000000000D+00 -.000000000000000D+00 -.000000000000000D+00 -.000000000000000D+00
 0.238996029473938D+03 0.000000000000000D+00 0.000000000000000D+00 0.238996029473938D+03
 0.128093863333790D+04 0.000000000000000D+00 0.000000000000000D+00 -.128093863333790D+04
 0.982050200610587D+02 -.703809001460508D+02 0.447930125662220D+02 -.135772193422240D+02
 0.187485932660059D+03 0.178839955315528D+03 -.406153388014357D+02 -.389568938982181D+02
 0.163772276089565D+03 0.108310746606689D+03 0.111041917900848D+03 0.525341132404422D+02
 0.107047143400116D+04 -.216769801776166D+03 -.115219591665634D+03 -.104194260386397D+04
0.760348798056D-07 0.000000000000D+00 0.000000000000D+00 0.475230465963D-10 0.000000000000D+00  6 2 22 9900012 -13 1 21 0 0.68050822D-01 0.12325673D-01 0.31502783D+05 0.31502783D+05 0.31502783D+05 0.11608433D+01  1  2  2  1  6  1        2 0.261688541372D-05 0.100000000000D+01
0.136565497299D-08 0.000000000000D+00 -.145996979449D-09 0.475230465963D-10 0.000000000000D+00  6 2 22 9900012 -13 1 21 2 0.68050822D-01 0.12325673D-01 0.31502783D+05 0.31502783D+05 0.31502783D+05 0.11608433D+01  1  2  3  1  6  1        2 0.633373672929D-07 0.100000000000D+01
-.113326160269D-07 0.000000000000D+00 0.000000000000D+00 0.475230465963D-10 0.000000000000D+00  6 2 22 9900012 -13 1 21 2 0.68050822D-01 0.12325673D-01 0.31502783D+05 0.31502783D+05 0.31502783D+05 0.11608433D+01  1  2 15  1  6  1        2 -.525592538295D-06 0.100000000000D+01
  </mgrwgt>
  </event>
  <event>
  6     66 -.10482246E-05 0.20732911E+02 0.78161638E-02 0.12850849E+00
        2 -1    0    0  501    0 0.00000000E+00 0.00000000E+00 0.88016928E+03 0.88016928E+03 0.00000000E+00 0.0000E+00 0.9000E+01
       22 -1    0    0    0    0 0.00000000E+00 0.00000000E+00 -.50576840E+01 0.50576840E+01 0.00000000E+00 0.0000E+00 0.9000E+01
  9900012  1    1    2    0    0 0.12844976E+02 -.14346855E+02 0.46016652E+03 0.46327536E+03 0.50000000E+02 0.0000E+00 0.9000E+01
      -13  1    1    2    0    0 -.21346160E+02 -.17349617E+01 0.37721745E+02 0.43377399E+02 0.00000000E+00 0.0000E+00 0.9000E+01
        1  1    1    2  502    0 0.75299687E+01 0.23054193E+02 0.32037467E+03 0.32129134E+03 0.00000000E+00 0.0000E+00 0.9000E+01
       21  1    1    2  501  502 0.97121532E+00 -.69723765E+01 0.56848656E+02 0.57282868E+02 0.00000000E+00 0.0000E+00 0.9000E+01
#aMCatNLO 2  0  0  5  1 0.10335429D+02 0.00000000D+00  -5  6  0 0.00000000D+00 0.00000000D+00 0.00000000D+00 0.00000000D+00 0.00000000D+00
  <mgrwgt>
 -.1206169659D-04    2    2    0
 0.667204468522790D+02 0.000000000000000D+00 0.000000000000000D+00 0.667204468522790D+02
 0.667204468522790D+02 -.000000000000000D+00 -.000000000000000D+00 -.667204468522790D+02
 0.551868524398699D+02 0.113782896185288D+02 -.171214079692939D+02 0.110896617047525D+02
 0.432831948224340D+02 -.224546781361931D+02 -.383196178184811D+01 -.368040548409982D+02
 0.349708464422541D+02 0.110763885176644D+02 0.209533697511420D+02 0.257143931362457D+02
 0.000000000000000D+00 0.000000000000000D+00 -.000000000000000D+00 0.000000000000000D+00
 0.667204468522790D+02 0.000000000000000D+00 0.000000000000000D+00 0.667204468522790D+02
 0.667204468522790D+02 -.000000000000000D+00 -.000000000000000D+00 -.667204468522790D+02
 0.555060401141697D+02 0.128449760541997D+02 -.143468553119375D+02 0.144946480461303D+02
 0.403782227615358D+02 -.213461601136877D+02 -.173496166630336D+01 -.342305744882768D+02
 0.303667706763644D+02 0.752996873970689D+01 0.230541934978488D+02 0.182741482497458D+02
 0.718986015248812D+01 0.971215319781142D+00 -.697237651960796D+01 0.146177819240078D+01
-.155746090543D-07 0.000000000000D+00 0.000000000000D+00 0.442748155871D-08 0.000000000000D+00  6 2 22 9900012 -13 1 21 2 0.13541066D+00 0.77810522D-03 0.28243426D+04 0.28243426D+04 0.28243426D+04 0.12707814D+01  1  2 13  2  6  5        1 -.145336967755D-04 0.100000000000D+01
0.264904635597D-08 0.000000000000D+00 0.000000000000D+00 0.442748155871D-08 0.702218963549D-10  6 2 22 9900012 -13 1 21 2 0.13541066D+00 0.77810522D-03 0.28243426D+04 0.28243426D+04 0.28243426D+04 0.12707814D+01  1  2  1  2  6  5        1 0.247200018618D-05 0.100000000000D+01
  </mgrwgt>
  </event>
  <event>
  5     66 0.10482246E-05 0.43016919E+02 0.78161638E-02 0.99369722E-01
        2 -1    0    0  501    0 0.00000000E+00 0.00000000E+00 0.27757696E+04 0.27757696E+04 0.00000000E+00 0.0000E+00 0.9000E+01
       22 -1    0    0    0    0 0.00000000E+00 0.00000000E+00 -.93141067E+02 0.93141067E+02 0.00000000E+00 0.0000E+00 0.9000E+01
  9900012  1    1    2    0    0 0.32643915E+01 -.32962386E+02 0.67749307E+02 0.90482837E+02 0.50000000E+02 0.0000E+00 0.9000E+01
      -13  1    1    2    0    0 0.26457331E+01 -.96466004E+01 -.81296195E+02 0.81909268E+02 0.00000000E+00 0.0000E+00 0.9000E+01
        1  1    1    2  501    0 -.59101246E+01 0.42608987E+02 0.26961754E+04 0.26965185E+04 0.00000000E+00 0.0000E+00 0.9000E+01
#aMCatNLO 1  0  0  1  5 0.41732357D+02 0.00000000D+00  -5  6  0 0.00000000D+00 0.00000000D+00 0.00000000D+00 0.00000000D+00 0.00000000D+00
  <mgrwgt>
 0.1179440484D-03    4    2    0
 0.508466458174824D+03 0.000000000000000D+00 0.000000000000000D+00 0.508466458174824D+03
 0.508466458174824D+03 0.000000000000000D+00 0.000000000000000D+00 -.508466458174824D+03
 0.765448233670801D+02 0.326439151871705D+01 -.329623861042832D+02 -.475598027184953D+02
 0.445533675471192D+03 0.264573312836516D+01 -.964660040272580D+01 -.445421372607728D+03
 0.494854417511376D+03 -.591012464708221D+01 0.426089865070090D+02 0.492981175326224D+03
 0.000000000000000D+00 -.000000000000000D+00 0.000000000000000D+00 -.000000000000000D+00
 0.631218612883694D+03 0.000000000000000D+00 0.000000000000000D+00 0.631218612883694D+03
 0.743725504999082D+03 0.000000000000000D+00 0.000000000000000D+00 -.743725504999082D+03
 0.818562011629474D+02 0.256168025291065D+02 -.358089690216220D+02 -.475598027184953D+02
 0.465053512903199D+03 0.131141234693009D+03 -.260105219295260D+02 -.445421372607728D+03
 0.512030080289426D+03 0.136174159224242D+03 0.245145315015762D+02 0.492981175326224D+03
 0.316004323527203D+03 -.292932196446357D+03 0.373049594495719D+02 -.112506892115388D+03
0.128024262158D-03 0.000000000000D+00 0.000000000000D+00 0.149592104519D-04 0.000000000000D+00  6 2 22 9900012 -13 1 21 0 0.42704147D+00 0.14329395D-01 0.31920361D+04 0.31920361D+04 0.31920361D+04 0.12644026D+01  1  2  2  1  6  1        2 0.148443989793D-03 0.100000000000D+01
0.362569538874D-05 0.000000000000D+00 -.245823438125D-06 0.149592104519D-04 0.000000000000D+00  6 2 22 9900012 -13 1 21 2 0.42704147D+00 0.14329395D-01 0.31920361D+04 0.31920361D+04 0.31920361D+04 0.12644026D+01  1  2  3  1  6  1        2 0.672097685703D-05 0.100000000000D+01
-.200458560969D-04 0.000000000000D+00 0.000000000000D+00 0.149592104519D-04 0.000000000000D+00  6 2 22 9900012 -13 1 21 2 0.42704147D+00 0.14329395D-01 0.31920361D+04 0.31920361D+04 0.31920361D+04 0.12644026D+01  1  2 15  1  6  1        2 -.371591434087D-04 0.100000000000D+01
-.333250405361D-07 0.000000000000D+00 0.000000000000D+00 0.149592104519D-04 0.000000000000D+00  6 2 22 9900012 -13 1 21 2 0.42704147D+00 0.14329395D-01 0.31920361D+04 0.31920361D+04 0.31920361D+04 0.12644026D+01  1  2  4  1  6  1        2 -.617748603201D-07 0.100000000000D+01
  </mgrwgt>
  </event>
  <event>
  5     66 0.10482246E-05 0.91238331E+02 0.78161638E-02 0.11666080E+00
        2 -1    0    0  501    0 0.00000000E+00 0.00000000E+00 0.17702656E+04 0.17702656E+04 0.00000000E+00 0.0000E+00 0.9000E+01
       22 -1    0    0    0    0 0.00000000E+00 0.00000000E+00 -.71599080E+02 0.71599080E+02 0.00000000E+00 0.0000E+00 0.9000E+01
  9900012  1    1    2    0    0 -.67454441E+02 -.44280702E+02 -.20570119E+02 0.97128843E+02 0.50000000E+02 0.0000E+00 0.9000E+01
      -13  1    1    2    0    0 -.95911500E+01 -.45906580E+01 -.90982674E+01 0.13994383E+02 0.00000000E+00 0.0000E+00 0.9000E+01
        1  1    1    2  501    0 0.77045591E+02 0.48871360E+02 0.17283349E+04 0.17307415E+04 0.00000000E+00 0.0000E+00 0.9000E+01
#aMCatNLO 1  0  0  1  5 0.63683205D+02 0.00000000D+00  -5  6  0 0.00000000D+00 0.00000000D+00 0.00000000D+00 0.00000000D+00 0.00000000D+00
  <mgrwgt>
 0.1090862980D-03    4    2    0
 0.356018806701234D+03 0.000000000000000D+00 0.000000000000000D+00 0.356018806701234D+03
 0.356018806701234D+03 0.000000000000000D+00 0.000000000000000D+00 -.356018806701234D+03
 0.300321157933294D+03 -.674544414492950D+02 -.442807022589147D+02 -.284924403375028D+03
 0.579052043390627D+02 -.959115000707480D+01 -.459065795040223D+01 -.569205445394965D+02
 0.353811251130111D+03 0.770455914563698D+02 0.488713602093169D+02 0.341844947914525D+03
 0.000000000000000D+00 -.000000000000000D+00 -.000000000000000D+00 -.000000000000000D+00
 0.382453885327915D+03 0.000000000000000D+00 0.000000000000000D+00 0.382453885327915D+03
 0.620708162581048D+03 0.000000000000000D+00 0.000000000000000D+00 -.620708162581048D+03
 0.290154486226635D+03 -.188221117775568D+02 -.123870233333014D+02 -.284924403375028D+03
 0.569435398076435D+02 -.132060469734046D+00 0.161272911061066D+01 -.569205445394965D+02
 0.378889644487902D+03 0.137391774840730D+03 0.884471282269744D+02 0.341844947914525D+03
 0.277174377386783D+03 -.118437602593439D+03 -.776728340042837D+02 -.238254277253133D+03
0.244454752094D-04 0.000000000000D+00 0.000000000000D+00 0.761292456248D-06 0.000000000000D+00  6 2 22 9900012 -13 1 21 0 0.27234856D+00 0.11015243D-01 0.96822813D+04 0.96822813D+04 0.96822813D+04 0.12107860D+01  1  2  2  1  6  1        2 0.142623726460D-03 0.100000000000D+01
0.275284977849D-06 0.000000000000D+00 -.469385307227D-07 0.761292456248D-06 0.000000000000D+00  6 2 22 9900012 -13 1 21 2 0.27234856D+00 0.11015243D-01 0.96822813D+04 0.96822813D+04 0.96822813D+04 0.12107860D+01  1  2  3  1  6  1        2 0.235456463067D-05 0.100000000000D+01
-.416477880500D-05 0.000000000000D+00 0.000000000000D+00 0.761292456248D-06 0.000000000000D+00  6 2 22 9900012 -13 1 21 2 0.27234856D+00 0.11015243D-01 0.96822813D+04 0.96822813D+04 0.96822813D+04 0.12107860D+01  1  2 15  1  6  1        2 -.356221430803D-04 0.100000000000D+01
-.315496315827D-07 0.000000000000D+00 0.000000000000D+00 0.761292456248D-06 0.000000000000D+00  6 2 22 9900012 -13 1 21 2 0.27234856D+00 0.11015243D-01 0.96822813D+04 0.96822813D+04 0.96822813D+04 0.12107860D+01  1  2  4  1  6  1        2 -.269849983154D-06 0.100000000000D+01
  </mgrwgt>
  </event>
  <event>
  5     66 0.10482246E-05 0.42155987E+02 0.78161638E-02 0.12492910E+00
        4 -1    0    0  501    0 0.00000000E+00 0.00000000E+00 0.10761217E+03 0.10761217E+03 0.00000000E+00 0.0000E+00 0.9000E+01
       22 -1    0    0    0    0 0.00000000E+00 0.00000000E+00 -.12223978E+03 0.12223978E+03 0.00000000E+00 0.0000E+00 0.9000E+01
  9900012  1    1    2    0    0 0.44225261E+02 0.26792326E+02 -.52936470E+02 0.89308299E+02 0.50000000E+02 0.0000E+00 0.9000E+01
      -13  1    1    2    0    0 -.50313626E+01 -.11269259E+02 -.45277019E+02 0.46928875E+02 0.00000000E+00 0.0000E+00 0.9000E+01
        3  1    1    2  501    0 -.39193899E+02 -.15523067E+02 0.83585875E+02 0.93614774E+02 0.00000000E+00 0.0000E+00 0.9000E+01
#aMCatNLO 1  0  0  1  5 0.63683205D+02 0.00000000D+00  -5  6  0 0.00000000D+00 0.00000000D+00 0.00000000D+00 0.00000000D+00 0.00000000D+00
  <mgrwgt>
 0.7005627052D-07    1    2    0
 0.114693015019408D+03 0.000000000000000D+00 0.000000000000000D+00 0.114693015019408D+03
 0.114693015019408D+03 0.000000000000000D+00 0.000000000000000D+00 -.114693015019408D+03
 0.861140160542931D+02 0.442252611648046D+02 0.267923258681089D+02 -.473489314608149D+02
 0.441369447199006D+02 -.503136261040538D+01 -.112692592766781D+02 -.423763976152431D+02
 0.991350692646221D+02 -.391938985543992D+02 -.155230665914308D+02 0.897253290760580D+02
 0.000000000000000D+00 0.000000000000000D+00 0.000000000000000D+00 -.000000000000000D+00
 0.144539099415811D+03 0.000000000000000D+00 0.000000000000000D+00 0.144539099415811D+03
 0.167856810392529D+03 0.000000000000000D+00 0.000000000000000D+00 -.167856810392529D+03
 0.746776280708049D+02 0.219564302083334D+02 0.187814268975259D+02 -.473489314608149D+02
 0.486638341128044D+02 -.178838019750191D+02 -.158927437099975D+02 -.423763976152431D+02
 0.116203030714165D+03 -.690171382694212D+02 -.262515579432902D+02 0.897253290760580D+02
 0.728514169105663D+02 0.649445100361069D+02 0.233628747557617D+02 -.233177109767179D+02
0.169597217244D-08 0.000000000000D+00 0.000000000000D+00 0.109124294091D-06 0.000000000000D+00  6 4 22 9900012 -13 3 21 2 0.16555718D-01 0.18806120D-01 0.39958750D+04 0.39958750D+04 0.39958750D+04 0.12529586D+01  1  2 14  1  6  1        4 0.700562705219D-07 0.100000000000D+01
  </mgrwgt>
  </event>
</LesHouchesEvents>
