<LesHouchesEvents version="3.0">
  <!--
  <scalesfunctionalform>
    muR  H_T/2 := sum_i mT(i)/2, i=final state
    muF1 H_T/2 := sum_i mT(i)/2, i=final state
    muF2 H_T/2 := sum_i mT(i)/2, i=final state
    QES  H_T/2 := sum_i mT(i)/2, i=final state
  </scalesfunctionalform>
PYTHIA8   
  -->
  <header>
      136
  </header>
  <init>
   2212   2212 0.65000000D+04 0.65000000D+04 -1 -1  82200  82200 -4   1
 0.86839807D-04 0.28091751D-06 0.12453494D-05     66
  </init>
  <event>
  6     66 0.12453494E-05 0.57368342E+02 0.78161638E-02 0.11948282E+00
        2 -1    0    0  501    0 0.00000000E+00 0.00000000E+00 0.15346018E+04 0.15346018E+04 0.00000000E+00 0.0000E+00 0.9000E+01
       22 -1    0    0    0    0 0.00000000E+00 0.00000000E+00 -.50324523E+01 0.50324523E+01 0.00000000E+00 0.0000E+00 0.9000E+01
       24  2    1    2    0    0 0.40288294E+02 0.49706655E+02 0.68811723E+03 0.69575300E+03 0.80455079E+02 0.0000E+00 0.0000E+00
  9900012  1    3    3    0    0 0.27570962E+02 0.68735677E+01 0.34937261E+03 0.35407432E+03 0.50000000E+02 0.0000E+00 0.9000E+01
      -11  1    3    3    0    0 0.12717331E+02 0.42833087E+02 0.33874462E+03 0.34167868E+03 0.00000000E+00 0.0000E+00 0.9000E+01
        1  1    1    2  501    0 -.40288294E+02 -.49706655E+02 0.84145215E+03 0.84388129E+03 0.00000000E+00 0.0000E+00 0.9000E+01
#aMCatNLO 1  0  0  1  5 0.27200411D+01 0.00000000D+00  -5  6  0 0.00000000D+00 0.00000000D+00 0.00000000D+00 0.00000000D+00 0.00000000D+00
  <mgrwgt>
 0.8730139687D-04    8    2    0
 0.878795229533636D+02 0.000000000000000D+00 0.000000000000000D+00 0.878795229533636D+02
 0.878795229533636D+02 0.000000000000000D+00 0.000000000000000D+00 -.878795229533636D+02
 0.611935321793492D+02 0.275709623043731D+02 0.687356771471826D+01 -.209103917961156D+02
 0.451004616744428D+02 0.127173312179432D+02 0.428330871213402D+02 -.613577848334614D+01
 0.694650520529353D+02 -.402882935223163D+02 -.497066548360585D+02 0.270461702794618D+02
 0.000000000000000D+00 0.000000000000000D+00 0.000000000000000D+00 -.000000000000000D+00
 0.886999197824793D+02 0.000000000000000D+00 0.000000000000000D+00 0.886999197824793D+02
 0.888970335109803D+02 0.000000000000000D+00 0.000000000000000D+00 -.888970335109803D+02
 0.609032652142176D+02 0.269515860540739D+02 0.675094347895966D+01 -.209103917961156D+02
 0.448878062167842D+02 0.122608360671513D+02 0.427427101187246D+02 -.613577848334614D+01
 0.699773751148647D+02 -.409956611971081D+02 -.498466996318991D+02 0.270461702794618D+02
 0.182850674759322D+01 0.178323907588286D+01 0.353046034214865D+00 -.197113728500929D+00
0.447903229281D-06 0.000000000000D+00 0.000000000000D+00 0.154091605952D-06 0.000000000000D+00  6 2 22 9900012 -11 1 21 0 0.23609259D+00 0.77422343D-03 0.69035115D+04 0.69035115D+04 0.69035115D+04 0.12263826D+01  1  2  2  1  6  1        2 0.126365000312D-03 0.100000000000D+01
-.809550483765D-08 0.000000000000D+00 -.860033168033D-09 0.154091605952D-06 0.000000000000D+00  6 2 22 9900012 -11 1 21 2 0.23609259D+00 0.77422343D-03 0.69035115D+04 0.69035115D+04 0.69035115D+04 0.12263826D+01  1  2  3  1  6  1        2 -.343509279013D-05 0.100000000000D+01
-.679551273151D-07 0.000000000000D+00 0.000000000000D+00 0.154091605952D-06 0.000000000000D+00  6 2 22 9900012 -11 1 21 2 0.23609259D+00 0.77422343D-03 0.69035115D+04 0.69035115D+04 0.69035115D+04 0.12263826D+01  1  2 15  1  6  1        2 -.288347882651D-04 0.100000000000D+01
0.126126876157D-08 0.000000000000D+00 0.000000000000D+00 0.154091605952D-06 0.000000000000D+00  6 2 22 9900012 -11 1 21 2 0.24105574D+00 0.77422343D-03 0.70580859D+04 0.70580859D+04 0.70580859D+04 0.12253429D+01  1  2 12  1  6  1        2 0.515321081897D-06 0.100000000000D+01
-.471543052162D-06 0.000000000000D+00 0.000000000000D+00 0.154091605952D-06 0.000000000000D+00  6 2 22 9900012 -11 1 21 2 0.23609259D+00 0.77422343D-03 0.69035115D+04 0.69035115D+04 0.69035115D+04 0.12263826D+01  1  2  4  1  6  1        2 -.200085624208D-03 0.100000000000D+01
0.465001184449D-06 0.000000000000D+00 0.000000000000D+00 0.154091605952D-06 0.575714333368D-07  6 2 22 9900012 -11 1 21 2 0.23829663D+00 0.78318776D-03 0.70580859D+04 0.70580859D+04 0.70580859D+04 0.12253429D+01  1  2 11  1  6  1        2 0.191075529113D-03 0.100000000000D+01
0.757262528563D-10 0.000000000000D+00 0.000000000000D+00 0.154091605952D-06 0.000000000000D+00  6 21 22 9900012 -11 1 -2 2 0.24105574D+00 0.77422343D-03 0.70580859D+04 0.70580859D+04 0.70580859D+04 0.12253429D+01  1  2 12  3  6  1        2 0.125005835799D-07 0.100000000000D+01
0.998226559822D-08 0.000000000000D+00 0.000000000000D+00 0.154091605952D-06 0.726572777624D-09  6 21 22 9900012 -11 1 -2 2 0.23829663D+00 0.78318776D-03 0.70580859D+04 0.70580859D+04 0.70580859D+04 0.12253429D+01  1  2 11  3  6  1        2 0.168855103772D-05 0.100000000000D+01
  </mgrwgt>
  </event>
  <event>
  6     66 0.12453494E-05 0.16763377E+03 0.78161638E-02 0.10759511E+00
        2 -1    0    0  501    0 0.00000000E+00 0.00000000E+00 0.28345913E+03 0.28345913E+03 0.00000000E+00 0.0000E+00 0.9000E+01
       22 -1    0    0    0    0 0.00000000E+00 0.00000000E+00 -.11035203E+03 0.11035203E+03 0.00000000E+00 0.0000E+00 0.9000E+01
       24  2    1    2    0    0 0.16761117E+03 0.27528870E+01 0.87056041E+02 0.20538115E+03 0.80632389E+02 0.0000E+00 0.0000E+00
  9900012  1    3    3    0    0 0.15676808E+03 0.11332028E+02 0.94068816E+02 0.18987783E+03 0.50000000E+02 0.0000E+00 0.9000E+01
      -11  1    3    3    0    0 0.10843083E+02 -.85791412E+01 -.70127748E+01 0.15503326E+02 0.00000000E+00 0.0000E+00 0.9000E+01
        1  1    1    2  501    0 -.16761117E+03 -.27528870E+01 0.86051066E+02 0.18843001E+03 0.00000000E+00 0.0000E+00 0.9000E+01
#aMCatNLO 1  0  0  1  5 0.24259019D+02 0.00000000D+00  -5  6  0 0.00000000D+00 0.00000000D+00 0.00000000D+00 0.00000000D+00 0.00000000D+00
  <mgrwgt>
 0.6333469163D-04    5    2    0
 0.176862347970581D+03 0.000000000000000D+00 0.000000000000000D+00 0.176862347970581D+03
 0.176862347970581D+03 0.000000000000000D+00 0.000000000000000D+00 -.176862347970581D+03
 0.165360315390366D+03 0.156768084878479D+03 0.113320282212259D+02 0.118062104812925D+02
 0.206922052710918D+02 0.108430828388420D+02 -.857914117392924D+01 -.153945850950521D+02
 0.167672175279704D+03 -.167611167717322D+03 -.275288704729664D+01 0.358837461375958D+01
 0.000000000000000D+00 0.000000000000000D+00 -.000000000000000D+00 0.000000000000000D+00
 0.387551413522602D+03 0.000000000000000D+00 0.000000000000000D+00 0.387551413522602D+03
 0.253870718270743D+03 0.000000000000000D+00 0.000000000000000D+00 -.253870718270743D+03
 0.147970491322280D+03 0.113545110740874D+03 0.797708438157145D+02 0.118062104812925D+02
 0.164303894127152D+02 0.572214064112656D+01 -.470693624167557D+00 -.153945850950521D+02
 0.239913967226218D+03 -.223836361407058D+03 0.862735101285604D+02 0.358837461375958D+01
 0.237107283832132D+03 0.104569110025058D+03 -.165573660320107D+03 0.133680695251859D+03
0.260419239230D-05 0.000000000000D+00 0.000000000000D+00 0.256787948386D-06 0.000000000000D+00  6 2 22 9900012 -11 1 21 0 0.43609098D-01 0.16977235D-01 0.29998008D+05 0.29998008D+05 0.29998008D+05 0.11627898D+01  1  2  2  1  6  1        2 0.905607015878D-04 0.100000000000D+01
-.117841168127D-06 0.000000000000D+00 -.500039224303D-08 0.256787948386D-06 0.000000000000D+00  6 2 22 9900012 -11 1 21 2 0.43609098D-01 0.16977235D-01 0.29998008D+05 0.29998008D+05 0.29998008D+05 0.11627898D+01  1  2  3  1  6  1        2 -.554071938885D-05 0.100000000000D+01
-.385423206423D-06 0.000000000000D+00 0.000000000000D+00 0.256787948386D-06 0.000000000000D+00  6 2 22 9900012 -11 1 21 2 0.43609098D-01 0.16977235D-01 0.29998008D+05 0.29998008D+05 0.29998008D+05 0.11627898D+01  1  2 15  1  6  1        2 -.181220355049D-04 0.100000000000D+01
-.258112434502D-06 0.000000000000D+00 -.767827128786D-06 0.256787948386D-06 0.000000000000D+00  6 2 22 9900012 -11 1 21 2 0.12648717D+00 0.16977235D-01 0.29998008D+05 0.29998008D+05 0.29998008D+05 0.11627898D+01  1  2  5  1  6  1        2 -.370502060120D-05 0.100000000000D+01
0.964148175453D-08 0.000000000000D+00 -.924362334054D-07 0.256787948386D-06 0.000000000000D+00  6 21 22 9900012 -11 1 -2 2 0.12648717D+00 0.16977235D-01 0.29998008D+05 0.29998008D+05 0.29998008D+05 0.11627898D+01  1  2  5  3  6  1        2 0.141765539735D-06 0.100000000000D+01
  </mgrwgt>
  </event>
  <event>
  7     66 -.12453494E-05 0.28187661E+02 0.78161638E-02 0.12540952E+00
       21 -1    0    0  501  502 0.00000000E+00 0.00000000E+00 0.38765337E+02 0.38765337E+02 0.00000000E+00 0.0000E+00 0.9000E+01
       22 -1    0    0    0    0 0.00000000E+00 0.00000000E+00 -.18121375E+04 0.18121375E+04 0.00000000E+00 0.0000E+00 0.9000E+01
       24  2    1    2    0    0 -.22234787E+02 0.10725475E+02 -.18007671E+04 0.18027332E+04 0.80468771E+02 0.0000E+00 0.0000E+00
  9900012  1    3    3    0    0 -.27342801E+02 -.14194835E+02 -.12498886E+04 0.12512676E+04 0.50000000E+02 0.0000E+00 0.9000E+01
      -11  1    3    3    0    0 0.51080136E+01 0.24920310E+02 -.55087851E+03 0.55146554E+03 0.00000000E+00 0.0000E+00 0.9000E+01
        3  1    1    2  501    0 0.29496043E+02 -.12104606E+02 0.19590675E+02 0.37421017E+02 0.00000000E+00 0.0000E+00 0.9000E+01
       -4  1    1    2    0  502 -.72612553E+01 0.13791304E+01 0.78042533E+01 0.10748684E+02 0.00000000E+00 0.0000E+00 0.9000E+01
#aMCatNLO 2  0  0  1  5 0.74035999D+01 0.00000000D+00  -5  6  0 0.00000000D+00 0.00000000D+00 0.00000000D+00 0.00000000D+00 0.00000000D+00
  <mgrwgt>
 -.8871771348D-04    2    2    0
 0.231042885090849D+03 0.000000000000000D+00 0.000000000000000D+00 0.231042885090849D+03
 0.231042885090849D+03 0.000000000000000D+00 0.000000000000000D+00 -.231042885090849D+03
 0.165406872177611D+03 -.299386438287560D+02 -.137018062544127D+02 -.154192644035446D+03
 0.726425293051029D+02 0.396660234402806D+01 0.251370983678977D+02 -.680391755926666D+02
 0.224036368698984D+03 0.259720414847280D+02 -.114352921134850D+02 0.222231819628113D+03
 0.000000000000000D+00 -.000000000000000D+00 0.000000000000000D+00 0.000000000000000D+00
 0.303762109971005D+03 0.000000000000000D+00 0.000000000000000D+00 0.303762109971005D+03
 0.231260318529297D+03 0.000000000000000D+00 0.000000000000000D+00 -.231260318529297D+03
 0.164998465367457D+03 -.273428009743937D+02 -.141948347594782D+02 -.154192644035446D+03
 0.726391290802425D+02 0.510801355000793D+01 0.249203101060029D+02 -.680391755926666D+02
 0.224507282007921D+03 0.294960427590666D+02 -.121046057729064D+02 0.222231819628113D+03
 0.728775520446812D+02 -.726125533468077D+01 0.137913042638166D+01 0.725017914417073D+02
-.731831326785D-05 0.000000000000D+00 0.000000000000D+00 0.579471576789D-04 0.000000000000D+00  6 21 22 9900012 -11 3 -4 2 0.59695106D-02 0.27852827D+00 0.38094765D+04 0.38094765D+04 0.38094765D+04 0.12553655D+01  1  2 13  3  6  1        4 -.216690014590D-03 0.100000000000D+01
0.432788571479D-05 0.000000000000D+00 0.000000000000D+00 0.579471576789D-04 0.210984992564D-06  6 21 22 9900012 -11 3 -4 2 0.59638980D-02 0.27879039D+00 0.38094765D+04 0.38094765D+04 0.38094765D+04 0.12553655D+01  1  2  1  3  6  1        4 0.127972301113D-03 0.100000000000D+01
  </mgrwgt>
  </event>
  <event>
  6     66 0.12453494E-05 0.54726264E+02 0.78161638E-02 0.12244844E+00
        2 -1    0    0  501    0 0.00000000E+00 0.00000000E+00 0.20187050E+02 0.20187050E+02 0.00000000E+00 0.0000E+00 0.9000E+01
       22 -1    0    0    0    0 0.00000000E+00 0.00000000E+00 -.10477400E+04 0.10477400E+04 0.00000000E+00 0.0000E+00 0.9000E+01
       24  2    1    2    0    0 0.10545799E+02 0.53700559E+02 -.10038181E+04 0.10082755E+04 0.77289960E+02 0.0000E+00 0.0000E+00
  9900012  1    3    3    0    0 -.58432135E+01 0.26307436E+02 -.79557022E+03 0.79759526E+03 0.50000000E+02 0.0000E+00 0.9000E+01
      -11  1    3    3    0    0 0.16389012E+02 0.27393123E+02 -.20824785E+03 0.21068021E+03 0.00000000E+00 0.0000E+00 0.9000E+01
        1  1    1    2  501    0 -.10545799E+02 -.53700559E+02 -.23734840E+02 0.59651543E+02 0.00000000E+00 0.0000E+00 0.9000E+01
#aMCatNLO 1  0  0  1  5 0.74035999D+01 0.00000000D+00  -5  6  0 0.00000000D+00 0.00000000D+00 0.00000000D+00 0.00000000D+00 0.00000000D+00
  <mgrwgt>
 0.1556633866D-04    1    2    0
 0.145433075018231D+03 0.000000000000000D+00 0.000000000000000D+00 0.145433075018231D+03
 0.145433075018231D+03 0.000000000000000D+00 0.000000000000000D+00 -.145433075018231D+03
 0.117865304808559D+03 -.584321350337573D+01 0.263074360814223D+02 -.103276356153722D+03
 0.378366481612117D+02 0.163890123192942D+02 0.273931230497951D+02 -.203132722339886D+02
 0.135164197066692D+03 -.105457988159185D+02 -.537005591312173D+02 0.123589628387710D+03
 0.000000000000000D+00 -.000000000000000D+00 -.000000000000000D+00 -.000000000000000D+00
 0.293297270137757D+03 0.000000000000000D+00 0.000000000000000D+00 0.293297270137757D+03
 0.509406263827257D+03 0.000000000000000D+00 0.000000000000000D+00 -.509406263827257D+03
 0.182554737662785D+03 0.102379789897178D+03 0.983799020295691D+02 -.103276356153722D+03
 0.859828053003050D+02 0.609936033538574D+02 0.570981096742295D+02 -.203132722339886D+02
 0.156421956189435D+03 0.944948935287082D+02 0.162526068713736D+02 0.123589628387710D+03
 0.377744034812490D+03 -.257868286779743D+03 -.171730618575172D+03 -.216108993689500D+03
0.683915415443D-06 0.000000000000D+00 0.000000000000D+00 0.764572322031D-06 0.000000000000D+00  6 2 22 9900012 -11 1 21 2 0.31057001D-02 0.16119076D+00 0.51443062D+04 0.51443062D+04 0.51443062D+04 0.12404566D+01  1  2 14  1  6  1        2 0.155663386610D-04 0.100000000000D+01
  </mgrwgt>
  </event>
  <event>
  6     66 0.12453494E-05 0.15772446E+02 0.78161638E-02 0.12167689E+00
        2 -1    0    0  501    0 0.00000000E+00 0.00000000E+00 0.34745680E+03 0.34745680E+03 0.00000000E+00 0.0000E+00 0.9000E+01
       22 -1    0    0    0    0 0.00000000E+00 0.00000000E+00 -.20880037E+03 0.20880037E+03 0.00000000E+00 0.0000E+00 0.9000E+01
       24  2    1    2    0    0 0.69268214E+01 0.14170010E+02 -.20060176E+03 0.21663254E+03 0.80248512E+02 0.0000E+00 0.0000E+00
  9900012  1    3    3    0    0 -.11705761E+01 -.30751339E+01 -.18599326E+03 0.19262481E+03 0.50000000E+02 0.0000E+00 0.9000E+01
      -11  1    3    3    0    0 0.80973975E+01 0.17245144E+02 -.14608499E+02 0.24007729E+02 0.00000000E+00 0.0000E+00 0.9000E+01
        1  1    1    2  501    0 -.69268214E+01 -.14170010E+02 0.33925819E+03 0.33962463E+03 0.00000000E+00 0.0000E+00 0.9000E+01
#aMCatNLO 1  0  0  1  1 0.38225048D+02 0.00000000D+00  -5  6  0 0.00000000D+00 0.00000000D+00 0.00000000D+00 0.00000000D+00 0.00000000D+00
  <mgrwgt>
 0.1927647482D-03    4    2    0
 0.269349418355112D+03 0.000000000000000D+00 0.000000000000000D+00 0.269349418355112D+03
 0.269349418355112D+03 0.000000000000000D+00 0.000000000000000D+00 -.269349418355112D+03
 0.246776282265056D+03 -.117057614001962D+01 -.307513391747506D+01 -.241635483303783D+03
 0.285503382847986D+02 0.809739752822050D+01 0.172451439118571D+02 -.212640302131496D+02
 0.263372216160370D+03 -.692682138820088D+01 -.141700099943821D+02 0.262899513516932D+03
 0.000000000000000D+00 0.000000000000000D+00 -.000000000000000D+00 -.000000000000000D+00
 0.283348411572573D+03 0.000000000000000D+00 0.000000000000000D+00 0.283348411572573D+03
 0.311955354808221D+03 0.000000000000000D+00 0.000000000000000D+00 -.311955354808221D+03
 0.247708156641272D+03 -.214299434330404D+02 0.351874972409183D+01 -.241635483303783D+03
 0.284525708662925D+02 0.576194916544317D+01 0.180052700565836D+02 -.212640302131496D+02
 0.264541927250232D+03 -.285558266490962D+02 -.713034572893815D+01 0.262899513516932D+03
 0.546011116229973D+02 0.442238209166935D+02 -.143936740517373D+02 -.286069432356479D+02
0.215235975017D-04 0.000000000000D+00 0.000000000000D+00 0.173011880714D-03 0.000000000000D+00  6 2 22 9900012 -11 1 21 0 0.53454893D-01 0.32123134D-01 0.18033688D+04 0.18033688D+04 0.18033688D+04 0.12950355D+01  1  2  2  1  6  1        2 0.193642704841D-03 0.100000000000D+01
0.339809069698D-05 0.000000000000D+00 -.413281408499D-07 0.173011880714D-03 0.000000000000D+00  6 2 22 9900012 -11 1 21 2 0.53454893D-01 0.32123134D-01 0.18033688D+04 0.18033688D+04 0.18033688D+04 0.12950355D+01  1  2  3  1  6  1        2 0.512725090050D-04 0.100000000000D+01
-.345034540444D-05 0.000000000000D+00 0.000000000000D+00 0.173011880714D-03 0.000000000000D+00  6 2 22 9900012 -11 1 21 2 0.53454893D-01 0.32123134D-01 0.18033688D+04 0.18033688D+04 0.18033688D+04 0.12950355D+01  1  2 15  1  6  1        2 -.520609605790D-04 0.100000000000D+01
-.593195724862D-08 0.000000000000D+00 0.000000000000D+00 0.173011880714D-03 0.000000000000D+00  6 2 22 9900012 -11 1 21 2 0.53454893D-01 0.32123134D-01 0.18033688D+04 0.18033688D+04 0.18033688D+04 0.12950355D+01  1  2  4  1  6  1        2 -.895050658058D-07 0.100000000000D+01
  </mgrwgt>
  </event>
  <event>
  6     66 0.12453494E-05 0.28138614E+02 0.78161638E-02 0.12947274E+00
        2 -1    0    0  501    0 0.00000000E+00 0.00000000E+00 0.40246768E+03 0.40246768E+03 0.00000000E+00 0.0000E+00 0.9000E+01
       22 -1    0    0    0    0 0.00000000E+00 0.00000000E+00 -.32466115E+03 0.32466115E+03 0.00000000E+00 0.0000E+00 0.9000E+01
       24  2    1    2    0    0 0.27552723E+02 -.57298025E+01 -.31858352E+03 0.32974105E+03 0.80260300E+02 0.0000E+00 0.0000E+00
  9900012  1    3    3    0    0 0.25925650E+02 0.63305944E+01 -.30925974E+03 0.31441025E+03 0.50000000E+02 0.0000E+00 0.9000E+01
      -11  1    3    3    0    0 0.16270730E+01 -.12060397E+02 -.93237744E+01 0.15330796E+02 0.00000000E+00 0.0000E+00 0.9000E+01
        1  1    1    2  501    0 -.27552723E+02 0.57298025E+01 0.39639004E+03 0.39738778E+03 0.00000000E+00 0.0000E+00 0.9000E+01
#aMCatNLO 1  0  0  1  5 0.64363438D+01 0.00000000D+00  -5  6  0 0.00000000D+00 0.00000000D+00 0.00000000D+00 0.00000000D+00 0.00000000D+00
  <mgrwgt>
 0.2919381745D-02   11    2    0
 0.361476996299930D+03 0.000000000000000D+00 0.000000000000000D+00 0.361476996299930D+03
 0.361476996299930D+03 0.000000000000000D+00 0.000000000000000D+00 -.361476996299930D+03
 0.349509351847389D+03 0.259256498104738D+02 0.633059439079836D+01 -.344883416947445D+03
 0.164227798235459D+02 0.162707299421674D+01 -.120603969102893D+02 -.110275635101521D+02
 0.357021860928925D+03 -.275527228046905D+02 0.572980251949093D+01 0.355910980457598D+03
 0.000000000000000D+00 -.000000000000000D+00 0.000000000000000D+00 0.000000000000000D+00
 0.386056119101640D+03 0.000000000000000D+00 0.000000000000000D+00 0.386056119101640D+03
 0.361905220274145D+03 0.000000000000000D+00 0.000000000000000D+00 -.361905220274145D+03
 0.349723262344234D+03 0.288595540888916D+02 0.537727413646387D+01 -.344883416947445D+03
 0.164699599269649D+02 0.176508736586397D+01 -.121052422369921D+02 -.110275635101521D+02
 0.356788914482897D+03 -.245576501415216D+02 0.475660668143780D+01 0.355910980457598D+03
 0.249792026216900D+02 -.606699131323396D+01 0.197136141909048D+01 0.241508988274952D+02
0.132064608603D-04 0.000000000000D+00 0.000000000000D+00 0.540508692416D-03 0.000000000000D+00  6 2 22 9900012 -11 1 21 0 0.61918104D-01 0.49947869D-01 0.23516809D+04 0.23516809D+04 0.23516809D+04 0.12805114D+01  1  2  2  1  6  1        2 0.513500187889D-04 0.100000000000D+01
0.962364550553D-06 0.000000000000D+00 -.253581435224D-07 0.540508692416D-03 0.000000000000D+00  6 2 22 9900012 -11 1 21 2 0.61918104D-01 0.49947869D-01 0.23516809D+04 0.23516809D+04 0.23516809D+04 0.12805114D+01  1  2  3  1  6  1        2 0.613565180670D-05 0.100000000000D+01
-.228786690292D-05 0.000000000000D+00 0.000000000000D+00 0.540508692416D-03 0.000000000000D+00  6 2 22 9900012 -11 1 21 2 0.61918104D-01 0.49947869D-01 0.23516809D+04 0.23516809D+04 0.23516809D+04 0.12805114D+01  1  2 15  1  6  1        2 -.145865251253D-04 0.100000000000D+01
0.465401555410D-03 0.000000000000D+00 0.000000000000D+00 0.540508692416D-03 0.000000000000D+00  6 2 22 9900012 -11 1 21 2 0.66206649D-01 0.49947869D-01 0.25810204D+04 0.25810204D+04 0.25810204D+04 0.12755400D+01  1  2 12  1  6  1        2 0.276053320115D-02 0.100000000000D+01
-.246194259667D-04 0.000000000000D+00 0.000000000000D+00 0.540508692416D-03 0.000000000000D+00  6 2 22 9900012 -11 1 21 2 0.61918104D-01 0.49947869D-01 0.23516809D+04 0.23516809D+04 0.23516809D+04 0.12805114D+01  1  2  4  1  6  1        2 -.156963621868D-03 0.100000000000D+01
-.592478148090D-03 0.000000000000D+00 -.240733398037D-04 0.540508692416D-03 0.000000000000D+00  6 2 22 9900012 -11 1 21 2 0.66166394D-01 0.49947869D-01 0.23516809D+04 0.23516809D+04 0.23516809D+04 0.12805114D+01  1  2  5  1  6  1        2 -.352670607286D-02 0.100000000000D+01
0.592822791028D-03 0.000000000000D+00 0.240204314839D-04 0.540508692416D-03 0.000000000000D+00  6 2 22 9900012 -11 1 21 2 0.61918104D-01 0.49947869D-01 0.23516809D+04 0.23516809D+04 0.23516809D+04 0.12805114D+01  1  2  6  1  6  1        2 0.377960121944D-02 0.100000000000D+01
0.419006785432D-05 0.000000000000D+00 0.000000000000D+00 0.540508692416D-03 0.234903583842D-04  6 2 22 9900012 -11 1 21 2 0.66128310D-01 0.50007040D-01 0.25810204D+04 0.25810204D+04 0.25810204D+04 0.12755400D+01  1  2 11  1  6  1        2 0.248354288507D-04 0.100000000000D+01
0.686704980565D-05 0.000000000000D+00 0.000000000000D+00 0.540508692416D-03 0.000000000000D+00  6 21 22 9900012 -11 1 -2 2 0.66206649D-01 0.49947869D-01 0.25810204D+04 0.25810204D+04 0.25810204D+04 0.12755400D+01  1  2 12  3  6  1        2 0.105547341581D-03 0.100000000000D+01
-.785177769289D-05 0.000000000000D+00 -.271880831511D-06 0.540508692416D-03 0.000000000000D+00  6 21 22 9900012 -11 1 -2 2 0.66166394D-01 0.49947869D-01 0.23516809D+04 0.23516809D+04 0.23516809D+04 0.12805114D+01  1  2  5  3  6  1        2 -.121605751712D-03 0.100000000000D+01
0.730909032293D-06 0.000000000000D+00 0.000000000000D+00 0.540508692416D-03 0.202950732499D-05  6 21 22 9900012 -11 1 -2 2 0.66128310D-01 0.50007040D-01 0.25810204D+04 0.25810204D+04 0.25810204D+04 0.12755400D+01  1  2 11  3  6  1        2 0.112408548479D-04 0.100000000000D+01
  </mgrwgt>
  </event>
  <event>
  5     66 -.12453494E-05 0.19371797E+02 0.78161638E-02 0.12874104E+00
        2 -1    0    0  501    0 0.00000000E+00 0.00000000E+00 0.65663876E+02 0.65663876E+02 0.00000000E+00 0.0000E+00 0.9000E+01
       22 -1    0    0    0    0 -.00000000E+00 -.00000000E+00 -.33051538E+03 0.33051538E+03 0.00000000E+00 0.0000E+00 0.9000E+01
  9900012  1    1    2    0    0 0.16833679E+02 0.10013775E+02 -.72274607E+02 0.90040365E+02 0.50000000E+02 0.0000E+00 0.9000E+01
      -11  1    1    2    0    0 -.31997848E+02 0.20408729E+01 -.24663720E+03 0.24871256E+03 0.00000000E+00 0.0000E+00 0.9000E+01
        1  1    1    2  501    0 0.15164168E+02 -.12054648E+02 0.54060307E+02 0.57426330E+02 0.00000000E+00 0.0000E+00 0.9000E+01
#aMCatNLO 1  0  0  5  1 0.28341185D+01 0.00000000D+00  -5  6  0 0.00000000D+00 0.00000000D+00 0.00000000D+00 0.00000000D+00 0.00000000D+00
  <mgrwgt>
 -.1836428801D-04    1    2    0
 0.147319112149647D+03 0.000000000000000D+00 0.000000000000000D+00 0.147319112149647D+03
 0.147319112149647D+03 -.000000000000000D+00 -.000000000000000D+00 -.147319112149647D+03
 0.561029931559969D+02 0.168336792895425D+02 0.100137750357596D+02 -.162449189647677D+02
 0.112723061309646D+03 -.319978475241434D+02 0.204087288485765D+01 -.108066928996376D+03
 0.125812169833652D+03 0.151641682346010D+02 -.120546479206172D+02 0.124311847961143D+03
 0.000000000000000D+00 0.000000000000000D+00 0.000000000000000D+00 0.000000000000000D+00
 0.147319112149647D+03 0.000000000000000D+00 0.000000000000000D+00 0.147319112149647D+03
 0.147319112149647D+03 -.000000000000000D+00 -.000000000000000D+00 -.147319112149647D+03
 0.554806545599713D+02 0.171387965790871D+02 0.977122421180074D+01 -.137436479737460D+02
 0.107807821252774D+03 -.313948220224176D+02 0.156150204182840D+01 -.103123485127415D+03
 0.280596738377298D+02 0.213338438082154D+02 -.118820818450490D+02 0.138213072925106D+02
 0.103290074648820D+03 -.707781836488480D+01 0.549355591419843D+00 0.103045825808650D+03
-.404591963376D-06 0.000000000000D+00 0.000000000000D+00 0.297784862649D-07 0.000000000000D+00  6 2 22 9900012 -11 1 21 2 0.10102135D-01 0.50848520D-01 0.27633041D+04 0.27633041D+04 0.27633041D+04 0.12719307D+01  1  2 14  2  6  5        1 -.183642880073D-04 0.100000000000D+01
  </mgrwgt>
  </event>
  <event>
  7     66 -.12453494E-05 0.83728990E+02 0.78161638E-02 0.11660763E+00
        2 -1    0    0  501    0 0.00000000E+00 0.00000000E+00 0.56136532E+03 0.56136532E+03 0.00000000E+00 0.0000E+00 0.9000E+01
       22 -1    0    0    0    0 0.00000000E+00 0.00000000E+00 -.49835081E+03 0.49835081E+03 0.00000000E+00 0.0000E+00 0.9000E+01
       24  2    1    2    0    0 -.64527457E+02 -.53710312E+02 -.48827140E+03 0.50154963E+03 0.78067146E+02 0.0000E+00 0.0000E+00
  9900012  1    3    3    0    0 -.31121360E+02 -.17077345E+02 -.33156666E+03 0.33718930E+03 0.50000000E+02 0.0000E+00 0.9000E+01
      -11  1    3    3    0    0 -.33406097E+02 -.36632967E+02 -.15670474E+03 0.16436032E+03 0.00000000E+00 0.0000E+00 0.9000E+01
        1  1    1    2  502    0 0.66149415E+02 0.52824246E+02 0.52174910E+03 0.52857191E+03 0.00000000E+00 0.0000E+00 0.9000E+01
       21  1    1    2  501  502 -.16219576E+01 0.88606575E+00 0.29536813E+02 0.29594580E+02 0.00000000E+00 0.0000E+00 0.9000E+01
#aMCatNLO 2  0  0  5  1 0.54183952D+01 0.00000000D+00  -5  6  0 0.00000000D+00 0.00000000D+00 0.00000000D+00 0.00000000D+00 0.00000000D+00
  <mgrwgt>
 -.7524736500D-03    5    2    0
 0.528920464321545D+03 0.000000000000000D+00 0.000000000000000D+00 0.528920464321545D+03
 0.528920464321545D+03 -.000000000000000D+00 -.000000000000000D+00 -.528920464321545D+03
 0.357723942705439D+03 -.311444412333419D+02 -.170965568845311D+02 -.352426092546624D+03
 0.174077143416127D+03 -.334173290738906D+02 -.366423159249765D+02 -.166863640920185D+03
 0.526039842521524D+03 0.645617703072325D+02 0.537388728095076D+02 0.519289733466809D+03
 0.000000000000000D+00 0.000000000000000D+00 0.000000000000000D+00 0.000000000000000D+00
 0.528920464321545D+03 0.000000000000000D+00 0.000000000000000D+00 0.528920464321545D+03
 0.528920464321545D+03 -.000000000000000D+00 -.000000000000000D+00 -.528920464321545D+03
 0.357538115957914D+03 -.311213599561287D+02 -.170773448676589D+02 -.352240442893043D+03
 0.173986421816125D+03 -.334060971742818D+02 -.366329668996692D+02 -.166773299373997D+03
 0.498428827701011D+03 0.661494147666874D+02 0.528242460210619D+02 0.491187489907607D+03
 0.278875631680397D+02 -.162195763627689D+01 0.886065746266214D+00 0.278262523594325D+02
-.483103531580D-03 0.000000000000D+00 0.000000000000D+00 0.136872652745D-03 0.000000000000D+00  6 2 22 9900012 -11 1 21 2 0.86363895D-01 0.76669355D-01 0.97416103D+04 0.97416103D+04 0.97416103D+04 0.12105101D+01  1  2 13  2  6  5        1 -.985168853083D-03 0.100000000000D+01
-.863540967575D-04 0.000000000000D+00 0.000000000000D+00 0.136872652745D-03 0.000000000000D+00  6 2 22 9900012 -11 1 21 2 0.86363895D-01 0.76669355D-01 0.94994232D+04 0.94994232D+04 0.94994232D+04 0.12116485D+01  1  2  8  2  6  5        1 -.176271995211D-03 0.100000000000D+01
-.362400546948D-03 0.000000000000D+00 0.000000000000D+00 0.136872652745D-03 0.000000000000D+00  6 2 22 9900012 -11 1 21 2 0.86363895D-01 0.76669355D-01 0.94994232D+04 0.94994232D+04 0.94994232D+04 0.12116485D+01  1  2  9  2  6  5        1 -.739757230688D-03 0.100000000000D+01
0.382121418544D-03 0.000000000000D+00 0.000000000000D+00 0.136872652745D-03 0.000000000000D+00  6 2 22 9900012 -11 1 21 2 0.86363895D-01 0.76669355D-01 0.94994232D+04 0.94994232D+04 0.94994232D+04 0.12116485D+01  1  2 10  2  6  5        1 0.780012846972D-03 0.100000000000D+01
0.180807449244D-03 0.000000000000D+00 0.000000000000D+00 0.136872652745D-03 0.190647947829D-03  6 2 22 9900012 -11 1 21 2 0.86363895D-01 0.76669355D-01 0.97416103D+04 0.97416103D+04 0.97416103D+04 0.12105101D+01  1  2  1  2  6  5        1 0.368711582004D-03 0.100000000000D+01
  </mgrwgt>
  </event>
  <event>
  7     66 0.12453494E-05 0.37723712E+02 0.78161638E-02 0.11758983E+00
        2 -1    0    0  502    0 0.00000000E+00 0.00000000E+00 0.14652256E+03 0.14652256E+03 0.00000000E+00 0.0000E+00 0.9000E+01
       22 -1    0    0    0    0 0.00000000E+00 0.00000000E+00 -.49976058E+03 0.49976058E+03 0.00000000E+00 0.0000E+00 0.9000E+01
       24  2    1    2    0    0 0.15869334E+02 -.25727450E+01 -.45173051E+03 0.45905894E+03 0.80101204E+02 0.0000E+00 0.0000E+00
  9900012  1    3    3    0    0 0.18689500E+02 -.22695765E+02 -.26780744E+03 0.27401682E+03 0.50000000E+02 0.0000E+00 0.9000E+01
      -11  1    3    3    0    0 -.28201660E+01 0.20123020E+02 -.18392307E+03 0.18504211E+03 0.00000000E+00 0.0000E+00 0.9000E+01
        1  1    1    2  501    0 -.51087358E+02 0.33806836E+02 -.16099441E+02 0.63340448E+02 0.00000000E+00 0.0000E+00 0.9000E+01
       21  1    1    2  502  501 0.35218024E+02 -.31234091E+02 0.11459193E+03 0.12388376E+03 0.00000000E+00 0.0000E+00 0.9000E+01
#aMCatNLO 2  0  0  1  5 0.34435132D+02 0.00000000D+00  -5  6  0 0.00000000D+00 0.00000000D+00 0.00000000D+00 0.00000000D+00 0.00000000D+00
  <mgrwgt>
 0.5087654383D-05    1    2    0
 0.113820451129833D+03 0.000000000000000D+00 0.000000000000000D+00 0.113820451129833D+03
 0.113820451129833D+03 0.000000000000000D+00 0.000000000000000D+00 -.113820451129833D+03
 0.844530517515923D+02 0.310342616362285D+02 -.336440623487911D+02 -.503713174685942D+02
 0.434602158502752D+02 0.400387258704804D+01 0.140709300955090D+02 -.409239330014418D+02
 0.997276346577989D+02 -.350381342232765D+02 0.195731322532821D+02 0.912952504700360D+02
 0.000000000000000D+00 0.000000000000000D+00 -.000000000000000D+00 0.000000000000000D+00
 0.624162483306912D+03 0.000000000000000D+00 0.000000000000000D+00 0.624162483306912D+03
 0.117319133998959D+03 0.000000000000000D+00 0.000000000000000D+00 -.117319133998959D+03
 0.768222934254036D+02 0.186894998841576D+02 -.226957647524152D+02 -.503713174685942D+02
 0.456908913637597D+02 -.282016599915225D+01 0.201230197794869D+02 -.409239330014418D+02
 0.109943817785600D+03 -.510873581377179D+02 0.338068358382621D+02 0.912952504700360D+02
 0.509024614731108D+03 0.352180242527125D+02 -.312340908653338D+02 0.506843349307953D+03
0.585280235302D-06 0.000000000000D+00 0.000000000000D+00 0.290727215627D-05 0.309761400623D-08  6 2 22 9900012 -11 1 21 2 0.22541933D-01 0.76886244D-01 0.87101585D+04 0.87101585D+04 0.87101585D+04 0.12155976D+01  1  2  1  1  6  1        2 0.508765438277D-05 0.100000000000D+01
  </mgrwgt>
  </event>
  <event>
  6     66 0.12453494E-05 0.54860261E+02 0.78161638E-02 0.12404668E+00
        2 -1    0    0  501    0 0.00000000E+00 0.00000000E+00 0.97152938E+03 0.97152938E+03 0.00000000E+00 0.0000E+00 0.9000E+01
       22 -1    0    0    0    0 0.00000000E+00 0.00000000E+00 -.12665484E+02 0.12665484E+02 0.00000000E+00 0.0000E+00 0.9000E+01
       24  2    1    2    0    0 0.43427646E+02 -.33521453E+02 0.18679402E+03 0.21017836E+03 0.79204108E+02 0.0000E+00 0.0000E+00
  9900012  1    3    3    0    0 0.46324493E+02 -.44960095E+02 0.17668450E+03 0.19464013E+03 0.50000000E+02 0.0000E+00 0.9000E+01
      -11  1    3    3    0    0 -.28968469E+01 0.11438643E+02 0.10109523E+02 0.15538235E+02 0.00000000E+00 0.0000E+00 0.9000E+01
        1  1    1    2  501    0 -.43427646E+02 0.33521453E+02 0.77206987E+03 0.77401650E+03 0.00000000E+00 0.0000E+00 0.9000E+01
#aMCatNLO 1  0  0  5  1 0.33473283D+02 0.00000000D+00  -5  6  0 0.00000000D+00 0.00000000D+00 0.00000000D+00 0.00000000D+00 0.00000000D+00
  <mgrwgt>
 0.1688001553D-03    4    2    0
 0.110927408286816D+03 0.000000000000000D+00 0.000000000000000D+00 0.110927408286816D+03
 0.110927408286816D+03 -.000000000000000D+00 -.000000000000000D+00 -.110927408286816D+03
 0.998284907174590D+02 0.463244931280557D+02 -.449600954455328D+02 -.574313391179685D+02
 0.252371970002314D+02 -.289684690414119D+01 0.114386428419966D+02 -.223087839286613D+02
 0.967891288559426D+02 -.434276462239145D+02 0.335214526035362D+02 0.797401230466298D+02
 0.000000000000000D+00 0.000000000000000D+00 0.000000000000000D+00 -.000000000000000D+00
 0.110927408286816D+03 0.000000000000000D+00 0.000000000000000D+00 0.110927408286816D+03
 0.110927408286816D+03 -.000000000000000D+00 -.000000000000000D+00 -.110927408286816D+03
 0.859052545447299D+02 0.385951208057097D+02 -.389938548018959D+02 -.432389719590577D+02
 0.232207050126547D+02 -.491343880610616D+01 0.129952339939520D+02 -.186059977917287D+02
 0.904781818121274D+02 -.261756860595770D+02 0.254537606511393D+02 0.827843035366812D+02
 0.222506752041209D+02 -.750599594002658D+01 0.544860156804636D+00 -.209393337858948D+02
0.142010714699D-05 0.000000000000D+00 0.000000000000D+00 0.123218995130D-05 0.000000000000D+00  6 2 22 9900012 -11 1 21 0 0.14946606D+00 0.19485360D-02 0.54992589D+04 0.54992589D+04 0.54992589D+04 0.12372191D+01  1  2  2  2  6  5        1 0.228696106804D-03 0.100000000000D+01
0.200581850725D-07 0.000000000000D+00 -.272679268362D-08 0.123218995130D-05 0.000000000000D+00  6 2 22 9900012 -11 1 21 2 0.14946606D+00 0.19485360D-02 0.54992589D+04 0.54992589D+04 0.54992589D+04 0.12372191D+01  1  2  3  2  6  5        1 0.494450123492D-05 0.100000000000D+01
-.235570404174D-06 0.000000000000D+00 0.000000000000D+00 0.123218995130D-05 0.000000000000D+00  6 2 22 9900012 -11 1 21 2 0.14946606D+00 0.19485360D-02 0.54992589D+04 0.54992589D+04 0.54992589D+04 0.12372191D+01  1  2 15  2  6  5        1 -.580699674541D-04 0.100000000000D+01
-.274655908227D-07 0.000000000000D+00 0.000000000000D+00 0.123218995130D-05 0.000000000000D+00  6 2 22 9900012 -11 1 21 2 0.14946606D+00 0.19485360D-02 0.54992589D+04 0.54992589D+04 0.54992589D+04 0.12372191D+01  1  2  4  2  6  5        1 -.677048532803D-05 0.100000000000D+01
  </mgrwgt>
  </event>
  <event>
  6     66 0.12453494E-05 0.36230939E+02 0.78161638E-02 0.11991881E+00
        2 -1    0    0  501    0 0.00000000E+00 0.00000000E+00 0.14960822E+04 0.14960822E+04 0.00000000E+00 0.0000E+00 0.9000E+01
       22 -1    0    0    0    0 0.00000000E+00 0.00000000E+00 -.74688517E+03 0.74688517E+03 0.00000000E+00 0.0000E+00 0.9000E+01
       24  2    1    2    0    0 0.37288845E+02 0.34346405E+02 -.74345844E+03 0.74945122E+03 0.79853273E+02 0.0000E+00 0.0000E+00
  9900012  1    3    3    0    0 0.26588115E+02 0.42087727E+02 -.70973859E+03 0.71323711E+03 0.50000000E+02 0.0000E+00 0.9000E+01
      -11  1    3    3    0    0 0.10700730E+02 -.77413221E+01 -.33719853E+02 0.36214116E+02 0.00000000E+00 0.0000E+00 0.9000E+01
        1  1    1    2  501    0 -.37288845E+02 -.34346405E+02 0.14926555E+04 0.14935161E+04 0.00000000E+00 0.0000E+00 0.9000E+01
#aMCatNLO 1  0  0  1  5 0.36096935D+02 0.00000000D+00  -5  6  0 0.00000000D+00 0.00000000D+00 0.00000000D+00 0.00000000D+00 0.00000000D+00
  <mgrwgt>
 0.7180698220D-02    9    2    0
 0.105707218560024D+04 0.000000000000000D+00 0.000000000000000D+00 0.105707218560024D+04
 0.105707218560024D+04 0.000000000000000D+00 0.000000000000000D+00 -.105707218560024D+04
 0.100821004464519D+04 0.265881146110670D+02 0.420877266844306D+02 -.100573813169603D+04
 0.503702085351177D+02 0.107007299025529D+02 -.774132205771586D+01 -.486078617120993D+02
 0.105556411802018D+04 -.372888445136198D+02 -.343464046267148D+02 0.105434599340813D+04
 0.000000000000000D+00 -.000000000000000D+00 -.000000000000000D+00 0.000000000000000D+00
 0.108453046342907D+04 0.000000000000000D+00 0.000000000000000D+00 0.108453046342907D+04
 0.106612781566289D+04 0.000000000000000D+00 0.000000000000000D+00 -.106612781566289D+04
 0.100902154361872D+04 0.303288995860721D+02 0.565282565553129D+02 -.100573813169603D+04
 0.503045671808882D+02 0.108874227396825D+02 -.702063281487958D+01 -.486078617120993D+02
 0.105504949379447D+04 -.333748904921520D+02 -.192373913212416D+02 0.105434599340813D+04
 0.362826744978776D+02 -.784143183360258D+01 -.302702324191917D+02 0.184026477661781D+02
0.147021511437D-01 0.000000000000D+00 0.000000000000D+00 0.283783518849D-01 0.000000000000D+00  6 2 22 9900012 -11 1 21 0 0.23016649D+00 0.11490541D+00 0.45199347D+04 0.45199347D+04 0.45199347D+04 0.12468134D+01  1  2  2  1  6  1        2 0.261680490071D-02 0.100000000000D+01
0.502301265715D-03 0.000000000000D+00 -.282300657786D-04 0.283783518849D-01 0.000000000000D+00  6 2 22 9900012 -11 1 21 2 0.23016649D+00 0.11490541D+00 0.45199347D+04 0.45199347D+04 0.45199347D+04 0.12468134D+01  1  2  3  1  6  1        2 0.138981706026D-03 0.100000000000D+01
-.260793827047D-02 0.000000000000D+00 0.000000000000D+00 0.283783518849D-01 0.000000000000D+00  6 2 22 9900012 -11 1 21 2 0.23016649D+00 0.11490541D+00 0.45199347D+04 0.45199347D+04 0.45199347D+04 0.12468134D+01  1  2 15  1  6  1        2 -.721590278147D-03 0.100000000000D+01
0.114846688930D-01 0.000000000000D+00 0.000000000000D+00 0.283783518849D-01 0.000000000000D+00  6 2 22 9900012 -11 1 21 2 0.23816823D+00 0.11490541D+00 0.67306231D+04 0.67306231D+04 0.67306231D+04 0.12275765D+01  1  2 12  1  6  1        2 0.289886731173D-02 0.100000000000D+01
-.229368167098D-04 0.000000000000D+00 0.000000000000D+00 0.283783518849D-01 0.000000000000D+00  6 2 22 9900012 -11 1 21 2 0.23016649D+00 0.11490541D+00 0.45199347D+04 0.45199347D+04 0.45199347D+04 0.12468134D+01  1  2  4  1  6  1        2 -.634638639146D-05 0.100000000000D+01
-.135058222975D+00 0.000000000000D+00 -.478846128697D-01 0.283783518849D-01 0.000000000000D+00  6 2 22 9900012 -11 1 21 2 0.23714760D+00 0.11490541D+00 0.45199347D+04 0.45199347D+04 0.45199347D+04 0.12468134D+01  1  2  5  1  6  1        2 -.354570245484D-01 0.100000000000D+01
0.136449458649D+00 0.000000000000D+00 0.478632450386D-01 0.283783518849D-01 0.000000000000D+00  6 2 22 9900012 -11 1 21 2 0.23016649D+00 0.11490541D+00 0.45199347D+04 0.45199347D+04 0.45199347D+04 0.12468134D+01  1  2  6  1  6  1        2 0.377541922425D-01 0.100000000000D+01
0.343249816364D-03 0.000000000000D+00 0.000000000000D+00 0.283783518849D-01 0.000000000000D+00  6 21 22 9900012 -11 1 -2 2 0.23816823D+00 0.11490541D+00 0.67306231D+04 0.67306231D+04 0.67306231D+04 0.12275765D+01  1  2 12  3  6  1        2 0.357841889438D-04 0.100000000000D+01
-.708424445839D-03 0.000000000000D+00 -.256644490040D-03 0.283783518849D-01 0.000000000000D+00  6 21 22 9900012 -11 1 -2 2 0.23714760D+00 0.11490541D+00 0.45199347D+04 0.45199347D+04 0.45199347D+04 0.12468134D+01  1  2  5  3  6  1        2 -.789709171778D-04 0.100000000000D+01
  </mgrwgt>
  </event>
  <event>
  6     66 -.12453494E-05 0.27892350E+02 0.78161638E-02 0.11903174E+00
        2 -1    0    0  501    0 0.00000000E+00 0.00000000E+00 0.19274420E+02 0.19274420E+02 0.00000000E+00 0.0000E+00 0.9000E+01
       22 -1    0    0    0    0 -.00000000E+00 -.00000000E+00 -.98383062E+03 0.98383062E+03 0.00000000E+00 0.0000E+00 0.9000E+01
       24  2    1    2    0    0 0.28912879E+02 0.67800336E+02 -.89557886E+03 0.90215598E+03 0.79944167E+02 0.0000E+00 0.0000E+00
  9900012  1    3    3    0    0 0.93757676E+01 0.55449029E+02 -.47326318E+03 0.47920824E+03 0.50000000E+02 0.0000E+00 0.9000E+01
      -11  1    3    3    0    0 0.19537112E+02 0.12351307E+02 -.42231568E+03 0.42294773E+03 0.00000000E+00 0.0000E+00 0.9000E+01
        1  1    1    2  501    0 -.28912879E+02 -.67800336E+02 -.68977337E+02 0.10094906E+03 0.00000000E+00 0.0000E+00 0.9000E+01
#aMCatNLO 1  0  0  5  1 0.52545318D+01 0.00000000D+00  -5  6  0 0.00000000D+00 0.00000000D+00 0.00000000D+00 0.00000000D+00 0.00000000D+00
  <mgrwgt>
 -.8082618347D-04    8    2    0
 0.137705355455115D+03 0.000000000000000D+00 0.000000000000000D+00 0.137705355455115D+03
 0.137705355455115D+03 -.000000000000000D+00 -.000000000000000D+00 -.137705355455115D+03
 0.878951538174885D+02 0.937576756122414D+01 0.554490288008613D+02 -.454209010509381D+02
 0.614129999854679D+02 0.195371118633866D+02 0.123513067831389D+02 -.568973026425804D+02
 0.126102557107275D+03 -.289128794246107D+02 -.678003355840002D+02 0.102318203693518D+03
 0.000000000000000D+00 0.000000000000000D+00 0.000000000000000D+00 0.000000000000000D+00
 0.137705355455115D+03 0.000000000000000D+00 0.000000000000000D+00 0.137705355455115D+03
 0.137705355455115D+03 -.000000000000000D+00 -.000000000000000D+00 -.137705355455115D+03
 0.877840099000494D+02 0.934320642107520D+01 0.553726733401452D+02 -.453056722174025D+02
 0.613204630554830D+02 0.195143639096368D+02 0.122979631200802D+02 -.568168011563328D+02
 0.710435640015480D+02 -.209105814655558D+02 -.392781997445878D+02 0.553819338199621D+02
 0.552626739531506D+02 -.794698886515623D+01 -.283924367156376D+02 0.467405395537731D+02
0.430496754435D-06 0.000000000000D+00 0.000000000000D+00 0.283628863166D-05 0.000000000000D+00  6 2 22 9900012 -11 1 21 0 0.29652954D-02 0.15135856D+00 0.74021340D+04 0.74021340D+04 0.74021340D+04 0.12231174D+01  1  2  2  2  6  5        1 0.806172495968D-05 0.100000000000D+01
0.889231146819D-09 0.000000000000D+00 -.826610444715D-09 0.283628863166D-05 0.000000000000D+00  6 2 22 9900012 -11 1 21 2 0.29652954D-02 0.15135856D+00 0.74021340D+04 0.74021340D+04 0.74021340D+04 0.12231174D+01  1  2  3  2  6  5        1 0.249120241884D-07 0.100000000000D+01
-.654259711442D-07 0.000000000000D+00 0.000000000000D+00 0.283628863166D-05 0.000000000000D+00  6 2 22 9900012 -11 1 21 2 0.29652954D-02 0.15135856D+00 0.74021340D+04 0.74021340D+04 0.74021340D+04 0.12231174D+01  1  2 15  2  6  5        1 -.183292429817D-05 0.100000000000D+01
0.336371563806D-05 0.000000000000D+00 0.000000000000D+00 0.283628863166D-05 0.000000000000D+00  6 2 22 9900012 -11 1 21 2 0.29652954D-02 0.15135856D+00 0.74163669D+04 0.74163669D+04 0.74163669D+04 0.12230278D+01  1  2 12  2  6  5        1 0.942384288811D-04 0.100000000000D+01
-.139926014571D-04 0.000000000000D+00 0.000000000000D+00 0.283628863166D-05 0.000000000000D+00  6 2 22 9900012 -11 1 21 2 0.29652954D-02 0.15135856D+00 0.74021340D+04 0.74021340D+04 0.74021340D+04 0.12231174D+01  1  2  4  2  6  5        1 -.392006091110D-03 0.100000000000D+01
-.667860796138D-05 0.000000000000D+00 0.000000000000D+00 0.283628863166D-05 0.000000000000D+00  6 2 22 9900012 -11 1 21 2 0.29652954D-02 0.15135856D+00 0.74021340D+04 0.74021340D+04 0.74021340D+04 0.12231174D+01  1  2  5  2  6  5        1 -.187102806367D-03 0.100000000000D+01
0.101531093694D-04 0.000000000000D+00 -.000000000000D+00 0.283628863166D-05 0.000000000000D+00  6 2 22 9900012 -11 1 21 2 0.29652954D-02 0.15135856D+00 0.74021340D+04 0.74021340D+04 0.74021340D+04 0.12231174D+01  1  2  6  2  6  5        1 0.284441797955D-03 0.100000000000D+01
0.404583405964D-05 0.000000000000D+00 0.000000000000D+00 0.283628863166D-05 0.370954433030D-06  6 2 22 9900012 -11 1 21 2 0.29652954D-02 0.15135856D+00 0.74163669D+04 0.74163669D+04 0.74163669D+04 0.12230278D+01  1  2 11  2  6  5        1 0.113348774486D-03 0.100000000000D+01
  </mgrwgt>
  </event>
  <event>
  6     66 0.12453494E-05 0.25633299E+02 0.78161638E-02 0.12243000E+00
        2 -1    0    0  501    0 0.00000000E+00 0.00000000E+00 0.97904612E+03 0.97904612E+03 0.00000000E+00 0.0000E+00 0.9000E+01
       22 -1    0    0    0    0 0.00000000E+00 0.00000000E+00 -.91917315E+01 0.91917315E+01 0.00000000E+00 0.0000E+00 0.9000E+01
       24  2    1    2    0    0 0.22271324E+02 0.12690711E+02 0.16322956E+03 0.18120584E+03 0.74394882E+02 0.0000E+00 0.0000E+00
  9900012  1    3    3    0    0 -.40723073E+01 0.19024465E+01 0.10226733E+03 0.11392458E+03 0.50000000E+02 0.0000E+00 0.9000E+01
      -11  1    3    3    0    0 0.26343631E+02 0.10788265E+02 0.60962236E+02 0.67281259E+02 0.00000000E+00 0.0000E+00 0.9000E+01
        1  1    1    2  501    0 -.22271324E+02 -.12690711E+02 0.80662482E+03 0.80703201E+03 0.00000000E+00 0.0000E+00 0.9000E+01
#aMCatNLO 1  0  0  5  5 0.30958090D+02 0.00000000D+00  -5  6  0 0.00000000D+00 0.00000000D+00 0.00000000D+00 0.00000000D+00 0.00000000D+00
  <mgrwgt>
 0.1869128500D-03    4    2    0
 0.948637391626417D+02 0.000000000000000D+00 0.000000000000000D+00 0.948637391626417D+02
 0.948637391626417D+02 -.000000000000000D+00 -.000000000000000D+00 -.948637391626417D+02
 0.706284773920230D+02 -.407230725014398D+01 0.190244649024299D+01 -.496807692143318D+02
 0.388209152200649D+02 0.263436310248343D+02 0.107882646368855D+02 -.263948841458980D+02
 0.802780857131954D+02 -.222713237746903D+02 -.126907111271284D+02 0.760756533602298D+02
 0.000000000000000D+00 0.000000000000000D+00 0.000000000000000D+00 0.000000000000000D+00
 0.948637391626417D+02 0.000000000000000D+00 0.000000000000000D+00 0.948637391626417D+02
 0.948637391626417D+02 -.000000000000000D+00 -.000000000000000D+00 -.948637391626417D+02
 0.646328667404311D+02 -.679297392196871D+01 0.352148216344639D+00 -.403873613896167D+02
 0.342710426336472D+02 0.248734485792401D+02 0.995052095761596D+01 -.213729514023031D+02
 0.547144973000835D+02 -.417219380297422D+02 -.429902773666256D+01 0.351350887626971D+02
 0.361090716511215D+02 0.236414633724708D+02 -.600364143729803D+01 0.266252240292228D+02
0.970277990809D-06 0.000000000000D+00 0.000000000000D+00 0.669175545820D-07 0.000000000000D+00  6 2 22 9900012 -11 1 21 0 0.15062248D+00 0.14141125D-02 0.27197259D+04 0.27197259D+04 0.27197259D+04 0.12727687D+01  1  2  2  2  6  5        1 0.223965188774D-03 0.100000000000D+01
0.722403777743D-07 0.000000000000D+00 -.186306148239D-08 0.669175545820D-07 0.000000000000D+00  6 2 22 9900012 -11 1 21 2 0.15062248D+00 0.14141125D-02 0.27197259D+04 0.27197259D+04 0.27197259D+04 0.12727687D+01  1  2  3  2  6  5        1 0.270124108376D-04 0.100000000000D+01
-.161440622778D-06 0.000000000000D+00 0.000000000000D+00 0.669175545820D-07 0.000000000000D+00  6 2 22 9900012 -11 1 21 2 0.15062248D+00 0.14141125D-02 0.27197259D+04 0.27197259D+04 0.27197259D+04 0.12727687D+01  1  2 15  2  6  5        1 -.603665230267D-04 0.100000000000D+01
-.989031630146D-08 0.000000000000D+00 0.000000000000D+00 0.669175545820D-07 0.000000000000D+00  6 2 22 9900012 -11 1 21 2 0.15062248D+00 0.14141125D-02 0.27197259D+04 0.27197259D+04 0.27197259D+04 0.12727687D+01  1  2  4  2  6  5        1 -.369822660789D-05 0.100000000000D+01
  </mgrwgt>
  </event>
  <event>
  7     66 -.12453494E-05 0.87028400E+02 0.78161638E-02 0.11419216E+00
        2 -1    0    0  501    0 0.00000000E+00 0.00000000E+00 0.25138959E+04 0.25138959E+04 0.00000000E+00 0.0000E+00 0.9000E+01
       22 -1    0    0    0    0 0.00000000E+00 0.00000000E+00 -.48615967E+03 0.48615967E+03 0.00000000E+00 0.0000E+00 0.9000E+01
       24  2    1    2    0    0 0.59373912E+02 -.76934108E+02 -.47693318E+03 0.49332872E+03 0.80398038E+02 0.0000E+00 0.0000E+00
  9900012  1    3    3    0    0 0.69881990E+02 -.77335077E+02 -.43566745E+03 0.45074420E+03 0.50000000E+02 0.0000E+00 0.9000E+01
      -11  1    3    3    0    0 -.10508078E+02 0.40096831E+00 -.41265730E+02 0.42584515E+02 0.00000000E+00 0.0000E+00 0.9000E+01
        1  1    1    2  502    0 -.31060994E+02 0.62023402E+02 0.17809107E+04 0.17822611E+04 0.00000000E+00 0.0000E+00 0.9000E+01
       21  1    1    2  501  502 -.28312918E+02 0.14910706E+02 0.72375869E+03 0.72446573E+03 0.00000000E+00 0.0000E+00 0.9000E+01
#aMCatNLO 2  0  0  5  1 0.13344797D+02 0.00000000D+00  -5  6  0 0.00000000D+00 0.00000000D+00 0.00000000D+00 0.00000000D+00 0.00000000D+00
  <mgrwgt>
 -.8630627697D-02    2    2    0
 0.110551110280405D+04 0.000000000000000D+00 0.000000000000000D+00 0.110551110280405D+04
 0.110551110280405D+04 -.000000000000000D+00 -.000000000000000D+00 -.110551110280405D+04
 0.101132980856530D+04 0.698916446168165D+02 -.773475865596338D+02 -.100469920402023D+04
 0.956430264110908D+02 -.105071650852275D+02 0.399785225123439D+00 -.950632849985639D+02
 0.110404937063171D+04 -.593844795315889D+02 0.769478013345102D+02 0.109976248901880D+04
 0.000000000000000D+00 -.000000000000000D+00 0.000000000000000D+00 0.000000000000000D+00
 0.110551110280405D+04 0.000000000000000D+00 0.000000000000000D+00 0.110551110280405D+04
 0.110551110280405D+04 -.000000000000000D+00 -.000000000000000D+00 -.110551110280405D+04
 0.101115056106151D+04 0.698819900814165D+02 -.773350766365393D+02 -.100452040821423D+04
 0.956263251858051D+02 -.105080781307896D+02 0.400968309476065D+00 -.950463759801150D+02
 0.785005772974958D+03 -.310609939359695D+02 0.620234024208856D+02 0.781935020197879D+03
 0.319239546385833D+03 -.283129180146572D+02 0.149107059061775D+02 0.317631763996466D+03
-.165380186168D+00 0.000000000000D+00 0.000000000000D+00 0.861508790615D-02 0.000000000000D+00  6 2 22 9900012 -11 1 21 2 0.38675322D+00 0.74793795D-01 0.12937350D+05 0.12937350D+05 0.12937350D+05 0.11979069D+01  1  2 13  2  6  5        1 -.277050623813D-01 0.100000000000D+01
0.113861268951D+00 0.000000000000D+00 0.000000000000D+00 0.861508790615D-02 0.152705942323D-03  6 2 22 9900012 -11 1 21 2 0.38675322D+00 0.74793795D-01 0.12937350D+05 0.12937350D+05 0.12937350D+05 0.11979069D+01  1  2  1  2  6  5        1 0.190744346840D-01 0.100000000000D+01
  </mgrwgt>
  </event>
  <event>
  6     66 0.12453494E-05 0.52091134E+02 0.78161638E-02 0.12002106E+00
        2 -1    0    0  501    0 0.00000000E+00 0.00000000E+00 0.85342325E+03 0.85342325E+03 0.00000000E+00 0.0000E+00 0.9000E+01
       22 -1    0    0    0    0 0.00000000E+00 0.00000000E+00 -.40057323E+03 0.40057323E+03 0.00000000E+00 0.0000E+00 0.9000E+01
       24  2    1    2    0    0 -.59177933E+02 0.14229369E+02 -.39329745E+03 0.40566279E+03 0.78580591E+02 0.0000E+00 0.0000E+00
  9900012  1    3    3    0    0 -.33927927E+02 0.31982235E+02 -.28145751E+03 0.28964167E+03 0.50000000E+02 0.0000E+00 0.9000E+01
      -11  1    3    3    0    0 -.25250006E+02 -.17752865E+02 -.11183994E+03 0.11602112E+03 0.00000000E+00 0.0000E+00 0.9000E+01
        1  1    1    2  501    0 0.59177933E+02 -.14229369E+02 0.84614747E+03 0.84833369E+03 0.00000000E+00 0.0000E+00 0.9000E+01
#aMCatNLO 1  0  0  5  1 0.76344031D+01 0.00000000D+00  -5  6  0 0.00000000D+00 0.00000000D+00 0.00000000D+00 0.00000000D+00 0.00000000D+00
  <mgrwgt>
 0.3396864201D-02    8    2    0
 0.584686671642912D+03 0.000000000000000D+00 0.000000000000000D+00 0.584686671642912D+03
 0.584686671642912D+03 -.000000000000000D+00 -.000000000000000D+00 -.584686671642912D+03
 0.419598814084726D+03 -.339279272531884D+02 0.319822347719075D+02 -.413991783967515D+03
 0.167728121785546D+03 -.252500058143968D+02 -.177528653345005D+02 -.164863567280631D+03
 0.582046407415553D+03 0.591779330675849D+02 -.142293694374069D+02 0.578855351248145D+03
 0.000000000000000D+00 0.000000000000000D+00 0.000000000000000D+00 0.000000000000000D+00
 0.584686671642912D+03 0.000000000000000D+00 0.000000000000000D+00 0.584686671642912D+03
 0.584686671642912D+03 -.000000000000000D+00 -.000000000000000D+00 -.584686671642912D+03
 0.419400711340859D+03 -.339076091125822D+02 0.319773492628337D+02 -.413793039878162D+03
 0.167649018095871D+03 -.252418839505843D+02 -.177548182415170D+02 -.164784122391527D+03
 0.524163429881994D+03 0.605702743472443D+02 -.149125521652708D+02 0.520438429479486D+03
 0.581601839670995D+02 -.142078128407798D+01 0.690021143954113D+00 0.581387327902025D+02
0.151586212945D-04 0.000000000000D+00 0.000000000000D+00 0.574218206070D-03 0.000000000000D+00  6 2 22 9900012 -11 1 21 0 0.13129588D+00 0.61626650D-01 0.64077883D+04 0.64077883D+04 0.64077883D+04 0.12299007D+01  1  2  2  2  6  5        1 0.190441762307D-04 0.100000000000D+01
0.526729286858D-06 0.000000000000D+00 -.291065485638D-07 0.574218206070D-03 0.000000000000D+00  6 2 22 9900012 -11 1 21 2 0.13129588D+00 0.61626650D-01 0.64077883D+04 0.64077883D+04 0.64077883D+04 0.12299007D+01  1  2  3  2  6  5        1 0.100099069512D-05 0.100000000000D+01
-.268765352074D-05 0.000000000000D+00 0.000000000000D+00 0.574218206070D-03 0.000000000000D+00  6 2 22 9900012 -11 1 21 2 0.13129588D+00 0.61626650D-01 0.64077883D+04 0.64077883D+04 0.64077883D+04 0.12299007D+01  1  2 15  2  6  5        1 -.510758796426D-05 0.100000000000D+01
0.188512750129D-02 0.000000000000D+00 0.000000000000D+00 0.574218206070D-03 0.000000000000D+00  6 2 22 9900012 -11 1 21 2 0.13129588D+00 0.61626650D-01 0.66563823D+04 0.66563823D+04 0.66563823D+04 0.12280998D+01  1  2 12  2  6  5        1 0.357580814958D-02 0.100000000000D+01
-.304575967124D-03 0.000000000000D+00 0.000000000000D+00 0.574218206070D-03 0.000000000000D+00  6 2 22 9900012 -11 1 21 2 0.13129588D+00 0.61626650D-01 0.64077883D+04 0.64077883D+04 0.64077883D+04 0.12299007D+01  1  2  4  2  6  5        1 -.578812905712D-03 0.100000000000D+01
-.190681593134D-02 0.000000000000D+00 0.000000000000D+00 0.574218206070D-03 0.000000000000D+00  6 2 22 9900012 -11 1 21 2 0.13129588D+00 0.61626650D-01 0.64077883D+04 0.64077883D+04 0.64077883D+04 0.12299007D+01  1  2  5  2  6  5        1 -.362369257265D-02 0.100000000000D+01
0.210681889284D-02 0.000000000000D+00 -.000000000000D+00 0.574218206070D-03 0.000000000000D+00  6 2 22 9900012 -11 1 21 2 0.13129588D+00 0.61626650D-01 0.64077883D+04 0.64077883D+04 0.64077883D+04 0.12299007D+01  1  2  6  2  6  5        1 0.400377605852D-02 0.100000000000D+01
0.255575646191D-05 0.000000000000D+00 0.000000000000D+00 0.574218206070D-03 0.958276151446D-03  6 2 22 9900012 -11 1 21 2 0.13129588D+00 0.61626650D-01 0.66563823D+04 0.66563823D+04 0.66563823D+04 0.12280998D+01  1  2 11  2  6  5        1 0.484789213385D-05 0.100000000000D+01
  </mgrwgt>
  </event>
  <event>
  6     66 0.12453494E-05 0.41317077E+02 0.78161638E-02 0.10743970E+00
        2 -1    0    0  501    0 0.00000000E+00 0.00000000E+00 0.88142630E+02 0.88142630E+02 0.00000000E+00 0.0000E+00 0.9000E+01
       22 -1    0    0    0    0 -.00000000E+00 -.00000000E+00 -.73637222E+03 0.73637222E+03 0.00000000E+00 0.0000E+00 0.9000E+01
       24  2    1    2    0    0 0.33472438E+02 -.24221823E+02 -.72860437E+03 0.73414225E+03 0.79958882E+02 0.0000E+00 0.0000E+00
  9900012  1    3    3    0    0 0.27420775E+02 0.95077577E+00 -.61433234E+03 0.61697409E+03 0.50000000E+02 0.0000E+00 0.9000E+01
      -11  1    3    3    0    0 0.60516634E+01 -.25172599E+02 -.11427203E+03 0.11716816E+03 0.00000000E+00 0.0000E+00 0.9000E+01
        1  1    1    2  501    0 -.33472438E+02 0.24221823E+02 0.80374779E+02 0.90372595E+02 0.00000000E+00 0.0000E+00 0.9000E+01
#aMCatNLO 1  0  0  5  1 0.33602702D+02 0.00000000D+00  -5  6  0 0.00000000D+00 0.00000000D+00 0.00000000D+00 0.00000000D+00 0.00000000D+00
  <mgrwgt>
 0.2920001460D-03    3    2    0
 0.254766135471752D+03 0.000000000000000D+00 0.000000000000000D+00 0.254766135471752D+03
 0.254766135471752D+03 -.000000000000000D+00 -.000000000000000D+00 -.254766135471752D+03
 0.216818254793648D+03 0.274207745284919D+02 0.950775768761809D+00 -.209182582356798D+03
 0.442216960256600D+02 0.605166339041979D+01 -.251725988040739D+02 -.358507467013459D+02
 0.248492320124196D+03 -.334724379189117D+02 0.242218230353121D+02 0.245033329058143D+03
 0.000000000000000D+00 0.000000000000000D+00 0.000000000000000D+00 -.000000000000000D+00
 0.254766135471752D+03 0.000000000000000D+00 0.000000000000000D+00 0.254766135471752D+03
 0.254766135471752D+03 -.000000000000000D+00 -.000000000000000D+00 -.254766135471752D+03
 0.155123081730973D+03 0.187168319148464D+02 0.724925209151924D+01 -.145465800217436D+03
 0.331376095174176D+02 0.424134845643061D+01 -.238625918044196D+02 -.225984256127640D+02
 0.156560255700306D+03 0.369160862323706D+02 -.118528671506052D+03 0.953900952575248D+02
 0.164711323994808D+03 -.598742666036477D+02 0.135142011218953D+03 0.726741305726755D+02
0.755809415268D-04 0.000000000000D+00 0.000000000000D+00 0.914322756107D-04 0.000000000000D+00  6 2 22 9900012 -11 1 21 0 0.13560405D-01 0.11328803D+00 0.38589091D+04 0.38589091D+04 0.38589091D+04 0.12547145D+01  1  2  2  2  6  5        1 0.362284704846D-03 0.100000000000D+01
0.380108292946D-05 0.000000000000D+00 -.145125358191D-06 0.914322756107D-04 0.000000000000D+00  6 2 22 9900012 -11 1 21 2 0.13560405D-01 0.11328803D+00 0.38589091D+04 0.38589091D+04 0.38589091D+04 0.12547145D+01  1  2  3  2  6  5        1 0.286836806628D-04 0.100000000000D+01
-.131150004891D-04 0.000000000000D+00 0.000000000000D+00 0.914322756107D-04 0.000000000000D+00  6 2 22 9900012 -11 1 21 2 0.13560405D-01 0.11328803D+00 0.38589091D+04 0.38589091D+04 0.38589091D+04 0.12547145D+01  1  2 15  2  6  5        1 -.989682395527D-04 0.100000000000D+01
  </mgrwgt>
  </event>
  <event>
  6     66 0.12453494E-05 0.20204990E+02 0.78161638E-02 0.13022465E+00
        2 -1    0    0  501    0 0.00000000E+00 0.00000000E+00 0.30688878E+03 0.30688878E+03 0.00000000E+00 0.0000E+00 0.9000E+01
       22 -1    0    0    0    0 0.00000000E+00 0.00000000E+00 -.11016524E+02 0.11016524E+02 0.00000000E+00 0.0000E+00 0.9000E+01
       24  2    1    2    0    0 -.55064185E+01 0.19440189E+02 0.14874073E+03 0.16939292E+03 0.78497871E+02 0.0000E+00 0.0000E+00
  9900012  1    3    3    0    0 -.24430637E+02 0.91408961E+01 0.12611492E+03 0.13814986E+03 0.50000000E+02 0.0000E+00 0.9000E+01
      -11  1    3    3    0    0 0.18924218E+02 0.10299293E+02 0.22625817E+02 0.31243064E+02 0.00000000E+00 0.0000E+00 0.9000E+01
        1  1    1    2  501    0 0.55064185E+01 -.19440189E+02 0.14713152E+03 0.14851238E+03 0.00000000E+00 0.0000E+00 0.9000E+01
#aMCatNLO 1  0  0  1  5 0.10937816D+02 0.00000000D+00  -5  6  0 0.00000000D+00 0.00000000D+00 0.00000000D+00 0.00000000D+00 0.00000000D+00
  <mgrwgt>
 0.2286214228D-04    1    2    0
 0.581450565181153D+02 0.000000000000000D+00 0.000000000000000D+00 0.581450565181153D+02
 0.581450565181153D+02 0.000000000000000D+00 0.000000000000000D+00 -.581450565181153D+02
 0.567947574214466D+02 -.244306366166539D+02 0.914089610916476D+01 -.672550989795065D+01
 0.278440207962519D+02 0.189242181041528D+02 0.102992931716904D+02 -.176376875868731D+02
 0.316513348185320D+02 0.550641851250110D+01 -.194401892808552D+02 0.243631974848238D+02
 0.000000000000000D+00 -.000000000000000D+00 -.000000000000000D+00 -.000000000000000D+00
 0.655049800557029D+02 0.000000000000000D+00 0.000000000000000D+00 0.655049800557029D+02
 0.270847619082793D+03 0.000000000000000D+00 0.000000000000000D+00 -.270847619082793D+03
 0.592729511697293D+02 -.124603879629558D+02 0.285094543755980D+02 -.672550989795065D+01
 0.377073300609905D+02 0.256846338896562D+02 0.212380389600985D+02 -.176376875868731D+02
 0.286183645817382D+02 0.117221291253986D+02 -.938280813063148D+01 0.243631974848238D+02
 0.210753953326038D+03 -.249463750520991D+02 -.403646852050650D+02 -.205342639027090D+03
0.221517808595D-07 0.000000000000D+00 0.000000000000D+00 0.757395124218D-07 0.000000000000D+00  6 2 22 9900012 -11 1 21 2 0.47213659D-01 0.16948498D-02 0.24081331D+04 0.24081331D+04 0.24081331D+04 0.12792385D+01  1  2 14  1  6  1        2 0.228621422825D-04 0.100000000000D+01
  </mgrwgt>
  </event>
  <event>
  7     66 0.12453494E-05 0.14912209E+03 0.78161638E-02 0.10912810E+00
        2 -1    0    0  501    0 0.00000000E+00 0.00000000E+00 0.11428642E+04 0.11428642E+04 0.00000000E+00 0.0000E+00 0.9000E+01
       22 -1    0    0    0    0 0.00000000E+00 0.00000000E+00 -.90569009E+02 0.90569009E+02 0.00000000E+00 0.0000E+00 0.9000E+01
       24  2    1    2    0    0 0.11409924E+03 0.98545103E+02 0.51432851E+00 0.17083693E+03 0.80344373E+02 0.0000E+00 0.0000E+00
  9900012  1    3    3    0    0 0.86732748E+02 0.71387876E+02 -.23821031E+02 0.12524472E+03 0.50000000E+02 0.0000E+00 0.9000E+01
      -11  1    3    3    0    0 0.27366489E+02 0.27157227E+02 0.24335359E+02 0.45592208E+02 0.00000000E+00 0.0000E+00 0.9000E+01
        1  1    1    2  502    0 -.10425620E+03 -.93903091E+02 0.97065513E+03 0.98074387E+03 0.00000000E+00 0.0000E+00 0.9000E+01
       21  1    1    2  501  502 -.98430391E+01 -.46420121E+01 0.81125749E+02 0.81852433E+02 0.00000000E+00 0.0000E+00 0.9000E+01
#aMCatNLO 2  0  0  5  1 0.31231849D+01 0.00000000D+00  -5  6  0 0.00000000D+00 0.00000000D+00 0.00000000D+00 0.00000000D+00 0.00000000D+00
  <mgrwgt>
 0.2409341905D-05    5    2    0
 0.321726716136765D+03 0.000000000000000D+00 0.000000000000000D+00 0.321726716136765D+03
 0.321726716136765D+03 -.000000000000000D+00 -.000000000000000D+00 -.321726716136765D+03
 0.279130469543073D+03 0.867668338464265D+02 0.714173147877508D+02 -.250569157559566D+03
 0.476123191488677D+02 0.273723031297446D+02 0.271622489607632D+02 -.279267289079928D+02
 0.316710643581588D+03 -.114139136976171D+03 -.985795637485140D+02 0.278495886467559D+03
 0.000000000000000D+00 0.000000000000000D+00 0.000000000000000D+00 0.000000000000000D+00
 0.321726716136765D+03 0.000000000000000D+00 0.000000000000000D+00 0.321726716136765D+03
 0.321726716136765D+03 -.000000000000000D+00 -.000000000000000D+00 -.321726716136765D+03
 0.279037685338677D+03 0.867327484706797D+02 0.713878759680756D+02 -.250485990320127D+03
 0.475977914629781D+02 0.273664889815050D+02 0.271572274036338D+02 -.279125425700641D+02
 0.292587337870666D+03 -.104256198311450D+03 -.939030912863803D+02 0.256749303490289D+03
 0.242306176012080D+02 -.984303914073461D+01 -.464201208532907D+01 0.216492293999024D+02
-.185338637623D-05 0.000000000000D+00 0.000000000000D+00 0.138554388171D-04 0.000000000000D+00  6 2 22 9900012 -11 1 21 2 0.17582526D+00 0.13933694D-01 0.24446340D+05 0.24446340D+05 0.24446340D+05 0.11710440D+01  1  2 13  2  6  5        1 -.231063039528D-04 0.100000000000D+01
-.238019579212D-06 0.000000000000D+00 0.000000000000D+00 0.138554388171D-04 0.000000000000D+00  6 2 22 9900012 -11 1 21 2 0.17582526D+00 0.13933694D-01 0.24395064D+05 0.24395064D+05 0.24395064D+05 0.11711297D+01  1  2  8  2  6  5        1 -.296763799297D-05 0.100000000000D+01
-.199036230267D-06 0.000000000000D+00 0.000000000000D+00 0.138554388171D-04 0.000000000000D+00  6 2 22 9900012 -11 1 21 2 0.17582526D+00 0.13933694D-01 0.24395064D+05 0.24395064D+05 0.24395064D+05 0.11711297D+01  1  2  9  2  6  5        1 -.248159198025D-05 0.100000000000D+01
0.214844591006D-06 0.000000000000D+00 0.000000000000D+00 0.138554388171D-04 0.000000000000D+00  6 2 22 9900012 -11 1 21 2 0.17582526D+00 0.13933694D-01 0.24395064D+05 0.24395064D+05 0.24395064D+05 0.11711297D+01  1  2 10  2  6  5        1 0.267869127810D-05 0.100000000000D+01
0.226887126526D-05 0.000000000000D+00 0.000000000000D+00 0.138554388171D-04 0.100577992778D-04  6 2 22 9900012 -11 1 21 2 0.17582526D+00 0.13933694D-01 0.24446340D+05 0.24446340D+05 0.24446340D+05 0.11710440D+01  1  2  1  2  6  5        1 0.282861845525D-04 0.100000000000D+01
  </mgrwgt>
  </event>
  <event>
  7     66 -.12453494E-05 0.48703592E+02 0.78161638E-02 0.12164361E+00
        2 -1    0    0  502    0 0.00000000E+00 0.00000000E+00 0.95497179E+03 0.95497179E+03 0.00000000E+00 0.0000E+00 0.9000E+01
       22 -1    0    0    0    0 0.00000000E+00 0.00000000E+00 -.12610820E+02 0.12610820E+02 0.00000000E+00 0.0000E+00 0.9000E+01
       24  2    1    2    0    0 -.19732773E+02 0.43936700E+02 0.19786821E+03 0.21884836E+03 0.80143369E+02 0.0000E+00 0.0000E+00
  9900012  1    3    3    0    0 -.13536390E+02 0.57017108E+02 0.18042608E+03 0.19618297E+03 0.50000000E+02 0.0000E+00 0.9000E+01
      -11  1    3    3    0    0 -.61963832E+01 -.13080408E+02 0.17442127E+02 0.22665393E+02 0.00000000E+00 0.0000E+00 0.9000E+01
        1  1    1    2  501    0 0.25932506E+02 -.44887159E+02 0.31817939E+03 0.32237474E+03 0.00000000E+00 0.0000E+00 0.9000E+01
       21  1    1    2  502  501 -.61997331E+01 0.95045894E+00 0.42631337E+03 0.42635951E+03 0.00000000E+00 0.0000E+00 0.9000E+01
#aMCatNLO 2  0  0  1  5 0.62850026D+01 0.00000000D+00  -5  6  0 0.00000000D+00 0.00000000D+00 0.00000000D+00 0.00000000D+00 0.00000000D+00
  <mgrwgt>
 -.9943062967D-04    2    2    0
 0.815137749613496D+02 0.000000000000000D+00 0.000000000000000D+00 0.815137749613496D+02
 0.815137749613496D+02 0.000000000000000D+00 0.000000000000000D+00 -.815137749613496D+02
 0.810195615988225D+02 -.165990935052186D+02 0.574866403379991D+02 -.219983099150805D+02
 0.201932139143838D+02 -.696071095597298D+01 -.129632320660231D+02 -.138300038171322D+02
 0.618147744094930D+02 0.235598044611916D+02 -.445234082719760D+02 0.358283137322127D+02
 0.000000000000000D+00 -.000000000000000D+00 0.000000000000000D+00 0.000000000000000D+00
 0.147362344912894D+03 0.000000000000000D+00 0.000000000000000D+00 0.147362344912894D+03
 0.817235749634624D+02 0.000000000000000D+00 0.000000000000000D+00 -.817235749634624D+02
 0.801131082485018D+02 -.135363898158536D+02 0.570171081770156D+02 -.219983099150805D+02
 0.200190223355501D+02 -.619638324740225D+01 -.130804084164324D+02 -.138300038171322D+02
 0.630160293710964D+02 0.259325061836137D+02 -.448871586964675D+02 0.358283137322127D+02
 0.659377599212085D+02 -.619973312035785D+01 0.950458935884353D+00 0.656387699494321D+02
-.249793698785D-05 0.000000000000D+00 0.000000000000D+00 0.362692010102D-06 0.000000000000D+00  6 2 22 9900012 -11 1 21 2 0.14729688D+00 0.19351455D-02 0.55964872D+04 0.55964872D+04 0.55964872D+04 0.12363732D+01  1  2 13  1  6  1        2 -.633077058053D-03 0.100000000000D+01
0.210601831770D-05 0.000000000000D+00 0.000000000000D+00 0.362692010102D-06 0.748464967364D-07  6 2 22 9900012 -11 1 21 2 0.14691874D+00 0.19401262D-02 0.55964872D+04 0.55964872D+04 0.55964872D+04 0.12363732D+01  1  2  1  1  6  1        2 0.533646428385D-03 0.100000000000D+01
  </mgrwgt>
  </event>
  <event>
  6     66 0.12453494E-05 0.68001124E+02 0.78161638E-02 0.11617693E+00
        2 -1    0    0  501    0 0.00000000E+00 0.00000000E+00 0.15265953E+04 0.15265953E+04 0.00000000E+00 0.0000E+00 0.9000E+01
       22 -1    0    0    0    0 0.00000000E+00 0.00000000E+00 -.93039357E+01 0.93039357E+01 0.00000000E+00 0.0000E+00 0.9000E+01
       24  2    1    2    0    0 -.60677380E+02 -.58317846E+02 0.42899340E+03 0.44435208E+03 0.79565857E+02 0.0000E+00 0.0000E+00
  9900012  1    3    3    0    0 -.40368917E+02 -.13836257E+02 0.21402142E+03 0.22388895E+03 0.50000000E+02 0.0000E+00 0.9000E+01
      -11  1    3    3    0    0 -.20308463E+02 -.44481589E+02 0.21497198E+03 0.22046314E+03 0.00000000E+00 0.0000E+00 0.9000E+01
        1  1    1    2  501    0 0.60677380E+02 0.58317846E+02 0.10882980E+04 0.10915472E+04 0.00000000E+00 0.0000E+00 0.9000E+01
#aMCatNLO 1  0  0  5  1 0.24310591D+02 0.00000000D+00  -5  6  0 0.00000000D+00 0.00000000D+00 0.00000000D+00 0.00000000D+00 0.00000000D+00
  <mgrwgt>
 0.1599008887D-03    5    2    0
 0.119177786108068D+03 0.000000000000000D+00 0.000000000000000D+00 0.119177786108068D+03
 0.119177786108068D+03 -.000000000000000D+00 -.000000000000000D+00 -.119177786108068D+03
 0.802918392599877D+02 -.403689167064168D+02 -.138362573344577D+02 -.461051840759448D+02
 0.521659501244504D+02 -.203084631329782D+02 -.444815889724600D+02 -.181725320208339D+02
 0.105897782831699D+03 0.606773798393950D+02 0.583178463069177D+02 0.642777160967788D+02
 0.000000000000000D+00 0.000000000000000D+00 0.000000000000000D+00 -.000000000000000D+00
 0.119177786108068D+03 0.000000000000000D+00 0.000000000000000D+00 0.119177786108068D+03
 0.119177786108068D+03 -.000000000000000D+00 -.000000000000000D+00 -.119177786108068D+03
 0.750549236318721D+02 -.361343373863198D+02 -.976634616463601D+01 -.416193429264599D+02
 0.479050186976506D+02 -.175806402467612D+02 -.418598416878548D+02 -.152828517889807D+02
 0.975836484175461D+02 0.418786254866099D+02 0.645729332800627D+02 0.599923782945807D+02
 0.178119814690678D+02 0.118363521464711D+02 -.129467454275719D+02 -.309018357914012D+01
0.841143996947D-06 0.000000000000D+00 0.000000000000D+00 0.533411113678D-06 0.000000000000D+00  6 2 22 9900012 -11 1 21 0 0.23486082D+00 0.14313747D-02 0.98795845D+04 0.98795845D+04 0.98795845D+04 0.12098756D+01  1  2  2  2  6  5        1 0.108115722635D-03 0.100000000000D+01
-.790269885352D-08 0.000000000000D+00 -.161510721329D-08 0.533411113678D-06 0.000000000000D+00  6 2 22 9900012 -11 1 21 2 0.23486082D+00 0.14313747D-02 0.98795845D+04 0.98795845D+04 0.98795845D+04 0.12098756D+01  1  2  3  2  6  5        1 -.148687818038D-05 0.100000000000D+01
-.142718010590D-06 0.000000000000D+00 0.000000000000D+00 0.533411113678D-06 0.000000000000D+00  6 2 22 9900012 -11 1 21 2 0.23486082D+00 0.14313747D-02 0.98795845D+04 0.98795845D+04 0.98795845D+04 0.12098756D+01  1  2 15  2  6  5        1 -.268521298645D-04 0.100000000000D+01
0.519796864333D-06 0.000000000000D+00 0.000000000000D+00 0.533411113678D-06 0.000000000000D+00  6 2 22 9900012 -11 1 21 2 0.23486082D+00 0.14313747D-02 0.10238042D+05 0.10238042D+05 0.10238042D+05 0.12082725D+01  1  2 12  2  6  5        1 0.977485777795D-04 0.100000000000D+01
-.936730098150D-07 0.000000000000D+00 0.000000000000D+00 0.533411113678D-06 0.000000000000D+00  6 2 22 9900012 -11 1 21 2 0.23486082D+00 0.14313747D-02 0.98795845D+04 0.98795845D+04 0.98795845D+04 0.12098756D+01  1  2  4  2  6  5        1 -.176244036330D-04 0.100000000000D+01
  </mgrwgt>
  </event>
  <event>
  6     66 0.12453494E-05 0.31756514E+02 0.78161638E-02 0.11913849E+00
        2 -1    0    0  501    0 0.00000000E+00 0.00000000E+00 0.18210110E+04 0.18210110E+04 0.00000000E+00 0.0000E+00 0.9000E+01
       22 -1    0    0    0    0 0.00000000E+00 0.00000000E+00 -.41779550E+01 0.41779550E+01 0.00000000E+00 0.0000E+00 0.9000E+01
       24  2    1    2    0    0 0.67028215E+02 -.28092651E+01 0.90726756E+03 0.91315275E+03 0.78821571E+02 0.0000E+00 0.0000E+00
  9900012  1    3    3    0    0 0.17099599E+02 -.45796241E+01 0.51209428E+03 0.51483388E+03 0.50000000E+02 0.0000E+00 0.9000E+01
      -11  1    3    3    0    0 0.49928616E+02 0.17703590E+01 0.39517328E+03 0.39831887E+03 0.00000000E+00 0.0000E+00 0.9000E+01
        1  1    1    2  501    0 -.67028215E+02 0.28092651E+01 0.90956549E+03 0.91203621E+03 0.00000000E+00 0.0000E+00 0.9000E+01
#aMCatNLO 1  0  0  5  1 0.24440478D+02 0.00000000D+00  -5  6  0 0.00000000D+00 0.00000000D+00 0.00000000D+00 0.00000000D+00 0.00000000D+00
  <mgrwgt>
 0.3156490018D-03    7    2    0
 0.872244344271605D+02 0.000000000000000D+00 0.000000000000000D+00 0.872244344271605D+02
 0.872244344271605D+02 -.000000000000000D+00 -.000000000000000D+00 -.872244344271605D+02
 0.531920660793663D+02 0.170995988049036D+02 -.457962405563810D+01 -.400333086467064D+01
 0.518394198960233D+02 0.499286157174362D+02 0.177035898676710D+01 -.138320141973170D+02
 0.694173828789313D+02 -.670282145223398D+02 0.280926506887100D+01 0.178353450619876D+02
 0.000000000000000D+00 0.000000000000000D+00 0.000000000000000D+00 0.000000000000000D+00
 0.872244344271605D+02 0.000000000000000D+00 0.000000000000000D+00 0.872244344271605D+02
 0.872244344271605D+02 -.000000000000000D+00 -.000000000000000D+00 -.872244344271605D+02
 0.515193100714670D+02 0.113694685271354D+02 -.433946466986110D+01 -.247861695900518D+01
 0.462954248295036D+02 0.445583735743493D+02 0.199543485625673D+01 -.124030618916210D+02
 0.469752297916750D+02 -.381992260894668D+02 0.255540587921579D+02 0.972015531734985D+01
 0.296589041616753D+02 -.177286160120180D+02 -.232100289785535D+02 0.516152353327636D+01
0.113067905396D-05 0.000000000000D+00 0.000000000000D+00 0.796519932932D-07 0.000000000000D+00  6 2 22 9900012 -11 1 21 0 0.28015554D+00 0.64276230D-03 0.72325036D+04 0.72325036D+04 0.72325036D+04 0.12241999D+01  1  2  2  2  6  5        1 0.292906049723D-03 0.100000000000D+01
-.293915874458D-07 0.000000000000D+00 -.217105264093D-08 0.796519932932D-07 0.000000000000D+00  6 2 22 9900012 -11 1 21 2 0.28015554D+00 0.64276230D-03 0.72325036D+04 0.72325036D+04 0.72325036D+04 0.12241999D+01  1  2  3  2  6  5        1 -.114108170067D-04 0.100000000000D+01
-.185751266776D-06 0.000000000000D+00 0.000000000000D+00 0.796519932932D-07 0.000000000000D+00  6 2 22 9900012 -11 1 21 2 0.28015554D+00 0.64276230D-03 0.72325036D+04 0.72325036D+04 0.72325036D+04 0.12241999D+01  1  2 15  2  6  5        1 -.721149790858D-04 0.100000000000D+01
0.332615382252D-06 0.000000000000D+00 0.000000000000D+00 0.796519932932D-07 0.000000000000D+00  6 2 22 9900012 -11 1 21 2 0.28015554D+00 0.64276230D-03 0.73297213D+04 0.73297213D+04 0.73297213D+04 0.12235761D+01  1  2 12  2  6  5        1 0.129117063358D-03 0.100000000000D+01
-.204161209960D-06 0.000000000000D+00 0.000000000000D+00 0.796519932932D-07 0.000000000000D+00  6 2 22 9900012 -11 1 21 2 0.28015554D+00 0.64276230D-03 0.72325036D+04 0.72325036D+04 0.72325036D+04 0.12241999D+01  1  2  4  2  6  5        1 -.792623471264D-04 0.100000000000D+01
-.287182792148D-06 0.000000000000D+00 0.000000000000D+00 0.796519932932D-07 0.000000000000D+00  6 2 22 9900012 -11 1 21 2 0.28015554D+00 0.64276230D-03 0.72325036D+04 0.72325036D+04 0.72325036D+04 0.12241999D+01  1  2  5  2  6  5        1 -.111494157800D-03 0.100000000000D+01
0.432492102721D-06 0.000000000000D+00 -.000000000000D+00 0.796519932932D-07 0.000000000000D+00  6 2 22 9900012 -11 1 21 2 0.28015554D+00 0.64276230D-03 0.72325036D+04 0.72325036D+04 0.72325036D+04 0.12241999D+01  1  2  6  2  6  5        1 0.167908189720D-03 0.100000000000D+01
  </mgrwgt>
  </event>
  <event>
  6     66 0.12453494E-05 0.15913083E+02 0.78161638E-02 0.12813450E+00
        2 -1    0    0  501    0 0.00000000E+00 0.00000000E+00 0.19272574E+03 0.19272574E+03 0.00000000E+00 0.0000E+00 0.9000E+01
       22 -1    0    0    0    0 0.00000000E+00 0.00000000E+00 -.23887128E+02 0.23887128E+02 0.00000000E+00 0.0000E+00 0.9000E+01
       24  2    1    2    0    0 0.13828836E+02 -.78733415E+01 0.50540312E+02 0.97249080E+02 0.81546516E+02 0.0000E+00 0.0000E+00
  9900012  1    3    3    0    0 0.37926815E+01 -.30002321E+02 0.31530587E+02 0.66398054E+02 0.50000000E+02 0.0000E+00 0.9000E+01
      -11  1    3    3    0    0 0.10036154E+02 0.22128980E+02 0.19009725E+02 0.30851026E+02 0.00000000E+00 0.0000E+00 0.9000E+01
        1  1    1    2  501    0 -.13828836E+02 0.78733415E+01 0.11829830E+03 0.11936379E+03 0.00000000E+00 0.0000E+00 0.9000E+01
#aMCatNLO 1  0  0  5  5 0.18566309D+02 0.00000000D+00  -5  6  0 0.00000000D+00 0.00000000D+00 0.00000000D+00 0.00000000D+00 0.00000000D+00
  <mgrwgt>
 0.3621517800D-04    4    2    0
 0.678503097811620D+02 0.000000000000000D+00 0.000000000000000D+00 0.678503097811620D+02
 0.678503097811620D+02 -.000000000000000D+00 -.000000000000000D+00 -.678503097811620D+02
 0.667579307073765D+02 0.379268151105291D+01 -.300023212531998D+02 -.322815364985374D+02
 0.255942356341270D+02 0.100361544261531D+02 0.221289798023149D+02 -.804044494654133D+01
 0.433484532208204D+02 -.138288359372060D+02 0.787334145088484D+01 0.403219814450787D+02
 0.000000000000000D+00 0.000000000000000D+00 -.000000000000000D+00 0.000000000000000D+00
 0.678503097811620D+02 0.000000000000000D+00 0.000000000000000D+00 0.678503097811620D+02
 0.678503097811620D+02 -.000000000000000D+00 -.000000000000000D+00 -.678503097811620D+02
 0.607779389307442D+02 -.206496395305483D+00 -.277254200503386D+02 -.206207735776395D+02
 0.247712809899783D+02 0.845682884585183D+01 0.230281566825883D+02 -.343546322329216D+01
 0.376936240871340D+02 -.148591656371459D+02 0.100781253103962D+02 0.331428104363221D+02
 0.124577755544675D+02 0.660883318659956D+01 -.538086194264588D+01 -.908657363539048D+01
0.105811076149D-06 0.000000000000D+00 0.000000000000D+00 0.100686059189D-06 0.000000000000D+00  6 2 22 9900012 -11 1 21 0 0.29650114D-01 0.36749428D-02 0.24327331D+04 0.24327331D+04 0.24327331D+04 0.12786943D+01  1  2  2  2  6  5        1 0.389742035263D-04 0.100000000000D+01
0.114984518437D-07 0.000000000000D+00 -.203171196555D-09 0.100686059189D-06 0.000000000000D+00  6 2 22 9900012 -11 1 21 2 0.29650114D-01 0.36749428D-02 0.24327331D+04 0.24327331D+04 0.24327331D+04 0.12786943D+01  1  2  3  2  6  5        1 0.692498725464D-05 0.100000000000D+01
-.154032276102D-07 0.000000000000D+00 0.000000000000D+00 0.100686059189D-06 0.000000000000D+00  6 2 22 9900012 -11 1 21 2 0.29650114D-01 0.36749428D-02 0.24327331D+04 0.24327331D+04 0.24327331D+04 0.12786943D+01  1  2 15  2  6  5        1 -.927665361658D-05 0.100000000000D+01
-.676391102674D-09 0.000000000000D+00 0.000000000000D+00 0.100686059189D-06 0.000000000000D+00  6 2 22 9900012 -11 1 21 2 0.29650114D-01 0.36749428D-02 0.24327331D+04 0.24327331D+04 0.24327331D+04 0.12786943D+01  1  2  4  2  6  5        1 -.407359167028D-06 0.100000000000D+01
  </mgrwgt>
  </event>
  <event>
  7     66 -.12453494E-05 0.18449708E+02 0.78161638E-02 0.12475586E+00
        4 -1    0    0  502    0 0.00000000E+00 0.00000000E+00 0.26153269E+02 0.26153269E+02 0.00000000E+00 0.0000E+00 0.9000E+01
       22 -1    0    0    0    0 0.00000000E+00 0.00000000E+00 -.40156328E+03 0.40156328E+03 0.00000000E+00 0.0000E+00 0.9000E+01
       24  2    1    2    0    0 0.16040341E+02 0.22839261E+02 -.36801875E+03 0.37770809E+03 0.80291202E+02 0.0000E+00 0.0000E+00
  9900012  1    3    3    0    0 -.13112104E+02 0.86088857E+01 -.23842108E+03 0.24411196E+03 0.50000000E+02 0.0000E+00 0.9000E+01
      -11  1    3    3    0    0 0.29152446E+02 0.14230376E+02 -.12959767E+03 0.13359613E+03 0.00000000E+00 0.0000E+00 0.9000E+01
        3  1    1    2  501    0 -.24845625E+02 -.92946909E+01 0.79876452E+01 0.27703770E+02 0.00000000E+00 0.0000E+00 0.9000E+01
       21  1    1    2  502  501 0.88052843E+01 -.13544570E+02 -.15378906E+02 0.22304690E+02 0.00000000E+00 0.0000E+00 0.9000E+01
#aMCatNLO 2  0  0  1  5 0.18800919D+02 0.00000000D+00  -5  6  0 0.00000000D+00 0.00000000D+00 0.00000000D+00 0.00000000D+00 0.00000000D+00
  <mgrwgt>
 -.2607971386D-04    2    2    0
 0.928377510015476D+02 0.000000000000000D+00 0.000000000000000D+00 0.928377510015476D+02
 0.928377510015476D+02 0.000000000000000D+00 0.000000000000000D+00 -.928377510015476D+02
 0.694481583423552D+02 -.980159445278847D+01 0.351655309146681D+01 -.470596355455799D+02
 0.407496562747405D+02 0.310695213384389D+02 0.112814683641246D+02 -.238316554577947D+02
 0.754776873859995D+02 -.212679268856505D+02 -.147980214555914D+02 0.708912910033746D+02
 0.000000000000000D+00 0.000000000000000D+00 -.000000000000000D+00 0.000000000000000D+00
 0.107410452684032D+03 0.000000000000000D+00 0.000000000000000D+00 0.107410452684032D+03
 0.977762639359069D+02 0.000000000000000D+00 0.000000000000000D+00 -.977762639359069D+02
 0.704318783972675D+02 -.131121044988485D+02 0.860888567097658D+01 -.470596355455799D+02
 0.402531548866700D+02 0.291524456330034D+02 0.142303756129621D+02 -.238316554577947D+02
 0.756919515142726D+02 -.248456254615393D+02 -.929469092217498D+01 0.708912910033746D+02
 0.188097318217284D+02 0.880528432738436D+01 -.135445703617637D+02 0.963418874812478D+01
-.451214733828D-06 0.000000000000D+00 0.000000000000D+00 0.131304156982D-05 0.000000000000D+00  6 4 22 9900012 -11 3 21 2 0.42376146D-02 0.58658616D-01 0.40656767D+04 0.40656767D+04 0.40656767D+04 0.12520896D+01  1  2 13  1  6  1        4 -.276257978082D-04 0.100000000000D+01
0.255159695012D-07 0.000000000000D+00 0.000000000000D+00 0.131304156982D-05 0.386451709746D-08  6 4 22 9900012 -11 3 21 2 0.40235799D-02 0.61778967D-01 0.40656767D+04 0.40656767D+04 0.40656767D+04 0.12520896D+01  1  2  1  1  6  1        4 0.154608395275D-05 0.100000000000D+01
  </mgrwgt>
  </event>
  <event>
  6     66 0.12453494E-05 0.81960181E+02 0.78161638E-02 0.11048560E+00
        2 -1    0    0  501    0 0.00000000E+00 0.00000000E+00 0.24009211E+03 0.24009211E+03 0.00000000E+00 0.0000E+00 0.9000E+01
       22 -1    0    0    0    0 0.00000000E+00 0.00000000E+00 -.18004321E+03 0.18004321E+03 0.00000000E+00 0.0000E+00 0.9000E+01
       24  2    1    2    0    0 0.50907717E+02 0.11606883E+03 -.12538376E+03 0.19552714E+03 0.80288282E+02 0.0000E+00 0.0000E+00
  9900012  1    3    3    0    0 0.41918604E+02 0.61649778E+02 -.10127742E+03 0.13533285E+03 0.50000000E+02 0.0000E+00 0.9000E+01
      -11  1    3    3    0    0 0.89891136E+01 0.54419050E+02 -.24106333E+02 0.60194289E+02 0.00000000E+00 0.0000E+00 0.9000E+01
        1  1    1    2  501    0 -.50907717E+02 -.11606883E+03 0.18543266E+03 0.22460819E+03 0.00000000E+00 0.0000E+00 0.9000E+01
#aMCatNLO 1  0  0  1  5 0.16059131D+02 0.00000000D+00  -5  6  0 0.00000000D+00 0.00000000D+00 0.00000000D+00 0.00000000D+00 0.00000000D+00
  <mgrwgt>
 0.6069052877D-04    9    2    0
 0.207910933059788D+03 0.000000000000000D+00 0.000000000000000D+00 0.207910933059788D+03
 0.207910933059788D+03 0.000000000000000D+00 0.000000000000000D+00 -.207910933059788D+03
 0.151362194063411D+03 0.419186035646947D+02 0.616497777109923D+02 -.121871446102279D+03
 0.642999044715925D+02 0.898911364571908D+01 0.544190497782378D+02 -.330490631055396D+02
 0.200159767584572D+03 -.509077172104138D+02 -.116068827489230D+03 0.154920509207819D+03
 0.000000000000000D+00 -.000000000000000D+00 -.000000000000000D+00 0.000000000000000D+00
 0.223479207750007D+03 0.000000000000000D+00 0.000000000000000D+00 0.223479207750007D+03
 0.211425722400620D+03 0.000000000000000D+00 0.000000000000000D+00 -.211425722400620D+03
 0.153463952559781D+03 0.469996275351113D+02 0.631630459348718D+02 -.121871446102279D+03
 0.651790540298965D+02 0.111473461303618D+02 0.550618305755279D+02 -.330490631055396D+02
 0.197430497081661D+03 -.442804456080514D+02 -.114095044333460D+03 0.154920509207819D+03
 0.188314264792881D+02 -.138665280574218D+02 -.412983217693991D+01 0.120534853493867D+02
0.652511367070D-06 0.000000000000D+00 0.000000000000D+00 0.279113906456D-05 0.000000000000D+00  6 2 22 9900012 -11 1 21 0 0.36937248D-01 0.27698956D-01 0.18450362D+05 0.18450362D+05 0.18450362D+05 0.11826886D+01  1  2  2  1  6  1        2 0.126059541374D-04 0.100000000000D+01
-.227430927431D-08 0.000000000000D+00 -.125290772987D-08 0.279113906456D-05 0.000000000000D+00  6 2 22 9900012 -11 1 21 2 0.36937248D-01 0.27698956D-01 0.18450362D+05 0.18450362D+05 0.18450362D+05 0.11826886D+01  1  2  3  1  6  1        2 -.614579420968D-07 0.100000000000D+01
-.123398191602D-06 0.000000000000D+00 0.000000000000D+00 0.279113906456D-05 0.000000000000D+00  6 2 22 9900012 -11 1 21 2 0.36937248D-01 0.27698956D-01 0.18450362D+05 0.18450362D+05 0.18450362D+05 0.11826886D+01  1  2 15  1  6  1        2 -.333455040614D-05 0.100000000000D+01
0.245330980182D-05 0.000000000000D+00 0.000000000000D+00 0.279113906456D-05 0.000000000000D+00  6 2 22 9900012 -11 1 21 2 0.40374284D-01 0.27698956D-01 0.20491882D+05 0.20491882D+05 0.20491882D+05 0.11783052D+01  1  2 12  1  6  1        2 0.600905648260D-04 0.100000000000D+01
-.738673454474D-06 0.000000000000D+00 0.000000000000D+00 0.279113906456D-05 0.000000000000D+00  6 2 22 9900012 -11 1 21 2 0.36937248D-01 0.27698956D-01 0.18450362D+05 0.18450362D+05 0.18450362D+05 0.11826886D+01  1  2  4  1  6  1        2 -.199609397483D-04 0.100000000000D+01
-.572490076417D-05 0.000000000000D+00 -.952230854707D-06 0.279113906456D-05 0.000000000000D+00  6 2 22 9900012 -11 1 21 2 0.40256773D-01 0.27698956D-01 0.18450362D+05 0.18450362D+05 0.18450362D+05 0.11826886D+01  1  2  5  1  6  1        2 -.140861778027D-03 0.100000000000D+01
0.578891345732D-05 0.000000000000D+00 0.948715620620D-06 0.279113906456D-05 0.000000000000D+00  6 2 22 9900012 -11 1 21 2 0.36937248D-01 0.27698956D-01 0.18450362D+05 0.18450362D+05 0.18450362D+05 0.11826886D+01  1  2  6  1  6  1        2 0.156431982265D-03 0.100000000000D+01
0.370914648704D-07 0.000000000000D+00 0.000000000000D+00 0.279113906456D-05 0.000000000000D+00  6 21 22 9900012 -11 1 -2 2 0.40374284D-01 0.27698956D-01 0.20491882D+05 0.20491882D+05 0.20491882D+05 0.11783052D+01  1  2 12  3  6  1        2 0.364815041846D-05 0.100000000000D+01
-.791989023786D-07 0.000000000000D+00 -.135672955159D-07 0.279113906456D-05 0.000000000000D+00  6 21 22 9900012 -11 1 -2 2 0.40256773D-01 0.27698956D-01 0.18450362D+05 0.18450362D+05 0.18450362D+05 0.11826886D+01  1  2  5  3  6  1        2 -.786739675126D-05 0.100000000000D+01
  </mgrwgt>
  </event>
  <event>
  6     66 0.12453494E-05 0.12462470E+02 0.78161638E-02 0.12042664E+00
        2 -1    0    0  501    0 0.00000000E+00 0.00000000E+00 0.91593004E+03 0.91593004E+03 0.00000000E+00 0.0000E+00 0.9000E+01
       22 -1    0    0    0    0 0.00000000E+00 0.00000000E+00 -.22384619E+02 0.22384619E+02 0.00000000E+00 0.0000E+00 0.9000E+01
       24  2    1    2    0    0 -.96558632E+01 -.78789256E+01 0.53558622E+02 0.98235415E+02 0.81402442E+02 0.0000E+00 0.0000E+00
  9900012  1    3    3    0    0 -.44854916E+01 -.28092394E+02 0.24653285E+02 0.62586634E+02 0.50000000E+02 0.0000E+00 0.9000E+01
      -11  1    3    3    0    0 -.51703716E+01 0.20213469E+02 0.28905338E+02 0.35648781E+02 0.00000000E+00 0.0000E+00 0.9000E+01
        1  1    1    2  501    0 0.96558632E+01 0.78789256E+01 0.83998680E+03 0.84007924E+03 0.00000000E+00 0.0000E+00 0.9000E+01
#aMCatNLO 1  0  0  5  1 0.20371281D+01 0.00000000D+00  -5  6  0 0.00000000D+00 0.00000000D+00 0.00000000D+00 0.00000000D+00 0.00000000D+00
  <mgrwgt>
 0.5631234167D-04    4    2    0
 0.143187794750853D+03 0.000000000000000D+00 0.000000000000000D+00 0.143187794750853D+03
 0.143187794750853D+03 -.000000000000000D+00 -.000000000000000D+00 -.143187794750853D+03
 0.128143345312426D+03 -.448549160321351D+01 -.280923942811443D+02 -.114505085897919D+03
 0.266137971200307D+02 -.517037157232953D+01 0.202134686375285D+02 -.165220198701566D+02
 0.131618447069250D+03 0.965586317554309D+01 0.787892564361576D+01 0.131027105768076D+03
 0.000000000000000D+00 0.000000000000000D+00 -.000000000000000D+00 0.000000000000000D+00
 0.143187794750853D+03 0.000000000000000D+00 0.000000000000000D+00 0.143187794750853D+03
 0.143187794750853D+03 -.000000000000000D+00 -.000000000000000D+00 -.143187794750853D+03
 0.108059309061577D+03 -.282301928580972D+01 -.267358614124339D+02 -.919458457545118D+02
 0.240838575830526D+02 -.481354472919119D+01 0.205046297811386D+02 -.116799889023611D+02
 0.117844293133974D+03 0.306866979139827D+02 0.339453895130119D+02 0.108597028164642D+03
 0.363881297231031D+02 -.230501338989817D+02 -.277141578817165D+02 -.497119350776880D+01
0.710207271611D-06 0.000000000000D+00 0.000000000000D+00 0.408934634243D-05 0.000000000000D+00  6 2 22 9900012 -11 1 21 0 0.14091231D+00 0.34437875D-02 0.20635786D+04 0.20635786D+04 0.20635786D+04 0.12875958D+01  1  2  2  2  6  5        1 0.534749348488D-04 0.100000000000D+01
0.153611816543D-06 0.000000000000D+00 -.136369146243D-08 0.408934634243D-05 0.000000000000D+00  6 2 22 9900012 -11 1 21 2 0.14091231D+00 0.34437875D-02 0.20635786D+04 0.20635786D+04 0.20635786D+04 0.12875958D+01  1  2  3  2  6  5        1 0.191755951402D-04 0.100000000000D+01
-.130478395893D-06 0.000000000000D+00 0.000000000000D+00 0.408934634243D-05 0.000000000000D+00  6 2 22 9900012 -11 1 21 2 0.14091231D+00 0.34437875D-02 0.20635786D+04 0.20635786D+04 0.20635786D+04 0.12875958D+01  1  2 15  2  6  5        1 -.162878152897D-04 0.100000000000D+01
-.403528157647D-09 0.000000000000D+00 0.000000000000D+00 0.408934634243D-05 0.000000000000D+00  6 2 22 9900012 -11 1 21 2 0.14091231D+00 0.34437875D-02 0.20635786D+04 0.20635786D+04 0.20635786D+04 0.12875958D+01  1  2  4  2  6  5        1 -.503730295807D-07 0.100000000000D+01
  </mgrwgt>
  </event>
  <event>
  6     66 0.12453494E-05 0.24306102E+02 0.78161638E-02 0.12106292E+00
        2 -1    0    0  501    0 0.00000000E+00 0.00000000E+00 0.47522818E+03 0.47522818E+03 0.00000000E+00 0.0000E+00 0.9000E+01
       22 -1    0    0    0    0 0.00000000E+00 0.00000000E+00 -.42213894E+02 0.42213894E+02 0.00000000E+00 0.0000E+00 0.9000E+01
       24  2    1    2    0    0 -.22991385E+02 0.78856061E+01 0.43104492E-01 0.83789183E+02 0.80186275E+02 0.0000E+00 0.0000E+00
  9900012  1    3    3    0    0 0.56635164E+01 -.31694892E+01 0.10197996E+02 0.51440453E+02 0.50000000E+02 0.0000E+00 0.9000E+01
      -11  1    3    3    0    0 -.28654902E+02 0.11055095E+02 -.10154891E+02 0.32348730E+02 0.00000000E+00 0.0000E+00 0.9000E+01
        1  1    1    2  501    0 0.22991385E+02 -.78856061E+01 0.43297118E+03 0.43365289E+03 0.00000000E+00 0.0000E+00 0.9000E+01
#aMCatNLO 1  0  0  1  5 0.76901671D+01 0.00000000D+00  -5  6  0 0.00000000D+00 0.00000000D+00 0.00000000D+00 0.00000000D+00 0.00000000D+00
  <mgrwgt>
 0.1420144839D-03    4    2    0
 0.141637679187353D+03 0.000000000000000D+00 0.000000000000000D+00 0.141637679187353D+03
 0.141637679187353D+03 0.000000000000000D+00 0.000000000000000D+00 -.141637679187353D+03
 0.783745428978490D+02 0.566351644354429D+01 -.316948922667137D+01 -.600037323337681D+02
 0.746122327939607D+02 -.286549015710507D+02 0.110550953067495D+02 -.679975497074142D+02
 0.130288582682896D+03 0.229913851275064D+02 -.788560608007812D+01 0.128001282041182D+03
 0.000000000000000D+00 -.000000000000000D+00 0.000000000000000D+00 -.000000000000000D+00
 0.148794199700502D+03 0.000000000000000D+00 0.000000000000000D+00 0.148794199700502D+03
 0.205776649059845D+03 0.000000000000000D+00 0.000000000000000D+00 -.205776649059845D+03
 0.799703537470958D+02 0.149648267079786D+02 -.841804882697400D+01 -.600037323337681D+02
 0.711761505422331D+02 -.200911712892922D+02 0.622273862721889D+01 -.679975497074142D+02
 0.134717966276577D+03 0.385580891148543D+02 -.166696129925530D+02 0.128001282041182D+03
 0.687063781944421D+02 -.334317445335407D+02 0.188649231923081D+02 -.569824493593431D+02
0.233491188634D-05 0.000000000000D+00 0.000000000000D+00 0.118683735580D-04 0.000000000000D+00  6 2 22 9900012 -11 1 21 0 0.73112028D-01 0.64944453D-02 0.27793480D+04 0.27793480D+04 0.27793480D+04 0.12716258D+01  1  2  2  1  6  1        2 0.156311366968D-03 0.100000000000D+01
0.235987967950D-06 0.000000000000D+00 -.448333821999D-08 0.118683735580D-04 0.000000000000D+00  6 2 22 9900012 -11 1 21 2 0.73112028D-01 0.64944453D-02 0.27793480D+04 0.27793480D+04 0.27793480D+04 0.12716258D+01  1  2  3  1  6  1        2 0.255463354666D-04 0.100000000000D+01
-.365875712415D-06 0.000000000000D+00 0.000000000000D+00 0.118683735580D-04 0.000000000000D+00  6 2 22 9900012 -11 1 21 2 0.73112028D-01 0.64944453D-02 0.27793480D+04 0.27793480D+04 0.27793480D+04 0.12716258D+01  1  2 15  1  6  1        2 -.396070349249D-04 0.100000000000D+01
-.218178060772D-08 0.000000000000D+00 0.000000000000D+00 0.118683735580D-04 0.000000000000D+00  6 2 22 9900012 -11 1 21 2 0.73112028D-01 0.64944453D-02 0.27793480D+04 0.27793480D+04 0.27793480D+04 0.12716258D+01  1  2  4  1  6  1        2 -.236183648699D-06 0.100000000000D+01
  </mgrwgt>
  </event>
  <event>
  7     66 -.12453494E-05 0.82450064E+02 0.78161638E-02 0.11495701E+00
        4 -1    0    0  501    0 0.00000000E+00 0.00000000E+00 0.39385709E+02 0.39385709E+02 0.00000000E+00 0.0000E+00 0.9000E+01
       22 -1    0    0    0    0 -.00000000E+00 -.00000000E+00 -.39469380E+03 0.39469380E+03 0.00000000E+00 0.0000E+00 0.9000E+01
       24  2    1    2    0    0 0.95046720E+02 -.99254898E+01 -.28248273E+03 0.30896290E+03 0.80803380E+02 0.0000E+00 0.0000E+00
  9900012  1    3    3    0    0 0.39076644E+02 -.15177395E+02 -.11403548E+03 0.13138275E+03 0.50000000E+02 0.0000E+00 0.9000E+01
      -11  1    3    3    0    0 0.55970076E+02 0.52519053E+01 -.16844725E+03 0.17758015E+03 0.00000000E+00 0.0000E+00 0.9000E+01
        3  1    1    2  502    0 -.59542816E+02 0.10034469E+02 -.24529300E+02 0.65174566E+02 0.00000000E+00 0.0000E+00 0.9000E+01
       21  1    1    2  501  502 -.35503904E+02 -.10897947E+00 -.48296062E+02 0.59942044E+02 0.00000000E+00 0.0000E+00 0.9000E+01
#aMCatNLO 2  0  0  5  1 0.16164983D+02 0.00000000D+00  -5  6  0 0.00000000D+00 0.00000000D+00 0.00000000D+00 0.00000000D+00 0.00000000D+00
  <mgrwgt>
 -.3442225276D-04    2    2    0
 0.124680773262324D+03 0.000000000000000D+00 0.000000000000000D+00 0.124680773262324D+03
 0.124680773262324D+03 -.000000000000000D+00 -.000000000000000D+00 -.124680773262324D+03
 0.671459253579402D+02 0.403722641976577D+02 -.153126934794701D+02 -.120073724907827D+02
 0.706266542587094D+02 0.573275765479857D+02 0.511014493650838D+01 -.409336008389440D+02
 0.111588966907999D+03 -.976998407456435D+02 0.102025485429617D+02 0.529409733297267D+02
 0.000000000000000D+00 -.000000000000000D+00 0.000000000000000D+00 0.000000000000000D+00
 0.124680773262324D+03 0.000000000000000D+00 0.000000000000000D+00 0.124680773262324D+03
 0.124680773262324D+03 -.000000000000000D+00 -.000000000000000D+00 -.124680773262324D+03
 0.662204458778614D+02 0.390766438851305D+02 -.151773951101900D+02 -.113053099297031D+02
 0.691094184340452D+02 0.559700762089129D+02 0.525190528126202D+01 -.401980071194715D+02
 0.785024206434280D+02 -.595428160791674D+02 0.100344693023179D+02 0.501656508585406D+02
 0.355292615693137D+02 -.355039040148760D+02 -.108979473389855D+00 0.133766619063398D+01
-.204352908378D-05 0.000000000000D+00 0.000000000000D+00 0.348221275892D-06 0.000000000000D+00  6 4 22 9900012 -11 3 21 2 0.60593399D-02 0.60722123D-01 0.11810333D+05 0.11810333D+05 0.11810333D+05 0.12019120D+01  1  2 13  2  6  5        3 -.716946163253D-04 0.100000000000D+01
0.106238324269D-05 0.000000000000D+00 0.000000000000D+00 0.348221275892D-06 0.278517017190D-08  6 4 22 9900012 -11 3 21 2 0.60593399D-02 0.60722123D-01 0.11810333D+05 0.11810333D+05 0.11810333D+05 0.12019120D+01  1  2  1  2  6  5        3 0.372723635693D-04 0.100000000000D+01
  </mgrwgt>
  </event>
  <event>
  6     66 0.12453494E-05 0.55987944E+02 0.78161638E-02 0.11715385E+00
        2 -1    0    0  501    0 0.00000000E+00 0.00000000E+00 0.75407802E+03 0.75407802E+03 0.00000000E+00 0.0000E+00 0.9000E+01
       22 -1    0    0    0    0 0.00000000E+00 0.00000000E+00 -.10112518E+02 0.10112518E+02 0.00000000E+00 0.0000E+00 0.9000E+01
       24  2    1    2    0    0 0.62405614E+02 -.24841927E+02 0.36350744E+03 0.37784883E+03 0.78233586E+02 0.0000E+00 0.0000E+00
  9900012  1    3    3    0    0 0.40329507E+02 0.52616898E+01 0.19978047E+03 0.20991996E+03 0.50000000E+02 0.0000E+00 0.9000E+01
      -11  1    3    3    0    0 0.22076108E+02 -.30103617E+02 0.16372698E+03 0.16792887E+03 0.00000000E+00 0.0000E+00 0.9000E+01
        1  1    1    2  501    0 -.62405614E+02 0.24841927E+02 0.38045806E+03 0.38634171E+03 0.00000000E+00 0.0000E+00 0.9000E+01
#aMCatNLO 1  0  0  1  5 0.28234869D+02 0.00000000D+00  -5  6  0 0.00000000D+00 0.00000000D+00 0.00000000D+00 0.00000000D+00 0.00000000D+00
  <mgrwgt>
 0.1920450880D-03    9    2    0
 0.873248397949476D+02 0.000000000000000D+00 0.000000000000000D+00 0.873248397949476D+02
 0.873248397949476D+02 0.000000000000000D+00 0.000000000000000D+00 -.873248397949476D+02
 0.675012497274218D+02 0.403295067801733D+02 0.526168981859417D+01 -.200565255686180D+02
 0.373457923377089D+02 0.220761075976360D+02 -.301036167903119D+02 0.106110075437201D+01
 0.698026375247645D+02 -.624056143778092D+02 0.248419269717177D+02 0.189954248142460D+02
 0.000000000000000D+00 0.000000000000000D+00 -.000000000000000D+00 0.000000000000000D+00
 0.997037710359556D+02 0.000000000000000D+00 0.000000000000000D+00 0.997037710359556D+02
 0.972959375697567D+02 0.000000000000000D+00 0.000000000000000D+00 -.972959375697567D+02
 0.655073236391329D+02 0.354392571851933D+02 0.115327482691332D+02 -.200565255686180D+02
 0.331357853801186D+02 0.194847520318690D+02 -.267805671374400D+02 0.106110075437201D+01
 0.772596844419822D+02 -.678125700516570D+02 0.317755884161112D+02 0.189954248142460D+02
 0.210969151444785D+02 0.128885608345948D+02 -.165277695478044D+02 0.240783346619887D+01
0.331715710538D-06 0.000000000000D+00 0.000000000000D+00 0.373961228510D-07 0.000000000000D+00  6 2 22 9900012 -11 1 21 0 0.11601200D+00 0.15557720D-02 0.71361740D+04 0.71361740D+04 0.71361740D+04 0.12248274D+01  1  2  2  1  6  1        2 0.100083896143D-03 0.100000000000D+01
-.854452964429D-08 0.000000000000D+00 -.636937835609D-09 0.373961228510D-07 0.000000000000D+00  6 2 22 9900012 -11 1 21 2 0.11601200D+00 0.15557720D-02 0.71361740D+04 0.71361740D+04 0.71361740D+04 0.12248274D+01  1  2  3  1  6  1        2 -.386755132696D-05 0.100000000000D+01
-.501583392464D-07 0.000000000000D+00 0.000000000000D+00 0.373961228510D-07 0.000000000000D+00  6 2 22 9900012 -11 1 21 2 0.11601200D+00 0.15557720D-02 0.71361740D+04 0.71361740D+04 0.71361740D+04 0.12248274D+01  1  2 15  1  6  1        2 -.227034090332D-04 0.100000000000D+01
0.196909791795D-06 0.000000000000D+00 0.000000000000D+00 0.373961228510D-07 0.000000000000D+00  6 2 22 9900012 -11 1 21 2 0.14758208D+00 0.15557720D-02 0.91515428D+04 0.91515428D+04 0.91515428D+04 0.12133420D+01  1  2 12  1  6  1        2 0.666796376296D-04 0.100000000000D+01
-.572978143145D-07 0.000000000000D+00 0.000000000000D+00 0.373961228510D-07 0.000000000000D+00  6 2 22 9900012 -11 1 21 2 0.11601200D+00 0.15557720D-02 0.71361740D+04 0.71361740D+04 0.71361740D+04 0.12248274D+01  1  2  4  1  6  1        2 -.259349837860D-04 0.100000000000D+01
-.663488861629D-06 0.000000000000D+00 -.194219803720D-06 0.373961228510D-07 0.000000000000D+00  6 2 22 9900012 -11 1 21 2 0.14362422D+00 0.15557720D-02 0.71361740D+04 0.71361740D+04 0.71361740D+04 0.12248274D+01  1  2  5  1  6  1        2 -.232446628066D-03 0.100000000000D+01
0.693435011592D-06 0.000000000000D+00 0.189875592095D-06 0.373961228510D-07 0.000000000000D+00  6 2 22 9900012 -11 1 21 2 0.11601200D+00 0.15557720D-02 0.71361740D+04 0.71361740D+04 0.71361740D+04 0.12248274D+01  1  2  6  1  6  1        2 0.313872806449D-03 0.100000000000D+01
0.647956146089D-08 0.000000000000D+00 0.000000000000D+00 0.373961228510D-07 0.000000000000D+00  6 21 22 9900012 -11 1 -2 2 0.14758208D+00 0.15557720D-02 0.91515428D+04 0.91515428D+04 0.91515428D+04 0.12133420D+01  1  2 12  3  6  1        2 0.188199195269D-05 0.100000000000D+01
-.174556729925D-07 0.000000000000D+00 -.584184712174D-08 0.373961228510D-07 0.000000000000D+00  6 21 22 9900012 -11 1 -2 2 0.14362422D+00 0.15557720D-02 0.71361740D+04 0.71361740D+04 0.71361740D+04 0.12248274D+01  1  2  5  3  6  1        2 -.552067196447D-05 0.100000000000D+01
  </mgrwgt>
  </event>
  <event>
  7     66 -.12453494E-05 0.20064426E+02 0.78161638E-02 0.12123742E+00
        2 -1    0    0  502    0 0.00000000E+00 0.00000000E+00 0.12783390E+04 0.12783390E+04 0.00000000E+00 0.0000E+00 0.9000E+01
       22 -1    0    0    0    0 0.00000000E+00 0.00000000E+00 -.13169011E+04 0.13169011E+04 0.00000000E+00 0.0000E+00 0.9000E+01
       24  2    1    2    0    0 0.59127542E+02 0.10093597E+01 -.13112419E+04 0.13151279E+04 0.81908751E+02 0.0000E+00 0.0000E+00
  9900012  1    3    3    0    0 0.29649553E+02 0.10104622E+02 -.52941472E+03 0.53269236E+03 0.50000000E+02 0.0000E+00 0.9000E+01
      -11  1    3    3    0    0 0.29477990E+02 -.90952626E+01 -.78182718E+03 0.78243557E+03 0.00000000E+00 0.0000E+00 0.9000E+01
        1  1    1    2  501    0 -.32810226E+02 0.10277152E+02 0.12171339E+04 0.12176194E+04 0.00000000E+00 0.0000E+00 0.9000E+01
       21  1    1    2  502  501 -.26317316E+02 -.11286512E+02 0.55545936E+02 0.62492700E+02 0.00000000E+00 0.0000E+00 0.9000E+01
#aMCatNLO 2  0  0  1  5 0.29441992D+02 0.00000000D+00  -5  6  0 0.00000000D+00 0.00000000D+00 0.00000000D+00 0.00000000D+00 0.00000000D+00
  <mgrwgt>
 -.1319283815D-01    3    2    0
 0.126541819429519D+04 0.000000000000000D+00 0.000000000000000D+00 0.126541819429519D+04
 0.126541819429519D+04 0.000000000000000D+00 0.000000000000000D+00 -.126541819429519D+04
 0.513055151811703D+03 0.243129692054686D+02 0.781596132237033D+01 -.509973900388589D+03
 0.753688502231541D+03 0.216397552824140D+02 -.124567878920357D+02 -.753274789052941D+03
 0.126409273454713D+04 -.459527244878826D+02 0.464082656966537D+01 0.126324868944153D+04
 0.000000000000000D+00 -.000000000000000D+00 -.000000000000000D+00 0.000000000000000D+00
 0.132675375914151D+04 0.000000000000000D+00 0.000000000000000D+00 0.132675375914151D+04
 0.126884582526102D+04 0.000000000000000D+00 0.000000000000000D+00 -.126884582526102D+04
 0.513375669905427D+03 0.296495528134630D+02 0.101046222718488D+02 -.509973900388589D+03
 0.753906216643647D+03 0.294779895735364D+02 -.909526260681734D+01 -.753274789052941D+03
 0.126371649596567D+04 -.328102262130119D+02 0.102771521273172D+02 0.126324868944153D+04
 0.646012018877907D+02 -.263173161739875D+02 -.112865117923487D+02 0.579079338804851D+02
-.133276443649D+00 0.000000000000D+00 0.000000000000D+00 0.153928505218D-01 0.000000000000D+00  6 2 22 9900012 -11 1 21 2 0.19720025D+00 0.20205286D+00 0.58421920D+04 0.58421920D+04 0.58421920D+04 0.12343072D+01  1  2 13  1  6  1        2 -.132674933189D-01 0.100000000000D+01
-.615581736968D-03 0.000000000000D+00 0.000000000000D+00 0.153928505218D-01 0.000000000000D+00  6 2 22 9900012 -11 1 21 2 0.18757563D+00 0.20205286D+00 0.40513229D+04 0.40513229D+04 0.40513229D+04 0.12522669D+01  1  2  8  1  6  1        2 -.679525334370D-04 0.100000000000D+01
0.143630884610D-02 0.000000000000D+00 0.000000000000D+00 0.153928505218D-01 0.124918901194D-05  6 2 22 9900012 -11 1 21 2 0.19666754D+00 0.20260016D+00 0.58421920D+04 0.58421920D+04 0.58421920D+04 0.12343072D+01  1  2  1  1  6  1        2 0.142607698289D-03 0.100000000000D+01
  </mgrwgt>
  </event>
  <event>
  6     66 0.12453494E-05 0.30757125E+02 0.78161638E-02 0.12756026E+00
        4 -1    0    0  501    0 0.00000000E+00 0.00000000E+00 0.20713965E+03 0.20713965E+03 0.00000000E+00 0.0000E+00 0.9000E+01
       22 -1    0    0    0    0 0.00000000E+00 0.00000000E+00 -.44770083E+02 0.44770083E+02 0.00000000E+00 0.0000E+00 0.9000E+01
       24  2    1    2    0    0 0.30857058E+02 -.10407272E+02 0.81154640E+00 0.87102381E+02 0.80781786E+02 0.0000E+00 0.0000E+00
  9900012  1    3    3    0    0 0.42191764E+02 -.27257600E+01 0.15220500E+02 0.67225281E+02 0.50000000E+02 0.0000E+00 0.9000E+01
      -11  1    3    3    0    0 -.11334706E+02 -.76815123E+01 -.14408953E+02 0.19877101E+02 0.00000000E+00 0.0000E+00 0.9000E+01
        3  1    1    2  501    0 -.30857058E+02 0.10407272E+02 0.16155802E+03 0.16480735E+03 0.00000000E+00 0.0000E+00 0.9000E+01
#aMCatNLO 1  0  0  5  1 0.89319288D+01 0.00000000D+00  -5  6  0 0.00000000D+00 0.00000000D+00 0.00000000D+00 0.00000000D+00 0.00000000D+00
  <mgrwgt>
 0.4402896338D-04    8    2    0
 0.962998407522043D+02 0.000000000000000D+00 0.000000000000000D+00 0.962998407522043D+02
 0.962998407522043D+02 -.000000000000000D+00 -.000000000000000D+00 -.962998407522043D+02
 0.750954329450110D+02 0.421917641452889D+02 -.272576004921396D+01 -.367661436604529D+02
 0.381454973661232D+02 -.113347064222709D+02 -.768151232478734D+01 -.356033392820671D+02
 0.793587511932743D+02 -.308570577230180D+02 0.104072723740013D+02 0.723694829425201D+02
 0.000000000000000D+00 -.000000000000000D+00 0.000000000000000D+00 0.000000000000000D+00
 0.962998407522043D+02 0.000000000000000D+00 0.000000000000000D+00 0.962998407522043D+02
 0.962998407522043D+02 -.000000000000000D+00 -.000000000000000D+00 -.962998407522043D+02
 0.742567957779204D+02 0.417014153611351D+02 -.256037832679711D+01 -.356161218959270D+02
 0.376600216725815D+02 -.115835888421090D+02 -.759757084353511D+01 -.350196319111686D+02
 0.650235909044910D+02 -.170590958516736D+02 0.831603369653746D+01 0.621924288510754D+02
 0.156592731494156D+02 -.130587306673525D+02 0.184191547379475D+01 0.844332495602019D+01
0.267505612059D-06 0.000000000000D+00 0.000000000000D+00 0.104999730721D-05 0.000000000000D+00  6 4 22 9900012 -11 3 21 0 0.31867638D-01 0.68877051D-02 0.31212781D+04 0.31212781D+04 0.31212781D+04 0.12655631D+01  1  2  2  2  6  5        3 0.870341213666D-05 0.100000000000D+01
0.112414506375D-07 0.000000000000D+00 -.513645993076D-09 0.104999730721D-05 0.000000000000D+00  6 4 22 9900012 -11 3 21 2 0.31867638D-01 0.68877051D-02 0.31212781D+04 0.31212781D+04 0.31212781D+04 0.12655631D+01  1  2  3  2  6  5        3 0.585796330220D-06 0.100000000000D+01
-.475520625937D-07 0.000000000000D+00 0.000000000000D+00 0.104999730721D-05 0.000000000000D+00  6 4 22 9900012 -11 3 21 2 0.31867638D-01 0.68877051D-02 0.31212781D+04 0.31212781D+04 0.31212781D+04 0.12655631D+01  1  2 15  2  6  5        3 -.247795632965D-05 0.100000000000D+01
0.672783496425D-06 0.000000000000D+00 0.000000000000D+00 0.104999730721D-05 0.000000000000D+00  6 4 22 9900012 -11 3 21 2 0.31867638D-01 0.68877051D-02 0.30900811D+04 0.30900811D+04 0.30900811D+04 0.12660843D+01  1  2 12  2  6  5        3 0.350434280521D-04 0.100000000000D+01
-.100465265015D-06 0.000000000000D+00 0.000000000000D+00 0.104999730721D-05 0.000000000000D+00  6 4 22 9900012 -11 3 21 2 0.31867638D-01 0.68877051D-02 0.31212781D+04 0.31212781D+04 0.31212781D+04 0.12655631D+01  1  2  4  2  6  5        3 -.523528372431D-05 0.100000000000D+01
-.657170968198D-06 0.000000000000D+00 0.000000000000D+00 0.104999730721D-05 0.000000000000D+00  6 4 22 9900012 -11 3 21 2 0.31867638D-01 0.68877051D-02 0.31212781D+04 0.31212781D+04 0.31212781D+04 0.12655631D+01  1  2  5  2  6  5        3 -.342454327213D-04 0.100000000000D+01
0.799336551614D-06 0.000000000000D+00 -.000000000000D+00 0.104999730721D-05 0.000000000000D+00  6 4 22 9900012 -11 3 21 2 0.31867638D-01 0.68877051D-02 0.31212781D+04 0.31212781D+04 0.31212781D+04 0.12655631D+01  1  2  6  2  6  5        3 0.416537361275D-04 0.100000000000D+01
0.242575052946D-10 0.000000000000D+00 0.000000000000D+00 0.104999730721D-05 0.125925097447D-07  6 4 22 9900012 -11 3 21 2 0.31867638D-01 0.68877051D-02 0.30900811D+04 0.30900811D+04 0.30900811D+04 0.12660843D+01  1  2 11  2  6  5        3 0.126350623348D-08 0.100000000000D+01
  </mgrwgt>
  </event>
  <event>
  6     66 -.12453494E-05 0.27322800E+02 0.78161638E-02 0.12840596E+00
        2 -1    0    0  501    0 0.00000000E+00 0.00000000E+00 0.45055073E+03 0.45055073E+03 0.00000000E+00 0.0000E+00 0.9000E+01
       22 -1    0    0    0    0 0.00000000E+00 0.00000000E+00 -.12429642E+03 0.12429642E+03 0.00000000E+00 0.0000E+00 0.9000E+01
       24  2    1    2    0    0 -.15682092E+02 -.22374257E+02 -.10967282E+03 0.13806459E+03 0.79291672E+02 0.0000E+00 0.0000E+00
  9900012  1    3    3    0    0 0.41538815E+01 -.29736565E+02 -.97616918E+02 0.11371271E+03 0.50000000E+02 0.0000E+00 0.9000E+01
      -11  1    3    3    0    0 -.19835973E+02 0.73623075E+01 -.12055901E+02 0.24351882E+02 0.00000000E+00 0.0000E+00 0.9000E+01
        1  1    1    2  501    0 0.15682092E+02 0.22374257E+02 0.43592713E+03 0.43678256E+03 0.00000000E+00 0.0000E+00 0.9000E+01
#aMCatNLO 1  0  0  5  1 0.89319288D+01 0.00000000D+00  -5  6  0 0.00000000D+00 0.00000000D+00 0.00000000D+00 0.00000000D+00 0.00000000D+00
  <mgrwgt>
 -.5334663748D-05    1    2    0
 0.236647082178135D+03 0.000000000000000D+00 0.000000000000000D+00 0.236647082178135D+03
 0.236647082178135D+03 -.000000000000000D+00 -.000000000000000D+00 -.236647082178135D+03
 0.205401577682499D+03 0.415388148989725D+01 -.297365648107024D+02 -.196947429778320D+03
 0.378874301715687D+02 -.198359734450201D+02 0.736230751197227D+01 -.314290940148313D+02
 0.230005156502203D+03 0.156820919551229D+02 0.223742572987302D+02 0.228376523793152D+03
 0.000000000000000D+00 0.000000000000000D+00 0.000000000000000D+00 0.000000000000000D+00
 0.236647082178135D+03 0.000000000000000D+00 0.000000000000000D+00 0.236647082178135D+03
 0.236647082178135D+03 -.000000000000000D+00 -.000000000000000D+00 -.236647082178135D+03
 0.204576077135320D+03 0.421223025023551D+01 -.296533163397327D+02 -.196097703409426D+03
 0.377548225970270D+02 -.198252079029805D+02 0.737766713416067D+01 -.312723166489805D+02
 0.199744033621869D+03 0.199958313468064D+02 0.114727027626495D+02 0.198409230600807D+03
 0.312192310020541D+02 -.438285369406137D+01 0.108029464429225D+02 0.289607894575997D+02
-.214348948751D-06 0.000000000000D+00 0.000000000000D+00 0.661483450847D-04 0.000000000000D+00  6 2 22 9900012 -11 1 21 2 0.69315497D-01 0.19122526D-01 0.28517487D+04 0.28517487D+04 0.28517487D+04 0.12702743D+01  1  2 14  2  6  5        1 -.533466374784D-05 0.100000000000D+01
  </mgrwgt>
  </event>
  <event>
  6     66 0.12453494E-05 0.22607186E+02 0.78161638E-02 0.10712319E+00
        2 -1    0    0  501    0 0.00000000E+00 0.00000000E+00 0.17924824E+03 0.17924824E+03 0.00000000E+00 0.0000E+00 0.9000E+01
       22 -1    0    0    0    0 0.00000000E+00 0.00000000E+00 -.21734189E+03 0.21734189E+03 0.00000000E+00 0.0000E+00 0.9000E+01
       24  2    1    2    0    0 -.33985377E+00 0.22604632E+02 -.20865282E+03 0.22453923E+03 0.79817189E+02 0.0000E+00 0.0000E+00
  9900012  1    3    3    0    0 0.14903489E+01 -.40055617E+01 -.17224529E+03 0.17940654E+03 0.50000000E+02 0.0000E+00 0.9000E+01
      -11  1    3    3    0    0 -.18302027E+01 0.26610193E+02 -.36407522E+02 0.45132690E+02 0.00000000E+00 0.0000E+00 0.9000E+01
        1  1    1    2  501    0 0.33985377E+00 -.22604632E+02 0.17055916E+03 0.17205090E+03 0.00000000E+00 0.0000E+00 0.9000E+01
#aMCatNLO 1  0  0  1  5 0.36356836D+02 0.00000000D+00  -5  6  0 0.00000000D+00 0.00000000D+00 0.00000000D+00 0.00000000D+00 0.00000000D+00
  <mgrwgt>
 0.2382175758D-03    3    2    0
 0.197378195320166D+03 0.000000000000000D+00 0.000000000000000D+00 0.197378195320166D+03
 0.197378195320166D+03 0.000000000000000D+00 0.000000000000000D+00 -.197378195320166D+03
 0.163618407120986D+03 0.149034894969632D+01 -.400556169391828D+01 -.155732840095893D+03
 0.418290479502991D+02 -.183020271483944D+01 0.266101933648342D+02 -.322213782997741D+02
 0.189308935569047D+03 0.339853765143123D+00 -.226046316709159D+02 0.187954218395667D+03
 0.000000000000000D+00 -.000000000000000D+00 0.000000000000000D+00 -.000000000000000D+00
 0.259006257548267D+03 0.000000000000000D+00 0.000000000000000D+00 0.259006257548267D+03
 0.348735763152275D+03 0.000000000000000D+00 0.000000000000000D+00 -.348735763152275D+03
 0.177875535460887D+03 0.499383688454659D+02 -.489198114082479D+02 -.155732840095893D+03
 0.372703897198806D+02 0.939169803401580D+01 0.162068114807477D+02 -.322213782997741D+02
 0.210307285134132D+03 0.570337279373275D+02 -.751632878826762D+02 0.187954218395667D+03
 0.182288810385641D+03 -.116363794816809D+03 0.107876287810176D+03 -.897295056040079D+02
0.147673344306D-04 0.000000000000D+00 0.000000000000D+00 0.416229264100D-04 0.000000000000D+00  6 2 22 9900012 -11 1 21 0 0.27576652D-01 0.33437214D-01 0.24732006D+04 0.24732006D+04 0.24732006D+04 0.12778125D+01  1  2  2  1  6  1        2 0.255926761433D-03 0.100000000000D+01
0.165368418017D-05 0.000000000000D+00 -.283552262709D-07 0.416229264100D-04 0.000000000000D+00  6 2 22 9900012 -11 1 21 2 0.27576652D-01 0.33437214D-01 0.24732006D+04 0.24732006D+04 0.24732006D+04 0.12778125D+01  1  2  3  1  6  1        2 0.467951044746D-04 0.100000000000D+01
-.227950605910D-05 0.000000000000D+00 0.000000000000D+00 0.416229264100D-04 0.000000000000D+00  6 2 22 9900012 -11 1 21 2 0.27576652D-01 0.33437214D-01 0.24732006D+04 0.24732006D+04 0.24732006D+04 0.12778125D+01  1  2 15  1  6  1        2 -.645042901571D-04 0.100000000000D+01
  </mgrwgt>
  </event>
  <event>
  6     66 0.12453494E-05 0.18829061E+02 0.78161638E-02 0.11883899E+00
        2 -1    0    0  501    0 0.00000000E+00 0.00000000E+00 0.84075294E+03 0.84075294E+03 0.00000000E+00 0.0000E+00 0.9000E+01
       22 -1    0    0    0    0 0.00000000E+00 0.00000000E+00 -.99024709E+01 0.99024709E+01 0.00000000E+00 0.0000E+00 0.9000E+01
       24  2    1    2    0    0 -.73041858E+02 0.16445622E+02 0.50492906E+03 0.51624498E+03 0.77135933E+02 0.0000E+00 0.0000E+00
  9900012  1    3    3    0    0 -.49340146E+02 0.30595010E+02 0.42033601E+03 0.42726206E+03 0.50000000E+02 0.0000E+00 0.9000E+01
      -11  1    3    3    0    0 -.23701712E+02 -.14149388E+02 0.84593054E+02 0.88982926E+02 0.00000000E+00 0.0000E+00 0.9000E+01
        1  1    1    2  501    0 0.73041858E+02 -.16445622E+02 0.32592141E+03 0.33441043E+03 0.00000000E+00 0.0000E+00 0.9000E+01
#aMCatNLO 1  0  0  5  1 0.20662177D+02 0.00000000D+00  -5  6  0 0.00000000D+00 0.00000000D+00 0.00000000D+00 0.00000000D+00 0.00000000D+00
  <mgrwgt>
 0.1787267341D-03    7    2    0
 0.912443507388337D+02 0.000000000000000D+00 0.000000000000000D+00 0.912443507388337D+02
 0.912443507388337D+02 -.000000000000000D+00 -.000000000000000D+00 -.912443507388337D+02
 0.779029607317974D+02 -.493401455317412D+02 0.305950100743464D+02 0.140842709515691D+02
 0.296436379831572D+02 -.237017123947017D+02 -.141493882224937D+02 -.108059666557175D+02
 0.749421027627128D+02 0.730418579264429D+02 -.164456218518527D+02 -.327830429585157D+01
 0.000000000000000D+00 0.000000000000000D+00 0.000000000000000D+00 -.000000000000000D+00
 0.912443507388337D+02 0.000000000000000D+00 0.000000000000000D+00 0.912443507388337D+02
 0.912443507388337D+02 -.000000000000000D+00 -.000000000000000D+00 -.912443507388337D+02
 0.735588043781202D+02 -.432060086332603D+02 0.292138883629915D+02 0.138089552912544D+02
 0.281208899070657D+02 -.213622736479157D+02 -.146761207847180D+02 -.109109666147984D+02
 0.585859976731581D+02 0.511535403836079D+02 -.267876735025180D+02 0.990227135077500D+01
 0.222230095193234D+02 0.134147418975682D+02 0.122499059242445D+02 -.128002600272310D+02
0.523718328409D-06 0.000000000000D+00 0.000000000000D+00 0.133811507315D-07 0.000000000000D+00  6 2 22 9900012 -11 1 21 0 0.12934661D+00 0.15234571D-02 0.80186206D+04 0.80186206D+04 0.80186206D+04 0.12194030D+01  1  2  2  2  6  5        1 0.144400070535D-03 0.100000000000D+01
-.225819812673D-07 0.000000000000D+00 -.100560813965D-08 0.133811507315D-07 0.000000000000D+00  6 2 22 9900012 -11 1 21 2 0.12934661D+00 0.15234571D-02 0.80186206D+04 0.80186206D+04 0.80186206D+04 0.12194030D+01  1  2  3  2  6  5        1 -.925819279883D-05 0.100000000000D+01
-.762639471255D-07 0.000000000000D+00 0.000000000000D+00 0.133811507315D-07 0.000000000000D+00  6 2 22 9900012 -11 1 21 2 0.12934661D+00 0.15234571D-02 0.80186206D+04 0.80186206D+04 0.80186206D+04 0.12194030D+01  1  2 15  2  6  5        1 -.312668015145D-04 0.100000000000D+01
0.262568698610D-06 0.000000000000D+00 0.000000000000D+00 0.133811507315D-07 0.000000000000D+00  6 2 22 9900012 -11 1 21 2 0.12934661D+00 0.15234571D-02 0.75758133D+04 0.75758133D+04 0.75758133D+04 0.12220372D+01  1  2 12  2  6  5        1 0.107610639610D-03 0.100000000000D+01
-.160009399148D-06 0.000000000000D+00 0.000000000000D+00 0.133811507315D-07 0.000000000000D+00  6 2 22 9900012 -11 1 21 2 0.12934661D+00 0.15234571D-02 0.80186206D+04 0.80186206D+04 0.80186206D+04 0.12194030D+01  1  2  4  2  6  5        1 -.656008810476D-04 0.100000000000D+01
-.237058297432D-06 0.000000000000D+00 0.000000000000D+00 0.133811507315D-07 0.000000000000D+00  6 2 22 9900012 -11 1 21 2 0.12934661D+00 0.15234571D-02 0.80186206D+04 0.80186206D+04 0.80186206D+04 0.12194030D+01  1  2  5  2  6  5        1 -.971894979548D-04 0.100000000000D+01
0.317164120675D-06 0.000000000000D+00 -.000000000000D+00 0.133811507315D-07 0.000000000000D+00  6 2 22 9900012 -11 1 21 2 0.12934661D+00 0.15234571D-02 0.80186206D+04 0.80186206D+04 0.80186206D+04 0.12194030D+01  1  2  6  2  6  5        1 0.130031397304D-03 0.100000000000D+01
  </mgrwgt>
  </event>
  <event>
  6     66 0.12453494E-05 0.23389819E+02 0.78161638E-02 0.12423199E+00
        2 -1    0    0  501    0 0.00000000E+00 0.00000000E+00 0.12805769E+04 0.12805769E+04 0.00000000E+00 0.0000E+00 0.9000E+01
       22 -1    0    0    0    0 0.00000000E+00 0.00000000E+00 -.64687499E+01 0.64687499E+01 0.00000000E+00 0.0000E+00 0.9000E+01
       24  2    1    2    0    0 -.66082699E+01 -.41541826E+02 0.31948904E+03 0.33150023E+03 0.77780249E+02 0.0000E+00 0.0000E+00
  9900012  1    3    3    0    0 0.83990582E+01 -.17753357E+02 0.26259563E+03 0.26803393E+03 0.50000000E+02 0.0000E+00 0.9000E+01
      -11  1    3    3    0    0 -.15007328E+02 -.23788469E+02 0.56893410E+02 0.63466301E+02 0.00000000E+00 0.0000E+00 0.9000E+01
        1  1    1    2  501    0 0.66082699E+01 0.41541826E+02 0.95461910E+03 0.95554541E+03 0.00000000E+00 0.0000E+00 0.9000E+01
#aMCatNLO 1  0  0  5  1 0.15212290D+02 0.00000000D+00  -5  6  0 0.00000000D+00 0.00000000D+00 0.00000000D+00 0.00000000D+00 0.00000000D+00
  <mgrwgt>
 0.1460789727D-03    5    2    0
 0.910150074211063D+02 0.000000000000000D+00 0.000000000000000D+00 0.910150074211063D+02
 0.910150074211063D+02 -.000000000000000D+00 -.000000000000000D+00 -.910150074211063D+02
 0.571151894211547D+02 0.839905822413575D+01 -.177533572772384D+02 -.194015202741611D+02
 0.505173168868948D+02 -.150073281354660D+02 -.237884688128027D+02 -.419629379241696D+02
 0.743975085341632D+02 0.660826991133026D+01 0.415418260900411D+02 0.613644581983307D+02
 0.000000000000000D+00 0.000000000000000D+00 0.000000000000000D+00 0.000000000000000D+00
 0.910150074211063D+02 0.000000000000000D+00 0.000000000000000D+00 0.910150074211063D+02
 0.910150074211063D+02 -.000000000000000D+00 -.000000000000000D+00 -.910150074211063D+02
 0.562158435403283D+02 0.858678368999001D+01 -.165732513251769D+02 -.176582997857811D+02
 0.487157751891475D+02 -.148429549893705D+02 -.227551634635062D+02 -.404365673025320D+02
 0.292166495154788D+02 -.124031643120895D+02 0.117053370664575D+02 0.237225464088122D+02
 0.478817465972580D+02 0.186593356114700D+02 0.276230777222255D+02 0.343723206795009D+02
0.691906409111D-06 0.000000000000D+00 0.000000000000D+00 0.228534578824D-06 0.000000000000D+00  6 2 22 9900012 -11 1 21 0 0.19701183D+00 0.99519229D-03 0.38384096D+04 0.38384096D+04 0.38384096D+04 0.12549833D+01  1  2  2  2  6  5        1 0.180534252257D-03 0.100000000000D+01
0.121394295198D-07 0.000000000000D+00 -.132855139706D-08 0.228534578824D-06 0.000000000000D+00  6 2 22 9900012 -11 1 21 2 0.19701183D+00 0.99519229D-03 0.38384096D+04 0.38384096D+04 0.38384096D+04 0.12549833D+01  1  2  3  2  6  5        1 0.498868908673D-05 0.100000000000D+01
-.122486230596D-06 0.000000000000D+00 0.000000000000D+00 0.228534578824D-06 0.000000000000D+00  6 2 22 9900012 -11 1 21 2 0.19701183D+00 0.99519229D-03 0.38384096D+04 0.38384096D+04 0.38384096D+04 0.12549833D+01  1  2 15  2  6  5        1 -.503356208666D-04 0.100000000000D+01
0.281127714325D-06 0.000000000000D+00 0.000000000000D+00 0.228534578824D-06 0.000000000000D+00  6 2 22 9900012 -11 1 21 2 0.19701183D+00 0.99519229D-03 0.42855235D+04 0.42855235D+04 0.42855235D+04 0.12494580D+01  1  2 12  2  6  5        1 0.115505741573D-03 0.100000000000D+01
-.254566949757D-06 0.000000000000D+00 0.000000000000D+00 0.228534578824D-06 0.000000000000D+00  6 2 22 9900012 -11 1 21 2 0.19701183D+00 0.99519229D-03 0.38384096D+04 0.38384096D+04 0.38384096D+04 0.12549833D+01  1  2  5  2  6  5        1 -.104614089321D-03 0.100000000000D+01
  </mgrwgt>
  </event>
  <event>
  7     66 -.12453494E-05 0.10490632E+02 0.78161638E-02 0.12663469E+00
        2 -1    0    0  502    0 0.00000000E+00 0.00000000E+00 0.28110833E+04 0.28110833E+04 0.00000000E+00 0.0000E+00 0.9000E+01
       22 -1    0    0    0    0 0.00000000E+00 0.00000000E+00 -.17293362E+03 0.17293362E+03 0.00000000E+00 0.0000E+00 0.9000E+01
       24  2    1    2    0    0 -.43222086E+01 0.22755006E+02 -.16204838E+03 0.18304239E+03 0.81904642E+02 0.0000E+00 0.0000E+00
  9900012  1    3    3    0    0 -.22507804E+02 -.60364981E+00 -.11586080E+03 0.12818226E+03 0.50000000E+02 0.0000E+00 0.9000E+01
      -11  1    3    3    0    0 0.18185596E+02 0.23358656E+02 -.46187572E+02 0.54860136E+02 0.00000000E+00 0.0000E+00 0.9000E+01
        1  1    1    2  501    0 -.79978786E+01 -.15673168E+02 0.26599841E+04 0.26600423E+04 0.00000000E+00 0.0000E+00 0.9000E+01
       21  1    1    2  502  501 0.12320087E+02 -.70818382E+01 0.14021398E+03 0.14093224E+03 0.00000000E+00 0.0000E+00 0.9000E+01
#aMCatNLO 2  0  0  1  5 0.14502521D+02 0.00000000D+00  -5  6  0 0.00000000D+00 0.00000000D+00 0.00000000D+00 0.00000000D+00 0.00000000D+00
  <mgrwgt>
 -.3117902961D-02    5    2    0
 0.678830933078545D+03 0.000000000000000D+00 0.000000000000000D+00 0.678830933078545D+03
 0.678830933078545D+03 0.000000000000000D+00 0.000000000000000D+00 -.678830933078545D+03
 0.481395882320114D+03 -.181387098200281D+02 -.311509475252571D+01 -.478438375243362D+03
 0.199905610817671D+03 0.199993417092277D+02 0.223160772767727D+02 -.197646837218714D+03
 0.676360373019306D+03 -.186063188919959D+01 -.192009825242470D+02 0.676085212462076D+03
 0.000000000000000D+00 0.000000000000000D+00 -.000000000000000D+00 0.000000000000000D+00
 0.714603086741116D+03 0.000000000000000D+00 0.000000000000000D+00 0.714603086741116D+03
 0.680280857409729D+03 0.000000000000000D+00 0.000000000000000D+00 -.680280857409729D+03
 0.481570601838916D+03 -.225078043552317D+02 -.603649810573756D+00 -.478438375243362D+03
 0.199851482220368D+03 0.181855957904103D+02 0.233586555449007D+02 -.197646837218714D+03
 0.676314149454591D+03 -.799787857563132D+01 -.156731675447453D+02 0.676085212462076D+03
 0.371477106369703D+02 0.123200871404527D+02 -.708183818958166D+01 0.343222293313869D+02
-.449388992262D-02 0.000000000000D+00 0.000000000000D+00 0.133553870012D-02 0.000000000000D+00  6 2 22 9900012 -11 1 21 2 0.43339808D+00 0.26548466D-01 0.33782369D+04 0.33782369D+04 0.33782369D+04 0.12614826D+01  1  2 13  1  6  1        2 -.316465539622D-02 0.100000000000D+01
-.993178128852D-05 0.000000000000D+00 0.000000000000D+00 0.133553870012D-02 0.000000000000D+00  6 2 22 9900012 -11 1 21 2 0.41082522D+00 0.26548466D-01 0.26284520D+04 0.26284520D+04 0.26284520D+04 0.12745739D+01  1  2  8  1  6  1        2 -.868952982840D-05 0.100000000000D+01
-.233948625012D-03 0.000000000000D+00 0.000000000000D+00 0.133553870012D-02 0.000000000000D+00  6 2 22 9900012 -11 1 21 2 0.43273519D+00 0.26548466D-01 0.26284520D+04 0.26284520D+04 0.26284520D+04 0.12745739D+01  1  2  9  1  6  1        2 -.170077502634D-03 0.100000000000D+01
0.233633190833D-03 0.000000000000D+00 0.000000000000D+00 0.133553870012D-02 0.000000000000D+00  6 2 22 9900012 -11 1 21 2 0.41082522D+00 0.26548466D-01 0.26284520D+04 0.26284520D+04 0.26284520D+04 0.12745739D+01  1  2 10  1  6  1        2 0.204410721669D-03 0.100000000000D+01
0.298335861425D-04 0.000000000000D+00 0.000000000000D+00 0.133553870012D-02 0.399578341370D-06  6 2 22 9900012 -11 1 21 2 0.43247436D+00 0.26605172D-01 0.33782369D+04 0.33782369D+04 0.33782369D+04 0.12614826D+01  1  2  1  1  6  1        2 0.211087461730D-04 0.100000000000D+01
  </mgrwgt>
  </event>
  <event>
  6     66 0.12453494E-05 0.57300900E+02 0.78161638E-02 0.11070724E+00
        2 -1    0    0  501    0 0.00000000E+00 0.00000000E+00 0.10374831E+04 0.10374831E+04 0.00000000E+00 0.0000E+00 0.9000E+01
       22 -1    0    0    0    0 0.00000000E+00 0.00000000E+00 -.15788302E+03 0.15788302E+03 0.00000000E+00 0.0000E+00 0.9000E+01
       24  2    1    2    0    0 -.28106916E+02 0.49933900E+02 -.14224982E+03 0.17191088E+03 0.77684913E+02 0.0000E+00 0.0000E+00
  9900012  1    3    3    0    0 -.37416935E+02 0.55819830E+02 -.13447796E+03 0.15843043E+03 0.50000000E+02 0.0000E+00 0.9000E+01
      -11  1    3    3    0    0 0.93100187E+01 -.58859300E+01 -.77718643E+01 0.13480449E+02 0.00000000E+00 0.0000E+00 0.9000E+01
        1  1    1    2  501    0 0.28106916E+02 -.49933900E+02 0.10218499E+04 0.10234553E+04 0.00000000E+00 0.0000E+00 0.9000E+01
#aMCatNLO 1  0  0  5  1 0.43827837D+01 0.00000000D+00  -5  6  0 0.00000000D+00 0.00000000D+00 0.00000000D+00 0.00000000D+00 0.00000000D+00
  <mgrwgt>
 0.1580353960D-02    4    2    0
 0.404723324686273D+03 0.000000000000000D+00 0.000000000000000D+00 0.404723324686273D+03
 0.404723324686273D+03 -.000000000000000D+00 -.000000000000000D+00 -.404723324686273D+03
 0.380098190968198D+03 -.374169347617001D+02 0.558198304801541D+02 -.370754304486815D+03
 0.283529554728367D+02 0.931001865399743D+01 -.588593001104644D+01 -.261260304028749D+02
 0.400995502931512D+03 0.281069161077027D+02 -.499339004691076D+02 0.396880334889690D+03
 0.000000000000000D+00 0.000000000000000D+00 0.000000000000000D+00 0.000000000000000D+00
 0.404723324686273D+03 0.000000000000000D+00 0.000000000000000D+00 0.404723324686273D+03
 0.404723324686273D+03 -.000000000000000D+00 -.000000000000000D+00 -.404723324686273D+03
 0.340401580309746D+03 -.346049347966420D+02 0.508241160504281D+02 -.331047796538181D+03
 0.257955359898899D+02 0.952135190096164D+01 -.626137829143720D+01 -.231419246579726D+02
 0.109586085318131D+03 0.104394535791573D+03 -.926067394516268D+01 0.320176655972288D+02
 0.333663447754780D+03 -.793109528958928D+02 -.353020638138282D+02 0.322172055598925D+03
0.568977341047D-03 0.000000000000D+00 0.000000000000D+00 0.103116215553D-03 0.000000000000D+00  6 2 22 9900012 -11 1 21 0 0.15961279D+00 0.24289695D-01 0.57818015D+04 0.57818015D+04 0.57818015D+04 0.12348058D+01  1  2  2  2  6  5        1 0.247813280809D-02 0.100000000000D+01
0.202546800101D-04 0.000000000000D+00 -.109251140240D-05 0.103116215553D-03 0.000000000000D+00  6 2 22 9900012 -11 1 21 2 0.15961279D+00 0.24289695D-01 0.57818015D+04 0.57818015D+04 0.57818015D+04 0.12348058D+01  1  2  3  2  6  5        1 0.134509307994D-03 0.100000000000D+01
-.999443434282D-04 0.000000000000D+00 0.000000000000D+00 0.103116215553D-03 0.000000000000D+00  6 2 22 9900012 -11 1 21 2 0.15961279D+00 0.24289695D-01 0.57818015D+04 0.57818015D+04 0.57818015D+04 0.12348058D+01  1  2 15  2  6  5        1 -.663720407616D-03 0.100000000000D+01
-.554996670832D-04 0.000000000000D+00 0.000000000000D+00 0.103116215553D-03 0.000000000000D+00  6 2 22 9900012 -11 1 21 2 0.15961279D+00 0.24289695D-01 0.57818015D+04 0.57818015D+04 0.57818015D+04 0.12348058D+01  1  2  5  2  6  5        1 -.368567748764D-03 0.100000000000D+01
  </mgrwgt>
  </event>
  <event>
  6     66 0.12453494E-05 0.17237037E+02 0.78161638E-02 0.12452490E+00
        2 -1    0    0  501    0 0.00000000E+00 0.00000000E+00 0.17105653E+02 0.17105653E+02 0.00000000E+00 0.0000E+00 0.9000E+01
       22 -1    0    0    0    0 0.00000000E+00 0.00000000E+00 -.23220881E+03 0.23220881E+03 0.00000000E+00 0.0000E+00 0.9000E+01
       24  2    1    2    0    0 0.17178476E+02 0.14196515E+01 -.21906720E+03 0.23162749E+03 0.73237561E+02 0.0000E+00 0.0000E+00
  9900012  1    3    3    0    0 0.12862398E+02 -.15412967E+02 -.12735264E+03 0.13828122E+03 0.50000000E+02 0.0000E+00 0.9000E+01
      -11  1    3    3    0    0 0.43160783E+01 0.16832619E+02 -.91714557E+02 0.93346267E+02 0.00000000E+00 0.0000E+00 0.9000E+01
        1  1    1    2  501    0 -.17178476E+02 -.14196515E+01 0.39640423E+01 0.17686975E+02 0.00000000E+00 0.0000E+00 0.9000E+01
#aMCatNLO 1  0  0  1  5 0.27180137D+02 0.00000000D+00  -5  6  0 0.00000000D+00 0.00000000D+00 0.00000000D+00 0.00000000D+00 0.00000000D+00
  <mgrwgt>
 0.9749229715D-04    7    2    0
 0.630244667336897D+02 0.000000000000000D+00 0.000000000000000D+00 0.630244667336897D+02
 0.630244667336897D+02 0.000000000000000D+00 0.000000000000000D+00 -.630244667336897D+02
 0.561809852169357D+02 0.128623976070595D+02 -.154129670174286D+02 -.159154728319054D+02
 0.281199022346998D+02 0.431607830135906D+01 0.168326185099155D+02 -.221079923078796D+02
 0.417480460157440D+02 -.171784759084185D+02 -.141965149248687D+01 0.380234651397849D+02
 0.000000000000000D+00 0.000000000000000D+00 0.000000000000000D+00 0.000000000000000D+00
 0.991053565923372D+02 0.000000000000000D+00 0.000000000000000D+00 0.991053565923372D+02
 0.735576512939539D+02 0.000000000000000D+00 0.000000000000000D+00 -.735576512939539D+02
 0.586995770244001D+02 0.237277379451196D+01 -.262051142317763D+02 -.159154728319054D+02
 0.250821986708172D+02 -.541749808532138D+00 0.118346894096144D+02 -.221079923078796D+02
 0.466693360572755D+02 -.252517744572877D+02 -.972578601187305D+01 0.380234651397849D+02
 0.422118961337983D+02 0.234207504713079D+02 0.240962108340349D+02 0.255477052983833D+02
0.282396511758D-06 0.000000000000D+00 0.000000000000D+00 0.115254760572D-07 0.000000000000D+00  6 2 22 9900012 -11 1 21 0 0.26316390D-02 0.35724433D-01 0.19577836D+04 0.19577836D+04 0.19577836D+04 0.12904841D+01  1  2  2  1  6  1        2 0.734075853251D-04 0.100000000000D+01
0.220248869564D-07 0.000000000000D+00 -.542238480929D-09 0.115254760572D-07 0.000000000000D+00  6 2 22 9900012 -11 1 21 2 0.26316390D-02 0.35724433D-01 0.19577836D+04 0.19577836D+04 0.19577836D+04 0.12904841D+01  1  2  3  1  6  1        2 0.953455891587D-05 0.100000000000D+01
-.442003271104D-07 0.000000000000D+00 0.000000000000D+00 0.115254760572D-07 0.000000000000D+00  6 2 22 9900012 -11 1 21 2 0.26316390D-02 0.35724433D-01 0.19577836D+04 0.19577836D+04 0.19577836D+04 0.12904841D+01  1  2 15  1  6  1        2 -.191342922108D-04 0.100000000000D+01
-.901719336118D-08 0.000000000000D+00 0.000000000000D+00 0.115254760572D-07 0.000000000000D+00  6 2 22 9900012 -11 1 21 2 0.26316390D-02 0.35724433D-01 0.19577836D+04 0.19577836D+04 0.19577836D+04 0.12904841D+01  1  2  4  1  6  1        2 -.390353700921D-05 0.100000000000D+01
-.130613102650D-06 0.000000000000D+00 -.917941459284D-07 0.115254760572D-07 0.000000000000D+00  6 2 22 9900012 -11 1 21 2 0.48209457D-02 0.35724433D-01 0.19577836D+04 0.19577836D+04 0.19577836D+04 0.12904841D+01  1  2  5  1  6  1        2 -.259556784605D-04 0.100000000000D+01
0.168867924200D-06 0.000000000000D+00 0.772095130035D-07 0.115254760572D-07 0.000000000000D+00  6 2 22 9900012 -11 1 21 2 0.26316390D-02 0.35724433D-01 0.19577836D+04 0.19577836D+04 0.19577836D+04 0.12904841D+01  1  2  6  1  6  1        2 0.731028120812D-04 0.100000000000D+01
-.363418438576D-08 0.000000000000D+00 -.607243935737D-08 0.115254760572D-07 0.000000000000D+00  6 21 22 9900012 -11 1 -2 2 0.48209457D-02 0.35724433D-01 0.19577836D+04 0.19577836D+04 0.19577836D+04 0.12904841D+01  1  2  5  3  6  1        2 -.955915149172D-05 0.100000000000D+01
  </mgrwgt>
  </event>
  <event>
  7     66 -.12453494E-05 0.32357099E+02 0.78161638E-02 0.12474507E+00
        2 -1    0    0  501    0 0.00000000E+00 0.00000000E+00 0.16416935E+02 0.16416935E+02 0.00000000E+00 0.0000E+00 0.9000E+01
       22 -1    0    0    0    0 -.00000000E+00 -.00000000E+00 -.30894737E+03 0.30894737E+03 0.00000000E+00 0.0000E+00 0.9000E+01
       24  2    1    2    0    0 -.14084401E+02 -.33753276E+02 -.25838897E+03 0.27352744E+03 0.81943562E+02 0.0000E+00 0.0000E+00
  9900012  1    3    3    0    0 -.49196243E+01 -.50121932E+02 -.20288611E+03 0.21493996E+03 0.50000000E+02 0.0000E+00 0.9000E+01
      -11  1    3    3    0    0 -.91647767E+01 0.16368656E+02 -.55502859E+02 0.58587485E+02 0.00000000E+00 0.0000E+00 0.9000E+01
        1  1    1    2  502    0 0.14410947E+02 0.23219650E+02 -.18593012E+02 0.33053405E+02 0.00000000E+00 0.0000E+00 0.9000E+01
       21  1    1    2  501  502 -.32654577E+00 0.10533626E+02 -.15548453E+02 0.18783458E+02 0.00000000E+00 0.0000E+00 0.9000E+01
#aMCatNLO 2  0  0  5  1 0.56806693D+01 0.00000000D+00  -5  6  0 0.00000000D+00 0.00000000D+00 0.00000000D+00 0.00000000D+00 0.00000000D+00
  <mgrwgt>
 -.5324512199D-04    2    2    0
 0.712177571087986D+02 0.000000000000000D+00 0.000000000000000D+00 0.712177571087986D+02
 0.712177571087986D+02 -.000000000000000D+00 -.000000000000000D+00 -.712177571087986D+02
 0.750174375506104D+02 -.523102263643218D+01 -.508681984578514D+02 -.226424098648863D+02
 0.197715032193158D+02 -.924738503651011D+01 0.161706853420004D+02 -.662624668330087D+01
 0.476465734476710D+02 0.144784076729423D+02 0.346975131158510D+02 0.292686565481872D+02
 0.000000000000000D+00 0.000000000000000D+00 0.000000000000000D+00 0.000000000000000D+00
 0.712177571087986D+02 0.000000000000000D+00 0.000000000000000D+00 0.712177571087986D+02
 0.712177571087986D+02 -.000000000000000D+00 -.000000000000000D+00 -.712177571087986D+02
 0.743032894916324D+02 -.491962431530426D+01 -.501219321849531D+02 -.220129062125055D+02
 0.198405634802348D+02 -.916477673884787D+01 0.163686561794269D+02 -.645925084046209D+01
 0.373177749984714D+02 0.144109468261056D+02 0.232196497825185D+02 0.254123750639110D+02
 0.109738862472587D+02 -.326545771953441D+00 0.105336262230077D+02 0.305978198905668D+01
-.344603769279D-06 0.000000000000D+00 0.000000000000D+00 0.532853544073D-07 0.000000000000D+00  6 2 22 9900012 -11 1 21 2 0.25256823D-02 0.47530364D-01 0.40700698D+04 0.40700698D+04 0.40700698D+04 0.12520355D+01  1  2 13  2  6  5        1 -.102594223856D-03 0.100000000000D+01
0.165758713058D-06 0.000000000000D+00 0.000000000000D+00 0.532853544073D-07 0.430925364165D-08  6 2 22 9900012 -11 1 21 2 0.25256823D-02 0.47530364D-01 0.40700698D+04 0.40700698D+04 0.40700698D+04 0.12520355D+01  1  2  1  2  6  5        1 0.493491018661D-04 0.100000000000D+01
  </mgrwgt>
  </event>
  <event>
  6     66 0.12453494E-05 0.18911857E+02 0.78161638E-02 0.12220286E+00
        2 -1    0    0  501    0 0.00000000E+00 0.00000000E+00 0.70595160E+03 0.70595160E+03 0.00000000E+00 0.0000E+00 0.9000E+01
       22 -1    0    0    0    0 0.00000000E+00 0.00000000E+00 -.23790887E+02 0.23790887E+02 0.00000000E+00 0.0000E+00 0.9000E+01
       24  2    1    2    0    0 -.10393216E+02 0.15799981E+02 0.43144648E+02 0.90446633E+02 0.77210585E+02 0.0000E+00 0.0000E+00
  9900012  1    3    3    0    0 -.93203644E+01 0.33100400E+02 0.25847897E+02 0.65959226E+02 0.50000000E+02 0.0000E+00 0.9000E+01
      -11  1    3    3    0    0 -.10728516E+01 -.17300419E+02 0.17296751E+02 0.24487407E+02 0.00000000E+00 0.0000E+00 0.9000E+01
        1  1    1    2  501    0 0.10393216E+02 -.15799981E+02 0.63901607E+03 0.63929586E+03 0.00000000E+00 0.0000E+00 0.9000E+01
#aMCatNLO 1  0  0  5  1 0.58207009D+01 0.00000000D+00  -5  6  0 0.00000000D+00 0.00000000D+00 0.00000000D+00 0.00000000D+00 0.00000000D+00
  <mgrwgt>
 0.1940883020D-03    4    2    0
 0.129596353845973D+03 0.000000000000000D+00 0.000000000000000D+00 0.129596353845973D+03
 0.129596353845973D+03 -.000000000000000D+00 -.000000000000000D+00 -.129596353845973D+03
 0.117676264660682D+03 -.932036442420860D+01 0.331004002111155D+02 -.100822604495990D+03
 0.234201704619511D+02 -.107285161337362D+01 -.173004191182117D+02 -.157495673660182D+02
 0.118096272569313D+03 0.103932160375822D+02 -.157999810929038D+02 0.116572171862008D+03
 0.000000000000000D+00 0.000000000000000D+00 0.000000000000000D+00 -.000000000000000D+00
 0.129596353845973D+03 0.000000000000000D+00 0.000000000000000D+00 0.129596353845973D+03
 0.129596353845973D+03 -.000000000000000D+00 -.000000000000000D+00 -.129596353845973D+03
 0.101761378045279D+03 -.771359983842922D+01 0.306577635927423D+02 -.828008452293717D+02
 0.215137321812768D+02 -.743836943977360D+00 -.178005939954538D+02 -.120592799278187D+02
 0.102337101791480D+03 0.334350641301739D+02 0.954458720541105D+01 0.962490506174952D+02
 0.335804956739103D+02 -.249776273477673D+02 -.224017568026995D+02 -.138892546030486D+01
0.215204012094D-05 0.000000000000D+00 0.000000000000D+00 0.120666263080D-05 0.000000000000D+00  6 2 22 9900012 -11 1 21 0 0.10860794D+00 0.36601365D-02 0.23488156D+04 0.23488156D+04 0.23488156D+04 0.12805770D+01  1  2  2  2  6  5        1 0.203137380166D-03 0.100000000000D+01
0.285002613304D-06 0.000000000000D+00 -.413220035479D-08 0.120666263080D-05 0.000000000000D+00  6 2 22 9900012 -11 1 21 2 0.10860794D+00 0.36601365D-02 0.23488156D+04 0.23488156D+04 0.23488156D+04 0.12805770D+01  1  2  3  2  6  5        1 0.441163629232D-04 0.100000000000D+01
-.339210224922D-06 0.000000000000D+00 0.000000000000D+00 0.120666263080D-05 0.000000000000D+00  6 2 22 9900012 -11 1 21 2 0.10860794D+00 0.36601365D-02 0.23488156D+04 0.23488156D+04 0.23488156D+04 0.12805770D+01  1  2 15  2  6  5        1 -.525073128853D-04 0.100000000000D+01
-.425167109980D-08 0.000000000000D+00 0.000000000000D+00 0.120666263080D-05 0.000000000000D+00  6 2 22 9900012 -11 1 21 2 0.10860794D+00 0.36601365D-02 0.23488156D+04 0.23488156D+04 0.23488156D+04 0.12805770D+01  1  2  4  2  6  5        1 -.658128229401D-06 0.100000000000D+01
  </mgrwgt>
  </event>
  <event>
  6     66 0.12453494E-05 0.28865783E+02 0.78161638E-02 0.12578663E+00
        2 -1    0    0  501    0 0.00000000E+00 0.00000000E+00 0.58741224E+03 0.58741224E+03 0.00000000E+00 0.0000E+00 0.9000E+01
       22 -1    0    0    0    0 0.00000000E+00 0.00000000E+00 -.35706714E+02 0.35706714E+02 0.00000000E+00 0.0000E+00 0.9000E+01
       24  2    1    2    0    0 0.27745955E+02 -.79621224E+01 0.24424557E+02 0.95048453E+02 0.87203303E+02 0.0000E+00 0.0000E+00
  9900012  1    3    3    0    0 0.20331316E+02 -.33307001E+02 0.79438748E+01 0.63920450E+02 0.50000000E+02 0.0000E+00 0.9000E+01
      -11  1    3    3    0    0 0.74146390E+01 0.25344878E+02 0.16480682E+02 0.31128004E+02 0.00000000E+00 0.0000E+00 0.9000E+01
        1  1    1    2  501    0 -.27745955E+02 0.79621224E+01 0.52728097E+03 0.52807050E+03 0.00000000E+00 0.0000E+00 0.9000E+01
#aMCatNLO 1  0  0  1  5 0.48158391D+01 0.00000000D+00  -5  6  0 0.00000000D+00 0.00000000D+00 0.00000000D+00 0.00000000D+00 0.00000000D+00
  <mgrwgt>
 0.8207313536D-04    8    2    0
 0.144825967985334D+03 0.000000000000000D+00 0.000000000000000D+00 0.144825967985334D+03
 0.144825967985334D+03 0.000000000000000D+00 0.000000000000000D+00 -.144825967985334D+03
 0.122379172387990D+03 0.203313160547098D+02 -.333070008689637D+02 -.104661086918528D+03
 0.355736128806522D+02 0.741463897388476D+01 0.253448784997858D+02 -.238357335968615D+02
 0.131699150702025D+03 -.277459550285946D+02 0.796212236917791D+01 0.128496820515389D+03
 0.000000000000000D+00 -.000000000000000D+00 0.000000000000000D+00 -.000000000000000D+00
 0.146374504333655D+03 0.000000000000000D+00 0.000000000000000D+00 0.146374504333655D+03
 0.146594555231183D+03 0.000000000000000D+00 0.000000000000000D+00 -.146594555231183D+03
 0.122742640869435D+03 0.216231890522989D+02 -.338267714664599D+02 -.104661086918528D+03
 0.355465778020052D+02 0.778946589240881D+01 0.251940710970747D+02 -.238357335968615D+02
 0.131381413619169D+03 -.263594334754103D+02 0.740427098790051D+01 0.128496820515389D+03
 0.329842727422884D+01 -.305322146929743D+01 0.122842938148468D+01 -.220050897528549D+00
0.102791369993D-05 0.000000000000D+00 0.000000000000D+00 0.145378886005D-06 0.000000000000D+00  6 2 22 9900012 -11 1 21 0 0.90371114D-01 0.54933406D-02 0.35222967D+04 0.35222967D+04 0.35222967D+04 0.12593457D+01  1  2  2  1  6  1        2 0.704641083951D-04 0.100000000000D+01
0.915032981922D-07 0.000000000000D+00 -.197372963180D-08 0.145378886005D-06 0.000000000000D+00  6 2 22 9900012 -11 1 21 2 0.90371114D-01 0.54933406D-02 0.35222967D+04 0.35222967D+04 0.35222967D+04 0.12593457D+01  1  2  3  1  6  1        2 0.994805043210D-05 0.100000000000D+01
-.157723590141D-06 0.000000000000D+00 0.000000000000D+00 0.145378886005D-06 0.000000000000D+00  6 2 22 9900012 -11 1 21 2 0.90371114D-01 0.54933406D-02 0.35222967D+04 0.35222967D+04 0.35222967D+04 0.12593457D+01  1  2 15  1  6  1        2 -.171473844118D-04 0.100000000000D+01
0.133777010530D-06 0.000000000000D+00 0.000000000000D+00 0.145378886005D-06 0.000000000000D+00  6 2 22 9900012 -11 1 21 2 0.92452793D-01 0.54933406D-02 0.36702312D+04 0.36702312D+04 0.36702312D+04 0.12572515D+01  1  2 12  1  6  1        2 0.141885551286D-04 0.100000000000D+01
-.405203597245D-07 0.000000000000D+00 0.000000000000D+00 0.145378886005D-06 0.000000000000D+00  6 2 22 9900012 -11 1 21 2 0.90371114D-01 0.54933406D-02 0.35222967D+04 0.35222967D+04 0.35222967D+04 0.12593457D+01  1  2  4  1  6  1        2 -.440529019204D-05 0.100000000000D+01
0.423040524815D-07 0.000000000000D+00 0.000000000000D+00 0.145378886005D-06 0.164342724510D-08  6 2 22 9900012 -11 1 21 2 0.91337398D-01 0.55604243D-02 0.36702312D+04 0.36702312D+04 0.36702312D+04 0.12572515D+01  1  2 11  1  6  1        2 0.447091882177D-05 0.100000000000D+01
0.709162838921D-08 0.000000000000D+00 0.000000000000D+00 0.145378886005D-06 0.000000000000D+00  6 21 22 9900012 -11 1 -2 2 0.92452793D-01 0.54933406D-02 0.36702312D+04 0.36702312D+04 0.36702312D+04 0.12572515D+01  1  2 12  3  6  1        2 0.128670406286D-05 0.100000000000D+01
0.177931777218D-07 0.000000000000D+00 0.000000000000D+00 0.145378886005D-06 0.617198395540D-09  6 21 22 9900012 -11 1 -2 2 0.91337398D-01 0.55604243D-02 0.36702312D+04 0.36702312D+04 0.36702312D+04 0.12572515D+01  1  2 11  3  6  1        2 0.326747312094D-05 0.100000000000D+01
  </mgrwgt>
  </event>
  <event>
  6     66 0.12453494E-05 0.13597099E+02 0.78161638E-02 0.12856630E+00
        2 -1    0    0  501    0 0.00000000E+00 0.00000000E+00 0.11225712E+04 0.11225712E+04 0.00000000E+00 0.0000E+00 0.9000E+01
       22 -1    0    0    0    0 0.00000000E+00 0.00000000E+00 -.60253102E+01 0.60253102E+01 0.00000000E+00 0.0000E+00 0.9000E+01
       24  2    1    2    0    0 -.10212023E+02 -.89775102E+01 0.25795561E+03 0.26989857E+03 0.78225706E+02 0.0000E+00 0.0000E+00
  9900012  1    3    3    0    0 -.23586637E+02 0.11405668E+01 0.13625386E+03 0.14704674E+03 0.50000000E+02 0.0000E+00 0.9000E+01
      -11  1    3    3    0    0 0.13374613E+02 -.10118077E+02 0.12170175E+03 0.12285183E+03 0.00000000E+00 0.0000E+00 0.9000E+01
        1  1    1    2  501    0 0.10212023E+02 0.89775102E+01 0.85859033E+03 0.85869798E+03 0.00000000E+00 0.0000E+00 0.9000E+01
#aMCatNLO 1  0  0  5  5 0.17024139D+02 0.00000000D+00  -5  6  0 0.00000000D+00 0.00000000D+00 0.00000000D+00 0.00000000D+00 0.00000000D+00
  <mgrwgt>
 0.5072465808D-04    6    2    0
 0.822425679554428D+02 0.000000000000000D+00 0.000000000000000D+00 0.822425679554428D+02
 0.822425679554428D+02 -.000000000000000D+00 -.000000000000000D+00 -.822425679554428D+02
 0.840364964204883D+02 -.235866366823946D+02 0.114056677600648D+01 -.632811378538103D+02
 0.168073302314193D+02 0.133746133121874D+02 -.101180769390298D+02 0.110931840033084D+01
 0.636413092589780D+02 0.102120233702071D+02 0.897751016302329D+01 0.621718194534794D+02
 0.000000000000000D+00 0.000000000000000D+00 0.000000000000000D+00 0.000000000000000D+00
 0.822425679554428D+02 0.000000000000000D+00 0.000000000000000D+00 0.822425679554428D+02
 0.822425679554428D+02 -.000000000000000D+00 -.000000000000000D+00 -.822425679554428D+02
 0.803788433920149D+02 -.228215058129867D+02 0.181320234558337D+01 -.586229446097672D+02
 0.169402668572643D+02 0.135316626990046D+02 -.998001297118174D+01 0.206545077180216D+01
 0.340678853324247D+02 0.210100845663444D+02 0.797529651467995D+01 0.256045270028803D+02
 0.330981403291818D+02 -.117202414523623D+02 0.191514110918416D+00 0.309529668350847D+02
0.124420630994D-06 0.000000000000D+00 0.000000000000D+00 0.302830744053D-06 0.000000000000D+00  6 2 22 9900012 -11 1 21 0 0.17270327D+00 0.92697080D-03 0.18345641D+04 0.18345641D+04 0.18345641D+04 0.12940810D+01  1  2  2  2  6  5        1 0.404085706781D-04 0.100000000000D+01
0.177464611802D-07 0.000000000000D+00 -.238903991860D-09 0.302830744053D-06 0.000000000000D+00  6 2 22 9900012 -11 1 21 2 0.17270327D+00 0.92697080D-03 0.18345641D+04 0.18345641D+04 0.18345641D+04 0.12940810D+01  1  2  3  2  6  5        1 0.965196562513D-05 0.100000000000D+01
-.231832668197D-07 0.000000000000D+00 0.000000000000D+00 0.302830744053D-06 0.000000000000D+00  6 2 22 9900012 -11 1 21 2 0.17270327D+00 0.92697080D-03 0.18345641D+04 0.18345641D+04 0.18345641D+04 0.12940810D+01  1  2 15  2  6  5        1 -.126089417011D-04 0.100000000000D+01
-.203874015605D-08 0.000000000000D+00 0.000000000000D+00 0.302830744053D-06 0.000000000000D+00  6 2 22 9900012 -11 1 21 2 0.17270327D+00 0.92697080D-03 0.18345641D+04 0.18345641D+04 0.18345641D+04 0.12940810D+01  1  2  4  2  6  5        1 -.110883233028D-05 0.100000000000D+01
-.422696772628D-07 0.000000000000D+00 0.000000000000D+00 0.302830744053D-06 0.000000000000D+00  6 2 22 9900012 -11 1 21 2 0.17270327D+00 0.92697080D-03 0.18345641D+04 0.18345641D+04 0.18345641D+04 0.12940810D+01  1  2  5  2  6  5        1 -.229896804654D-04 0.100000000000D+01
0.687127631231D-07 0.000000000000D+00 -.000000000000D+00 0.302830744053D-06 0.000000000000D+00  6 2 22 9900012 -11 1 21 2 0.17270327D+00 0.92697080D-03 0.18345641D+04 0.18345641D+04 0.18345641D+04 0.12940810D+01  1  2  6  2  6  5        1 0.373715762786D-04 0.100000000000D+01
  </mgrwgt>
  </event>
  <event>
  7     66 -.12453494E-05 0.67606076E+02 0.78161638E-02 0.11467910E+00
        2 -1    0    0  502    0 0.00000000E+00 0.00000000E+00 0.11188605E+04 0.11188605E+04 0.00000000E+00 0.0000E+00 0.9000E+01
       22 -1    0    0    0    0 0.00000000E+00 0.00000000E+00 -.28375114E+03 0.28375114E+03 0.00000000E+00 0.0000E+00 0.9000E+01
       24  2    1    2    0    0 0.57165664E+02 -.10326982E+02 -.27073338E+03 0.28877748E+03 0.81983583E+02 0.0000E+00 0.0000E+00
  9900012  1    3    3    0    0 0.59526962E+02 0.10809625E+02 -.19769241E+03 0.21270307E+03 0.50000000E+02 0.0000E+00 0.9000E+01
      -11  1    3    3    0    0 -.23612983E+01 -.21136607E+02 -.73040967E+02 0.76074403E+02 0.00000000E+00 0.0000E+00 0.9000E+01
        1  1    1    2  501    0 -.74761822E+02 0.41429506E+02 0.95495567E+03 0.95877321E+03 0.00000000E+00 0.0000E+00 0.9000E+01
       21  1    1    2  502  501 0.17596158E+02 -.31102524E+02 0.15088712E+03 0.15506100E+03 0.00000000E+00 0.0000E+00 0.9000E+01
#aMCatNLO 2  0  0  1  5 0.36683591D+02 0.00000000D+00  -5  6  0 0.00000000D+00 0.00000000D+00 0.00000000D+00 0.00000000D+00 0.00000000D+00
  <mgrwgt>
 -.9389507612D-03    2    2    0
 0.521283410989622D+03 0.000000000000000D+00 0.000000000000000D+00 0.521283410989622D+03
 0.521283410989622D+03 0.000000000000000D+00 0.000000000000000D+00 -.521283410989622D+03
 0.384948620400171D+03 0.660144550250041D+02 -.657502542760039D+00 -.375934967469313D+03
 0.139558232868170D+03 -.122355005049819D-01 -.252887511806291D+02 -.137247875303420D+03
 0.518059968710903D+03 -.660022195244992D+02 0.259462537233892D+02 0.513182842772733D+03
 0.000000000000000D+00 0.000000000000000D+00 -.000000000000000D+00 0.000000000000000D+00
 0.604197242613280D+03 0.000000000000000D+00 0.000000000000000D+00 0.604197242613280D+03
 0.525454161138738D+03 0.000000000000000D+00 0.000000000000000D+00 -.525454161138738D+03
 0.384040892386587D+03 0.595269624459921D+02 0.108096253814179D+02 -.375934967469313D+03
 0.138885964610833D+03 -.236129830926518D+01 -.211366071277593D+02 -.137247875303420D+03
 0.520252212042217D+03 -.747618221657924D+02 0.414295059705883D+02 0.513182842772733D+03
 0.864723347123803D+02 0.175961580290655D+02 -.311025242242469D+02 0.787430814745411D+02
-.425059695853D-03 0.000000000000D+00 0.000000000000D+00 0.159783583775D-03 0.000000000000D+00  6 2 22 9900012 -11 1 21 2 0.17350961D+00 0.43307521D-01 0.12206309D+05 0.12206309D+05 0.12206309D+05 0.12004583D+01  1  2 13  1  6  1        2 -.981726607680D-03 0.100000000000D+01
0.185519943807D-04 0.000000000000D+00 0.000000000000D+00 0.159783583775D-03 0.489609838713D-07  6 2 22 9900012 -11 1 21 2 0.17213239D+00 0.43654022D-01 0.12206309D+05 0.12206309D+05 0.12206309D+05 0.12004583D+01  1  2  1  1  6  1        2 0.427758464711D-04 0.100000000000D+01
  </mgrwgt>
  </event>
  <event>
  6     66 0.12453494E-05 0.17372131E+03 0.78161638E-02 0.10121095E+00
        2 -1    0    0  501    0 0.00000000E+00 0.00000000E+00 0.50557191E+03 0.50557191E+03 0.00000000E+00 0.0000E+00 0.9000E+01
       22 -1    0    0    0    0 0.00000000E+00 0.00000000E+00 -.10823472E+03 0.10823472E+03 0.00000000E+00 0.0000E+00 0.9000E+01
       24  2    1    2    0    0 -.22381636E+03 0.31553381E+02 0.17575185E+03 0.29727946E+03 0.79981157E+02 0.0000E+00 0.0000E+00
  9900012  1    3    3    0    0 -.19467167E+03 0.62155460E+01 0.14981130E+03 0.25075709E+03 0.50000000E+02 0.0000E+00 0.9000E+01
      -11  1    3    3    0    0 -.29144693E+02 0.25337835E+02 0.25940542E+02 0.46522368E+02 0.00000000E+00 0.0000E+00 0.9000E+01
        1  1    1    2  501    0 0.22381636E+03 -.31553381E+02 0.22158535E+03 0.31652717E+03 0.00000000E+00 0.0000E+00 0.9000E+01
#aMCatNLO 1  0  0  1  5 0.92075936D+02 0.00000000D+00  -5  6  0 0.00000000D+00 0.00000000D+00 0.00000000D+00 0.00000000D+00 0.00000000D+00
  <mgrwgt>
 0.3265134636D-04    9    2    0
 0.233923986883842D+03 0.000000000000000D+00 0.000000000000000D+00 0.233923986883842D+03
 0.233923986883842D+03 0.000000000000000D+00 0.000000000000000D+00 -.233923986883842D+03
 0.201755197254428D+03 -.194671668964964D+03 0.621554595515076D+01 -.164154777587532D+02
 0.390053967210426D+02 -.291446933733836D+02 0.253378353500559D+02 -.547740096312403D+01
 0.227087379792213D+03 0.223816362338347D+03 -.315533813052067D+02 0.218928787218773D+02
 0.000000000000000D+00 0.000000000000000D+00 -.000000000000000D+00 0.000000000000000D+00
 0.299822193857373D+03 0.000000000000000D+00 0.000000000000000D+00 0.299822193857373D+03
 0.260647001325982D+03 0.000000000000000D+00 0.000000000000000D+00 -.260647001325982D+03
 0.220213924051801D+03 -.210651321562257D+03 0.367522129989330D+02 -.164154777587532D+02
 0.454433853517000D+02 -.323427051037434D+02 0.314491458943571D+02 -.547740096312403D+01
 0.208474680512791D+03 0.207321955385796D+03 -.330331544582947D-01 0.218928787218773D+02
 0.863372052670630D+02 0.356720712802044D+02 -.681683257388318D+02 0.391751925313903D+02
0.134945725979D-05 0.000000000000D+00 0.000000000000D+00 0.339175490197D-06 0.000000000000D+00  6 2 22 9900012 -11 1 21 0 0.77780294D-01 0.16651495D-01 0.54227220D+05 0.54227220D+05 0.54227220D+05 0.11398937D+01  1  2  2  1  6  1        2 0.265248560942D-04 0.100000000000D+01
-.556759186616D-07 0.000000000000D+00 -.259113559892D-08 0.339175490197D-06 0.000000000000D+00  6 2 22 9900012 -11 1 21 2 0.77780294D-01 0.16651495D-01 0.54227220D+05 0.54227220D+05 0.54227220D+05 0.11398937D+01  1  2  3  1  6  1        2 -.142196856667D-05 0.100000000000D+01
-.180306178346D-06 0.000000000000D+00 0.000000000000D+00 0.339175490197D-06 0.000000000000D+00  6 2 22 9900012 -11 1 21 2 0.77780294D-01 0.16651495D-01 0.54227220D+05 0.54227220D+05 0.54227220D+05 0.11398937D+01  1  2 15  1  6  1        2 -.460503794367D-05 0.100000000000D+01
0.786720972217D-06 0.000000000000D+00 0.000000000000D+00 0.339175490197D-06 0.000000000000D+00  6 2 22 9900012 -11 1 21 2 0.11108018D+00 0.16651495D-01 0.75342845D+05 0.75342845D+05 0.75342845D+05 0.11277652D+01  1  2 12  1  6  1        2 0.132729739922D-04 0.100000000000D+01
-.702718206723D-06 0.000000000000D+00 0.000000000000D+00 0.339175490197D-06 0.000000000000D+00  6 2 22 9900012 -11 1 21 2 0.77780294D-01 0.16651495D-01 0.54227220D+05 0.54227220D+05 0.54227220D+05 0.11398937D+01  1  2  4  1  6  1        2 -.179474937318D-04 0.100000000000D+01
-.181735455465D-05 0.000000000000D+00 -.582900514190D-06 0.339175490197D-06 0.000000000000D+00  6 2 22 9900012 -11 1 21 2 0.10807182D+00 0.16651495D-01 0.54227220D+05 0.54227220D+05 0.54227220D+05 0.11398937D+01  1  2  5  1  6  1        2 -.319302433951D-04 0.100000000000D+01
0.193370237844D-05 0.000000000000D+00 0.552732588542D-06 0.339175490197D-06 0.000000000000D+00  6 2 22 9900012 -11 1 21 2 0.77780294D-01 0.16651495D-01 0.54227220D+05 0.54227220D+05 0.54227220D+05 0.11398937D+01  1  2  6  1  6  1        2 0.493869533821D-04 0.100000000000D+01
0.344303542368D-07 0.000000000000D+00 0.000000000000D+00 0.339175490197D-06 0.000000000000D+00  6 21 22 9900012 -11 1 -2 2 0.11108018D+00 0.16651495D-01 0.75342845D+05 0.75342845D+05 0.75342845D+05 0.11277652D+01  1  2 12  3  6  1        2 0.691665609650D-06 0.100000000000D+01
-.600302103901D-07 0.000000000000D+00 -.240774617314D-07 0.339175490197D-06 0.000000000000D+00  6 21 22 9900012 -11 1 -2 2 0.10807182D+00 0.16651495D-01 0.54227220D+05 0.54227220D+05 0.54227220D+05 0.11398937D+01  1  2  5  3  6  1        2 -.132035907634D-05 0.100000000000D+01
  </mgrwgt>
  </event>
  <event>
  6     66 -.12453494E-05 0.43554096E+02 0.78161638E-02 0.11655968E+00
        2 -1    0    0  501    0 0.00000000E+00 0.00000000E+00 0.10146406E+03 0.10146406E+03 0.00000000E+00 0.0000E+00 0.9000E+01
       22 -1    0    0    0    0 -.00000000E+00 -.00000000E+00 -.30959768E+03 0.30959768E+03 0.00000000E+00 0.0000E+00 0.9000E+01
       24  2    1    2    0    0 0.76683468E+02 0.43984705E+02 -.27543731E+03 0.29995461E+03 0.79322447E+02 0.0000E+00 0.0000E+00
  9900012  1    3    3    0    0 0.58373912E+02 0.18408633E+02 -.13861681E+03 0.15956507E+03 0.50000000E+02 0.0000E+00 0.9000E+01
      -11  1    3    3    0    0 0.18309557E+02 0.25576072E+02 -.13682050E+03 0.14038954E+03 0.00000000E+00 0.0000E+00 0.9000E+01
        1  1    1    2  501    0 -.76683468E+02 -.43984705E+02 0.67303686E+02 0.11110713E+03 0.00000000E+00 0.0000E+00 0.9000E+01
#aMCatNLO 1  0  0  5  1 0.11574733D+02 0.00000000D+00  -5  6  0 0.00000000D+00 0.00000000D+00 0.00000000D+00 0.00000000D+00 0.00000000D+00
  <mgrwgt>
 -.7795048269D-04    7    2    0
 0.177237236912821D+03 0.000000000000000D+00 0.000000000000000D+00 0.177237236912821D+03
 0.177237236912821D+03 -.000000000000000D+00 -.000000000000000D+00 -.177237236912821D+03
 0.103647173106533D+03 0.583739115158050D+02 0.184086327689783D+02 -.670547924230440D+02
 0.824652452645763D+02 0.183095565391196D+02 0.255760721567511D+02 -.762308425043313D+02
 0.168362055454533D+03 -.766834680549246D+02 -.439847049257294D+02 0.143285634927375D+03
 0.000000000000000D+00 0.000000000000000D+00 0.000000000000000D+00 0.000000000000000D+00
 0.177237236912821D+03 0.000000000000000D+00 0.000000000000000D+00 0.177237236912821D+03
 0.177237236912821D+03 -.000000000000000D+00 -.000000000000000D+00 -.177237236912821D+03
 0.103163717889953D+03 0.581156950895756D+02 0.182605229663994D+02 -.665723063602794D+02
 0.820284366014617D+02 0.181041758144193D+02 0.254582682701702D+02 -.758470817239837D+02
 0.120411458273796D+03 -.635077222332148D+02 -.354632720106809D+02 0.959585579230300D+02
 0.488708610604312D+02 -.127121486707801D+02 -.825551922588876D+01 0.464608301612330D+02
0.707829390885D-06 0.000000000000D+00 0.000000000000D+00 0.412585534724D-05 0.000000000000D+00  6 2 22 9900012 -11 1 21 0 0.15609856D-01 0.47630413D-01 0.98894064D+04 0.98894064D+04 0.98894064D+04 0.12098308D+01  1  2  2  2  6  5        1 0.146332402968D-04 0.100000000000D+01
0.290302999249D-08 0.000000000000D+00 -.135912561838D-08 0.412585534724D-05 0.000000000000D+00  6 2 22 9900012 -11 1 21 2 0.15609856D-01 0.47630413D-01 0.98894064D+04 0.98894064D+04 0.98894064D+04 0.12098308D+01  1  2  3  2  6  5        1 0.878441268461D-07 0.100000000000D+01
-.106052980995D-06 0.000000000000D+00 0.000000000000D+00 0.412585534724D-05 0.000000000000D+00  6 2 22 9900012 -11 1 21 2 0.15609856D-01 0.47630413D-01 0.98894064D+04 0.98894064D+04 0.98894064D+04 0.12098308D+01  1  2 15  2  6  5        1 -.320910618872D-05 0.100000000000D+01
0.492753241598D-05 0.000000000000D+00 0.000000000000D+00 0.412585534724D-05 0.000000000000D+00  6 2 22 9900012 -11 1 21 2 0.15609856D-01 0.47630413D-01 0.97954838D+04 0.97954838D+04 0.97954838D+04 0.12102612D+01  1  2 12  2  6  5        1 0.149107914313D-03 0.100000000000D+01
-.949612995944D-05 0.000000000000D+00 0.000000000000D+00 0.412585534724D-05 0.000000000000D+00  6 2 22 9900012 -11 1 21 2 0.15609856D-01 0.47630413D-01 0.98894064D+04 0.98894064D+04 0.98894064D+04 0.12098308D+01  1  2  4  2  6  5        1 -.287347787265D-03 0.100000000000D+01
-.488415997908D-05 0.000000000000D+00 0.000000000000D+00 0.412585534724D-05 0.000000000000D+00  6 2 22 9900012 -11 1 21 2 0.15609856D-01 0.47630413D-01 0.98894064D+04 0.98894064D+04 0.98894064D+04 0.12098308D+01  1  2  5  2  6  5        1 -.147792055145D-03 0.100000000000D+01
0.649613217525D-05 0.000000000000D+00 -.000000000000D+00 0.412585534724D-05 0.000000000000D+00  6 2 22 9900012 -11 1 21 2 0.15609856D-01 0.47630413D-01 0.98894064D+04 0.98894064D+04 0.98894064D+04 0.12098308D+01  1  2  6  2  6  5        1 0.196569467174D-03 0.100000000000D+01
  </mgrwgt>
  </event>
  <event>
  6     66 0.12453494E-05 0.24208326E+02 0.78161638E-02 0.11448874E+00
        2 -1    0    0  501    0 0.00000000E+00 0.00000000E+00 0.99790048E+02 0.99790048E+02 0.00000000E+00 0.0000E+00 0.9000E+01
       22 -1    0    0    0    0 0.00000000E+00 0.00000000E+00 -.36844189E+02 0.36844189E+02 0.00000000E+00 0.0000E+00 0.9000E+01
       24  2    1    2    0    0 0.13779058E+02 -.19904285E+02 0.18949465E+02 0.86417449E+02 0.80764164E+02 0.0000E+00 0.0000E+00
  9900012  1    3    3    0    0 0.66259550E+01 0.91583218E+01 0.23054044E+02 0.56207358E+02 0.50000000E+02 0.0000E+00 0.9000E+01
      -11  1    3    3    0    0 0.71531035E+01 -.29062607E+02 -.41045793E+01 0.30210091E+02 0.00000000E+00 0.0000E+00 0.9000E+01
        1  1    1    2  501    0 -.13779058E+02 0.19904285E+02 0.43996395E+02 0.50216788E+02 0.00000000E+00 0.0000E+00 0.9000E+01
#aMCatNLO 1  0  0  1  5 0.34950418D+02 0.00000000D+00  -5  6  0 0.00000000D+00 0.00000000D+00 0.00000000D+00 0.00000000D+00 0.00000000D+00
  <mgrwgt>
 0.1098173695D-03    5    2    0
 0.606356606319914D+02 0.000000000000000D+00 0.000000000000000D+00 0.606356606319914D+02
 0.606356606319914D+02 0.000000000000000D+00 0.000000000000000D+00 -.606356606319914D+02
 0.513616307160889D+02 0.662595498408017D+01 0.915832178616000D+01 -.319983943753121D+01
 0.361676521624246D+02 0.715310346598686D+01 -.290626070483268D+02 -.203050989975810D+02
 0.337420383854694D+02 -.137790584500670D+02 0.199042852621668D+02 0.235049384351123D+02
 0.000000000000000D+00 -.000000000000000D+00 -.000000000000000D+00 0.000000000000000D+00
 0.161210913705481D+03 0.000000000000000D+00 0.000000000000000D+00 0.161210913705481D+03
 0.968609194138144D+02 0.000000000000000D+00 0.000000000000000D+00 -.968609194138144D+02
 0.706486037185168D+02 0.413597414981389D+02 0.277553241407334D+02 -.319983943753121D+01
 0.392443524009569D+02 0.286213391368691D+02 -.175681841998896D+02 -.203050989975810D+02
 0.396136399949058D+02 0.710378374972827D+01 0.310852794622258D+02 0.235049384351123D+02
 0.108565237004916D+03 -.770848643847363D+02 -.412724194030697D+02 0.643499942916671D+02
0.281240297910D-06 0.000000000000D+00 0.000000000000D+00 0.161260008662D-06 0.000000000000D+00  6 2 22 9900012 -11 1 21 0 0.15352315D-01 0.56683367D-02 0.27772972D+04 0.27772972D+04 0.27772972D+04 0.12716647D+01  1  2  2  1  6  1        2 0.121408252735D-03 0.100000000000D+01
0.851832683438D-08 0.000000000000D+00 -.540018398122D-09 0.161260008662D-06 0.000000000000D+00  6 2 22 9900012 -11 1 21 2 0.15352315D-01 0.56683367D-02 0.27772972D+04 0.27772972D+04 0.27772972D+04 0.12716647D+01  1  2  3  1  6  1        2 0.594661995084D-05 0.100000000000D+01
-.468730258085D-07 0.000000000000D+00 0.000000000000D+00 0.161260008662D-06 0.000000000000D+00  6 2 22 9900012 -11 1 21 2 0.15352315D-01 0.56683367D-02 0.27772972D+04 0.27772972D+04 0.27772972D+04 0.12716647D+01  1  2 15  1  6  1        2 -.327219271869D-04 0.100000000000D+01
0.655271623151D-07 0.000000000000D+00 -.983790915013D-07 0.161260008662D-06 0.000000000000D+00  6 2 22 9900012 -11 1 21 2 0.62210871D-01 0.56683367D-02 0.27772972D+04 0.27772972D+04 0.27772972D+04 0.12716647D+01  1  2  5  1  6  1        2 0.101063723073D-04 0.100000000000D+01
0.118978772021D-07 0.000000000000D+00 -.164554362322D-07 0.161260008662D-06 0.000000000000D+00  6 21 22 9900012 -11 1 -2 2 0.62210871D-01 0.56683367D-02 0.27772972D+04 0.27772972D+04 0.27772972D+04 0.12716647D+01  1  2  5  3  6  1        2 0.507805164499D-05 0.100000000000D+01
  </mgrwgt>
  </event>
  <event>
  6     66 0.12453494E-05 0.18764122E+02 0.78161638E-02 0.12974729E+00
        2 -1    0    0  501    0 0.00000000E+00 0.00000000E+00 0.31891612E+03 0.31891612E+03 0.00000000E+00 0.0000E+00 0.9000E+01
       22 -1    0    0    0    0 0.00000000E+00 0.00000000E+00 -.15366889E+02 0.15366889E+02 0.00000000E+00 0.0000E+00 0.9000E+01
       24  2    1    2    0    0 0.18761066E+02 0.33863758E+00 0.78192362E+02 0.10814630E+03 0.72315176E+02 0.0000E+00 0.0000E+00
  9900012  1    3    3    0    0 0.12659752E+02 0.18966846E+02 0.54507546E+02 0.77402087E+02 0.50000000E+02 0.0000E+00 0.9000E+01
      -11  1    3    3    0    0 0.61013137E+01 -.18628208E+02 0.23684816E+02 0.30744214E+02 0.00000000E+00 0.0000E+00 0.9000E+01
        1  1    1    2  501    0 -.18761066E+02 -.33863758E+00 0.22535686E+03 0.22613670E+03 0.00000000E+00 0.0000E+00 0.9000E+01
#aMCatNLO 1  0  0  5  1 0.76371865D+01 0.00000000D+00  -5  6  0 0.00000000D+00 0.00000000D+00 0.00000000D+00 0.00000000D+00 0.00000000D+00
  <mgrwgt>
 0.1905106090D-03    8    2    0
 0.700053466960993D+02 0.000000000000000D+00 0.000000000000000D+00 0.700053466960993D+02
 0.700053466960993D+02 -.000000000000000D+00 -.000000000000000D+00 -.700053466960993D+02
 0.666269033113280D+02 0.126597524352459D+02 0.189668456065333D+02 -.376713907477977D+02
 0.220537479255488D+02 0.610131371085417D+01 -.186282080281934D+02 -.101060197023230D+02
 0.513300421553218D+02 -.187610661461001D+02 -.338637578339919D+00 0.477774104501208D+02
 0.000000000000000D+00 0.000000000000000D+00 0.000000000000000D+00 0.000000000000000D+00
 0.700053466960993D+02 0.000000000000000D+00 0.000000000000000D+00 0.700053466960993D+02
 0.700053466960993D+02 -.000000000000000D+00 -.000000000000000D+00 -.700053466960993D+02
 0.656348998917370D+02 0.120445470112270D+02 0.189557411376642D+02 -.361046928946162D+02
 0.217677932607492D+02 0.589748124241817D+01 -.186318872078818D+02 -.958693472966266D+01
 0.418220886919655D+02 -.212091498684581D+02 -.340247677454525D+01 0.358842892672349D+02
 0.107859115477469D+02 0.326712161481289D+01 0.307862284476292D+01 0.980733835704395D+01
0.141798657293D-06 0.000000000000D+00 0.000000000000D+00 0.124772650136D-07 0.000000000000D+00  6 2 22 9900012 -11 1 21 0 0.49064018D-01 0.23641368D-02 0.21771877D+04 0.21771877D+04 0.21771877D+04 0.12846757D+01  1  2  2  2  6  5        1 0.547269560958D-04 0.100000000000D+01
0.124179497810D-07 0.000000000000D+00 -.272272090225D-09 0.124772650136D-07 0.000000000000D+00  6 2 22 9900012 -11 1 21 2 0.49064018D-01 0.23641368D-02 0.21771877D+04 0.21771877D+04 0.21771877D+04 0.12846757D+01  1  2  3  2  6  5        1 0.790981132261D-05 0.100000000000D+01
-.248501916937D-07 0.000000000000D+00 0.000000000000D+00 0.124772650136D-07 0.000000000000D+00  6 2 22 9900012 -11 1 21 2 0.49064018D-01 0.23641368D-02 0.21771877D+04 0.21771877D+04 0.21771877D+04 0.12846757D+01  1  2 15  2  6  5        1 -.158287262467D-04 0.100000000000D+01
0.208959407797D-06 0.000000000000D+00 0.000000000000D+00 0.124772650136D-07 0.000000000000D+00  6 2 22 9900012 -11 1 21 2 0.49064018D-01 0.23641368D-02 0.25162628D+04 0.25162628D+04 0.25162628D+04 0.12768918D+01  1  2 12  2  6  5        1 0.133513233720D-03 0.100000000000D+01
-.316083406738D-07 0.000000000000D+00 0.000000000000D+00 0.124772650136D-07 0.000000000000D+00  6 2 22 9900012 -11 1 21 2 0.49064018D-01 0.23641368D-02 0.21771877D+04 0.21771877D+04 0.21771877D+04 0.12846757D+01  1  2  4  2  6  5        1 -.201334371100D-04 0.100000000000D+01
-.203991295041D-06 0.000000000000D+00 0.000000000000D+00 0.124772650136D-07 0.000000000000D+00  6 2 22 9900012 -11 1 21 2 0.49064018D-01 0.23641368D-02 0.21771877D+04 0.21771877D+04 0.21771877D+04 0.12846757D+01  1  2  5  2  6  5        1 -.129935511392D-03 0.100000000000D+01
0.251236775443D-06 0.000000000000D+00 -.000000000000D+00 0.124772650136D-07 0.000000000000D+00  6 2 22 9900012 -11 1 21 2 0.49064018D-01 0.23641368D-02 0.21771877D+04 0.21771877D+04 0.21771877D+04 0.12846757D+01  1  2  6  2  6  5        1 0.160029274244D-03 0.100000000000D+01
0.358417304294D-09 0.000000000000D+00 0.000000000000D+00 0.124772650136D-07 0.877814647775D-09  6 2 22 9900012 -11 1 21 2 0.49064018D-01 0.23641368D-02 0.25162628D+04 0.25162628D+04 0.25162628D+04 0.12768918D+01  1  2 11  2  6  5        1 0.229008369721D-06 0.100000000000D+01
  </mgrwgt>
  </event>
  <event>
  6     66 0.12453494E-05 0.38117236E+02 0.78161638E-02 0.93811602E-01
        2 -1    0    0  501    0 0.00000000E+00 0.00000000E+00 0.13765939E+03 0.13765939E+03 0.00000000E+00 0.0000E+00 0.9000E+01
       22 -1    0    0    0    0 0.00000000E+00 0.00000000E+00 -.11761681E+04 0.11761681E+04 0.00000000E+00 0.0000E+00 0.9000E+01
       24  2    1    2    0    0 0.59815224E+01 0.37644987E+02 -.11718772E+04 0.11751189E+04 0.78455912E+02 0.0000E+00 0.0000E+00
  9900012  1    3    3    0    0 -.37866478E+01 0.10604984E+02 -.95076198E+03 0.95214240E+03 0.50000000E+02 0.0000E+00 0.9000E+01
      -11  1    3    3    0    0 0.97681701E+01 0.27040004E+02 -.22111517E+03 0.22297645E+03 0.00000000E+00 0.0000E+00 0.9000E+01
        1  1    1    2  501    0 -.59815224E+01 -.37644987E+02 0.13336848E+03 0.13870860E+03 0.00000000E+00 0.0000E+00 0.9000E+01
#aMCatNLO 1  0  0  1  1 0.64914065D+02 0.00000000D+00  -5  6  0 0.00000000D+00 0.00000000D+00 0.00000000D+00 0.00000000D+00 0.00000000D+00
  <mgrwgt>
 0.1075715677D-02    5    2    0
 0.402381137521313D+03 0.000000000000000D+00 0.000000000000000D+00 0.402381137521313D+03
 0.402381137521313D+03 0.000000000000000D+00 0.000000000000000D+00 -.402381137521313D+03
 0.327520649500168D+03 -.378664777274667D+01 0.106049835196483D+02 -.323485658835450D+03
 0.786848037869114D+02 0.976817013078512D+01 0.270400035102480D+02 -.732442448895922D+02
 0.398556821755546D+03 -.598152235803845D+01 -.376449870298963D+02 0.396729903725042D+03
 0.000000000000000D+00 0.000000000000000D+00 -.000000000000000D+00 0.000000000000000D+00
 0.811031876765998D+03 0.000000000000000D+00 0.000000000000000D+00 0.811031876765998D+03
 0.662955068978294D+03 0.000000000000000D+00 0.000000000000000D+00 -.662955068978294D+03
 0.393265810450936D+03 -.395245827945474D+02 0.214366120346345D+03 -.323485658835450D+03
 0.108416377129371D+03 0.491345138065519D+00 0.799321587370614D+02 -.732442448895922D+02
 0.447564039678082D+03 -.479337704185200D+02 0.201547281690295D+03 0.396729903725042D+03
 0.524740718485902D+03 0.869670080750019D+02 -.495845560773702D+03 0.148076807787705D+03
0.634753359272D-03 0.000000000000D+00 0.000000000000D+00 0.207921392403D-03 0.000000000000D+00  6 2 22 9900012 -11 1 21 0 0.21178368D-01 0.18094893D+00 0.34880766D+04 0.34880766D+04 0.34880766D+04 0.12598443D+01  1  2  2  1  6  1        2 0.659817112480D-03 0.100000000000D+01
0.361723823098D-04 0.000000000000D+00 -.121881001700D-05 0.207921392403D-03 0.000000000000D+00  6 2 22 9900012 -11 1 21 2 0.21178368D-01 0.18094893D+00 0.34880766D+04 0.34880766D+04 0.34880766D+04 0.12598443D+01  1  2  3  1  6  1        2 0.596800800991D-04 0.100000000000D+01
-.103562848150D-03 0.000000000000D+00 0.000000000000D+00 0.207921392403D-03 0.000000000000D+00  6 2 22 9900012 -11 1 21 2 0.21178368D-01 0.18094893D+00 0.34880766D+04 0.34880766D+04 0.34880766D+04 0.12598443D+01  1  2 15  1  6  1        2 -.170866243201D-03 0.100000000000D+01
0.851403036513D-03 0.000000000000D+00 -.200742909266D-03 0.207921392403D-03 0.000000000000D+00  6 2 22 9900012 -11 1 21 2 0.70604227D-01 0.18094893D+00 0.34880766D+04 0.34880766D+04 0.34880766D+04 0.12598443D+01  1  2  5  1  6  1        2 0.389190315125D-03 0.100000000000D+01
0.126635569758D-03 0.000000000000D+00 -.280434169864D-04 0.207921392403D-03 0.000000000000D+00  6 21 22 9900012 -11 1 -2 2 0.70604227D-01 0.18094893D+00 0.34880766D+04 0.34880766D+04 0.34880766D+04 0.12598443D+01  1  2  5  3  6  1        2 0.137894412973D-03 0.100000000000D+01
  </mgrwgt>
  </event>
  <event>
  6     66 -.12453494E-05 0.30039513E+02 0.78161638E-02 0.12219200E+00
        2 -1    0    0  501    0 0.00000000E+00 0.00000000E+00 0.74125749E+03 0.74125749E+03 0.00000000E+00 0.0000E+00 0.9000E+01
       22 -1    0    0    0    0 0.00000000E+00 0.00000000E+00 -.23194862E+03 0.23194862E+03 0.00000000E+00 0.0000E+00 0.9000E+01
       24  2    1    2    0    0 0.91691046E+01 -.28605941E+02 -.22370193E+03 0.23958004E+03 0.80334743E+02 0.0000E+00 0.0000E+00
  9900012  1    3    3    0    0 0.26546465E+02 -.26460349E+02 -.12978846E+03 0.14404828E+03 0.50000000E+02 0.0000E+00 0.9000E+01
      -11  1    3    3    0    0 -.17377360E+02 -.21455919E+01 -.93913477E+02 0.95531761E+02 0.00000000E+00 0.0000E+00 0.9000E+01
        1  1    1    2  501    0 -.91691046E+01 0.28605941E+02 0.73301080E+03 0.73362607E+03 0.00000000E+00 0.0000E+00 0.9000E+01
#aMCatNLO 1  0  0  1  1 0.83211898D+02 0.00000000D+00  -5  6  0 0.00000000D+00 0.00000000D+00 0.00000000D+00 0.00000000D+00 0.00000000D+00
  <mgrwgt>
 -.1743750996D-02    5    2    0
 0.414648831524859D+03 0.000000000000000D+00 0.000000000000000D+00 0.414648831524859D+03
 0.414648831524859D+03 0.000000000000000D+00 0.000000000000000D+00 -.414648831524859D+03
 0.248753965466332D+03 0.265464646416783D+02 -.264603486572830D+02 -.240777221719971D+03
 0.169785912157324D+03 -.173773600015814D+02 -.214559188717561D+01 -.168880667223705D+03
 0.410757785426063D+03 -.916910464009684D+01 0.286059405444587D+02 0.409657888943676D+03
 0.000000000000000D+00 -.000000000000000D+00 -.000000000000000D+00 0.000000000000000D+00
 0.947219133647951D+03 0.000000000000000D+00 0.000000000000000D+00 0.947219133647951D+03
 0.415585056762561D+03 0.000000000000000D+00 0.000000000000000D+00 -.415585056762561D+03
 0.249795178077896D+03 0.367204252271633D+02 -.239910579782520D+02 -.240777221719971D+03
 0.169204902977782D+03 -.104595280552509D+02 -.466586174439897D+00 -.168880667223705D+03
 0.411029316987530D+03 0.760121719854476D+01 0.326762137731154D+02 0.409657888943676D+03
 0.532774792367305D+03 -.338621143704572D+02 -.821856962042351D+01 0.531634076885391D+03
0.185105835368D-04 0.000000000000D+00 0.000000000000D+00 0.705651586294D-03 0.000000000000D+00  6 2 22 9900012 -11 1 21 0 0.11403961D+00 0.35684403D-01 0.30270765D+04 0.30270765D+04 0.30270765D+04 0.12671554D+01  1  2  2  1  6  1        2 0.654260409813D-04 0.100000000000D+01
0.155605179830D-05 0.000000000000D+00 -.355427573649D-07 0.705651586294D-03 0.000000000000D+00  6 2 22 9900012 -11 1 21 2 0.11403961D+00 0.35684403D-01 0.30270765D+04 0.30270765D+04 0.30270765D+04 0.12671554D+01  1  2  3  1  6  1        2 0.883109034624D-05 0.100000000000D+01
-.325049846570D-05 0.000000000000D+00 0.000000000000D+00 0.705651586294D-03 0.000000000000D+00  6 2 22 9900012 -11 1 21 2 0.11403961D+00 0.35684403D-01 0.30270765D+04 0.30270765D+04 0.30270765D+04 0.12671554D+01  1  2 15  1  6  1        2 -.184476157235D-04 0.100000000000D+01
-.990969263708D-03 0.000000000000D+00 -.494193274136D-05 0.705651586294D-03 0.000000000000D+00  6 2 22 9900012 -11 1 21 2 0.26064473D+00 0.35684403D-01 0.30270765D+04 0.30270765D+04 0.30270765D+04 0.12671554D+01  1  2  5  1  6  1        2 -.174142777257D-02 0.100000000000D+01
-.887754579021D-04 0.000000000000D+00 -.444279597147D-06 0.705651586294D-03 0.000000000000D+00  6 21 22 9900012 -11 1 -2 2 0.26064473D+00 0.35684403D-01 0.30270765D+04 0.30270765D+04 0.30270765D+04 0.12671554D+01  1  2  5  3  6  1        2 -.581327386043D-04 0.100000000000D+01
  </mgrwgt>
  </event>
  <event>
  7     66 -.12453494E-05 0.30804071E+02 0.78161638E-02 0.11981133E+00
        4 -1    0    0  501    0 0.00000000E+00 0.00000000E+00 0.24783520E+03 0.24783520E+03 0.00000000E+00 0.0000E+00 0.9000E+01
       22 -1    0    0    0    0 0.00000000E+00 0.00000000E+00 -.46157497E+02 0.46157497E+02 0.00000000E+00 0.0000E+00 0.9000E+01
       24  2    1    2    0    0 0.61443102E+02 0.61227984E+01 0.27890187E+02 0.10252577E+03 0.76947562E+02 0.0000E+00 0.0000E+00
  9900012  1    3    3    0    0 0.17642527E+02 0.22014698E+01 0.60063494E+01 0.53405819E+02 0.50000000E+02 0.0000E+00 0.9000E+01
      -11  1    3    3    0    0 0.43800575E+02 0.39213287E+01 0.21883838E+02 0.49119950E+02 0.00000000E+00 0.0000E+00 0.9000E+01
        3  1    1    2  502    0 -.39458397E+02 -.17591994E+02 0.15339296E+03 0.15936074E+03 0.00000000E+00 0.0000E+00 0.9000E+01
       21  1    1    2  501  502 -.21984705E+02 0.11469196E+02 0.20394554E+02 0.32106192E+02 0.00000000E+00 0.0000E+00 0.9000E+01
#aMCatNLO 2  0  0  5  1 0.22290402D+02 0.00000000D+00  -5  6  0 0.00000000D+00 0.00000000D+00 0.00000000D+00 0.00000000D+00 0.00000000D+00
  <mgrwgt>
 -.1843709605D-04    2    2    0
 0.106955376105451D+03 0.000000000000000D+00 0.000000000000000D+00 0.106955376105451D+03
 0.106955376105451D+03 -.000000000000000D+00 -.000000000000000D+00 -.106955376105451D+03
 0.708079714163962D+02 0.211218478516032D+02 0.254818368753899D+01 -.453998140891950D+02
 0.499871188699551D+02 0.462331519024497D+02 0.416373469178968D+01 -.185437599073223D+02
 0.931156619245512D+02 -.673549997540529D+02 -.671191837932865D+01 0.639435739965173D+02
 0.000000000000000D+00 -.000000000000000D+00 0.000000000000000D+00 0.000000000000000D+00
 0.106955376105451D+03 0.000000000000000D+00 0.000000000000000D+00 0.106955376105451D+03
 0.106955376105451D+03 -.000000000000000D+00 -.000000000000000D+00 -.106955376105451D+03
 0.677365388303253D+02 0.176425271377453D+02 0.220146975787979D+01 -.420967155465986D+02
 0.468766739536536D+02 0.438005748180610D+02 0.392132865064260D+01 -.162343890608251D+02
 0.743999644384215D+02 -.394583971896270D+02 -.175919941156058D+02 0.605715390484715D+02
 0.248975749885020D+02 -.219847047661793D+02 0.114691957070835D+02 -.224043444104790D+01
-.649353458397D-06 0.000000000000D+00 0.000000000000D+00 0.743425428474D-07 0.000000000000D+00  6 4 22 9900012 -11 3 21 2 0.38128493D-01 0.71011533D-02 0.68096878D+04 0.68096878D+04 0.68096878D+04 0.12270263D+01  1  2 13  2  6  5        3 -.235413067207D-04 0.100000000000D+01
0.140792390671D-06 0.000000000000D+00 0.000000000000D+00 0.743425428474D-07 0.179753539094D-09  6 4 22 9900012 -11 3 21 2 0.38128493D-01 0.71011533D-02 0.68096878D+04 0.68096878D+04 0.68096878D+04 0.12270263D+01  1  2  1  2  6  5        3 0.510421067275D-05 0.100000000000D+01
  </mgrwgt>
  </event>
  <event>
  6     66 0.12453494E-05 0.10272954E+03 0.78161638E-02 0.10982126E+00
        2 -1    0    0  501    0 0.00000000E+00 0.00000000E+00 0.23729097E+04 0.23729097E+04 0.00000000E+00 0.0000E+00 0.9000E+01
       22 -1    0    0    0    0 0.00000000E+00 0.00000000E+00 -.18549631E+03 0.18549631E+03 0.00000000E+00 0.0000E+00 0.9000E+01
       24  2    1    2    0    0 -.92467300E+02 0.92967101E+02 -.15146037E+03 0.21585963E+03 0.80386909E+02 0.0000E+00 0.0000E+00
  9900012  1    3    3    0    0 -.65740732E+02 0.46663577E+02 -.12287543E+03 0.15523436E+03 0.50000000E+02 0.0000E+00 0.9000E+01
      -11  1    3    3    0    0 -.26726568E+02 0.46303524E+02 -.28584932E+02 0.60625276E+02 0.00000000E+00 0.0000E+00 0.9000E+01
        1  1    1    2  501    0 0.92467300E+02 -.92967101E+02 0.23388738E+04 0.23425464E+04 0.00000000E+00 0.0000E+00 0.9000E+01
#aMCatNLO 1  0  0  1  5 0.19607240D+02 0.00000000D+00  -5  6  0 0.00000000D+00 0.00000000D+00 0.00000000D+00 0.00000000D+00 0.00000000D+00
  <mgrwgt>
 0.6721245930D-03    9    2    0
 0.663450073061027D+03 0.000000000000000D+00 0.000000000000000D+00 0.663450073061027D+03
 0.663450073061027D+03 0.000000000000000D+00 0.000000000000000D+00 -.663450073061027D+03
 0.501870386015145D+03 -.657407316975809D+02 0.466635768477131D+02 -.492823042430683D+03
 0.164014706440510D+03 -.267265678661516D+02 0.463035238530947D+02 -.155056435460282D+03
 0.661015053666399D+03 0.924672995637325D+02 -.929671007008077D+02 0.647879477890964D+03
 0.000000000000000D+00 0.000000000000000D+00 0.000000000000000D+00 0.000000000000000D+00
 0.723858310979206D+03 0.000000000000000D+00 0.000000000000000D+00 0.723858310979206D+03
 0.665070101550946D+03 0.000000000000000D+00 0.000000000000000D+00 -.665070101550946D+03
 0.502792647943758D+03 -.730079326280766D+02 0.457792250812034D+02 -.492823042430683D+03
 0.164337275872083D+03 -.291016924111339D+02 0.460144929583768D+02 -.155056435460282D+03
 0.659911141111775D+03 0.829124182280659D+02 -.941298422114392D+02 0.647879477890964D+03
 0.618873476025362D+02 0.191972068111446D+02 0.233612417185898D+01 0.587882094282599D+02
0.492151958481D-04 0.000000000000D+00 0.000000000000D+00 0.403452533262D-03 0.000000000000D+00  6 2 22 9900012 -11 1 21 0 0.36506304D+00 0.28537894D-01 0.19523149D+05 0.19523149D+05 0.19523149D+05 0.11803217D+01  1  2  2  1  6  1        2 0.337754930065D-04 0.100000000000D+01
0.528138512404D-06 0.000000000000D+00 -.944996553577D-07 0.403452533262D-03 0.000000000000D+00  6 2 22 9900012 -11 1 21 2 0.36506304D+00 0.28537894D-01 0.19523149D+05 0.19523149D+05 0.19523149D+05 0.11803217D+01  1  2  3  1  6  1        2 0.504953188998D-06 0.100000000000D+01
-.811019608004D-05 0.000000000000D+00 0.000000000000D+00 0.403452533262D-03 0.000000000000D+00  6 2 22 9900012 -11 1 21 2 0.36506304D+00 0.28537894D-01 0.19523149D+05 0.19523149D+05 0.19523149D+05 0.11803217D+01  1  2 15  1  6  1        2 -.775415781624D-05 0.100000000000D+01
0.828878026698D-03 0.000000000000D+00 0.000000000000D+00 0.403452533262D-03 0.000000000000D+00  6 2 22 9900012 -11 1 21 2 0.39927522D+00 0.28537894D-01 0.22328023D+05 0.22328023D+05 0.22328023D+05 0.11747573D+01  1  2 12  1  6  1        2 0.587639683851D-03 0.100000000000D+01
-.159359447449D-03 0.000000000000D+00 0.000000000000D+00 0.403452533262D-03 0.000000000000D+00  6 2 22 9900012 -11 1 21 2 0.36506304D+00 0.28537894D-01 0.19523149D+05 0.19523149D+05 0.19523149D+05 0.11803217D+01  1  2  4  1  6  1        2 -.152363554819D-03 0.100000000000D+01
-.892975210748D-03 0.000000000000D+00 -.464299401111D-04 0.403452533262D-03 0.000000000000D+00  6 2 22 9900012 -11 1 21 2 0.39858731D+00 0.28537894D-01 0.19523149D+05 0.19523149D+05 0.19523149D+05 0.11803217D+01  1  2  5  1  6  1        2 -.644133867579D-03 0.100000000000D+01
0.893781334944D-03 0.000000000000D+00 0.462513235791D-04 0.403452533262D-03 0.000000000000D+00  6 2 22 9900012 -11 1 21 2 0.36506304D+00 0.28537894D-01 0.19523149D+05 0.19523149D+05 0.19523149D+05 0.11803217D+01  1  2  6  1  6  1        2 0.854544262058D-03 0.100000000000D+01
0.125749799134D-04 0.000000000000D+00 0.000000000000D+00 0.403452533262D-03 0.000000000000D+00  6 21 22 9900012 -11 1 -2 2 0.39927522D+00 0.28537894D-01 0.22328023D+05 0.22328023D+05 0.22328023D+05 0.11747573D+01  1  2 12  3  6  1        2 0.142264148516D-05 0.100000000000D+01
-.129754900111D-04 0.000000000000D+00 -.673678711215D-06 0.403452533262D-03 0.000000000000D+00  6 21 22 9900012 -11 1 -2 2 0.39858731D+00 0.28537894D-01 0.19523149D+05 0.19523149D+05 0.19523149D+05 0.11803217D+01  1  2  5  3  6  1        2 -.151086040284D-05 0.100000000000D+01
  </mgrwgt>
  </event>
  <event>
  7     66 0.12453494E-05 0.87334240E+02 0.78161638E-02 0.11425124E+00
        2 -1    0    0  502    0 0.00000000E+00 0.00000000E+00 0.56578353E+03 0.56578353E+03 0.00000000E+00 0.0000E+00 0.9000E+01
       22 -1    0    0    0    0 0.00000000E+00 0.00000000E+00 -.39791701E+03 0.39791701E+03 0.00000000E+00 0.0000E+00 0.9000E+01
       24  2    1    2    0    0 0.79515012E+02 0.59925238E+02 -.38075222E+03 0.40152518E+03 0.79602414E+02 0.0000E+00 0.0000E+00
  9900012  1    3    3    0    0 0.35017731E+02 0.45981060E+02 -.18235602E+03 0.19772258E+03 0.50000000E+02 0.0000E+00 0.9000E+01
      -11  1    3    3    0    0 0.44497282E+02 0.13944178E+02 -.19839620E+03 0.20380260E+03 0.00000000E+00 0.0000E+00 0.9000E+01
        1  1    1    2  501    0 -.78709319E+02 -.49093656E+02 0.31680190E+03 0.33010421E+03 0.00000000E+00 0.0000E+00 0.9000E+01
       21  1    1    2  502  501 -.80569351E+00 -.10831582E+02 0.23181684E+03 0.23207116E+03 0.00000000E+00 0.0000E+00 0.9000E+01
#aMCatNLO 2  0  0  1  5 0.10865738D+02 0.00000000D+00  -5  6  0 0.00000000D+00 0.00000000D+00 0.00000000D+00 0.00000000D+00 0.00000000D+00
  <mgrwgt>
 0.3954175242D-03    2    2    0
 0.364374101611616D+03 0.000000000000000D+00 0.000000000000000D+00 0.364374101611616D+03
 0.364374101611616D+03 0.000000000000000D+00 0.000000000000000D+00 -.364374101611616D+03
 0.181779742204367D+03 0.348163808457558D+02 0.432741523436962D+02 -.165707700604481D+03
 0.186941913422349D+03 0.442904826050142D+02 0.111640128125936D+02 -.181276024235265D+03
 0.360026547596516D+03 -.791068634507700D+02 -.544381651562898D+02 0.346983724839745D+03
 0.000000000000000D+00 -.000000000000000D+00 -.000000000000000D+00 0.000000000000000D+00
 0.617601400460294D+03 0.000000000000000D+00 0.000000000000000D+00 0.617601400460294D+03
 0.364531057637931D+03 0.000000000000000D+00 0.000000000000000D+00 -.364531057637931D+03
 0.182481619199755D+03 0.350177307198310D+02 0.459810595938571D+02 -.165707700604481D+03
 0.187177576487470D+03 0.444972816788771D+02 0.139441780098018D+02 -.181276024235265D+03
 0.359169944786892D+03 -.787093188893086D+02 -.490936559499918D+02 0.346983724839745D+03
 0.253303317624107D+03 -.805693509399513D+00 -.108315816536671D+02 0.253070342822363D+03
-.529154096091D-03 0.000000000000D+00 0.000000000000D+00 0.994598066586D-04 0.000000000000D+00  6 2 22 9900012 -11 1 21 2 0.87081115D-01 0.61191643D-01 0.12846028D+05 0.12846028D+05 0.12846028D+05 0.11982168D+01  1  2 13  1  6  1        2 -.157654377558D-02 0.100000000000D+01
0.662053808373D-03 0.000000000000D+00 0.000000000000D+00 0.994598066586D-04 0.934445003350D-05  6 2 22 9900012 -11 1 21 2 0.87043620D-01 0.61218002D-01 0.12846028D+05 0.12846028D+05 0.12846028D+05 0.11982168D+01  1  2  1  1  6  1        2 0.197196129977D-02 0.100000000000D+01
  </mgrwgt>
  </event>
  <event>
  7     66 -.12453494E-05 0.80485958E+02 0.78161638E-02 0.11560396E+00
        2 -1    0    0  501    0 0.00000000E+00 0.00000000E+00 0.14563544E+03 0.14563544E+03 0.00000000E+00 0.0000E+00 0.9000E+01
       22 -1    0    0    0    0 0.00000000E+00 0.00000000E+00 -.84588940E+02 0.84588940E+02 0.00000000E+00 0.0000E+00 0.9000E+01
       24  2    1    2    0    0 -.80114508E+02 -.26700933E+02 0.35683281E+02 0.12009463E+03 0.77576739E+02 0.0000E+00 0.0000E+00
  9900012  1    3    3    0    0 -.73998793E+02 -.16809676E+02 0.48318275E+02 0.10292251E+03 0.50000000E+02 0.0000E+00 0.9000E+01
      -11  1    3    3    0    0 -.61157152E+01 -.98912565E+01 -.12634994E+02 0.17172128E+02 0.00000000E+00 0.0000E+00 0.9000E+01
        1  1    1    2  502    0 0.77621387E+02 0.44015718E+02 0.24852734E+02 0.92628945E+02 0.00000000E+00 0.0000E+00 0.9000E+01
       21  1    1    2  501  502 0.24931215E+01 -.17314785E+02 0.51048462E+00 0.17500800E+02 0.00000000E+00 0.0000E+00 0.9000E+01
#aMCatNLO 2  0  0  5  1 0.24665807D+02 0.00000000D+00  -5  6  0 0.00000000D+00 0.00000000D+00 0.00000000D+00 0.00000000D+00 0.00000000D+00
  <mgrwgt>
 -.1877991746D-04    2    2    0
 0.110991655187806D+03 0.000000000000000D+00 0.000000000000000D+00 0.110991655187806D+03
 0.110991655187806D+03 -.000000000000000D+00 -.000000000000000D+00 -.110991655187806D+03
 0.102265325000932D+03 -.839942844751837D+02 -.201410198185763D+02 0.223046226983524D+02
 0.222817421000312D+02 -.834063814396122D+01 -.106327890797841D+02 -.177159132631831D+02
 0.974362432746496D+02 0.923349226191449D+02 0.307738088983603D+02 -.458870943516935D+01
 0.000000000000000D+00 0.000000000000000D+00 -.000000000000000D+00 0.000000000000000D+00
 0.110991655187806D+03 0.000000000000000D+00 0.000000000000000D+00 0.110991655187806D+03
 0.110991655187806D+03 -.000000000000000D+00 -.000000000000000D+00 -.110991655187806D+03
 0.934557134993330D+02 -.739987932110623D+02 -.168096763866219D+02 0.218078831790915D+02
 0.212843241118703D+02 -.611571517415689D+01 -.989125649011866D+01 -.178264838331740D+02
 0.892331456470773D+02 0.776213869163580D+02 0.440157175234502D+02 0.301970444566400D+00
 0.180101271173320D+02 0.249312146886112D+01 -.173147846467096D+02 -.428336979048393D+01
-.255790106838D-06 0.000000000000D+00 0.000000000000D+00 0.208985658769D-07 0.000000000000D+00  6 2 22 9900012 -11 1 21 2 0.22405452D-01 0.13013683D-01 0.10944390D+05 0.10944390D+05 0.10944390D+05 0.12052893D+01  1  2 13  2  6  5        1 -.371211952733D-04 0.100000000000D+01
0.126383791733D-06 0.000000000000D+00 0.000000000000D+00 0.208985658769D-07 0.148957711832D-09  6 2 22 9900012 -11 1 21 2 0.22405452D-01 0.13013683D-01 0.10944390D+05 0.10944390D+05 0.10944390D+05 0.12052893D+01  1  2  1  2  6  5        1 0.183412778167D-04 0.100000000000D+01
  </mgrwgt>
  </event>
  <event>
  6     66 0.12453494E-05 0.10034021E+03 0.78161638E-02 0.11016573E+00
        2 -1    0    0  501    0 0.00000000E+00 0.00000000E+00 0.24156015E+03 0.24156015E+03 0.00000000E+00 0.0000E+00 0.9000E+01
       22 -1    0    0    0    0 0.00000000E+00 0.00000000E+00 -.13737982E+03 0.13737982E+03 0.00000000E+00 0.0000E+00 0.9000E+01
       24  2    1    2    0    0 -.10010126E+03 -.69207043E+01 -.92638722E+02 0.15801939E+03 0.79498669E+02 0.0000E+00 0.0000E+00
  9900012  1    3    3    0    0 -.59816474E+02 -.27258541E+02 -.65005650E+02 0.10510363E+03 0.50000000E+02 0.0000E+00 0.9000E+01
      -11  1    3    3    0    0 -.40284784E+02 0.20337837E+02 -.27633072E+02 0.52915764E+02 0.00000000E+00 0.0000E+00 0.9000E+01
        1  1    1    2  501    0 0.10010126E+03 0.69207043E+01 0.19681905E+03 0.22092057E+03 0.00000000E+00 0.0000E+00 0.9000E+01
#aMCatNLO 1  0  0  5  1 0.93998500D+02 0.00000000D+00  -5  6  0 0.00000000D+00 0.00000000D+00 0.00000000D+00 0.00000000D+00 0.00000000D+00
  <mgrwgt>
 0.1935561594D-03    3    2    0
 0.182168846554380D+03 0.000000000000000D+00 0.000000000000000D+00 0.182168846554380D+03
 0.182168846554380D+03 -.000000000000000D+00 -.000000000000000D+00 -.182168846554380D+03
 0.127904076357055D+03 -.598164741951087D+02 -.272585412942896D+02 -.976648047667359D+02
 0.629380950029869D+02 -.402847836996531D+02 0.203378369571102D+02 -.438715442261060D+02
 0.173495521748718D+03 0.100101257894762D+03 0.692070433717944D+01 0.141536348992842D+03
 0.000000000000000D+00 0.000000000000000D+00 0.000000000000000D+00 -.000000000000000D+00
 0.182168846554380D+03 0.000000000000000D+00 0.000000000000000D+00 0.182168846554380D+03
 0.182168846554380D+03 -.000000000000000D+00 -.000000000000000D+00 -.182168846554380D+03
 0.954145740742291D+02 -.381199421578727D+02 -.257585073633503D+02 -.669873887687767D+02
 0.464314158173254D+02 -.296589846863284D+02 0.210724732130784D+02 -.288473893942173D+02
 0.100083683815419D+03 -.429185214484659D+02 0.521025405598540D+02 0.738922834262898D+02
 0.122408019401786D+03 0.110697448292667D+03 -.474165064095821D+02 0.219424947367043D+02
0.902427769407D-05 0.000000000000D+00 0.000000000000D+00 0.322834086100D-05 0.000000000000D+00  6 2 22 9900012 -11 1 21 0 0.37163100D-01 0.21135356D-01 0.13002532D+05 0.13002532D+05 0.13002532D+05 0.11976872D+01  1  2  2  2  6  5        1 0.255704269706D-03 0.100000000000D+01
0.324437067409D-07 0.000000000000D+00 -.173278012461D-07 0.322834086100D-05 0.000000000000D+00  6 2 22 9900012 -11 1 21 2 0.37163100D-01 0.21135356D-01 0.13002532D+05 0.13002532D+05 0.13002532D+05 0.11976872D+01  1  2  3  2  6  5        1 0.131869038524D-05 0.100000000000D+01
-.156147211851D-05 0.000000000000D+00 0.000000000000D+00 0.322834086100D-05 0.000000000000D+00  6 2 22 9900012 -11 1 21 2 0.37163100D-01 0.21135356D-01 0.13002532D+05 0.13002532D+05 0.13002532D+05 0.11976872D+01  1  2 15  2  6  5        1 -.634668006939D-04 0.100000000000D+01
  </mgrwgt>
  </event>
  <event>
  6     66 0.12453494E-05 0.92676320E+02 0.78161638E-02 0.10812123E+00
        4 -1    0    0  501    0 0.00000000E+00 0.00000000E+00 0.58233516E+02 0.58233516E+02 0.00000000E+00 0.0000E+00 0.9000E+01
       22 -1    0    0    0    0 0.00000000E+00 0.00000000E+00 -.70677401E+03 0.70677401E+03 0.00000000E+00 0.0000E+00 0.9000E+01
       24  2    1    2    0    0 0.15632663E+03 0.19528782E+02 -.55330075E+03 0.58091517E+03 0.80630742E+02 0.0000E+00 0.0000E+00
  9900012  1    3    3    0    0 0.12617432E+03 0.30661048E+02 -.49674608E+03 0.51586502E+03 0.50000000E+02 0.0000E+00 0.9000E+01
      -11  1    3    3    0    0 0.30152316E+02 -.11132266E+02 -.56554676E+02 0.65050141E+02 0.00000000E+00 0.0000E+00 0.9000E+01
        3  1    1    2  501    0 -.15632663E+03 -.19528782E+02 -.95239743E+02 0.18409236E+03 0.00000000E+00 0.0000E+00 0.9000E+01
#aMCatNLO 1  0  0  1  5 0.14373906D+02 0.00000000D+00  -5  6  0 0.00000000D+00 0.00000000D+00 0.00000000D+00 0.00000000D+00 0.00000000D+00
  <mgrwgt>
 0.4020028908D-04    6    2    0
 0.202874187653006D+03 0.000000000000000D+00 0.000000000000000D+00 0.202874187653006D+03
 0.202874187653006D+03 0.000000000000000D+00 0.000000000000000D+00 -.202874187653006D+03
 0.178634554372800D+03 0.126174317579470D+03 0.306610481621221D+02 -.112027879230680D+03
 0.322511460317472D+02 0.301523157525999D+02 -.111322657896382D+02 -.265460609233201D+01
 0.194862674901465D+03 -.156326633332070D+03 -.195287823724838D+02 0.114682485323012D+03
 0.000000000000000D+00 0.000000000000000D+00 0.000000000000000D+00 -.000000000000000D+00
 0.204020403047707D+03 0.000000000000000D+00 0.000000000000000D+00 0.204020403047707D+03
 0.209621580391598D+03 0.000000000000000D+00 0.000000000000000D+00 -.209621580391598D+03
 0.177642467215045D+03 0.125298250816648D+03 0.284068438164598D+02 -.112027879230680D+03
 0.322467022118944D+02 0.299937188807951D+02 -.115403508498218D+02 -.265460609233201D+01
 0.195896600368708D+03 -.157287490172634D+03 -.220011597727892D+02 0.114682485323012D+03
 0.785621364365906D+01 0.199552047519107D+01 0.513466680615120D+01 -.560117734389092D+01
0.507803487161D-05 0.000000000000D+00 0.000000000000D+00 0.985016929495D-06 0.000000000000D+00  6 4 22 9900012 -11 3 21 0 0.89590025D-02 0.10873446D+00 0.27031280D+05 0.27031280D+05 0.27031280D+05 0.11669664D+01  1  2  2  1  6  1        4 0.244628900339D-04 0.100000000000D+01
-.813600800313D-07 0.000000000000D+00 -.975049549214D-08 0.985016929495D-06 0.000000000000D+00  6 4 22 9900012 -11 3 21 2 0.89590025D-02 0.10873446D+00 0.27031280D+05 0.27031280D+05 0.27031280D+05 0.11669664D+01  1  2  3  1  6  1        4 -.533752758290D-06 0.100000000000D+01
-.860365730711D-06 0.000000000000D+00 0.000000000000D+00 0.985016929495D-06 0.000000000000D+00  6 4 22 9900012 -11 3 21 2 0.89590025D-02 0.10873446D+00 0.27031280D+05 0.27031280D+05 0.27031280D+05 0.11669664D+01  1  2 15  1  6  1        4 -.564432313401D-05 0.100000000000D+01
0.248976402885D-05 0.000000000000D+00 0.000000000000D+00 0.985016929495D-06 0.000000000000D+00  6 4 22 9900012 -11 3 21 2 0.93092708D-02 0.10873446D+00 0.27944014D+05 0.27944014D+05 0.27944014D+05 0.11656292D+01  1  2 12  1  6  1        4 0.153485620893D-04 0.100000000000D+01
-.291648810097D-06 0.000000000000D+00 0.000000000000D+00 0.985016929495D-06 0.000000000000D+00  6 4 22 9900012 -11 3 21 2 0.89590025D-02 0.10873446D+00 0.27031280D+05 0.27031280D+05 0.27031280D+05 0.11669664D+01  1  2  4  1  6  1        4 -.191332600437D-05 0.100000000000D+01
0.634088076677D-07 0.000000000000D+00 0.000000000000D+00 0.985016929495D-06 0.000000000000D+00  6 21 22 9900012 -11 3 -4 2 0.93092708D-02 0.10873446D+00 0.27944014D+05 0.27944014D+05 0.27944014D+05 0.11656292D+01  1  2 12  3  6  1        4 0.848023885604D-05 0.100000000000D+01
  </mgrwgt>
  </event>
  <event>
  7     66 -.12453494E-05 0.30552836E+02 0.78161638E-02 0.12562715E+00
        2 -1    0    0  502    0 0.00000000E+00 0.00000000E+00 0.29917450E+04 0.29917450E+04 0.00000000E+00 0.0000E+00 0.9000E+01
       22 -1    0    0    0    0 0.00000000E+00 0.00000000E+00 -.26078384E+01 0.26078384E+01 0.00000000E+00 0.0000E+00 0.9000E+01
       24  2    1    2    0    0 -.89853026E+01 0.41774093E+02 0.70730632E+03 0.71197083E+03 0.69241847E+02 0.0000E+00 0.0000E+00
  9900012  1    3    3    0    0 -.20523066E+02 0.40800534E+02 0.64917947E+03 0.65270197E+03 0.50000000E+02 0.0000E+00 0.9000E+01
      -11  1    3    3    0    0 0.11537763E+02 0.97355854E+00 0.58126847E+02 0.59268863E+02 0.00000000E+00 0.0000E+00 0.9000E+01
        1  1    1    2  501    0 0.83668999E+01 -.33617351E+02 0.21595522E+04 0.21598300E+04 0.00000000E+00 0.0000E+00 0.9000E+01
       21  1    1    2  502  501 0.61840274E+00 -.81567418E+01 0.12227865E+03 0.12255196E+03 0.00000000E+00 0.0000E+00 0.9000E+01
#aMCatNLO 2  0  0  1  5 0.12353553D+02 0.00000000D+00  -5  6  0 0.00000000D+00 0.00000000D+00 0.00000000D+00 0.00000000D+00 0.00000000D+00
  <mgrwgt>
 -.2298208727D-03    3    2    0
 0.841065389983997D+02 0.000000000000000D+00 0.000000000000000D+00 0.841065389983997D+02
 0.841065389983997D+02 0.000000000000000D+00 0.000000000000000D+00 -.841065389983997D+02
 0.771575885864576D+02 -.202359770403425D+02 0.370138285502054D+02 -.409117978797777D+02
 0.212000223593221D+02 0.116156177427264D+02 -.533444391253681D-01 -.177345856129042D+02
 0.698554670510198D+02 0.862035929761607D+01 -.369604841110801D+02 0.586463834926819D+02
 0.000000000000000D+00 0.000000000000000D+00 -.000000000000000D+00 -.000000000000000D+00
 0.877984395532063D+02 0.000000000000000D+00 0.000000000000000D+00 0.877984395532063D+02
 0.888624835974365D+02 0.000000000000000D+00 0.000000000000000D+00 -.888624835974365D+02
 0.791179815782873D+02 -.205230658142784D+02 0.408005339775012D+02 -.409117978797777D+02
 0.211797856966643D+02 0.115377631738926D+02 0.973558543882032D+00 -.177345856129042D+02
 0.681140923673941D+02 0.836689990142160D+01 -.336173507032124D+02 0.586463834926819D+02
 0.824906350829701D+01 0.618402738964112D+00 -.815674181817085D+01 -.106404404423024D+01
-.174268417739D-05 0.000000000000D+00 0.000000000000D+00 0.210106655719D-07 0.000000000000D+00  6 2 22 9900012 -11 1 21 2 0.48629511D+00 0.37973325D-03 0.37283816D+04 0.37283816D+04 0.37283816D+04 0.12564543D+01  1  2 13  1  6  1        2 -.248916213617D-03 0.100000000000D+01
-.539199538152D-09 0.000000000000D+00 0.000000000000D+00 0.210106655719D-07 0.000000000000D+00  6 2 22 9900012 -11 1 21 2 0.44091430D+00 0.37973325D-03 0.33054572D+04 0.33054572D+04 0.33054572D+04 0.12626018D+01  1  2  8  1  6  1        2 -.116405926182D-06 0.100000000000D+01
0.113897900544D-06 0.000000000000D+00 0.000000000000D+00 0.210106655719D-07 0.351248314093D-09  6 2 22 9900012 -11 1 21 2 0.46026846D+00 0.40120590D-03 0.37283816D+04 0.37283816D+04 0.37283816D+04 0.12564543D+01  1  2  1  1  6  1        2 0.192117468201D-04 0.100000000000D+01
  </mgrwgt>
  </event>
  <event>
  6     66 0.12453494E-05 0.70196687E+02 0.78161638E-02 0.11722379E+00
        2 -1    0    0  501    0 0.00000000E+00 0.00000000E+00 0.17341301E+04 0.17341301E+04 0.00000000E+00 0.0000E+00 0.9000E+01
       22 -1    0    0    0    0 0.00000000E+00 0.00000000E+00 -.57250846E+01 0.57250846E+01 0.00000000E+00 0.0000E+00 0.9000E+01
       24  2    1    2    0    0 -.80124379E+02 0.31079575E+02 0.93228049E+03 0.93910546E+03 0.73391440E+02 0.0000E+00 0.0000E+00
  9900012  1    3    3    0    0 -.47416010E+02 0.34804764E+02 0.54693265E+03 0.55235403E+03 0.50000000E+02 0.0000E+00 0.9000E+01
      -11  1    3    3    0    0 -.32708370E+02 -.37251886E+01 0.38534784E+03 0.38675143E+03 0.00000000E+00 0.0000E+00 0.9000E+01
        1  1    1    2  501    0 0.80124379E+02 -.31079575E+02 0.79612458E+03 0.80074977E+03 0.00000000E+00 0.0000E+00 0.9000E+01
#aMCatNLO 1  0  0  5  1 0.13450547D+02 0.00000000D+00  -5  6  0 0.00000000D+00 0.00000000D+00 0.00000000D+00 0.00000000D+00 0.00000000D+00
  <mgrwgt>
 0.1403640125D-03    5    2    0
 0.996395591141462D+02 0.000000000000000D+00 0.000000000000000D+00 0.996395591141462D+02
 0.996395591141462D+02 -.000000000000000D+00 -.000000000000000D+00 -.996395591141462D+02
 0.787583055157357D+02 -.474160095184445D+02 0.348047637194814D+02 -.155955490922191D+02
 0.343957240773866D+02 -.327083696459889D+02 -.372518858039423D+01 0.996751523447874D+01
 0.861250886351702D+02 0.801243791644333D+02 -.310795751390872D+02 0.562803385774036D+01
 0.000000000000000D+00 0.000000000000000D+00 0.000000000000000D+00 -.000000000000000D+00
 0.996395591141462D+02 0.000000000000000D+00 0.000000000000000D+00 0.996395591141462D+02
 0.996395591141462D+02 -.000000000000000D+00 -.000000000000000D+00 -.996395591141462D+02
 0.753268245740633D+02 -.429685270946244D+02 0.330796225625407D+02 -.152831525167449D+02
 0.326959609876863D+02 -.307718486466070D+02 -.447634884567621D+01 0.101035388251062D+02
 0.823055192600266D+02 0.742774233695489D+02 -.330031718574143D+02 0.129558297917722D+02
 0.895081340651626D+01 -.537047628317578D+00 0.439989814054981D+01 -.777621610013353D+01
0.440159299653D-06 0.000000000000D+00 0.000000000000D+00 0.265811332178D-08 0.000000000000D+00  6 2 22 9900012 -11 1 21 0 0.26678925D+00 0.88078224D-03 0.96098406D+04 0.96098406D+04 0.96098406D+04 0.12111255D+01  1  2  2  2  6  5        1 0.846633879538D-04 0.100000000000D+01
-.175282820155D-07 0.000000000000D+00 -.845163803636D-09 0.265811332178D-08 0.000000000000D+00  6 2 22 9900012 -11 1 21 2 0.26678925D+00 0.88078224D-03 0.96098406D+04 0.96098406D+04 0.96098406D+04 0.12111255D+01  1  2  3  2  6  5        1 -.494542279945D-05 0.100000000000D+01
-.669515174774D-07 0.000000000000D+00 0.000000000000D+00 0.265811332178D-08 0.000000000000D+00  6 2 22 9900012 -11 1 21 2 0.26678925D+00 0.88078224D-03 0.96098406D+04 0.96098406D+04 0.96098406D+04 0.12111255D+01  1  2 15  2  6  5        1 -.188896755939D-04 0.100000000000D+01
0.429513710556D-06 0.000000000000D+00 0.000000000000D+00 0.265811332178D-08 0.000000000000D+00  6 2 22 9900012 -11 1 21 2 0.26678925D+00 0.88078224D-03 0.90790245D+04 0.90790245D+04 0.90790245D+04 0.12137041D+01  1  2 12  2  6  5        1 0.121264339498D-03 0.100000000000D+01
-.147900591793D-06 0.000000000000D+00 0.000000000000D+00 0.265811332178D-08 0.000000000000D+00  6 2 22 9900012 -11 1 21 2 0.26678925D+00 0.88078224D-03 0.96098406D+04 0.96098406D+04 0.96098406D+04 0.12111255D+01  1  2  4  2  6  5        1 -.417286165330D-04 0.100000000000D+01
  </mgrwgt>
  </event>
  <event>
  6     66 0.12453494E-05 0.32169672E+02 0.78161638E-02 0.11057237E+00
        2 -1    0    0  501    0 0.00000000E+00 0.00000000E+00 0.53155213E+03 0.53155213E+03 0.00000000E+00 0.0000E+00 0.9000E+01
       22 -1    0    0    0    0 0.00000000E+00 0.00000000E+00 -.26019178E+03 0.26019178E+03 0.00000000E+00 0.0000E+00 0.9000E+01
       24  2    1    2    0    0 0.31559186E+02 -.62374353E+01 -.25031913E+03 0.26907348E+03 0.93305835E+02 0.0000E+00 0.0000E+00
  9900012  1    3    3    0    0 0.55602585E+01 -.11067061E+02 -.70462207E+02 0.87282982E+02 0.50000000E+02 0.0000E+00 0.9000E+01
      -11  1    3    3    0    0 0.25998928E+02 0.48296261E+01 -.17985693E+03 0.18179049E+03 0.00000000E+00 0.0000E+00 0.9000E+01
        1  1    1    2  501    0 -.31559186E+02 0.62374353E+01 0.52167949E+03 0.52267043E+03 0.00000000E+00 0.0000E+00 0.9000E+01
#aMCatNLO 1  0  0  1  5 0.62353628D+01 0.00000000D+00  -5  6  0 0.00000000D+00 0.00000000D+00 0.00000000D+00 0.00000000D+00 0.00000000D+00
  <mgrwgt>
 0.8705819985D-03    4    2    0
 0.371894464300588D+03 0.000000000000000D+00 0.000000000000000D+00 0.371894464300588D+03
 0.371894464300588D+03 0.000000000000000D+00 0.000000000000000D+00 -.371894464300588D+03
 0.118617547207502D+03 0.556025845024224D+01 -.110670613686454D+02 -.106849081344451D+03
 0.259129369650219D+03 0.259989275587961D+02 0.482962608245148D+01 -.257776571264760D+03
 0.366042011743455D+03 -.315591860090384D+02 0.623743528619391D+01 0.364625652609211D+03
 0.000000000000000D+00 0.000000000000000D+00 -.000000000000000D+00 -.000000000000000D+00
 0.426340988047983D+03 0.000000000000000D+00 0.000000000000000D+00 0.426340988047983D+03
 0.440037951296733D+03 0.000000000000000D+00 0.000000000000000D+00 -.440037951296733D+03
 0.118106722862563D+03 -.949936825685015D+00 0.561866720926236D+01 -.106849081344451D+03
 0.261359790658439D+03 0.116848647395936D+02 0.415167847505632D+02 -.257776571264760D+03
 0.372887203106466D+03 -.518806067165001D+02 0.583215427316324D+02 0.364625652609211D+03
 0.114025222717247D+03 0.411456788025916D+02 -.105456994691458D+03 -.136969632487491D+02
0.236432951985D-03 0.000000000000D+00 0.000000000000D+00 0.579115953133D-05 0.000000000000D+00  6 2 22 9900012 -11 1 21 0 0.81777251D-01 0.40029504D-01 0.30318517D+04 0.30318517D+04 0.30318517D+04 0.12670733D+01  1  2  2  1  6  1        2 0.998113357324D-03 0.100000000000D+01
0.168321094518D-04 0.000000000000D+00 -.453982394924D-06 0.579115953133D-05 0.000000000000D+00  6 2 22 9900012 -11 1 21 2 0.81777251D-01 0.40029504D-01 0.30318517D+04 0.30318517D+04 0.30318517D+04 0.12670733D+01  1  2  3  1  6  1        2 0.114081154285D-03 0.100000000000D+01
-.354759830809D-04 0.000000000000D+00 0.000000000000D+00 0.579115953133D-05 0.000000000000D+00  6 2 22 9900012 -11 1 21 2 0.81777251D-01 0.40029504D-01 0.30318517D+04 0.30318517D+04 0.30318517D+04 0.12670733D+01  1  2 15  1  6  1        2 -.240441705232D-03 0.100000000000D+01
-.172746901001D-06 0.000000000000D+00 0.000000000000D+00 0.579115953133D-05 0.000000000000D+00  6 2 22 9900012 -11 1 21 2 0.81777251D-01 0.40029504D-01 0.30318517D+04 0.30318517D+04 0.30318517D+04 0.12670733D+01  1  2  4  1  6  1        2 -.117080784923D-05 0.100000000000D+01
  </mgrwgt>
  </event>
  <event>
  6     66 0.12453494E-05 0.10393140E+03 0.78161638E-02 0.10309591E+00
        2 -1    0    0  501    0 0.00000000E+00 0.00000000E+00 0.37281835E+04 0.37281835E+04 0.00000000E+00 0.0000E+00 0.9000E+01
       22 -1    0    0    0    0 0.00000000E+00 0.00000000E+00 -.81312670E+02 0.81312670E+02 0.00000000E+00 0.0000E+00 0.9000E+01
       24  2    1    2    0    0 0.62120902E+02 0.21807523E+03 0.10829742E+03 0.26366516E+03 0.79844675E+02 0.0000E+00 0.0000E+00
  9900012  1    3    3    0    0 0.26526852E+02 0.10199337E+03 0.71411108E+02 0.13676940E+03 0.50000000E+02 0.0000E+00 0.9000E+01
      -11  1    3    3    0    0 0.35594050E+02 0.11608185E+03 0.36886314E+02 0.12689576E+03 0.00000000E+00 0.0000E+00 0.9000E+01
        1  1    1    2  501    0 -.62120902E+02 -.21807523E+03 0.35385734E+04 0.35458310E+04 0.00000000E+00 0.0000E+00 0.9000E+01
#aMCatNLO 1  0  0  1  5 0.14493378D+02 0.00000000D+00  -5  6  0 0.00000000D+00 0.00000000D+00 0.00000000D+00 0.00000000D+00 0.00000000D+00
  <mgrwgt>
 0.7360670939D-04    9    2    0
 0.550589275422813D+03 0.000000000000000D+00 0.000000000000000D+00 0.550589275422813D+03
 0.550589275422813D+03 0.000000000000000D+00 0.000000000000000D+00 -.550589275422813D+03
 0.236651366002540D+03 0.265268516330301D+02 0.101993372743025D+03 -.205906646541120D+03
 0.316832613489063D+03 0.355940502701779D+02 0.116081854081084D+03 -.292644787598843D+03
 0.547694571354024D+03 -.621209019032080D+02 -.218075226824109D+03 0.498551434139963D+03
 0.000000000000000D+00 -.000000000000000D+00 0.000000000000000D+00 0.000000000000000D+00
 0.557665653406285D+03 0.000000000000000D+00 0.000000000000000D+00 0.557665653406285D+03
 0.555146756679186D+03 0.000000000000000D+00 0.000000000000000D+00 -.555146756679186D+03
 0.236552867824476D+03 0.288011549139727D+02 0.101144479146397D+03 -.205906646541120D+03
 0.316774946450208D+03 0.386392803196764D+02 0.114945208713273D+03 -.292644787598843D+03
 0.547908698649241D+03 -.568552387213126D+02 -.220040658521178D+03 0.498551434139963D+03
 0.115758971615455D+02 -.105851965123365D+02 0.395097066150899D+01 0.251889672709938D+01
0.534011555685D-04 0.000000000000D+00 0.000000000000D+00 0.418804124644D-04 0.000000000000D+00  6 2 22 9900012 -11 1 21 0 0.57356668D+00 0.12509642D-01 0.54012793D+05 0.54012793D+05 0.54012793D+05 0.11400423D+01  1  2  2  1  6  1        2 0.167770132453D-04 0.100000000000D+01
0.181296868026D-06 0.000000000000D+00 -.102537249115D-06 0.418804124644D-04 0.000000000000D+00  6 2 22 9900012 -11 1 21 2 0.57356668D+00 0.12509642D-01 0.54012793D+05 0.54012793D+05 0.54012793D+05 0.11400423D+01  1  2  3  1  6  1        2 0.740280386211D-07 0.100000000000D+01
-.813853178138D-05 0.000000000000D+00 0.000000000000D+00 0.418804124644D-04 0.000000000000D+00  6 2 22 9900012 -11 1 21 2 0.57356668D+00 0.12509642D-01 0.54012793D+05 0.54012793D+05 0.54012793D+05 0.11400423D+01  1  2 15  1  6  1        2 -.332316576448D-05 0.100000000000D+01
0.158601097229D-04 0.000000000000D+00 0.000000000000D+00 0.418804124644D-04 0.000000000000D+00  6 2 22 9900012 -11 1 21 2 0.58574707D+00 0.12509642D-01 0.56710127D+05 0.56710127D+05 0.56710127D+05 0.11382186D+01  1  2 12  1  6  1        2 0.560199673843D-05 0.100000000000D+01
-.888054721571D-06 0.000000000000D+00 0.000000000000D+00 0.418804124644D-04 0.000000000000D+00  6 2 22 9900012 -11 1 21 2 0.57356668D+00 0.12509642D-01 0.54012793D+05 0.54012793D+05 0.54012793D+05 0.11400423D+01  1  2  4  1  6  1        2 -.362614919618D-06 0.100000000000D+01
-.140507668797D-02 0.000000000000D+00 -.192947529563D-03 0.418804124644D-04 0.000000000000D+00  6 2 22 9900012 -11 1 21 2 0.58212037D+00 0.12509642D-01 0.54012793D+05 0.54012793D+05 0.54012793D+05 0.11400423D+01  1  2  5  1  6  1        2 -.520096543695D-03 0.100000000000D+01
0.140822500400D-02 0.000000000000D+00 0.193984409779D-03 0.418804124644D-04 0.000000000000D+00  6 2 22 9900012 -11 1 21 2 0.57356668D+00 0.12509642D-01 0.54012793D+05 0.54012793D+05 0.54012793D+05 0.11400423D+01  1  2  6  1  6  1        2 0.575013435798D-03 0.100000000000D+01
0.939264381458D-06 0.000000000000D+00 0.000000000000D+00 0.418804124644D-04 0.000000000000D+00  6 21 22 9900012 -11 1 -2 2 0.58574707D+00 0.12509642D-01 0.56710127D+05 0.56710127D+05 0.56710127D+05 0.11382186D+01  1  2 12  3  6  1        2 0.234036340562D-07 0.100000000000D+01
-.379914925006D-05 0.000000000000D+00 -.523842857382D-06 0.418804124644D-04 0.000000000000D+00  6 21 22 9900012 -11 1 -2 2 0.58212037D+00 0.12509642D-01 0.54012793D+05 0.54012793D+05 0.54012793D+05 0.11400423D+01  1  2  5  3  6  1        2 -.100843684863D-06 0.100000000000D+01
  </mgrwgt>
  </event>
  <event>
  6     66 0.12453494E-05 0.72520344E+02 0.78161638E-02 0.11912853E+00
        2 -1    0    0  501    0 0.00000000E+00 0.00000000E+00 0.38270809E+03 0.38270809E+03 0.00000000E+00 0.0000E+00 0.9000E+01
       22 -1    0    0    0    0 0.00000000E+00 0.00000000E+00 -.41281590E+02 0.41281590E+02 0.00000000E+00 0.0000E+00 0.9000E+01
       24  2    1    2    0    0 -.68310936E+02 0.24347818E+02 0.43992819E+02 0.11784267E+03 0.81806635E+02 0.0000E+00 0.0000E+00
  9900012  1    3    3    0    0 -.43595423E+02 0.34356615E+01 0.52154910E+02 0.84454126E+02 0.50000000E+02 0.0000E+00 0.9000E+01
      -11  1    3    3    0    0 -.24715513E+02 0.20912156E+02 -.81620911E+01 0.33388540E+02 0.00000000E+00 0.0000E+00 0.9000E+01
        1  1    1    2  501    0 0.68310936E+02 -.24347818E+02 0.29743368E+03 0.30614702E+03 0.00000000E+00 0.0000E+00 0.9000E+01
#aMCatNLO 1  0  0  5  5 0.22584633D-01 0.00000000D+00  -5  6  0 0.00000000D+00 0.00000000D+00 0.00000000D+00 0.00000000D+00 0.00000000D+00
  <mgrwgt>
 0.1182573418D-03    7    2    0
 0.125693272267606D+03 0.000000000000000D+00 0.000000000000000D+00 0.125693272267606D+03
 0.125693272267606D+03 -.000000000000000D+00 -.000000000000000D+00 -.125693272267606D+03
 0.716053019281158D+02 -.435954232171171D+02 0.343566145085700D+01 -.267386343916843D+02
 0.673987970943801D+02 -.247155130743942D+02 0.209121563863201D+02 -.591136446052259D+02
 0.112382445512716D+03 0.683109362915113D+02 -.243478178371771D+02 0.858522789969102D+02
 0.000000000000000D+00 0.000000000000000D+00 -.000000000000000D+00 0.000000000000000D+00
 0.125693272267606D+03 0.000000000000000D+00 0.000000000000000D+00 0.125693272267606D+03
 0.125693272267606D+03 -.000000000000000D+00 -.000000000000000D+00 -.125693272267606D+03
 0.716051466616714D+02 -.435952814517111D+02 0.343561092193046D+01 -.267384562228017D+02
 0.673985863184190D+02 -.247153796371627D+02 0.209121088257744D+02 -.591134769030825D+02
 0.112070468932976D+03 0.681128301729799D+02 -.242628621228154D+02 0.856256147089940D+02
 0.312342622145942D+00 0.197830915893888D+00 -.848576248894262D-01 0.226318416890260D+00
0.538883311142D-07 0.000000000000D+00 0.000000000000D+00 0.520964414848D-06 0.000000000000D+00  6 2 22 9900012 -11 1 21 0 0.58878168D-01 0.63510139D-02 0.73377646D+04 0.73377646D+04 0.73377646D+04 0.12235249D+01  1  2  2  2  6  5        1 0.503325604450D-05 0.100000000000D+01
-.694342573972D-10 0.000000000000D+00 -.103472690301D-09 0.520964414848D-06 0.000000000000D+00  6 2 22 9900012 -11 1 21 2 0.58878168D-01 0.63510139D-02 0.73377646D+04 0.73377646D+04 0.73377646D+04 0.12235249D+01  1  2  3  2  6  5        1 -.970853481434D-08 0.100000000000D+01
-.775857013692D-08 0.000000000000D+00 0.000000000000D+00 0.520964414848D-06 0.000000000000D+00  6 2 22 9900012 -11 1 21 2 0.58878168D-01 0.63510139D-02 0.73377646D+04 0.73377646D+04 0.73377646D+04 0.12235249D+01  1  2 15  2  6  5        1 -.108482975274D-05 0.100000000000D+01
-.932505425044D-03 0.000000000000D+00 0.000000000000D+00 0.520964414848D-06 0.000000000000D+00  6 2 22 9900012 -11 1 21 2 0.58878168D-01 0.63510139D-02 0.73377646D+04 0.73377646D+04 0.73377646D+04 0.12235249D+01  1  2  4  2  6  5        1 -.130386090713D+00 0.100000000000D+01
-.108621429889D-02 0.000000000000D+00 0.000000000000D+00 0.520964414848D-06 0.000000000000D+00  6 2 22 9900012 -11 1 21 2 0.58878168D-01 0.63510139D-02 0.73377646D+04 0.73377646D+04 0.73377646D+04 0.12235249D+01  1  2  5  2  6  5        1 -.151878189988D+00 0.100000000000D+01
0.108923739101D-02 0.000000000000D+00 -.000000000000D+00 0.520964414848D-06 0.000000000000D+00  6 2 22 9900012 -11 1 21 2 0.58878168D-01 0.63510139D-02 0.73377646D+04 0.73377646D+04 0.73377646D+04 0.12235249D+01  1  2  6  2  6  5        1 0.152300889044D+00 0.100000000000D+01
0.930299926231D-03 0.000000000000D+00 0.000000000000D+00 0.520964414848D-06 0.695082060424D-02  6 2 22 9900012 -11 1 21 2 0.58878168D-01 0.63510139D-02 0.73377565D+04 0.73377565D+04 0.73377565D+04 0.12235249D+01  1  2 11  2  6  5        1 0.130077710281D+00 0.100000000000D+01
  </mgrwgt>
  </event>
  <event>
  6     66 0.12453494E-05 0.11265790E+03 0.78161638E-02 0.10127026E+00
        2 -1    0    0  501    0 0.00000000E+00 0.00000000E+00 0.80703570E+03 0.80703570E+03 0.00000000E+00 0.0000E+00 0.9000E+01
       22 -1    0    0    0    0 0.00000000E+00 0.00000000E+00 -.18790055E+03 0.18790055E+03 0.00000000E+00 0.0000E+00 0.9000E+01
       24  2    1    2    0    0 0.16720532E+02 -.11141017E+03 -.15848254E+03 0.20920025E+03 0.77176597E+02 0.0000E+00 0.0000E+00
  9900012  1    3    3    0    0 0.76825531E+01 -.88108361E+02 -.87974403E+02 0.13439345E+03 0.50000000E+02 0.0000E+00 0.9000E+01
      -11  1    3    3    0    0 0.90379790E+01 -.23301806E+02 -.70508135E+02 0.74806793E+02 0.00000000E+00 0.0000E+00 0.9000E+01
        1  1    1    2  501    0 -.16720532E+02 0.11141017E+03 0.77761769E+03 0.78573600E+03 0.00000000E+00 0.0000E+00 0.9000E+01
#aMCatNLO 1  0  0  1  5 0.44338592D+03 0.00000000D+00  -5  6  0 0.00000000D+00 0.00000000D+00 0.00000000D+00 0.00000000D+00 0.00000000D+00
  <mgrwgt>
 0.3352749184D-03    4    2    0
 0.389412958664145D+03 0.000000000000000D+00 0.000000000000000D+00 0.389412958664145D+03
 0.389412958664145D+03 0.000000000000000D+00 0.000000000000000D+00 -.389412958664145D+03
 0.241621342365763D+03 0.768255313205190D+01 -.881083606124970D+02 -.219223101552242D+03
 0.151615466362398D+03 0.903797897191933D+01 -.233018063778519D+02 -.149541266531749D+03
 0.385589108600130D+03 -.167205321039712D+02 0.111410166990349D+03 0.368764368083991D+03
 0.000000000000000D+00 0.000000000000000D+00 0.000000000000000D+00 -.000000000000000D+00
 0.490059680261684D+03 0.000000000000000D+00 0.000000000000000D+00 0.490059680261684D+03
 0.612472460776027D+03 0.000000000000000D+00 0.000000000000000D+00 -.612472460776027D+03
 0.282086742981998D+03 -.849078589389884D+01 -.170123686966015D+03 -.219223101552242D+03
 0.166459793556483D+03 -.784934132466738D+00 -.731139956051852D+02 -.149541266531749D+03
 0.371004193741948D+03 -.400859150833394D+02 -.707615839694498D+01 0.368764368083991D+03
 0.282981410757283D+03 0.493616351097050D+02 0.250313840968145D+03 -.122412780514343D+03
0.886874942854D-04 0.000000000000D+00 0.000000000000D+00 0.857143073015D-05 0.000000000000D+00  6 2 22 9900012 -11 1 21 0 0.12415934D+00 0.28907777D-01 0.14310002D+05 0.14310002D+05 0.14310002D+05 0.11935210D+01  1  2  2  1  6  1        2 0.418676799883D-03 0.100000000000D+01
0.769504067852D-06 0.000000000000D+00 -.170291665005D-06 0.857143073015D-05 0.000000000000D+00  6 2 22 9900012 -11 1 21 2 0.12415934D+00 0.28907777D-01 0.14310002D+05 0.14310002D+05 0.14310002D+05 0.11935210D+01  1  2  3  1  6  1        2 0.517472813595D-05 0.100000000000D+01
-.128924926445D-04 0.000000000000D+00 0.000000000000D+00 0.857143073015D-05 0.000000000000D+00  6 2 22 9900012 -11 1 21 2 0.12415934D+00 0.28907777D-01 0.14310002D+05 0.14310002D+05 0.14310002D+05 0.11935210D+01  1  2 15  1  6  1        2 -.866988846677D-04 0.100000000000D+01
-.279225683484D-06 0.000000000000D+00 0.000000000000D+00 0.857143073015D-05 0.000000000000D+00  6 2 22 9900012 -11 1 21 2 0.12415934D+00 0.28907777D-01 0.14310002D+05 0.14310002D+05 0.14310002D+05 0.11935210D+01  1  2  4  1  6  1        2 -.187772496725D-05 0.100000000000D+01
  </mgrwgt>
  </event>
  <event>
  6     66 0.12453494E-05 0.14478133E+02 0.78161638E-02 0.13219911E+00
        2 -1    0    0  501    0 0.00000000E+00 0.00000000E+00 0.18389755E+04 0.18389755E+04 0.00000000E+00 0.0000E+00 0.9000E+01
       22 -1    0    0    0    0 0.00000000E+00 0.00000000E+00 -.14285768E+02 0.14285768E+02 0.00000000E+00 0.0000E+00 0.9000E+01
       24  2    1    2    0    0 -.10035843E+02 0.10435430E+02 0.98866686E+02 0.12737749E+03 0.78998658E+02 0.0000E+00 0.0000E+00
  9900012  1    3    3    0    0 0.92240872E+01 -.43323847E+01 0.43984049E+02 0.67368018E+02 0.50000000E+02 0.0000E+00 0.9000E+01
      -11  1    3    3    0    0 -.19259930E+02 0.14767814E+02 0.54882637E+02 0.60009475E+02 0.00000000E+00 0.0000E+00 0.9000E+01
        1  1    1    2  501    0 0.10035843E+02 -.10435430E+02 0.17258231E+04 0.17258838E+04 0.00000000E+00 0.0000E+00 0.9000E+01
#aMCatNLO 1  0  0  5  1 0.81545804D+00 0.00000000D+00  -5  6  0 0.00000000D+00 0.00000000D+00 0.00000000D+00 0.00000000D+00 0.00000000D+00
  <mgrwgt>
 0.1667814415D-02    8    2    0
 0.162083859594287D+03 0.000000000000000D+00 0.000000000000000D+00 0.162083859594287D+03
 0.162083859594287D+03 -.000000000000000D+00 -.000000000000000D+00 -.162083859594287D+03
 0.137562423933058D+03 0.922408718568757D+01 -.433238472043240D+01 -.127748061185145D+03
 0.341472983910221D+02 -.192599304006877D+02 0.147678143757923D+02 -.240209226910273D+02
 0.152457996864493D+03 0.100358432150000D+02 -.104354296553598D+02 0.151768983876172D+03
 0.000000000000000D+00 0.000000000000000D+00 -.000000000000000D+00 0.000000000000000D+00
 0.162083859594287D+03 0.000000000000000D+00 0.000000000000000D+00 0.162083859594287D+03
 0.162083859594287D+03 -.000000000000000D+00 -.000000000000000D+00 -.162083859594287D+03
 0.137559025116868D+03 0.922433093440994D+01 -.433263817423707D+01 -.127744375047854D+03
 0.341465933913967D+02 -.192598698945043D+02 0.147677514604988D+02 -.240200076745425D+02
 0.775210861895247D+02 0.464139328756930D+01 -.463778195713997D+01 0.772429106835822D+02
 0.749410144907837D+02 0.539414567252489D+01 -.579733132912165D+01 0.745214720388145D+02
0.770837817064D-07 0.000000000000D+00 0.000000000000D+00 0.115695511681D-04 0.000000000000D+00  6 2 22 9900012 -11 1 21 0 0.28291931D+00 0.21978105D-02 0.20149373D+04 0.20149373D+04 0.20149373D+04 0.12889023D+01  1  2  2  2  6  5        1 0.357884835915D-05 0.100000000000D+01
0.140212579357D-07 0.000000000000D+00 -.148011009189D-09 0.115695511681D-04 0.000000000000D+00  6 2 22 9900012 -11 1 21 2 0.28291931D+00 0.21978105D-02 0.20149373D+04 0.20149373D+04 0.20149373D+04 0.12889023D+01  1  2  3  2  6  5        1 0.108145200842D-05 0.100000000000D+01
-.128673011905D-07 0.000000000000D+00 0.000000000000D+00 0.115695511681D-04 0.000000000000D+00  6 2 22 9900012 -11 1 21 2 0.28291931D+00 0.21978105D-02 0.20149373D+04 0.20149373D+04 0.20149373D+04 0.12889023D+01  1  2 15  2  6  5        1 -.992447951471D-06 0.100000000000D+01
0.885687264010D-10 0.000000000000D+00 0.000000000000D+00 0.115695511681D-04 0.000000000000D+00  6 2 22 9900012 -11 1 21 2 0.28291931D+00 0.21978105D-02 0.20150234D+04 0.20150234D+04 0.20150234D+04 0.12888999D+01  1  2 12  2  6  5        1 0.683124676977D-08 0.100000000000D+01
-.672951544568D-04 0.000000000000D+00 0.000000000000D+00 0.115695511681D-04 0.000000000000D+00  6 2 22 9900012 -11 1 21 2 0.28291931D+00 0.21978105D-02 0.20149373D+04 0.20149373D+04 0.20149373D+04 0.12889023D+01  1  2  4  2  6  5        1 -.519043870939D-02 0.100000000000D+01
-.636380649021D-04 0.000000000000D+00 0.000000000000D+00 0.115695511681D-04 0.000000000000D+00  6 2 22 9900012 -11 1 21 2 0.28291931D+00 0.21978105D-02 0.20149373D+04 0.20149373D+04 0.20149373D+04 0.12889023D+01  1  2  5  2  6  5        1 -.490836937852D-02 0.100000000000D+01
0.101131631581D-03 0.000000000000D+00 -.000000000000D+00 0.115695511681D-04 0.000000000000D+00  6 2 22 9900012 -11 1 21 2 0.28291931D+00 0.21978105D-02 0.20149373D+04 0.20149373D+04 0.20149373D+04 0.12889023D+01  1  2  6  2  6  5        1 0.780022781045D-02 0.100000000000D+01
0.513776000288D-04 0.000000000000D+00 0.000000000000D+00 0.115695511681D-04 0.399252657518D-04  6 2 22 9900012 -11 1 21 2 0.28291931D+00 0.21978105D-02 0.20150234D+04 0.20150234D+04 0.20150234D+04 0.12888999D+01  1  2 11  2  6  5        1 0.396272000848D-02 0.100000000000D+01
  </mgrwgt>
  </event>
  <event>
  6     66 0.12453494E-05 0.47489516E+02 0.78161638E-02 0.11517659E+00
        2 -1    0    0  501    0 0.00000000E+00 0.00000000E+00 0.17594227E+04 0.17594227E+04 0.00000000E+00 0.0000E+00 0.9000E+01
       22 -1    0    0    0    0 0.00000000E+00 0.00000000E+00 -.72607043E+02 0.72607043E+02 0.00000000E+00 0.0000E+00 0.9000E+01
       24  2    1    2    0    0 0.79356860E+02 0.18477773E+02 -.25863226E+02 0.11741378E+03 0.80486958E+02 0.0000E+00 0.0000E+00
  9900012  1    3    3    0    0 0.44820518E+02 -.11871868E+02 -.10846565E+02 0.69046854E+02 0.50000000E+02 0.0000E+00 0.9000E+01
      -11  1    3    3    0    0 0.34536343E+02 0.30349641E+02 -.15016660E+02 0.48366928E+02 0.00000000E+00 0.0000E+00 0.9000E+01
        1  1    1    2  501    0 -.79356860E+02 -.18477773E+02 0.17126789E+04 0.17146160E+04 0.00000000E+00 0.0000E+00 0.9000E+01
#aMCatNLO 1  0  0  1  5 0.19919027D+02 0.00000000D+00  -5  6  0 0.00000000D+00 0.00000000D+00 0.00000000D+00 0.00000000D+00 0.00000000D+00
  <mgrwgt>
 0.3579522116D-03    9    2    0
 0.357416396673336D+03 0.000000000000000D+00 0.000000000000000D+00 0.357416396673336D+03
 0.357416396673336D+03 0.000000000000000D+00 0.000000000000000D+00 -.357416396673336D+03
 0.202553727590054D+03 0.448205177880049D+02 -.118718682023052D+02 -.190730680518967D+03
 0.159393903888255D+03 0.345363426578068D+02 0.303496409977224D+02 -.152618992670867D+03
 0.352885161868363D+03 -.793568604458117D+02 -.184777727954172D+02 0.343349673189834D+03
 0.000000000000000D+00 0.000000000000000D+00 -.000000000000000D+00 0.000000000000000D+00
 0.371161878529009D+03 0.000000000000000D+00 0.000000000000000D+00 0.371161878529009D+03
 0.362739373033128D+03 0.000000000000000D+00 0.000000000000000D+00 -.362739373033128D+03
 0.201621234626025D+03 0.411792638227038D+02 -.878623878086780D+01 -.190730680518967D+03
 0.159279461263651D+03 0.316653814084188D+02 0.327825178537002D+02 -.152618992670867D+03
 0.354131489064017D+03 -.857264464528864D+02 -.130801317154219D+02 0.343349673189834D+03
 0.188690666084434D+02 0.128818012217639D+02 -.109161473574105D+02 0.842250549588056D+01
0.135323205205D-04 0.000000000000D+00 0.000000000000D+00 0.107284485539D-03 0.000000000000D+00  6 2 22 9900012 -11 1 21 0 0.27068042D+00 0.11170314D-01 0.95693399D+04 0.95693399D+04 0.95693399D+04 0.12113166D+01  1  2  2  1  6  1        2 0.783709952420D-04 0.100000000000D+01
0.303948825809D-06 0.000000000000D+00 -.259838369703D-07 0.107284485539D-03 0.000000000000D+00  6 2 22 9900012 -11 1 21 2 0.27068042D+00 0.11170314D-01 0.95693399D+04 0.95693399D+04 0.95693399D+04 0.12113166D+01  1  2  3  1  6  1        2 0.258284817079D-05 0.100000000000D+01
-.264059269369D-05 0.000000000000D+00 0.000000000000D+00 0.107284485539D-03 0.000000000000D+00  6 2 22 9900012 -11 1 21 2 0.27068042D+00 0.11170314D-01 0.95693399D+04 0.95693399D+04 0.95693399D+04 0.12113166D+01  1  2 15  1  6  1        2 -.224388101864D-04 0.100000000000D+01
0.258071297805D-04 0.000000000000D+00 0.000000000000D+00 0.107284485539D-03 0.000000000000D+00  6 2 22 9900012 -11 1 21 2 0.28527647D+00 0.11170314D-01 0.11507886D+05 0.11507886D+05 0.11507886D+05 0.12030593D+01  1  2 12  1  6  1        2 0.194007200548D-03 0.100000000000D+01
-.583137110883D-06 0.000000000000D+00 0.000000000000D+00 0.107284485539D-03 0.000000000000D+00  6 2 22 9900012 -11 1 21 2 0.27068042D+00 0.11170314D-01 0.95693399D+04 0.95693399D+04 0.95693399D+04 0.12113166D+01  1  2  4  1  6  1        2 -.495529014188D-05 0.100000000000D+01
-.132849868269D-03 0.000000000000D+00 -.281989097998D-04 0.107284485539D-03 0.000000000000D+00  6 2 22 9900012 -11 1 21 2 0.28302405D+00 0.11170314D-01 0.95693399D+04 0.95693399D+04 0.95693399D+04 0.12113166D+01  1  2  5  1  6  1        2 -.102691684607D-02 0.100000000000D+01
0.134002101098D-03 0.000000000000D+00 0.281708956977D-04 0.107284485539D-03 0.000000000000D+00  6 2 22 9900012 -11 1 21 2 0.27068042D+00 0.11170314D-01 0.95693399D+04 0.95693399D+04 0.95693399D+04 0.12113166D+01  1  2  6  1  6  1        2 0.113870182187D-02 0.100000000000D+01
0.449604008413D-06 0.000000000000D+00 0.000000000000D+00 0.107284485539D-03 0.000000000000D+00  6 21 22 9900012 -11 1 -2 2 0.28527647D+00 0.11170314D-01 0.11507886D+05 0.11507886D+05 0.11507886D+05 0.12030593D+01  1  2 12  3  6  1        2 0.100843727346D-05 0.100000000000D+01
-.102025169816D-05 0.000000000000D+00 -.220778812746D-06 0.107284485539D-03 0.000000000000D+00  6 21 22 9900012 -11 1 -2 2 0.28302405D+00 0.11170314D-01 0.95693399D+04 0.95693399D+04 0.95693399D+04 0.12113166D+01  1  2  5  3  6  1        2 -.240814506106D-05 0.100000000000D+01
  </mgrwgt>
  </event>
  <event>
  6     66 0.12453494E-05 0.41936871E+02 0.78161638E-02 0.11792617E+00
        2 -1    0    0  501    0 0.00000000E+00 0.00000000E+00 0.15353263E+04 0.15353263E+04 0.00000000E+00 0.0000E+00 0.9000E+01
       22 -1    0    0    0    0 0.00000000E+00 0.00000000E+00 -.16715863E+02 0.16715863E+02 0.00000000E+00 0.0000E+00 0.9000E+01
       24  2    1    2    0    0 -.60141654E+02 0.36602656E+02 0.17031337E+03 0.20190819E+03 0.82483325E+02 0.0000E+00 0.0000E+00
  9900012  1    3    3    0    0 -.61009104E+02 0.85566737E+01 0.11273721E+03 0.13785864E+03 0.50000000E+02 0.0000E+00 0.9000E+01
      -11  1    3    3    0    0 0.86745001E+00 0.28045983E+02 0.57576161E+02 0.64049543E+02 0.00000000E+00 0.0000E+00 0.9000E+01
        1  1    1    2  501    0 0.60141654E+02 -.36602656E+02 0.13482971E+04 0.13501340E+04 0.00000000E+00 0.0000E+00 0.9000E+01
#aMCatNLO 1  0  0  1  5 0.62617712D+01 0.00000000D+00  -5  6  0 0.00000000D+00 0.00000000D+00 0.00000000D+00 0.00000000D+00 0.00000000D+00
  <mgrwgt>
 0.2272490425D-03   11    2    0
 0.160200825271612D+03 0.000000000000000D+00 0.000000000000000D+00 0.160200825271612D+03
 0.160200825271612D+03 0.000000000000000D+00 0.000000000000000D+00 -.160200825271612D+03
 0.133452890374365D+03 -.610091044348441D+02 0.855667372612269D+01 -.107304922813798D+03
 0.373650757402049D+02 0.867450005977432D+00 0.280459826023538D+02 -.246742634221743D+02
 0.149583684428654D+03 0.601416544288667D+02 -.366026563284764D+02 0.131979186235972D+03
 0.000000000000000D+00 0.000000000000000D+00 -.000000000000000D+00 0.000000000000000D+00
 0.169821339890213D+03 0.000000000000000D+00 0.000000000000000D+00 0.169821339890213D+03
 0.161155972083603D+03 0.000000000000000D+00 0.000000000000000D+00 -.161155972083603D+03
 0.134237418405889D+03 -.623883073546604D+02 0.106318928523034D+02 -.107304922813798D+03
 0.377974919910123D+02 0.480194922488819D+00 0.286286663716669D+02 -.246742634221743D+02
 0.148422266634304D+03 0.586062582477293D+02 -.342924208471121D+02 0.131979186235972D+03
 0.105201349426112D+02 0.330185418444233D+01 -.496813837685828D+01 0.866536780660906D+01
0.470528751387D-06 0.000000000000D+00 0.000000000000D+00 0.780867568149D-06 0.000000000000D+00  6 2 22 9900012 -11 1 21 0 0.23620405D+00 0.25716712D-02 0.79038188D+04 0.79038188D+04 0.79038188D+04 0.12200702D+01  1  2  2  1  6  1        2 0.268651262986D-04 0.100000000000D+01
0.779812048671D-08 0.000000000000D+00 -.903477149196D-09 0.780867568149D-06 0.000000000000D+00  6 2 22 9900012 -11 1 21 2 0.23620405D+00 0.25716712D-02 0.79038188D+04 0.79038188D+04 0.79038188D+04 0.12200702D+01  1  2  3  1  6  1        2 0.662769143094D-06 0.100000000000D+01
-.815743161646D-07 0.000000000000D+00 0.000000000000D+00 0.780867568149D-06 0.000000000000D+00  6 2 22 9900012 -11 1 21 2 0.23620405D+00 0.25716712D-02 0.79038188D+04 0.79038188D+04 0.79038188D+04 0.12200702D+01  1  2 15  1  6  1        2 -.693307313154D-05 0.100000000000D+01
0.255583169229D-05 0.000000000000D+00 0.000000000000D+00 0.780867568149D-06 0.000000000000D+00  6 2 22 9900012 -11 1 21 2 0.25188164D+00 0.25716712D-02 0.83864864D+04 0.83864864D+04 0.83864864D+04 0.12173348D+01  1  2 12  1  6  1        2 0.192429496236D-03 0.100000000000D+01
-.727151133328D-06 0.000000000000D+00 0.000000000000D+00 0.780867568149D-06 0.000000000000D+00  6 2 22 9900012 -11 1 21 2 0.23620405D+00 0.25716712D-02 0.79038188D+04 0.79038188D+04 0.79038188D+04 0.12200702D+01  1  2  4  1  6  1        2 -.618012166338D-04 0.100000000000D+01
-.695330446435D-05 0.000000000000D+00 -.760905863265D-06 0.780867568149D-06 0.000000000000D+00  6 2 22 9900012 -11 1 21 2 0.25098891D+00 0.25716712D-02 0.79038188D+04 0.79038188D+04 0.79038188D+04 0.12200702D+01  1  2  5  1  6  1        2 -.527982608204D-03 0.100000000000D+01
0.698801834611D-05 0.000000000000D+00 0.759505651326D-06 0.780867568149D-06 0.000000000000D+00  6 2 22 9900012 -11 1 21 2 0.23620405D+00 0.25716712D-02 0.79038188D+04 0.79038188D+04 0.79038188D+04 0.12200702D+01  1  2  6  1  6  1        2 0.593917847136D-03 0.100000000000D+01
0.143282530619D-06 0.000000000000D+00 0.000000000000D+00 0.780867568149D-06 0.551858436227D-06  6 2 22 9900012 -11 1 21 2 0.25038877D+00 0.25870040D-02 0.83864864D+04 0.83864864D+04 0.83864864D+04 0.12173348D+01  1  2 11  1  6  1        2 0.108239321924D-04 0.100000000000D+01
0.383537679737D-07 0.000000000000D+00 0.000000000000D+00 0.780867568149D-06 0.000000000000D+00  6 21 22 9900012 -11 1 -2 2 0.25188164D+00 0.25716712D-02 0.83864864D+04 0.83864864D+04 0.83864864D+04 0.12173348D+01  1  2 12  3  6  1        2 0.107676766283D-05 0.100000000000D+01
-.714509364152D-07 0.000000000000D+00 -.792548938194D-08 0.780867568149D-06 0.000000000000D+00  6 21 22 9900012 -11 1 -2 2 0.25098891D+00 0.25716712D-02 0.79038188D+04 0.79038188D+04 0.79038188D+04 0.12200702D+01  1  2  5  3  6  1        2 -.204105925421D-05 0.100000000000D+01
0.812363800163D-08 0.000000000000D+00 0.000000000000D+00 0.780867568149D-06 0.214653349719D-08  6 21 22 9900012 -11 1 -2 2 0.25038877D+00 0.25870040D-02 0.83864864D+04 0.83864864D+04 0.83864864D+04 0.12173348D+01  1  2 11  3  6  1        2 0.231061005170D-06 0.100000000000D+01
  </mgrwgt>
  </event>
  <event>
  6     66 0.12453494E-05 0.42479305E+02 0.78161638E-02 0.11004888E+00
        4 -1    0    0  501    0 0.00000000E+00 0.00000000E+00 0.96980732E+03 0.96980732E+03 0.00000000E+00 0.0000E+00 0.9000E+01
       22 -1    0    0    0    0 0.00000000E+00 0.00000000E+00 -.48083690E+01 0.48083690E+01 0.00000000E+00 0.0000E+00 0.9000E+01
       24  2    1    2    0    0 -.37624022E+02 0.19721164E+02 0.53291991E+03 0.54045352E+03 0.79258346E+02 0.0000E+00 0.0000E+00
  9900012  1    3    3    0    0 -.20306725E+01 0.21091727E+02 0.32177255E+03 0.32632278E+03 0.50000000E+02 0.0000E+00 0.9000E+01
      -11  1    3    3    0    0 -.35593350E+02 -.13705634E+01 0.21114736E+03 0.21413073E+03 0.00000000E+00 0.0000E+00 0.9000E+01
        3  1    1    2  501    0 0.37624022E+02 -.19721164E+02 0.43207904E+03 0.43416217E+03 0.00000000E+00 0.0000E+00 0.9000E+01
#aMCatNLO 1  0  0  1  5 0.23765156D+02 0.00000000D+00  -5  6  0 0.00000000D+00 0.00000000D+00 0.00000000D+00 0.00000000D+00 0.00000000D+00
  <mgrwgt>
 0.1229803116D-04    3    2    0
 0.682875645868109D+02 0.000000000000000D+00 0.000000000000000D+00 0.682875645868109D+02
 0.682875645868109D+02 0.000000000000000D+00 0.000000000000000D+00 -.682875645868109D+02
 0.551281229887640D+02 -.203067254490448D+01 0.210917272351902D+02 -.949343749734525D+01
 0.361573528693383D+02 -.355933498874943D+02 -.137056336776233D+01 -.621201789752795D+01
 0.452896533155194D+02 0.376240224323988D+02 -.197211638674279D+02 0.157054553948732D+02
 0.000000000000000D+00 0.000000000000000D+00 0.000000000000000D+00 -.000000000000000D+00
 0.145982969755921D+03 0.000000000000000D+00 0.000000000000000D+00 0.145982969755921D+03
 0.151676494123412D+03 0.000000000000000D+00 0.000000000000000D+00 -.151676494123412D+03
 0.560453140492015D+02 -.150410571396733D+02 -.180199464893407D+02 -.949343749734525D+01
 0.584588680374522D+02 -.466660796303066D+02 -.346572805886286D+02 -.621201789752795D+01
 0.656034898291067D+02 0.246464400199594D+02 -.587342280356174D+02 0.157054553948732D+02
 0.117551791963572D+03 0.370606967500205D+02 0.111411455113587D+03 -.569352436749121D+01
0.902569671931D-06 0.000000000000D+00 0.000000000000D+00 0.870147317338D-07 0.000000000000D+00  6 4 22 9900012 -11 3 21 0 0.14920113D+00 0.73974908D-03 0.43826775D+04 0.43826775D+04 0.43826775D+04 0.12483427D+01  1  2  2  1  6  1        4 0.164023040449D-04 0.100000000000D+01
-.100819335780D-07 0.000000000000D+00 -.173305259613D-08 0.870147317338D-07 0.000000000000D+00  6 4 22 9900012 -11 3 21 2 0.14920113D+00 0.73974908D-03 0.43826775D+04 0.43826775D+04 0.43826775D+04 0.12483427D+01  1  2  3  1  6  1        4 -.285519409205D-06 0.100000000000D+01
-.134843438615D-06 0.000000000000D+00 0.000000000000D+00 0.870147317338D-07 0.000000000000D+00  6 4 22 9900012 -11 3 21 2 0.14920113D+00 0.73974908D-03 0.43826775D+04 0.43826775D+04 0.43826775D+04 0.12483427D+01  1  2 15  1  6  1        4 -.381875347926D-05 0.100000000000D+01
  </mgrwgt>
  </event>
  <event>
  6     66 0.12453494E-05 0.11217988E+02 0.78161638E-02 0.13320818E+00
        2 -1    0    0  501    0 0.00000000E+00 0.00000000E+00 0.28917530E+03 0.28917530E+03 0.00000000E+00 0.0000E+00 0.9000E+01
       22 -1    0    0    0    0 0.00000000E+00 0.00000000E+00 -.92548472E+01 0.92548472E+01 0.00000000E+00 0.0000E+00 0.9000E+01
       24  2    1    2    0    0 0.39202602E+01 -.10510700E+02 0.17280687E+03 0.19073074E+03 0.79938456E+02 0.0000E+00 0.0000E+00
  9900012  1    3    3    0    0 -.10499793E+02 0.71450369E+01 0.14940686E+03 0.15806236E+03 0.50000000E+02 0.0000E+00 0.9000E+01
      -11  1    3    3    0    0 0.14420053E+02 -.17655737E+02 0.23400010E+02 0.32668386E+02 0.00000000E+00 0.0000E+00 0.9000E+01
        1  1    1    2  501    0 -.39202602E+01 0.10510700E+02 0.10711357E+03 0.10769940E+03 0.00000000E+00 0.0000E+00 0.9000E+01
#aMCatNLO 1  0  0  5  1 0.98060072D+00 0.00000000D+00  -5  6  0 0.00000000D+00 0.00000000D+00 0.00000000D+00 0.00000000D+00 0.00000000D+00
  <mgrwgt>
 0.1183735229D-03    8    2    0
 0.517327089511784D+02 0.000000000000000D+00 0.000000000000000D+00 0.517327089511784D+02
 0.517327089511784D+02 -.000000000000000D+00 -.000000000000000D+00 -.517327089511784D+02
 0.516939384614297D+02 -.104997928991213D+02 0.714503686951487D+01 0.331150583011901D+01
 0.309194109418079D+02 0.144200531015880D+02 -.176557366630341D+02 -.208889206140806D+02
 0.208520684991193D+02 -.392026020246676D+01 0.105106997935192D+02 0.175774147839616D+02
 0.000000000000000D+00 0.000000000000000D+00 0.000000000000000D+00 0.000000000000000D+00
 0.517327089511784D+02 0.000000000000000D+00 0.000000000000000D+00 0.517327089511784D+02
 0.517327089511784D+02 -.000000000000000D+00 -.000000000000000D+00 -.517327089511784D+02
 0.517117765186299D+02 -.105203814564669D+02 0.720023732414420D+01 0.340381950155328D+01
 0.308575914698841D+02 0.144077530139474D+02 -.176227586151629D+02 -.208337702589583D+02
 0.183870118609759D+02 -.438608324926008D+01 0.931030757368543D+01 0.152368845828012D+02
 0.250903805286679D+01 0.498711691779537D+00 0.111221371733328D+01 0.219306617460386D+01
0.461578185056D-07 0.000000000000D+00 0.000000000000D+00 0.208147817282D-06 0.000000000000D+00  6 2 22 9900012 -11 1 21 0 0.44488507D-01 0.14238226D-02 0.18319199D+04 0.18319199D+04 0.18319199D+04 0.12941612D+01  1  2  2  2  6  5        1 0.377257540066D-04 0.100000000000D+01
0.419222801174D-08 0.000000000000D+00 -.886290883471D-10 0.208147817282D-06 0.000000000000D+00  6 2 22 9900012 -11 1 21 2 0.44488507D-01 0.14238226D-02 0.18319199D+04 0.18319199D+04 0.18319199D+04 0.12941612D+01  1  2  3  2  6  5        1 0.573871001797D-05 0.100000000000D+01
-.616534357334D-08 0.000000000000D+00 0.000000000000D+00 0.208147817282D-06 0.000000000000D+00  6 2 22 9900012 -11 1 21 2 0.44488507D-01 0.14238226D-02 0.18319199D+04 0.18319199D+04 0.18319199D+04 0.12941612D+01  1  2 15  2  6  5        1 -.843969336341D-05 0.100000000000D+01
0.193521963915D-11 0.000000000000D+00 0.000000000000D+00 0.208147817282D-06 0.000000000000D+00  6 2 22 9900012 -11 1 21 2 0.44488507D-01 0.14238226D-02 0.18435455D+04 0.18435455D+04 0.18435455D+04 0.12938096D+01  1  2 12  2  6  5        1 0.264966714237D-08 0.100000000000D+01
-.601207868247D-06 0.000000000000D+00 0.000000000000D+00 0.208147817282D-06 0.000000000000D+00  6 2 22 9900012 -11 1 21 2 0.44488507D-01 0.14238226D-02 0.18319199D+04 0.18319199D+04 0.18319199D+04 0.12941612D+01  1  2  4  2  6  5        1 -.822989018425D-03 0.100000000000D+01
-.509370748188D-06 0.000000000000D+00 0.000000000000D+00 0.208147817282D-06 0.000000000000D+00  6 2 22 9900012 -11 1 21 2 0.44488507D-01 0.14238226D-02 0.18319199D+04 0.18319199D+04 0.18319199D+04 0.12941612D+01  1  2  5  2  6  5        1 -.697273861847D-03 0.100000000000D+01
0.589209878965D-06 0.000000000000D+00 -.000000000000D+00 0.208147817282D-06 0.000000000000D+00  6 2 22 9900012 -11 1 21 2 0.44488507D-01 0.14238226D-02 0.18319199D+04 0.18319199D+04 0.18319199D+04 0.12941612D+01  1  2  6  2  6  5        1 0.806565059351D-03 0.100000000000D+01
0.582131630540D-06 0.000000000000D+00 0.000000000000D+00 0.208147817282D-06 0.196793355994D-05  6 2 22 9900012 -11 1 21 2 0.44488507D-01 0.14238226D-02 0.18435455D+04 0.18435455D+04 0.18435455D+04 0.12938096D+01  1  2 11  2  6  5        1 0.797043923476D-03 0.100000000000D+01
  </mgrwgt>
  </event>
  <event>
  6     66 0.12453494E-05 0.52782666E+02 0.78161638E-02 0.11677632E+00
        2 -1    0    0  501    0 0.00000000E+00 0.00000000E+00 0.73057570E+02 0.73057570E+02 0.00000000E+00 0.0000E+00 0.9000E+01
       22 -1    0    0    0    0 0.00000000E+00 0.00000000E+00 -.68842805E+03 0.68842805E+03 0.00000000E+00 0.0000E+00 0.9000E+01
       24  2    1    2    0    0 0.52596347E+02 -.44310407E+01 -.67490367E+03 0.68192299E+03 0.82085304E+02 0.0000E+00 0.0000E+00
  9900012  1    3    3    0    0 0.26346600E+02 -.10963798E+02 -.26763114E+03 0.27375313E+03 0.50000000E+02 0.0000E+00 0.9000E+01
      -11  1    3    3    0    0 0.26249747E+02 0.65327571E+01 -.40727253E+03 0.40816986E+03 0.00000000E+00 0.0000E+00 0.9000E+01
        1  1    1    2  501    0 -.52596347E+02 0.44310407E+01 0.59533193E+02 0.79562622E+02 0.00000000E+00 0.0000E+00 0.9000E+01
#aMCatNLO 1  0  0  1  5 0.73774542D+02 0.00000000D+00  -5  6  0 0.00000000D+00 0.00000000D+00 0.00000000D+00 0.00000000D+00 0.00000000D+00
  <mgrwgt>
 0.1026912496D-03    4    2    0
 0.224265200458975D+03 0.000000000000000D+00 0.000000000000000D+00 0.224265200458975D+03
 0.224265200458975D+03 0.000000000000000D+00 0.000000000000000D+00 -.224265200458975D+03
 0.975781520495582D+02 0.263466001139706D+02 -.109637977563043D+02 -.787854527092412D+02
 0.134198241762432D+03 0.262497465030012D+02 0.653275705832773D+01 -.131443683704745D+03
 0.216754007105960D+03 -.525963466169718D+02 0.443104069797653D+01 0.210229136413987D+03
 0.000000000000000D+00 -.000000000000000D+00 -.000000000000000D+00 -.000000000000000D+00
 0.244398947421757D+03 0.000000000000000D+00 0.000000000000000D+00 0.244398947421757D+03
 0.254551268221044D+03 0.000000000000000D+00 0.000000000000000D+00 -.254551268221044D+03
 0.972190503775084D+02 0.272703321670594D+02 -.851575717519070D+00 -.787854527092412D+02
 0.135859272025001D+03 0.275303643894739D+02 0.205518574798714D+02 -.131443683704745D+03
 0.217896298422364D+03 -.505352265695640D+02 0.269944057975028D+02 0.210229136413987D+03
 0.479755948179266D+02 -.426546998696934D+01 -.466946875598552D+02 -.101523207992873D+02
0.182737911236D-04 0.000000000000D+00 0.000000000000D+00 0.110412790777D-04 0.000000000000D+00  6 2 22 9900012 -11 1 21 0 0.11239626D-01 0.10591201D+00 0.47199289D+04 0.47199289D+04 0.47199289D+04 0.12446753D+01  1  2  2  1  6  1        2 0.126883135235D-03 0.100000000000D+01
0.524489665658D-06 0.000000000000D+00 -.350880847572D-07 0.110412790777D-04 0.000000000000D+00  6 2 22 9900012 -11 1 21 2 0.11239626D-01 0.10591201D+00 0.47199289D+04 0.47199289D+04 0.47199289D+04 0.12446753D+01  1  2  3  1  6  1        2 0.564188608322D-05 0.100000000000D+01
-.265271438015D-05 0.000000000000D+00 0.000000000000D+00 0.110412790777D-04 0.000000000000D+00  6 2 22 9900012 -11 1 21 2 0.11239626D-01 0.10591201D+00 0.47199289D+04 0.47199289D+04 0.47199289D+04 0.12446753D+01  1  2 15  1  6  1        2 -.285349994940D-04 0.100000000000D+01
-.120738457328D-06 0.000000000000D+00 0.000000000000D+00 0.110412790777D-04 0.000000000000D+00  6 2 22 9900012 -11 1 21 2 0.11239626D-01 0.10591201D+00 0.47199289D+04 0.47199289D+04 0.47199289D+04 0.12446753D+01  1  2  4  1  6  1        2 -.129877224798D-05 0.100000000000D+01
  </mgrwgt>
  </event>
  <event>
  6     66 0.12453494E-05 0.41267732E+02 0.78161638E-02 0.12101626E+00
        2 -1    0    0  501    0 0.00000000E+00 0.00000000E+00 0.23860080E+04 0.23860080E+04 0.00000000E+00 0.0000E+00 0.9000E+01
       22 -1    0    0    0    0 0.00000000E+00 0.00000000E+00 -.27250841E+01 0.27250841E+01 0.00000000E+00 0.0000E+00 0.9000E+01
       24  2    1    2    0    0 -.46945642E+02 -.19546290E+02 0.10421185E+04 0.10466049E+04 0.82371066E+02 0.0000E+00 0.0000E+00
  9900012  1    3    3    0    0 -.59951765E+02 -.22207750E+02 0.79558315E+03 0.79971241E+03 0.50000000E+02 0.0000E+00 0.9000E+01
      -11  1    3    3    0    0 0.13006123E+02 0.26614599E+01 0.24653535E+03 0.24689253E+03 0.00000000E+00 0.0000E+00 0.9000E+01
        1  1    1    2  501    0 0.46945642E+02 0.19546290E+02 0.13411645E+04 0.13421282E+04 0.00000000E+00 0.0000E+00 0.9000E+01
#aMCatNLO 1  0  0  5  1 0.31103612D+02 0.00000000D+00  -5  6  0 0.00000000D+00 0.00000000D+00 0.00000000D+00 0.00000000D+00 0.00000000D+00
  <mgrwgt>
 0.5618822205D-03    4    2    0
 0.806354299241160D+02 0.000000000000000D+00 0.000000000000000D+00 0.806354299241160D+02
 0.806354299241160D+02 -.000000000000000D+00 -.000000000000000D+00 -.806354299241160D+02
 0.880492259039361D+02 -.599517653812124D+02 -.222077499250259D+02 -.341360198796805D+02
 0.136222190290349D+02 0.130061228840149D+02 0.266145993973002D+01 0.305323595388826D+01
 0.595994149152610D+02 0.469456424971975D+02 0.195462899852959D+02 0.310827839257922D+02
 0.000000000000000D+00 0.000000000000000D+00 0.000000000000000D+00 -.000000000000000D+00
 0.806354299241160D+02 0.000000000000000D+00 0.000000000000000D+00 0.806354299241160D+02
 0.806354299241160D+02 -.000000000000000D+00 -.000000000000000D+00 -.806354299241160D+02
 0.697213791526581D+02 -.410738133485107D+02 -.143477249017935D+02 -.216368980702609D+02
 0.182183970922148D+02 0.168159937000203D+02 0.424773793732269D+01 0.557575742893559D+01
 0.236361284170617D+02 -.123227508141343D+02 -.201274475632842D+02 0.130469671105095D+01
 0.496949551862974D+02 0.365805704626248D+02 0.302274345277551D+02 0.147564439302743D+02
0.279356254480D-05 0.000000000000D+00 0.000000000000D+00 0.464482694698D-07 0.000000000000D+00  6 2 22 9900012 -11 1 21 0 0.36707816D+00 0.41924371D-03 0.52773449D+04 0.52773449D+04 0.52773449D+04 0.12392144D+01  1  2  2  2  6  5        1 0.632519623761D-03 0.100000000000D+01
-.188350641251D-07 0.000000000000D+00 -.536400786698D-08 0.464482694698D-07 0.000000000000D+00  6 2 22 9900012 -11 1 21 2 0.36707816D+00 0.41924371D-03 0.52773449D+04 0.52773449D+04 0.52773449D+04 0.12392144D+01  1  2  3  2  6  5        1 -.654900965840D-05 0.100000000000D+01
-.458470819058D-06 0.000000000000D+00 0.000000000000D+00 0.464482694698D-07 0.000000000000D+00  6 2 22 9900012 -11 1 21 2 0.36707816D+00 0.41924371D-03 0.52773449D+04 0.52773449D+04 0.52773449D+04 0.12392144D+01  1  2 15  2  6  5        1 -.159411712228D-03 0.100000000000D+01
0.274754270332D-06 0.000000000000D+00 0.000000000000D+00 0.464482694698D-07 0.000000000000D+00  6 2 22 9900012 -11 1 21 2 0.36707816D+00 0.41924371D-03 0.59812333D+04 0.59812333D+04 0.59812333D+04 0.12331809D+01  1  2 12  2  6  5        1 0.953233186388D-04 0.100000000000D+01
  </mgrwgt>
  </event>
  <event>
  6     66 0.12453494E-05 0.70332289E+02 0.78161638E-02 0.10966665E+00
        2 -1    0    0  501    0 0.00000000E+00 0.00000000E+00 0.25287804E+04 0.25287804E+04 0.00000000E+00 0.0000E+00 0.9000E+01
       22 -1    0    0    0    0 0.00000000E+00 0.00000000E+00 -.12453483E+02 0.12453483E+02 0.00000000E+00 0.0000E+00 0.9000E+01
       24  2    1    2    0    0 0.13436206E+02 -.69036941E+02 0.22470716E+03 0.24853510E+03 0.79559750E+02 0.0000E+00 0.0000E+00
  9900012  1    3    3    0    0 0.13190605E+02 -.33435883E+02 0.18607657E+03 0.19600112E+03 0.50000000E+02 0.0000E+00 0.9000E+01
      -11  1    3    3    0    0 0.24560097E+00 -.35601058E+02 0.38630597E+02 0.52533976E+02 0.00000000E+00 0.0000E+00 0.9000E+01
        1  1    1    2  501    0 -.13436206E+02 0.69036941E+02 0.22916198E+04 0.22926988E+04 0.00000000E+00 0.0000E+00 0.9000E+01
#aMCatNLO 1  0  0  1  1 0.13725300D+03 0.00000000D+00  -5  6  0 0.00000000D+00 0.00000000D+00 0.00000000D+00 0.00000000D+00 0.00000000D+00
  <mgrwgt>
 0.4373702688D-03    6    2    0
 0.177460203750070D+03 0.000000000000000D+00 0.000000000000000D+00 0.177460203750070D+03
 0.177460203750070D+03 0.000000000000000D+00 0.000000000000000D+00 -.177460203750070D+03
 0.841180539204246D+02 0.131906047335395D+02 -.334358832032475D+02 -.573052934425938D+02
 0.102259295394809D+03 0.245600973698128D+00 -.356010582128992D+02 -.958617120070694D+02
 0.168543058184907D+03 -.134362057072376D+02 0.690369414161466D+02 0.153167005449663D+03
 0.000000000000000D+00 -.000000000000000D+00 0.000000000000000D+00 0.000000000000000D+00
 0.297181906055060D+03 0.000000000000000D+00 0.000000000000000D+00 0.297181906055060D+03
 0.217694241127897D+03 0.000000000000000D+00 0.000000000000000D+00 -.217694241127897D+03
 0.995651776694819D+02 0.332215693186208D+02 -.550059567667155D+02 -.573052934425938D+02
 0.116286948155503D+03 0.240784355055544D+02 -.612651240592826D+02 -.958617120070694D+02
 0.157779140478115D+03 0.221497775540894D+02 0.307166561640399D+02 0.153167005449663D+03
 0.141244880879858D+03 -.794497823782646D+02 0.855544246619583D+02 0.794876649271629D+02
0.151226810293D-04 0.000000000000D+00 0.000000000000D+00 0.102983161405D-04 0.000000000000D+00  6 2 22 9900012 -11 1 21 0 0.38904315D+00 0.19159204D-02 0.70151520D+04 0.70151520D+04 0.70151520D+04 0.12256291D+01  1  2  2  1  6  1        2 0.386626017740D-03 0.100000000000D+01
0.198639807718D-06 0.000000000000D+00 -.290375385229D-07 0.102983161405D-04 0.000000000000D+00  6 2 22 9900012 -11 1 21 2 0.38904315D+00 0.19159204D-02 0.70151520D+04 0.70151520D+04 0.70151520D+04 0.12256291D+01  1  2  3  1  6  1        2 0.762863306690D-05 0.100000000000D+01
-.239783577937D-05 0.000000000000D+00 0.000000000000D+00 0.102983161405D-04 0.000000000000D+00  6 2 22 9900012 -11 1 21 2 0.38904315D+00 0.19159204D-02 0.70151520D+04 0.70151520D+04 0.70151520D+04 0.12256291D+01  1  2 15  1  6  1        2 -.920873289481D-04 0.100000000000D+01
-.203479042576D-05 0.000000000000D+00 -.313898857491D-05 0.102983161405D-04 0.000000000000D+00  6 2 22 9900012 -11 1 21 2 0.67468506D+00 0.19159204D-02 0.70151520D+04 0.70151520D+04 0.70151520D+04 0.12256291D+01  1  2  5  1  6  1        2 -.391108366433D-05 0.100000000000D+01
0.362224336603D-05 0.000000000000D+00 0.271674428413D-05 0.102983161405D-04 0.000000000000D+00  6 2 22 9900012 -11 1 21 2 0.38904315D+00 0.19159204D-02 0.70151520D+04 0.70151520D+04 0.70151520D+04 0.12256291D+01  1  2  6  1  6  1        2 0.139109908713D-03 0.100000000000D+01
0.327961193877D-07 0.000000000000D+00 -.191393436282D-06 0.102983161405D-04 0.000000000000D+00  6 21 22 9900012 -11 1 -2 2 0.67468506D+00 0.19159204D-02 0.70151520D+04 0.70151520D+04 0.70151520D+04 0.12256291D+01  1  2  5  3  6  1        2 0.412187606651D-08 0.100000000000D+01
  </mgrwgt>
  </event>
  <event>
  6     66 0.12453494E-05 0.53598642E+02 0.78161638E-02 0.11235824E+00
        2 -1    0    0  501    0 0.00000000E+00 0.00000000E+00 0.12553488E+04 0.12553488E+04 0.00000000E+00 0.0000E+00 0.9000E+01
       22 -1    0    0    0    0 0.00000000E+00 0.00000000E+00 -.12145473E+04 0.12145473E+04 0.00000000E+00 0.0000E+00 0.9000E+01
       24  2    1    2    0    0 0.52479189E+02 0.54497196E+02 -.12109283E+04 0.12158819E+04 0.79357156E+02 0.0000E+00 0.0000E+00
  9900012  1    3    3    0    0 0.63308893E+02 0.38420836E+02 -.10486715E+04 0.10524714E+04 0.50000000E+02 0.0000E+00 0.9000E+01
      -11  1    3    3    0    0 -.10829704E+02 0.16076360E+02 -.16225682E+03 0.16341055E+03 0.00000000E+00 0.0000E+00 0.9000E+01
        1  1    1    2  501    0 -.52479189E+02 -.54497196E+02 0.12517298E+04 0.12540142E+04 0.00000000E+00 0.0000E+00 0.9000E+01
#aMCatNLO 1  0  0  1  5 0.64774468D+02 0.00000000D+00  -5  6  0 0.00000000D+00 0.00000000D+00 0.00000000D+00 0.00000000D+00 0.00000000D+00
  <mgrwgt>
 0.3424933417D-02    9    2    0
 0.123477954067036D+04 0.000000000000000D+00 0.000000000000000D+00 0.123477954067036D+04
 0.123477954067036D+04 0.000000000000000D+00 0.000000000000000D+00 -.123477954067036D+04
 0.106994095646009D+04 0.633088932387045D+02 0.384208360603484D+02 -.106620329848676D+04
 0.166113621177650D+03 -.108297042661314D+02 0.160763601545988D+02 -.164978796487426D+03
 0.123350450370298D+04 -.524791889725731D+02 -.544971962149472D+02 0.123118209497418D+04
 0.000000000000000D+00 0.000000000000000D+00 -.000000000000000D+00 0.000000000000000D+00
 0.132796861322609D+04 0.000000000000000D+00 0.000000000000000D+00 0.132796861322609D+04
 0.124528429103151D+04 0.000000000000000D+00 0.000000000000000D+00 -.124528429103151D+04
 0.106968035029629D+04 0.429734514997981D+02 0.554964915301575D+02 -.106620329848676D+04
 0.166627327303394D+03 -.139921490177414D+02 0.187318626862937D+02 -.164978796487426D+03
 0.123401225234783D+04 -.759310227498855D+02 -.348047086428452D+02 0.123118209497418D+04
 0.102932974310072D+03 0.469497202678288D+02 -.394236455736060D+02 0.826843221945808D+02
0.127153063137D-01 0.000000000000D+00 0.000000000000D+00 0.183560175595D-01 0.000000000000D+00  6 2 22 9900012 -11 1 21 0 0.19313059D+00 0.18685343D+00 0.85003983D+04 0.85003983D+04 0.85003983D+04 0.12167149D+01  1  2  2  1  6  1        2 0.103937006799D-02 0.100000000000D+01
0.307114859455D-03 0.000000000000D+00 -.244150621308D-04 0.183560175595D-01 0.000000000000D+00  6 2 22 9900012 -11 1 21 2 0.19313059D+00 0.18685343D+00 0.85003983D+04 0.85003983D+04 0.85003983D+04 0.12167149D+01  1  2  3  1  6  1        2 0.371639516184D-04 0.100000000000D+01
-.208624675111D-02 0.000000000000D+00 0.000000000000D+00 0.183560175595D-01 0.000000000000D+00  6 2 22 9900012 -11 1 21 2 0.19313059D+00 0.18685343D+00 0.85003983D+04 0.85003983D+04 0.85003983D+04 0.12167149D+01  1  2 15  1  6  1        2 -.252456600309D-03 0.100000000000D+01
0.155040255662D-01 0.000000000000D+00 0.000000000000D+00 0.183560175595D-01 0.000000000000D+00  6 2 22 9900012 -11 1 21 2 0.20947323D+00 0.18685343D+00 0.16178923D+05 0.16178923D+05 0.16178923D+05 0.11882488D+01  1  2 12  1  6  1        2 0.157208968556D-02 0.100000000000D+01
-.346295226159D-03 0.000000000000D+00 0.000000000000D+00 0.183560175595D-01 0.000000000000D+00  6 2 22 9900012 -11 1 21 2 0.19313059D+00 0.18685343D+00 0.85003983D+04 0.85003983D+04 0.85003983D+04 0.12167149D+01  1  2  4  1  6  1        2 -.419051655576D-04 0.100000000000D+01
-.705135706356D-01 0.000000000000D+00 -.173961689107D-01 0.183560175595D-01 0.000000000000D+00  6 2 22 9900012 -11 1 21 2 0.20848185D+00 0.18685343D+00 0.85003983D+04 0.85003983D+04 0.85003983D+04 0.12167149D+01  1  2  5  1  6  1        2 -.756791144131D-02 0.100000000000D+01
0.716851020532D-01 0.000000000000D+00 0.173454087065D-01 0.183560175595D-01 0.000000000000D+00  6 2 22 9900012 -11 1 21 2 0.19313059D+00 0.18685343D+00 0.85003983D+04 0.85003983D+04 0.85003983D+04 0.12167149D+01  1  2  6  1  6  1        2 0.867461010905D-02 0.100000000000D+01
0.226572429268D-03 0.000000000000D+00 0.000000000000D+00 0.183560175595D-01 0.000000000000D+00  6 21 22 9900012 -11 1 -2 2 0.20947323D+00 0.18685343D+00 0.16178923D+05 0.16178923D+05 0.16178923D+05 0.11882488D+01  1  2 12  3  6  1        2 0.111817352952D-04 0.100000000000D+01
-.870280782845D-03 0.000000000000D+00 -.223243960103D-03 0.183560175595D-01 0.000000000000D+00  6 21 22 9900012 -11 1 -2 2 0.20848185D+00 0.18685343D+00 0.85003983D+04 0.85003983D+04 0.85003983D+04 0.12167149D+01  1  2  5  3  6  1        2 -.472089254919D-04 0.100000000000D+01
  </mgrwgt>
  </event>
  <event>
  6     66 0.12453494E-05 0.32973320E+02 0.78161638E-02 0.12124962E+00
        2 -1    0    0  501    0 0.00000000E+00 0.00000000E+00 0.16495812E+04 0.16495812E+04 0.00000000E+00 0.0000E+00 0.9000E+01
       22 -1    0    0    0    0 0.00000000E+00 0.00000000E+00 -.44774358E+02 0.44774358E+02 0.00000000E+00 0.0000E+00 0.9000E+01
       24  2    1    2    0    0 0.46432875E+01 0.47869313E+02 0.91062339E+01 0.97930344E+02 0.84819795E+02 0.0000E+00 0.0000E+00
  9900012  1    3    3    0    0 0.29023852E+02 0.34853108E+02 0.16145640E+02 0.69410408E+02 0.50000000E+02 0.0000E+00 0.9000E+01
      -11  1    3    3    0    0 -.24380564E+02 0.13016205E+02 -.70394059E+01 0.28519936E+02 0.00000000E+00 0.0000E+00 0.9000E+01
        1  1    1    2  501    0 -.46432875E+01 -.47869313E+02 0.15957006E+04 0.15964252E+04 0.00000000E+00 0.0000E+00 0.9000E+01
#aMCatNLO 1  0  0  1  5 0.10716589D+02 0.00000000D+00  -5  6  0 0.00000000D+00 0.00000000D+00 0.00000000D+00 0.00000000D+00 0.00000000D+00
  <mgrwgt>
 0.2788152140D-03    9    2    0
 0.271770011239963D+03 0.000000000000000D+00 0.000000000000000D+00 0.271770011239963D+03
 0.271770011239963D+03 0.000000000000000D+00 0.000000000000000D+00 -.271770011239963D+03
 0.168700140537110D+03 0.290238516505315D+02 0.348531081966632D+02 -.154604703361961D+03
 0.109687964372110D+03 -.243805641970265D+02 0.130162051176071D+02 -.106149027418381D+03
 0.265151917570707D+03 -.464328745350506D+01 -.478693133142703D+02 0.260753730780343D+03
 0.000000000000000D+00 -.000000000000000D+00 0.000000000000000D+00 0.000000000000000D+00
 0.283892271625751D+03 0.000000000000000D+00 0.000000000000000D+00 0.283892271625751D+03
 0.273840235403302D+03 0.000000000000000D+00 0.000000000000000D+00 -.273840235403302D+03
 0.169190839121371D+03 0.320829289788801D+02 0.345486817272329D+02 -.154604703361961D+03
 0.109241176220027D+03 -.223985013104198D+02 0.128189585814810D+02 -.106149027418381D+03
 0.265197999369746D+03 0.158206237282157D+00 -.483471377088133D+02 0.260753730780343D+03
 0.141024923179097D+02 -.984263390574249D+01 0.979497400099403D+00 0.100520362224491D+02
0.304655418950D-05 0.000000000000D+00 0.000000000000D+00 0.390963201349D-05 0.000000000000D+00  6 2 22 9900012 -11 1 21 0 0.25378172D+00 0.68883627D-02 0.51292804D+04 0.51292804D+04 0.51292804D+04 0.12405991D+01  1  2  2  1  6  1        2 0.389442426692D-04 0.100000000000D+01
0.149515475403D-06 0.000000000000D+00 -.584978513190D-08 0.390963201349D-05 0.000000000000D+00  6 2 22 9900012 -11 1 21 2 0.25378172D+00 0.68883627D-02 0.51292804D+04 0.51292804D+04 0.51292804D+04 0.12405991D+01  1  2  3  1  6  1        2 0.294159884132D-05 0.100000000000D+01
-.591989926625D-06 0.000000000000D+00 0.000000000000D+00 0.390963201349D-05 0.000000000000D+00  6 2 22 9900012 -11 1 21 2 0.25378172D+00 0.68883627D-02 0.51292804D+04 0.51292804D+04 0.51292804D+04 0.12405991D+01  1  2 15  1  6  1        2 -.116469340551D-04 0.100000000000D+01
0.104325389119D-04 0.000000000000D+00 0.000000000000D+00 0.390963201349D-05 0.000000000000D+00  6 2 22 9900012 -11 1 21 2 0.26712105D+00 0.68883627D-02 0.58346323D+04 0.58346323D+04 0.58346323D+04 0.12343693D+01  1  2 12  1  6  1        2 0.184453649907D-03 0.100000000000D+01
-.283583131998D-06 0.000000000000D+00 0.000000000000D+00 0.390963201349D-05 0.000000000000D+00  6 2 22 9900012 -11 1 21 2 0.25378172D+00 0.68883627D-02 0.51292804D+04 0.51292804D+04 0.51292804D+04 0.12405991D+01  1  2  4  1  6  1        2 -.557927405345D-05 0.100000000000D+01
-.380248771754D-04 0.000000000000D+00 -.619521699635D-05 0.390963201349D-05 0.000000000000D+00  6 2 22 9900012 -11 1 21 2 0.26594399D+00 0.68883627D-02 0.51292804D+04 0.51292804D+04 0.51292804D+04 0.12405991D+01  1  2  5  1  6  1        2 -.682630463762D-03 0.100000000000D+01
0.382797155125D-04 0.000000000000D+00 0.618843544434D-05 0.390963201349D-05 0.000000000000D+00  6 2 22 9900012 -11 1 21 2 0.25378172D+00 0.68883627D-02 0.51292804D+04 0.51292804D+04 0.51292804D+04 0.12405991D+01  1  2  6  1  6  1        2 0.753123156612D-03 0.100000000000D+01
0.186344740685D-06 0.000000000000D+00 0.000000000000D+00 0.390963201349D-05 0.000000000000D+00  6 21 22 9900012 -11 1 -2 2 0.26712105D+00 0.68883627D-02 0.58346323D+04 0.58346323D+04 0.58346323D+04 0.12343693D+01  1  2 12  3  6  1        2 0.113731689495D-05 0.100000000000D+01
-.306720688013D-06 0.000000000000D+00 -.507542965576D-07 0.390963201349D-05 0.000000000000D+00  6 21 22 9900012 -11 1 -2 2 0.26594399D+00 0.68883627D-02 0.51292804D+04 0.51292804D+04 0.51292804D+04 0.12405991D+01  1  2  5  3  6  1        2 -.192807901495D-05 0.100000000000D+01
  </mgrwgt>
  </event>
  <event>
  7     66 -.12453494E-05 0.73494034E+02 0.78161638E-02 0.10435839E+00
        2 -1    0    0  501    0 0.00000000E+00 0.00000000E+00 0.15529599E+03 0.15529599E+03 0.00000000E+00 0.0000E+00 0.9000E+01
       22 -1    0    0    0    0 -.00000000E+00 -.00000000E+00 -.78804661E+03 0.78804661E+03 0.00000000E+00 0.0000E+00 0.9000E+01
       24  2    1    2    0    0 0.36300636E+02 -.18851889E+03 -.58600591E+03 0.62256241E+03 0.85579939E+02 0.0000E+00 0.0000E+00
  9900012  1    3    3    0    0 0.21087040E+02 -.63046591E+02 -.25628998E+03 0.26945146E+03 0.50000000E+02 0.0000E+00 0.9000E+01
      -11  1    3    3    0    0 0.15213597E+02 -.12547230E+03 -.32971593E+03 0.35311096E+03 0.00000000E+00 0.0000E+00 0.9000E+01
        1  1    1    2  502    0 0.36276885E+02 0.11849167E+03 -.13750234E+03 0.18510316E+03 0.00000000E+00 0.0000E+00 0.9000E+01
       21  1    1    2  501  502 -.72577521E+02 0.70027227E+02 0.90757624E+02 0.13567703E+03 0.00000000E+00 0.0000E+00 0.9000E+01
#aMCatNLO 2  0  0  5  1 0.11796516D+03 0.00000000D+00  -5  6  0 0.00000000D+00 0.00000000D+00 0.00000000D+00 0.00000000D+00 0.00000000D+00
  <mgrwgt>
 -.7089090206D-05    2    2    0
 0.349829213840730D+03 0.000000000000000D+00 0.000000000000000D+00 0.349829213840730D+03
 0.349829213840730D+03 -.000000000000000D+00 -.000000000000000D+00 -.349829213840730D+03
 0.150049477033997D+03 0.235305278366556D+02 -.757362767689713D+02 -.117154497135526D+03
 0.205013666478678D+03 0.185366800016907D+02 -.142729963003997D+03 -.145997097910962D+03
 0.344595284168785D+03 -.420672078383463D+02 0.218466239772969D+03 0.263151595046489D+03
 0.000000000000000D+00 0.000000000000000D+00 0.000000000000000D+00 0.000000000000000D+00
 0.349829213840730D+03 0.000000000000000D+00 0.000000000000000D+00 0.349829213840730D+03
 0.349829213840730D+03 -.000000000000000D+00 -.000000000000000D+00 -.349829213840730D+03
 0.131517600595237D+03 0.210870396908902D+02 -.630465905604993D+02 -.101869246792640D+03
 0.177910596214196D+03 0.152135965485603D+02 -.125472303564204D+03 -.125209535434169D+03
 0.125219685431254D+03 0.362768850828339D+02 0.118491666946368D+03 -.179911670677611D+02
 0.265010545440773D+03 -.725775213222844D+02 0.700272271783357D+02 0.245069949294570D+03
-.354970270741D-05 0.000000000000D+00 0.000000000000D+00 0.174724429858D-06 0.000000000000D+00  6 2 22 9900012 -11 1 21 2 0.23891691D-01 0.12123794D+00 0.47164636D+05 0.47164636D+05 0.47164636D+05 0.11451664D+01  1  2 13  2  6  5        1 -.116568048448D-04 0.100000000000D+01
0.139094968445D-05 0.000000000000D+00 0.000000000000D+00 0.174724429858D-06 0.337934523416D-10  6 2 22 9900012 -11 1 21 2 0.23891691D-01 0.12123794D+00 0.47164636D+05 0.47164636D+05 0.47164636D+05 0.11451664D+01  1  2  1  2  6  5        1 0.456771463895D-05 0.100000000000D+01
  </mgrwgt>
  </event>
  <event>
  6     66 0.12453494E-05 0.30777323E+02 0.78161638E-02 0.12516262E+00
        2 -1    0    0  501    0 0.00000000E+00 0.00000000E+00 0.54328323E+03 0.54328323E+03 0.00000000E+00 0.0000E+00 0.9000E+01
       22 -1    0    0    0    0 0.00000000E+00 0.00000000E+00 -.51195024E+03 0.51195024E+03 0.00000000E+00 0.0000E+00 0.9000E+01
       24  2    1    2    0    0 0.32455259E+02 -.27397995E+01 -.50782504E+03 0.51509254E+03 0.79832361E+02 0.0000E+00 0.0000E+00
  9900012  1    3    3    0    0 0.48303249E+02 0.33181134E+00 -.38716264E+03 0.39335509E+03 0.50000000E+02 0.0000E+00 0.9000E+01
      -11  1    3    3    0    0 -.15847990E+02 -.30716108E+01 -.12066239E+03 0.12173745E+03 0.00000000E+00 0.0000E+00 0.9000E+01
        1  1    1    2  501    0 -.32455259E+02 0.27397995E+01 0.53915802E+03 0.54014093E+03 0.00000000E+00 0.0000E+00 0.9000E+01
#aMCatNLO 1  0  0  1  5 0.64934758D+01 0.00000000D+00  -5  6  0 0.00000000D+00 0.00000000D+00 0.00000000D+00 0.00000000D+00 0.00000000D+00
  <mgrwgt>
 0.6898094988D-02   11    2    0
 0.527384091732976D+03 0.000000000000000D+00 0.000000000000000D+00 0.527384091732976D+03
 0.527384091732976D+03 0.000000000000000D+00 0.000000000000000D+00 -.527384091732976D+03
 0.405029679177154D+03 0.483032487604068D+02 0.331811337863242D+00 -.399018454554141D+03
 0.125375553122147D+03 -.158479896009345D+02 -.307161080419504D+01 -.124331957892412D+03
 0.524362951166652D+03 -.324552591594723D+02 0.273979946633179D+01 0.523350412446552D+03
 0.000000000000000D+00 0.000000000000000D+00 0.000000000000000D+00 0.000000000000000D+00
 0.808476525059352D+03 0.000000000000000D+00 0.000000000000000D+00 0.808476525059352D+03
 0.527431578429587D+03 0.000000000000000D+00 0.000000000000000D+00 -.527431578429587D+03
 0.405015429570401D+03 0.481365117733189D+02 -.215577123518730D+01 -.399018454554141D+03
 0.125403318255885D+03 -.158996090885252D+02 -.384173229914957D+01 -.124331957892412D+03
 0.524369419276365D+03 -.326711267374885D+02 -.480772252867435D+00 0.523350412446552D+03
 0.281119936386288D+03 0.434224052694766D+00 0.647827578720431D+01 0.281044946629765D+03
0.202403292636D-04 0.000000000000D+00 0.000000000000D+00 0.196217526863D-02 0.000000000000D+00  6 2 22 9900012 -11 1 21 0 0.83582035D-01 0.78761576D-01 0.34949171D+04 0.34949171D+04 0.34949171D+04 0.12597442D+01  1  2  2  1  6  1        2 0.267344628808D-04 0.100000000000D+01
0.167867210373D-05 0.000000000000D+00 -.388640968867D-07 0.196217526863D-02 0.000000000000D+00  6 2 22 9900012 -11 1 21 2 0.83582035D-01 0.78761576D-01 0.34949171D+04 0.34949171D+04 0.34949171D+04 0.12597442D+01  1  2  3  1  6  1        2 0.351871802013D-05 0.100000000000D+01
-.306603074571D-05 0.000000000000D+00 0.000000000000D+00 0.196217526863D-02 0.000000000000D+00  6 2 22 9900012 -11 1 21 2 0.83582035D-01 0.78761576D-01 0.34949171D+04 0.34949171D+04 0.34949171D+04 0.12597442D+01  1  2 15  1  6  1        2 -.642680462207D-05 0.100000000000D+01
0.158867919781D-01 0.000000000000D+00 0.000000000000D+00 0.196217526863D-02 0.000000000000D+00  6 2 22 9900012 -11 1 21 2 0.12814228D+00 0.78761576D-01 0.39039756D+04 0.39039756D+04 0.39039756D+04 0.12541291D+01  1  2 12  1  6  1        2 0.206641768533D-01 0.100000000000D+01
-.126370345129D-01 0.000000000000D+00 0.000000000000D+00 0.196217526863D-02 0.000000000000D+00  6 2 22 9900012 -11 1 21 2 0.83582035D-01 0.78761576D-01 0.34949171D+04 0.34949171D+04 0.34949171D+04 0.12597442D+01  1  2  4  1  6  1        2 -.264888902142D-01 0.100000000000D+01
-.177225481291D-01 0.000000000000D+00 -.725643546884D-05 0.196217526863D-02 0.000000000000D+00  6 2 22 9900012 -11 1 21 2 0.12813471D+00 0.78761576D-01 0.34949171D+04 0.34949171D+04 0.34949171D+04 0.12597442D+01  1  2  5  1  6  1        2 -.231881626059D-01 0.100000000000D+01
0.162228927963D-01 0.000000000000D+00 0.664101445394D-05 0.196217526863D-02 0.000000000000D+00  6 2 22 9900012 -11 1 21 2 0.83582035D-01 0.78761576D-01 0.34949171D+04 0.34949171D+04 0.34949171D+04 0.12597442D+01  1  2  6  1  6  1        2 0.340053218814D-01 0.100000000000D+01
0.145700722975D-02 0.000000000000D+00 0.000000000000D+00 0.196217526863D-02 0.358697482757D-03  6 2 22 9900012 -11 1 21 2 0.12813074D+00 0.78768667D-01 0.39039756D+04 0.39039756D+04 0.39039756D+04 0.12541291D+01  1  2 11  1  6  1        2 0.189504160458D-02 0.100000000000D+01
0.794065797282D-03 0.000000000000D+00 0.000000000000D+00 0.196217526863D-02 0.000000000000D+00  6 21 22 9900012 -11 1 -2 2 0.12814228D+00 0.78761576D-01 0.39039756D+04 0.39039756D+04 0.39039756D+04 0.12541291D+01  1  2 12  3  6  1        2 0.113030191814D-02 0.100000000000D+01
-.885460389357D-03 0.000000000000D+00 -.362659347697D-06 0.196217526863D-02 0.000000000000D+00  6 21 22 9900012 -11 1 -2 2 0.12813471D+00 0.78761576D-01 0.34949171D+04 0.34949171D+04 0.34949171D+04 0.12597442D+01  1  2  5  3  6  1        2 -.127424929452D-02 0.100000000000D+01
0.918335126741D-04 0.000000000000D+00 0.000000000000D+00 0.196217526863D-02 0.214646151568D-04  6 21 22 9900012 -11 1 -2 2 0.12813074D+00 0.78768667D-01 0.39039756D+04 0.39039756D+04 0.39039756D+04 0.12541291D+01  1  2 11  3  6  1        2 0.130728468901D-03 0.100000000000D+01
  </mgrwgt>
  </event>
  <event>
  6     66 0.12453494E-05 0.22647641E+02 0.78161638E-02 0.11163269E+00
        2 -1    0    0  501    0 0.00000000E+00 0.00000000E+00 0.75550298E+03 0.75550298E+03 0.00000000E+00 0.0000E+00 0.9000E+01
       22 -1    0    0    0    0 0.00000000E+00 0.00000000E+00 -.24677292E+03 0.24677292E+03 0.00000000E+00 0.0000E+00 0.9000E+01
       24  2    1    2    0    0 -.20833263E+02 -.88820501E+01 -.23958710E+03 0.25361610E+03 0.80038958E+02 0.0000E+00 0.0000E+00
  9900012  1    3    3    0    0 -.63069635E+01 -.70246737E+01 -.90599543E+02 0.10391054E+03 0.50000000E+02 0.0000E+00 0.9000E+01
      -11  1    3    3    0    0 -.14526299E+02 -.18573764E+01 -.14898756E+03 0.14970556E+03 0.00000000E+00 0.0000E+00 0.9000E+01
        1  1    1    2  501    0 0.20833263E+02 0.88820501E+01 0.74831716E+03 0.74865979E+03 0.00000000E+00 0.0000E+00 0.9000E+01
#aMCatNLO 1  0  0  5  1 0.41660318D+03 0.00000000D+00  -5  6  0 0.00000000D+00 0.00000000D+00 0.00000000D+00 0.00000000D+00 0.00000000D+00
  <mgrwgt>
 0.1872044520D-02    3    2    0
 0.431784292642365D+03 0.000000000000000D+00 0.000000000000000D+00 0.431784292642365D+03
 0.431784292642365D+03 -.000000000000000D+00 -.000000000000000D+00 -.431784292642365D+03
 0.173973145905040D+03 -.630696352782108D+01 -.702467370450526D+01 -.166365656511494D+03
 0.261520310652108D+03 -.145262992708657D+02 -.185737641004610D+01 -.261109957040975D+03
 0.428075128727582D+03 0.208332627986870D+02 0.888205011455146D+01 0.427475613552469D+03
 0.000000000000000D+00 -.000000000000000D+00 0.000000000000000D+00 0.000000000000000D+00
 0.431784292642365D+03 0.000000000000000D+00 0.000000000000000D+00 0.431784292642365D+03
 0.431784292642365D+03 -.000000000000000D+00 -.000000000000000D+00 -.431784292642365D+03
 0.138270142272115D+03 -.447054878380044D+01 -.624173691994550D+01 -.128684448002643D+03
 0.205134312883026D+03 -.117817360937731D+02 -.687259759713960D+00 -.204794542629023D+03
 0.119883491524967D+03 0.918311029332577D+02 -.541592571185182D+02 -.548258601633249D+02
 0.400280638604622D+03 -.755788180556839D+02 0.610882537981778D+02 0.388304850794990D+03
0.712113766141D-03 0.000000000000D+00 0.000000000000D+00 0.141987505926D-02 0.000000000000D+00  6 2 22 9900012 -11 1 21 0 0.11623123D+00 0.37965065D-01 0.19437358D+04 0.19437358D+04 0.19437358D+04 0.12908809D+01  1  2  2  2  6  5        1 0.219410145673D-02 0.100000000000D+01
0.670848593501D-04 0.000000000000D+00 -.136735218292D-05 0.141987505926D-02 0.000000000000D+00  6 2 22 9900012 -11 1 21 2 0.11623123D+00 0.37965065D-01 0.19437358D+04 0.19437358D+04 0.19437358D+04 0.12908809D+01  1  2  3  2  6  5        1 0.344432569560D-03 0.100000000000D+01
-.129811634438D-03 0.000000000000D+00 0.000000000000D+00 0.141987505926D-02 0.000000000000D+00  6 2 22 9900012 -11 1 21 2 0.11623123D+00 0.37965065D-01 0.19437358D+04 0.19437358D+04 0.19437358D+04 0.12908809D+01  1  2 15  2  6  5        1 -.666489506596D-03 0.100000000000D+01
  </mgrwgt>
  </event>
  <event>
  6     66 -.12453494E-05 0.18836388E+02 0.78161638E-02 0.13058834E+00
        2 -1    0    0  501    0 0.00000000E+00 0.00000000E+00 0.52493289E+03 0.52493289E+03 0.00000000E+00 0.0000E+00 0.9000E+01
       22 -1    0    0    0    0 0.00000000E+00 0.00000000E+00 -.10268421E+03 0.10268421E+03 0.00000000E+00 0.0000E+00 0.9000E+01
       24  2    1    2    0    0 0.10828387E+02 0.17710792E+02 -.85744997E+02 0.11919945E+03 0.80158456E+02 0.0000E+00 0.0000E+00
  9900012  1    3    3    0    0 -.11516730E+02 0.12615507E+02 -.79479239E+02 0.95439696E+02 0.50000000E+02 0.0000E+00 0.9000E+01
      -11  1    3    3    0    0 0.22345116E+02 0.50952842E+01 -.62657573E+01 0.23759753E+02 0.00000000E+00 0.0000E+00 0.9000E+01
        1  1    1    2  501    0 -.10828387E+02 -.17710792E+02 0.50799368E+03 0.50841765E+03 0.00000000E+00 0.0000E+00 0.9000E+01
#aMCatNLO 1  0  0  5  1 0.10445102D+01 0.00000000D+00  -5  6  0 0.00000000D+00 0.00000000D+00 0.00000000D+00 0.00000000D+00 0.00000000D+00
  <mgrwgt>
 -.1106174345D-02    8    2    0
 0.232168726045193D+03 0.000000000000000D+00 0.000000000000000D+00 0.232168726045193D+03
 0.232168726045193D+03 -.000000000000000D+00 -.000000000000000D+00 -.232168726045193D+03
 0.201275146846538D+03 -.115167297966260D+02 0.126155073487358D+02 -.194216113253306D+03
 0.378124461710306D+02 0.223451164503756D+02 0.509528418738818D+01 -.300751547844062D+02
 0.225249859072817D+03 -.108283866537495D+02 -.177107915361238D+02 0.224291268037712D+03
 0.000000000000000D+00 0.000000000000000D+00 0.000000000000000D+00 0.000000000000000D+00
 0.232168726045193D+03 0.000000000000000D+00 0.000000000000000D+00 0.232168726045193D+03
 0.232168726045193D+03 -.000000000000000D+00 -.000000000000000D+00 -.232168726045193D+03
 0.201266486572755D+03 -.115171621167982D+02 0.126148002505603D+02 -.194207158489987D+03
 0.378110422347249D+02 0.223450352325417D+02 0.509515134838164D+01 -.300734724976964D+02
 0.194863760464983D+03 -.100802008941169D+02 -.160789965743968D+02 0.193937465595612D+03
 0.303961628179230D+02 -.747672221626531D+00 -.163095502454502D+01 0.303431653920715D+02
0.108851053710D-06 0.000000000000D+00 0.000000000000D+00 0.863256864026D-04 0.000000000000D+00  6 2 22 9900012 -11 1 21 0 0.80758906D-01 0.15797570D-01 0.23287767D+04 0.23287767D+04 0.23287767D+04 0.12810378D+01  1  2  2  2  6  5        1 0.186572062611D-05 0.100000000000D+01
0.136361515856D-07 0.000000000000D+00 -.209008353694D-09 0.863256864026D-04 0.000000000000D+00  6 2 22 9900012 -11 1 21 2 0.80758906D-01 0.15797570D-01 0.23287767D+04 0.23287767D+04 0.23287767D+04 0.12810378D+01  1  2  3  2  6  5        1 0.383556781772D-06 0.100000000000D+01
-.176448803084D-07 0.000000000000D+00 0.000000000000D+00 0.863256864026D-04 0.000000000000D+00  6 2 22 9900012 -11 1 21 2 0.80758906D-01 0.15797570D-01 0.23287767D+04 0.23287767D+04 0.23287767D+04 0.12810378D+01  1  2 15  2  6  5        1 -.496314041636D-06 0.100000000000D+01
0.180386299538D-08 0.000000000000D+00 0.000000000000D+00 0.863256864026D-04 0.000000000000D+00  6 2 22 9900012 -11 1 21 2 0.80758906D-01 0.15797570D-01 0.23293895D+04 0.23293895D+04 0.23293895D+04 0.12810236D+01  1  2 12  2  6  5        1 0.507386574901D-07 0.100000000000D+01
-.319251843651D-03 0.000000000000D+00 0.000000000000D+00 0.863256864026D-04 0.000000000000D+00  6 2 22 9900012 -11 1 21 2 0.80758906D-01 0.15797570D-01 0.23287767D+04 0.23287767D+04 0.23287767D+04 0.12810378D+01  1  2  4  2  6  5        1 -.897989502070D-02 0.100000000000D+01
-.131982914922D-03 0.000000000000D+00 0.000000000000D+00 0.863256864026D-04 0.000000000000D+00  6 2 22 9900012 -11 1 21 2 0.80758906D-01 0.15797570D-01 0.23287767D+04 0.23287767D+04 0.23287767D+04 0.12810378D+01  1  2  5  2  6  5        1 -.371240681644D-02 0.100000000000D+01
0.150982428090D-03 0.000000000000D+00 -.000000000000D+00 0.863256864026D-04 0.000000000000D+00  6 2 22 9900012 -11 1 21 2 0.80758906D-01 0.15797570D-01 0.23287767D+04 0.23287767D+04 0.23287767D+04 0.12810378D+01  1  2  6  2  6  5        1 0.424682388272D-02 0.100000000000D+01
0.260863121272D-03 0.000000000000D+00 0.000000000000D+00 0.863256864026D-04 0.127721038981D-02  6 2 22 9900012 -11 1 21 2 0.80758906D-01 0.15797570D-01 0.23293895D+04 0.23293895D+04 0.23293895D+04 0.12810236D+01  1  2 11  2  6  5        1 0.733749990766D-02 0.100000000000D+01
  </mgrwgt>
  </event>
  <event>
  6     66 -.12453494E-05 0.34756742E+02 0.78161638E-02 0.12402766E+00
        2 -1    0    0  501    0 0.00000000E+00 0.00000000E+00 0.35056754E+02 0.35056754E+02 0.00000000E+00 0.0000E+00 0.9000E+01
       22 -1    0    0    0    0 0.00000000E+00 0.00000000E+00 -.97010702E+03 0.97010702E+03 0.00000000E+00 0.0000E+00 0.9000E+01
       24  2    1    2    0    0 0.36038270E+02 -.14784159E+02 -.95657302E+03 0.96066032E+03 0.79491993E+02 0.0000E+00 0.0000E+00
  9900012  1    3    3    0    0 0.16318537E+02 0.12485054E+02 -.52430091E+03 0.52708027E+03 0.50000000E+02 0.0000E+00 0.9000E+01
      -11  1    3    3    0    0 0.19719733E+02 -.27269213E+02 -.43227212E+03 0.43358005E+03 0.00000000E+00 0.0000E+00 0.9000E+01
        1  1    1    2  501    0 -.36038270E+02 0.14784159E+02 0.21522756E+02 0.44503452E+02 0.00000000E+00 0.0000E+00 0.9000E+01
#aMCatNLO 1  0  0  1  5 0.64576716D+01 0.00000000D+00  -5  6  0 0.00000000D+00 0.00000000D+00 0.00000000D+00 0.00000000D+00 0.00000000D+00
  <mgrwgt>
 -.1002811491D-03   11    2    0
 0.184414757391658D+03 0.000000000000000D+00 0.000000000000000D+00 0.184414757391658D+03
 0.184414757391658D+03 0.000000000000000D+00 0.000000000000000D+00 -.184414757391658D+03
 0.107242750233674D+03 0.163185370123505D+02 0.124850538988951D+02 -.926220074096881D+02
 0.857382643091205D+02 0.197197327932137D+02 -.272692127952692D+02 -.788579237542505D+02
 0.175848500240522D+03 -.360382698055641D+02 0.147841588963741D+02 0.171479931163939D+03
 0.000000000000000D+00 -.000000000000000D+00 -.000000000000000D+00 0.000000000000000D+00
 0.253516273572728D+03 0.000000000000000D+00 0.000000000000000D+00 0.253516273572728D+03
 0.184593418853330D+03 0.000000000000000D+00 0.000000000000000D+00 -.184593418853330D+03
 0.107617077696244D+03 0.179005864728461D+02 0.134969685191643D+02 -.926220074096881D+02
 0.857849107681863D+02 0.209826871072330D+02 -.264613986484928D+02 -.788579237542505D+02
 0.175483885619299D+03 -.334513496871814D+02 0.164388115192068D+02 0.171479931163939D+03
 0.692238183423287D+02 -.543192389289769D+01 -.347438138987831D+01 0.689228547193973D+02
0.590310283365D-06 0.000000000000D+00 0.000000000000D+00 0.216765219916D-04 0.000000000000D+00  6 2 22 9900012 -11 1 21 0 0.53933467D-02 0.14924723D+00 0.40108356D+04 0.40108356D+04 0.40108356D+04 0.12527709D+01  1  2  2  1  6  1        2 0.495209644894D-05 0.100000000000D+01
0.343564864440D-07 0.000000000000D+00 -.113347346019D-08 0.216765219916D-04 0.000000000000D+00  6 2 22 9900012 -11 1 21 2 0.53933467D-02 0.14924723D+00 0.40108356D+04 0.40108356D+04 0.40108356D+04 0.12527709D+01  1  2  3  1  6  1        2 0.452335666053D-06 0.100000000000D+01
-.106488868624D-06 0.000000000000D+00 0.000000000000D+00 0.216765219916D-04 0.000000000000D+00  6 2 22 9900012 -11 1 21 2 0.53933467D-02 0.14924723D+00 0.40108356D+04 0.40108356D+04 0.40108356D+04 0.12527709D+01  1  2 15  1  6  1        2 -.140202675831D-05 0.100000000000D+01
0.419510282236D-04 0.000000000000D+00 0.000000000000D+00 0.216765219916D-04 0.000000000000D+00  6 2 22 9900012 -11 1 21 2 0.74214549D-02 0.14924723D+00 0.43749841D+04 0.43749841D+04 0.43749841D+04 0.12484300D+01  1  2 12  1  6  1        2 0.369476208294D-03 0.100000000000D+01
-.541518807998D-04 0.000000000000D+00 0.000000000000D+00 0.216765219916D-04 0.000000000000D+00  6 2 22 9900012 -11 1 21 2 0.53933467D-02 0.14924723D+00 0.40108356D+04 0.40108356D+04 0.40108356D+04 0.12527709D+01  1  2  4  1  6  1        2 -.712960771163D-03 0.100000000000D+01
-.470178484761D-04 0.000000000000D+00 -.281526128572D-06 0.216765219916D-04 0.000000000000D+00  6 2 22 9900012 -11 1 21 2 0.74178352D-02 0.14924723D+00 0.40108356D+04 0.40108356D+04 0.40108356D+04 0.12527709D+01  1  2  5  1  6  1        2 -.414296361891D-03 0.100000000000D+01
0.448252123523D-04 0.000000000000D+00 0.267808186556D-06 0.216765219916D-04 0.000000000000D+00  6 2 22 9900012 -11 1 21 2 0.53933467D-02 0.14924723D+00 0.40108356D+04 0.40108356D+04 0.40108356D+04 0.12527709D+01  1  2  6  1  6  1        2 0.590166352382D-03 0.100000000000D+01
0.671211134510D-05 0.000000000000D+00 0.000000000000D+00 0.216765219916D-04 0.714397061235D-05  6 2 22 9900012 -11 1 21 2 0.74142719D-02 0.14939183D+00 0.43749841D+04 0.43749841D+04 0.43749841D+04 0.12484300D+01  1  2 11  1  6  1        2 0.590618622685D-04 0.100000000000D+01
0.169587901920D-05 0.000000000000D+00 0.000000000000D+00 0.216765219916D-04 0.000000000000D+00  6 21 22 9900012 -11 1 -2 2 0.74214549D-02 0.14924723D+00 0.43749841D+04 0.43749841D+04 0.43749841D+04 0.12484300D+01  1  2 12  3  6  1        2 0.172712341909D-03 0.100000000000D+01
-.189168621800D-05 0.000000000000D+00 -.113682170938D-07 0.216765219916D-04 0.000000000000D+00  6 21 22 9900012 -11 1 -2 2 0.74178352D-02 0.14924723D+00 0.40108356D+04 0.40108356D+04 0.40108356D+04 0.12527709D+01  1  2  5  3  6  1        2 -.192821089579D-03 0.100000000000D+01
0.239503536979D-06 0.000000000000D+00 0.000000000000D+00 0.216765219916D-04 0.211789463837D-06  6 21 22 9900012 -11 1 -2 2 0.74142719D-02 0.14939183D+00 0.43749841D+04 0.43749841D+04 0.43749841D+04 0.12484300D+01  1  2 11  3  6  1        2 0.243779032970D-04 0.100000000000D+01
  </mgrwgt>
  </event>
  <event>
  6     66 0.12453494E-05 0.52029599E+02 0.78161638E-02 0.11458917E+00
        2 -1    0    0  501    0 0.00000000E+00 0.00000000E+00 0.19719908E+04 0.19719908E+04 0.00000000E+00 0.0000E+00 0.9000E+01
       22 -1    0    0    0    0 0.00000000E+00 0.00000000E+00 -.29879628E+03 0.29879628E+03 0.00000000E+00 0.0000E+00 0.9000E+01
       24  2    1    2    0    0 0.99068999E+02 -.23806864E+02 -.28372947E+03 0.31121240E+03 0.77261300E+02 0.0000E+00 0.0000E+00
  9900012  1    3    3    0    0 0.50651827E+02 -.13749666E+02 -.12016731E+03 0.14033832E+03 0.50000000E+02 0.0000E+00 0.9000E+01
      -11  1    3    3    0    0 0.48417173E+02 -.10057198E+02 -.16356216E+03 0.17087408E+03 0.00000000E+00 0.0000E+00 0.9000E+01
        1  1    1    2  501    0 -.99068999E+02 0.23806864E+02 0.19569240E+04 0.19595747E+04 0.00000000E+00 0.0000E+00 0.9000E+01
#aMCatNLO 1  0  0  5  1 0.42428306D+02 0.00000000D+00  -5  6  0 0.00000000D+00 0.00000000D+00 0.00000000D+00 0.00000000D+00 0.00000000D+00
  <mgrwgt>
 0.2138027757D-02    7    2    0
 0.767608962824975D+03 0.000000000000000D+00 0.000000000000000D+00 0.767608962824975D+03
 0.767608962824975D+03 -.000000000000000D+00 -.000000000000000D+00 -.767608962824975D+03
 0.338545892451937D+03 0.506518265428158D+02 -.137496659093737D+02 -.330694209884806D+03
 0.431007194528978D+03 0.484171726697855D+02 -.100571980522686D+02 -.428160988290318D+03
 0.765664838669036D+03 -.990689992126009D+02 0.238068639616422D+02 0.758855198175124D+03
 0.000000000000000D+00 -.000000000000000D+00 0.000000000000000D+00 0.000000000000000D+00
 0.767608962824975D+03 0.000000000000000D+00 0.000000000000000D+00 0.767608962824975D+03
 0.767608962824975D+03 -.000000000000000D+00 -.000000000000000D+00 -.767608962824975D+03
 0.335617780908092D+03 0.502686073513010D+02 -.136575760807452D+02 -.327758802463384D+03
 0.427237415834260D+03 0.479293151676658D+02 -.993996302135137D+01 -.424424065495147D+03
 0.697498825951304D+03 -.504905999537249D+02 0.125531247253283D+02 0.695555699120776D+03
 0.748639029562942D+02 -.477073225652414D+02 0.110444143767681D+02 0.566271688377556D+02
0.403899642690D-03 0.000000000000D+00 0.000000000000D+00 0.272676300433D-03 0.000000000000D+00  6 2 22 9900012 -11 1 21 0 0.30338320D+00 0.45968659D-01 0.12524860D+05 0.12524860D+05 0.12524860D+05 0.11993262D+01  1  2  2  2  6  5        1 0.213067989710D-03 0.100000000000D+01
0.557646427596D-05 0.000000000000D+00 -.775540488574D-06 0.272676300433D-03 0.000000000000D+00  6 2 22 9900012 -11 1 21 2 0.30338320D+00 0.45968659D-01 0.12524860D+05 0.12524860D+05 0.12524860D+05 0.11993262D+01  1  2  3  2  6  5        1 0.423134404016D-05 0.100000000000D+01
-.584461006908D-04 0.000000000000D+00 0.000000000000D+00 0.272676300433D-03 0.000000000000D+00  6 2 22 9900012 -11 1 21 2 0.30338320D+00 0.45968659D-01 0.12524860D+05 0.12524860D+05 0.12524860D+05 0.11993262D+01  1  2 15  2  6  5        1 -.443480936289D-04 0.100000000000D+01
0.236053618779D-02 0.000000000000D+00 0.000000000000D+00 0.272676300433D-03 0.000000000000D+00  6 2 22 9900012 -11 1 21 2 0.30338320D+00 0.45968659D-01 0.12337682D+05 0.12337682D+05 0.12337682D+05 0.11999875D+01  1  2 12  2  6  5        1 0.179322965863D-02 0.100000000000D+01
-.616115642445D-04 0.000000000000D+00 0.000000000000D+00 0.272676300433D-03 0.000000000000D+00  6 2 22 9900012 -11 1 21 2 0.30338320D+00 0.45968659D-01 0.12524860D+05 0.12524860D+05 0.12524860D+05 0.11993262D+01  1  2  4  2  6  5        1 -.467500036349D-04 0.100000000000D+01
-.280975372205D-02 0.000000000000D+00 0.000000000000D+00 0.272676300433D-03 0.000000000000D+00  6 2 22 9900012 -11 1 21 2 0.30338320D+00 0.45968659D-01 0.12524860D+05 0.12524860D+05 0.12524860D+05 0.11993262D+01  1  2  5  2  6  5        1 -.213200230070D-02 0.100000000000D+01
0.309784128437D-02 0.000000000000D+00 -.000000000000D+00 0.272676300433D-03 0.000000000000D+00  6 2 22 9900012 -11 1 21 2 0.30338320D+00 0.45968659D-01 0.12524860D+05 0.12524860D+05 0.12524860D+05 0.11993262D+01  1  2  6  2  6  5        1 0.235059916236D-02 0.100000000000D+01
  </mgrwgt>
  </event>
  <event>
  7     66 -.12453494E-05 0.49939036E+02 0.78161638E-02 0.11858464E+00
        2 -1    0    0  502    0 0.00000000E+00 0.00000000E+00 0.65802514E+03 0.65802514E+03 0.00000000E+00 0.0000E+00 0.9000E+01
       22 -1    0    0    0    0 0.00000000E+00 0.00000000E+00 -.22216859E+02 0.22216859E+02 0.00000000E+00 0.0000E+00 0.9000E+01
       24  2    1    2    0    0 -.55156954E+02 -.36362742E+01 0.10392352E+03 0.14217201E+03 0.79732489E+02 0.0000E+00 0.0000E+00
  9900012  1    3    3    0    0 -.35186223E+02 0.20659576E+02 0.59766166E+02 0.87959553E+02 0.50000000E+02 0.0000E+00 0.9000E+01
      -11  1    3    3    0    0 -.19970731E+02 -.24295850E+02 0.44157349E+02 0.54212452E+02 0.00000000E+00 0.0000E+00 0.9000E+01
        1  1    1    2  501    0 0.55128426E+02 0.24051293E+02 0.36195153E+03 0.36691486E+03 0.00000000E+00 0.0000E+00 0.9000E+01
       21  1    1    2  502  501 0.28527703E-01 -.20415019E+02 0.16993324E+03 0.17115513E+03 0.00000000E+00 0.0000E+00 0.9000E+01
#aMCatNLO 2  0  0  1  5 0.21470786D+02 0.00000000D+00  -5  6  0 0.00000000D+00 0.00000000D+00 0.00000000D+00 0.00000000D+00 0.00000000D+00
  <mgrwgt>
 -.1010783041D-03    2    2    0
 0.102118937213040D+03 0.000000000000000D+00 0.000000000000000D+00 0.102118937213040D+03
 0.102118937213040D+03 0.000000000000000D+00 0.000000000000000D+00 -.102118937213040D+03
 0.808504241304680D+02 -.351748424329720D+02 0.125153920119045D+02 -.514090119014216D+02
 0.368319091641528D+02 -.199657799927859D+02 -.278388697690826D+02 -.135260671274444D+02
 0.865555411314597D+02 0.551406224257580D+02 0.153234777571781D+02 0.649350790288660D+02
 0.000000000000000D+00 0.000000000000000D+00 -.000000000000000D+00 0.000000000000000D+00
 0.138531955163899D+03 0.000000000000000D+00 0.000000000000000D+00 0.138531955163899D+03
 0.105529817452704D+03 0.000000000000000D+00 0.000000000000000D+00 -.105529817452704D+03
 0.825092411707557D+02 -.351862230183285D+02 0.206595760749797D+02 -.514090119014216D+02
 0.342355506645824D+02 -.199707309657887D+02 -.242958503054152D+02 -.135260671274444D+02
 0.885108613445681D+02 0.551284262809338D+02 0.240512931722999D+02 0.649350790288660D+02
 0.388061194366973D+02 0.285277031834598D-01 -.204150189418644D+02 0.330021377111951D+02
-.896060660819D-06 0.000000000000D+00 0.000000000000D+00 0.768734782216D-06 0.000000000000D+00  6 2 22 9900012 -11 1 21 2 0.10461598D+00 0.33075042D-02 0.77922809D+04 0.77922809D+04 0.77922809D+04 0.12207287D+01  1  2 13  1  6  1        2 -.165117407843D-03 0.100000000000D+01
0.350324840441D-06 0.000000000000D+00 0.000000000000D+00 0.768734782216D-06 0.684903908001D-08  6 2 22 9900012 -11 1 21 2 0.10123464D+00 0.34179783D-02 0.77922809D+04 0.77922809D+04 0.77922809D+04 0.12207287D+01  1  2  1  1  6  1        2 0.640391037167D-04 0.100000000000D+01
  </mgrwgt>
  </event>
  <event>
  7     66 -.12453494E-05 0.45071415E+02 0.78161638E-02 0.12073947E+00
        2 -1    0    0  501    0 0.00000000E+00 0.00000000E+00 0.59704688E+03 0.59704688E+03 0.00000000E+00 0.0000E+00 0.9000E+01
       22 -1    0    0    0    0 0.00000000E+00 0.00000000E+00 -.80174218E+02 0.80174218E+02 0.00000000E+00 0.0000E+00 0.9000E+01
       24  2    1    2    0    0 0.57299621E+02 0.51975832E+01 -.47347479E+02 0.10929556E+03 0.79959197E+02 0.0000E+00 0.0000E+00
  9900012  1    3    3    0    0 0.56692439E+02 0.19554216E+02 -.23651431E+02 0.81583027E+02 0.50000000E+02 0.0000E+00 0.9000E+01
      -11  1    3    3    0    0 0.60718222E+00 -.14356633E+02 -.23696048E+02 0.27712529E+02 0.00000000E+00 0.0000E+00 0.9000E+01
        1  1    1    2  502    0 -.49220585E+02 -.15348254E+02 0.43002515E+03 0.43310491E+03 0.00000000E+00 0.0000E+00 0.9000E+01
       21  1    1    2  501  502 -.80790359E+01 0.10150671E+02 0.13419499E+03 0.13482063E+03 0.00000000E+00 0.0000E+00 0.9000E+01
#aMCatNLO 2  0  0  5  1 0.12630208D+02 0.00000000D+00  -5  6  0 0.00000000D+00 0.00000000D+00 0.00000000D+00 0.00000000D+00 0.00000000D+00
  <mgrwgt>
 -.3326338783D-03    2    2    0
 0.218787034514358D+03 0.000000000000000D+00 0.000000000000000D+00 0.218787034514358D+03
 0.218787034514358D+03 -.000000000000000D+00 -.000000000000000D+00 -.218787034514358D+03
 0.154892502124146D+03 0.568941666984207D+02 0.195725147410458D+02 -.133684919406351D+03
 0.712001220835072D+02 0.699909833551734D+00 -.143482218872030D+02 -.697359020849865D+02
 0.211481444821062D+03 -.575940765319725D+02 -.522429285384281D+01 0.203420821491337D+03
 0.000000000000000D+00 0.000000000000000D+00 0.000000000000000D+00 0.000000000000000D+00
 0.218787034514358D+03 0.000000000000000D+00 0.000000000000000D+00 0.218787034514358D+03
 0.218787034514358D+03 -.000000000000000D+00 -.000000000000000D+00 -.218787034514358D+03
 0.154201378499526D+03 0.566924390299484D+02 0.195542162548076D+02 -.132972422383929D+03
 0.708802247267575D+02 0.607182222639652D+00 -.143566331028038D+02 -.694083905087536D+02
 0.162348605430151D+03 -.492205853796752D+02 -.153482541003876D+02 0.153944258600530D+03
 0.501438603722814D+02 -.807903587291291D+01 0.101506709483838D+02 0.484365542921529D+02
-.189119389622D-04 0.000000000000D+00 0.000000000000D+00 0.329102195356D-04 0.000000000000D+00  6 2 22 9900012 -11 1 21 2 0.91853366D-01 0.12334495D-01 0.61607039D+04 0.61607039D+04 0.61607039D+04 0.12317698D+01  1  2 13  2  6  5        1 -.648555590816D-03 0.100000000000D+01
0.921230535738D-05 0.000000000000D+00 0.000000000000D+00 0.329102195356D-04 0.111877788868D-05  6 2 22 9900012 -11 1 21 2 0.91853366D-01 0.12334495D-01 0.61607039D+04 0.61607039D+04 0.61607039D+04 0.12317698D+01  1  2  1  2  6  5        1 0.315921712511D-03 0.100000000000D+01
  </mgrwgt>
  </event>
  <event>
  7     66 0.12453494E-05 0.30140842E+02 0.78161638E-02 0.12151967E+00
        2 -1    0    0  502    0 0.00000000E+00 0.00000000E+00 0.52691496E+03 0.52691496E+03 0.00000000E+00 0.0000E+00 0.9000E+01
       22 -1    0    0    0    0 0.00000000E+00 0.00000000E+00 -.26687906E+02 0.26687906E+02 0.00000000E+00 0.0000E+00 0.9000E+01
       24  2    1    2    0    0 -.45359632E+01 -.38772257E+02 0.67741527E+02 0.11183228E+03 0.79960499E+02 0.0000E+00 0.0000E+00
  9900012  1    3    3    0    0 -.12871416E+02 -.81005601E+01 0.23363935E+02 0.57246536E+02 0.50000000E+02 0.0000E+00 0.9000E+01
      -11  1    3    3    0    0 0.83354530E+01 -.30671697E+02 0.44377591E+02 0.54585743E+02 0.00000000E+00 0.0000E+00 0.9000E+01
        1  1    1    2  501    0 0.27804273E+02 0.31850094E+02 0.39404234E+03 0.39630402E+03 0.00000000E+00 0.0000E+00 0.9000E+01
       21  1    1    2  502  501 -.23268310E+02 0.69221629E+01 0.38443189E+02 0.45466574E+02 0.00000000E+00 0.0000E+00 0.9000E+01
#aMCatNLO 2  0  0  1  1 0.39537843D+02 0.00000000D+00  -5  6  0 0.00000000D+00 0.00000000D+00 0.00000000D+00 0.00000000D+00 0.00000000D+00
  <mgrwgt>
 0.1471703846D-05    1    2    0
 0.105319541330627D+03 0.000000000000000D+00 0.000000000000000D+00 0.105319541330627D+03
 0.105319541330627D+03 0.000000000000000D+00 0.000000000000000D+00 -.105319541330627D+03
 0.880338865233055D+02 -.224689580809635D+02 -.524535712118276D+01 -.686847678006222D+02
 0.324625188221619D+02 0.466757252609432D+01 -.295805273251157D+02 -.125308139464660D+02
 0.901426773157865D+02 0.178013855548692D+02 0.348258844462984D+02 0.812155817470882D+02
 0.000000000000000D+00 -.000000000000000D+00 0.000000000000000D+00 -.000000000000000D+00
 0.115188408392040D+03 0.000000000000000D+00 0.000000000000000D+00 0.115188408392040D+03
 0.122080487960144D+03 0.000000000000000D+00 0.000000000000000D+00 -.122080487960144D+03
 0.863069508092549D+02 -.128714162440953D+02 -.810056010637455D+01 -.686847678006222D+02
 0.341650999047774D+02 0.833545302963296D+01 -.306716966621225D+02 -.125308139464660D+02
 0.915613280952056D+02 0.278042731200582D+02 0.318500938822028D+02 0.812155817470882D+02
 0.252355175429457D+02 -.232683099055959D+02 0.692216288629423D+01 -.689207956810410D+01
0.811521754929D-08 0.000000000000D+00 0.000000000000D+00 0.172938439642D-05 0.634809889965D-09  6 2 22 9900012 -11 1 21 2 0.81063841D-01 0.41058317D-02 0.56701628D+04 0.56701628D+04 0.56701628D+04 0.12357432D+01  1  2  1  1  6  1        2 0.147170384649D-05 0.100000000000D+01
  </mgrwgt>
  </event>
  <event>
  6     66 -.12453494E-05 0.63034060E+02 0.78161638E-02 0.11869335E+00
        4 -1    0    0  501    0 0.00000000E+00 0.00000000E+00 0.22993080E+02 0.22993080E+02 0.00000000E+00 0.0000E+00 0.9000E+01
       22 -1    0    0    0    0 0.00000000E+00 0.00000000E+00 -.56649897E+03 0.56649897E+03 0.00000000E+00 0.0000E+00 0.9000E+01
       24  2    1    2    0    0 0.63040455E+02 0.28273775E+02 -.49244542E+03 0.50358119E+03 0.79485930E+02 0.0000E+00 0.0000E+00
  9900012  1    3    3    0    0 0.23689949E+02 0.22651224E+02 -.20972251E+03 0.21807757E+03 0.50000000E+02 0.0000E+00 0.9000E+01
      -11  1    3    3    0    0 0.39350506E+02 0.56225511E+01 -.28272291E+03 0.28550362E+03 0.00000000E+00 0.0000E+00 0.9000E+01
        3  1    1    2  501    0 -.63040455E+02 -.28273775E+02 -.51060472E+02 0.85910867E+02 0.00000000E+00 0.0000E+00 0.9000E+01
#aMCatNLO 1  0  0  1  5 0.70412545D+01 0.00000000D+00  -5  6  0 0.00000000D+00 0.00000000D+00 0.00000000D+00 0.00000000D+00 0.00000000D+00
  <mgrwgt>
 -.1537230943D-04   11    2    0
 0.114129559406339D+03 0.000000000000000D+00 0.000000000000000D+00 0.114129559406339D+03
 0.114129559406339D+03 0.000000000000000D+00 0.000000000000000D+00 -.114129559406339D+03
 0.638290800666552D+02 0.236899492764524D+02 0.226512237523659D+02 -.223575452130783D+02
 0.641400427913167D+02 0.393505056592917D+02 0.562255114148275D+01 -.503375576711009D+02
 0.100289995954706D+03 -.630404549357442D+02 -.282737748938487D+02 0.726951028841791D+02
 0.000000000000000D+00 -.000000000000000D+00 0.000000000000000D+00 0.000000000000000D+00
 0.129178135027901D+03 0.000000000000000D+00 0.000000000000000D+00 0.129178135027901D+03
 0.114961642049558D+03 0.000000000000000D+00 0.000000000000000D+00 -.114961642049558D+03
 0.645351188242499D+02 0.256117380280186D+02 0.225601553383249D+02 -.223575452130783D+02
 0.653394143568999D+02 0.412889913621302D+02 0.553069150370790D+01 -.503375576711009D+02
 0.984871634148768D+02 -.600644872419060D+02 -.284147980202949D+02 0.726951028841791D+02
 0.157780804814326D+02 -.683624214824289D+01 0.323951178262095D+00 0.142164929783422D+02
0.313264335594D-06 0.000000000000D+00 0.000000000000D+00 0.115765026034D-05 0.000000000000D+00  6 4 22 9900012 -11 3 21 0 0.35373970D-02 0.87153688D-01 0.71086904D+04 0.71086904D+04 0.71086904D+04 0.12250081D+01  1  2  2  1  6  1        4 0.857227523484D-05 0.100000000000D+01
-.404308683520D-09 0.000000000000D+00 -.601508766537D-09 0.115765026034D-05 0.000000000000D+00  6 4 22 9900012 -11 3 21 2 0.35373970D-02 0.87153688D-01 0.71086904D+04 0.71086904D+04 0.71086904D+04 0.12250081D+01  1  2  3  1  6  1        4 -.166026016698D-07 0.100000000000D+01
-.418394904657D-07 0.000000000000D+00 0.000000000000D+00 0.115765026034D-05 0.000000000000D+00  6 4 22 9900012 -11 3 21 2 0.35373970D-02 0.87153688D-01 0.71086904D+04 0.71086904D+04 0.71086904D+04 0.12250081D+01  1  2 15  1  6  1        4 -.171810406895D-05 0.100000000000D+01
0.277809631136D-05 0.000000000000D+00 0.000000000000D+00 0.115765026034D-05 0.000000000000D+00  6 4 22 9900012 -11 3 21 2 0.40330117D-02 0.87153688D-01 0.76989060D+04 0.76989060D+04 0.76989060D+04 0.12212881D+01  1  2 12  1  6  1        4 0.939006798897D-04 0.100000000000D+01
-.331824969550D-05 0.000000000000D+00 0.000000000000D+00 0.115765026034D-05 0.000000000000D+00  6 4 22 9900012 -11 3 21 2 0.35373970D-02 0.87153688D-01 0.71086904D+04 0.71086904D+04 0.71086904D+04 0.12250081D+01  1  2  4  1  6  1        4 -.136261179096D-03 0.100000000000D+01
-.377756767650D-05 0.000000000000D+00 -.319911809447D-06 0.115765026034D-05 0.000000000000D+00  6 4 22 9900012 -11 3 21 2 0.40312659D-02 0.87153688D-01 0.71086904D+04 0.71086904D+04 0.71086904D+04 0.12250081D+01  1  2  5  1  6  1        4 -.127262742640D-03 0.100000000000D+01
0.378968004013D-05 0.000000000000D+00 0.317199119603D-06 0.115765026034D-05 0.000000000000D+00  6 4 22 9900012 -11 3 21 2 0.35373970D-02 0.87153688D-01 0.71086904D+04 0.71086904D+04 0.71086904D+04 0.12250081D+01  1  2  6  1  6  1        4 0.155620076260D-03 0.100000000000D+01
0.133820350704D-06 0.000000000000D+00 0.000000000000D+00 0.115765026034D-05 0.691049251595D-06  6 4 22 9900012 -11 3 21 2 0.40038211D-02 0.87789098D-01 0.76989060D+04 0.76989060D+04 0.76989060D+04 0.12212881D+01  1  2 11  1  6  1        4 0.451192922887D-05 0.100000000000D+01
0.567593589543D-07 0.000000000000D+00 0.000000000000D+00 0.115765026034D-05 0.000000000000D+00  6 21 22 9900012 -11 3 -4 2 0.40330117D-02 0.87153688D-01 0.76989060D+04 0.76989060D+04 0.76989060D+04 0.12212881D+01  1  2 12  3  6  1        4 0.450425735324D-04 0.100000000000D+01
-.752382588420D-07 0.000000000000D+00 -.651822984009D-08 0.115765026034D-05 0.000000000000D+00  6 21 22 9900012 -11 3 -4 2 0.40312659D-02 0.87153688D-01 0.71086904D+04 0.71086904D+04 0.71086904D+04 0.12250081D+01  1  2  5  3  6  1        4 -.596570118155D-04 0.100000000000D+01
0.239412301970D-08 0.000000000000D+00 0.000000000000D+00 0.115765026034D-05 0.391444567599D-08  6 21 22 9900012 -11 3 -4 2 0.40038211D-02 0.87789098D-01 0.76989060D+04 0.76989060D+04 0.76989060D+04 0.12212881D+01  1  2 11  3  6  1        4 0.189579664914D-05 0.100000000000D+01
  </mgrwgt>
  </event>
  <event>
  6     66 0.12453494E-05 0.40665396E+02 0.78161638E-02 0.12220187E+00
        2 -1    0    0  501    0 0.00000000E+00 0.00000000E+00 0.18952407E+04 0.18952407E+04 0.00000000E+00 0.0000E+00 0.9000E+01
       22 -1    0    0    0    0 0.00000000E+00 0.00000000E+00 -.10122843E+02 0.10122843E+02 0.00000000E+00 0.0000E+00 0.9000E+01
       24  2    1    2    0    0 0.99065362E+01 0.41742660E+02 0.20398832E+03 0.22368667E+03 0.81141246E+02 0.0000E+00 0.0000E+00
  9900012  1    3    3    0    0 -.71521482E+01 0.10981267E+02 0.15490278E+03 0.16329915E+03 0.50000000E+02 0.0000E+00 0.9000E+01
      -11  1    3    3    0    0 0.17058684E+02 0.30761393E+02 0.49085540E+02 0.60387517E+02 0.00000000E+00 0.0000E+00 0.9000E+01
        1  1    1    2  501    0 -.99065362E+01 -.41742660E+02 0.16811295E+04 0.16816769E+04 0.00000000E+00 0.0000E+00 0.9000E+01
#aMCatNLO 1  0  0  1  5 0.16142277D+02 0.00000000D+00  -5  6  0 0.00000000D+00 0.00000000D+00 0.00000000D+00 0.00000000D+00 0.00000000D+00
  <mgrwgt>
 0.4111143551D-03    9    2    0
 0.138510734458156D+03 0.000000000000000D+00 0.000000000000000D+00 0.138510734458156D+03
 0.138510734458156D+03 0.000000000000000D+00 0.000000000000000D+00 -.138510734458156D+03
 0.690713679698589D+02 -.715214818326233D+01 0.109812669678886D+02 -.458160716929361D+02
 0.813227448033111D+02 0.170586843835617D+02 0.307613931232213D+02 -.733220758200770D+02
 0.126627356143143D+03 -.990653620029934D+01 -.417426600911099D+02 0.119138147513013D+03
 0.000000000000000D+00 0.000000000000000D+00 0.000000000000000D+00 0.000000000000000D+00
 0.154257958964289D+03 0.000000000000000D+00 0.000000000000000D+00 0.154257958964289D+03
 0.142087667621643D+03 0.000000000000000D+00 0.000000000000000D+00 -.142087667621643D+03
 0.694432113314628D+02 -.107316380721165D+02 0.103961107604262D+02 -.458160716929361D+02
 0.802919928869306D+02 0.128822408469316D+02 0.300786500686356D+02 -.733220758200770D+02
 0.127666407102703D+03 -.164779885263181D+02 -.428169266039408D+02 0.119138147513013D+03
 0.189440152648342D+02 0.143273857515030D+02 0.234216577487904D+01 0.121702913426461D+02
0.130637373865D-05 0.000000000000D+00 0.000000000000D+00 0.373881884403D-05 0.000000000000D+00  6 2 22 9900012 -11 1 21 0 0.29157549D+00 0.15573604D-02 0.42097851D+04 0.42097851D+04 0.42097851D+04 0.12503472D+01  1  2  2  1  6  1        2 0.930366964120D-04 0.100000000000D+01
0.516809948667D-07 0.000000000000D+00 -.250840956626D-08 0.373881884403D-05 0.000000000000D+00  6 2 22 9900012 -11 1 21 2 0.29157549D+00 0.15573604D-02 0.42097851D+04 0.42097851D+04 0.42097851D+04 0.12503472D+01  1  2  3  1  6  1        2 0.575412017829D-05 0.100000000000D+01
-.240712792053D-06 0.000000000000D+00 0.000000000000D+00 0.373881884403D-05 0.000000000000D+00  6 2 22 9900012 -11 1 21 2 0.29157549D+00 0.15573604D-02 0.42097851D+04 0.42097851D+04 0.42097851D+04 0.12503472D+01  1  2 15  1  6  1        2 -.268007676226D-04 0.100000000000D+01
0.270062020884D-05 0.000000000000D+00 0.000000000000D+00 0.373881884403D-05 0.000000000000D+00  6 2 22 9900012 -11 1 21 2 0.33311035D+00 0.15573604D-02 0.52781502D+04 0.52781502D+04 0.52781502D+04 0.12392070D+01  1  2 12  1  6  1        2 0.217037709245D-03 0.100000000000D+01
-.179507730836D-06 0.000000000000D+00 0.000000000000D+00 0.373881884403D-05 0.000000000000D+00  6 2 22 9900012 -11 1 21 2 0.29157549D+00 0.15573604D-02 0.42097851D+04 0.42097851D+04 0.42097851D+04 0.12503472D+01  1  2  4  1  6  1        2 -.199862455982D-04 0.100000000000D+01
-.490069855607D-05 0.000000000000D+00 -.104689057498D-05 0.373881884403D-05 0.000000000000D+00  6 2 22 9900012 -11 1 21 2 0.32791129D+00 0.15573604D-02 0.42097851D+04 0.42097851D+04 0.42097851D+04 0.12503472D+01  1  2  5  1  6  1        2 -.413464438606D-03 0.100000000000D+01
0.499633127110D-05 0.000000000000D+00 0.103971188956D-05 0.373881884403D-05 0.000000000000D+00  6 2 22 9900012 -11 1 21 2 0.29157549D+00 0.15573604D-02 0.42097851D+04 0.42097851D+04 0.42097851D+04 0.12503472D+01  1  2  6  1  6  1        2 0.556287483603D-03 0.100000000000D+01
0.558903448268D-07 0.000000000000D+00 0.000000000000D+00 0.373881884403D-05 0.000000000000D+00  6 21 22 9900012 -11 1 -2 2 0.33311035D+00 0.15573604D-02 0.52781502D+04 0.52781502D+04 0.52781502D+04 0.12392070D+01  1  2 12  3  6  1        2 0.107885270242D-05 0.100000000000D+01
-.866601875520D-07 0.000000000000D+00 -.195065250771D-07 0.373881884403D-05 0.000000000000D+00  6 21 22 9900012 -11 1 -2 2 0.32791129D+00 0.15573604D-02 0.42097851D+04 0.42097851D+04 0.42097851D+04 0.12503472D+01  1  2  5  3  6  1        2 -.182905518949D-05 0.100000000000D+01
  </mgrwgt>
  </event>
  <event>
  6     66 -.12453494E-05 0.13946126E+02 0.78161638E-02 0.13119778E+00
        2 -1    0    0  501    0 0.00000000E+00 0.00000000E+00 0.99921408E+01 0.99921408E+01 0.00000000E+00 0.0000E+00 0.9000E+01
       22 -1    0    0    0    0 -.00000000E+00 -.00000000E+00 -.15224432E+04 0.15224432E+04 0.00000000E+00 0.0000E+00 0.9000E+01
       24  2    1    2    0    0 -.13475800E+02 0.35912740E+01 -.15159482E+04 0.15180574E+04 0.78771313E+02 0.0000E+00 0.0000E+00
  9900012  1    3    3    0    0 -.10641951E+02 -.20949206E+02 -.10232097E+04 0.10247000E+04 0.50000000E+02 0.0000E+00 0.9000E+01
      -11  1    3    3    0    0 -.28338487E+01 0.24540480E+02 -.49273853E+03 0.49335740E+03 0.00000000E+00 0.0000E+00 0.9000E+01
        1  1    1    2  501    0 0.13475800E+02 -.35912740E+01 0.34971382E+01 0.14377914E+02 0.00000000E+00 0.0000E+00 0.9000E+01
#aMCatNLO 1  0  0  5  1 0.42688467D+00 0.00000000D+00  -5  6  0 0.00000000D+00 0.00000000D+00 0.00000000D+00 0.00000000D+00 0.00000000D+00
  <mgrwgt>
 -.1873805793D-04    1    2    0
 0.123338829150359D+03 0.000000000000000D+00 0.000000000000000D+00 0.123338829150359D+03
 0.123338829150359D+03 -.000000000000000D+00 -.000000000000000D+00 -.123338829150359D+03
 0.921526044034467D+02 -.106419512425713D+02 -.209492057258361D+02 -.737562346621997D+02
 0.437632044206299D+02 -.283384873806369D+01 0.245404797051196D+02 -.361241223884294D+02
 0.110761849476641D+03 0.134757999806349D+02 -.359127397928352D+01 0.109880357050629D+03
 0.000000000000000D+00 0.000000000000000D+00 0.000000000000000D+00 0.000000000000000D+00
 0.123338829150359D+03 0.000000000000000D+00 0.000000000000000D+00 0.123338829150359D+03
 0.123338829150359D+03 -.000000000000000D+00 -.000000000000000D+00 -.123338829150359D+03
 0.848695486849322D+02 -.950730379953253D+01 -.212515870199857D+02 -.645044302166870D+02
 0.400998497323291D+02 -.229631714498355D+01 0.243972286012114D+02 -.317411422715891D+02
 0.435892420574003D+02 -.282332543349823D+02 -.141021927348294D+02 0.300671503948172D+02
 0.781190178260560D+02 0.400368752794984D+02 0.109565511536036D+02 0.661784220934590D+02
-.832384223926D-06 0.000000000000D+00 0.000000000000D+00 0.295651867259D-05 0.000000000000D+00  6 2 22 9900012 -11 1 21 2 0.15372524D-02 0.23422203D+00 0.22040999D+04 0.22040999D+04 0.22040999D+04 0.12840093D+01  1  2 14  2  6  5        1 -.187380579310D-04 0.100000000000D+01
  </mgrwgt>
  </event>
  <event>
  6     66 0.12453494E-05 0.22625348E+02 0.78161638E-02 0.11425652E+00
        2 -1    0    0  501    0 0.00000000E+00 0.00000000E+00 0.98484512E+02 0.98484512E+02 0.00000000E+00 0.0000E+00 0.9000E+01
       22 -1    0    0    0    0 -.00000000E+00 -.00000000E+00 -.27757869E+03 0.27757869E+03 0.00000000E+00 0.0000E+00 0.9000E+01
       24  2    1    2    0    0 0.10019060E+03 0.76148953E+01 -.23004634E+03 0.26340324E+03 0.79773454E+02 0.0000E+00 0.0000E+00
  9900012  1    3    3    0    0 0.77674288E+02 -.15539730E+02 -.19097116E+03 0.21270816E+03 0.50000000E+02 0.0000E+00 0.9000E+01
      -11  1    3    3    0    0 0.22516311E+02 0.23154625E+02 -.39075180E+02 0.50695075E+02 0.00000000E+00 0.0000E+00 0.9000E+01
        1  1    1    2  501    0 -.10019060E+03 -.76148953E+01 0.50952169E+02 0.11265996E+03 0.00000000E+00 0.0000E+00 0.9000E+01
#aMCatNLO 1  0  0  5  1 0.19322386D+02 0.00000000D+00  -5  6  0 0.00000000D+00 0.00000000D+00 0.00000000D+00 0.00000000D+00 0.00000000D+00
  <mgrwgt>
 0.6098461923D-04    5    2    0
 0.165339654617899D+03 0.000000000000000D+00 0.000000000000000D+00 0.165339654617899D+03
 0.165339654617899D+03 -.000000000000000D+00 -.000000000000000D+00 -.165339654617899D+03
 0.138472195250501D+03 0.776742875185872D+02 -.155397300836046D+02 -.101979266053945D+03
 0.364897789516182D+02 0.225163107579699D+02 0.231546253747182D+02 -.169818444682827D+02
 0.155717335033678D+03 -.100190598276557D+03 -.761489529111363D+01 0.118961110522228D+03
 0.000000000000000D+00 0.000000000000000D+00 -.000000000000000D+00 0.000000000000000D+00
 0.165339654617899D+03 0.000000000000000D+00 0.000000000000000D+00 0.165339654617899D+03
 0.165339654617899D+03 -.000000000000000D+00 -.000000000000000D+00 -.165339654617899D+03
 0.136489718135313D+03 0.762829855134626D+02 -.156454747270101D+02 -.100327306344666D+03
 0.360445387682455D+02 0.221492885022643D+02 0.231267301820077D+02 -.165460613122166D+02
 0.581722116965089D+02 -.241717563470309D+02 0.932278109613166D+01 0.520847209975903D+02
 0.999728406357299D+02 -.742605176686959D+02 -.168040365511293D+02 0.647886466592926D+02
0.283511728283D-05 0.000000000000D+00 0.000000000000D+00 0.238237207726D-05 0.000000000000D+00  6 2 22 9900012 -11 1 21 0 0.15151463D-01 0.42704413D-01 0.12819983D+05 0.12819983D+05 0.12819983D+05 0.11983056D+01  1  2  2  2  6  5        1 0.739746730608D-04 0.100000000000D+01
-.331081985524D-08 0.000000000000D+00 -.544379843479D-08 0.238237207726D-05 0.000000000000D+00  6 2 22 9900012 -11 1 21 2 0.15151463D-01 0.42704413D-01 0.12819983D+05 0.12819983D+05 0.12819983D+05 0.11983056D+01  1  2  3  2  6  5        1 -.124045998910D-06 0.100000000000D+01
-.456916705509D-06 0.000000000000D+00 0.000000000000D+00 0.238237207726D-05 0.000000000000D+00  6 2 22 9900012 -11 1 21 2 0.15151463D-01 0.42704413D-01 0.12819983D+05 0.12819983D+05 0.12819983D+05 0.11983056D+01  1  2 15  2  6  5        1 -.171192307742D-04 0.100000000000D+01
0.277834542134D-05 0.000000000000D+00 0.000000000000D+00 0.238237207726D-05 0.000000000000D+00  6 2 22 9900012 -11 1 21 2 0.15151463D-01 0.42704413D-01 0.12837907D+05 0.12837907D+05 0.12837907D+05 0.11982445D+01  1  2 12  2  6  5        1 0.104095703324D-03 0.100000000000D+01
-.266482167393D-05 0.000000000000D+00 0.000000000000D+00 0.238237207726D-05 0.000000000000D+00  6 2 22 9900012 -11 1 21 2 0.15151463D-01 0.42704413D-01 0.12819983D+05 0.12819983D+05 0.12819983D+05 0.11983056D+01  1  2  5  2  6  5        1 -.998424803862D-04 0.100000000000D+01
  </mgrwgt>
  </event>
  <event>
  6     66 0.12453494E-05 0.12496886E+02 0.78161638E-02 0.13429783E+00
        4 -1    0    0  501    0 0.00000000E+00 0.00000000E+00 0.16456157E+02 0.16456157E+02 0.00000000E+00 0.0000E+00 0.9000E+01
       22 -1    0    0    0    0 -.00000000E+00 -.00000000E+00 -.20292868E+03 0.20292868E+03 0.00000000E+00 0.0000E+00 0.9000E+01
       24  2    1    2    0    0 0.25100628E+01 0.12242211E+02 -.84555871E+02 0.11670487E+03 0.79461681E+02 0.0000E+00 0.0000E+00
  9900012  1    3    3    0    0 0.17152415E+02 0.13957323E+02 -.85984022E+02 0.10189340E+03 0.50000000E+02 0.0000E+00 0.9000E+01
      -11  1    3    3    0    0 -.14642352E+02 -.17151121E+01 0.14281505E+01 0.14811472E+02 0.00000000E+00 0.0000E+00 0.9000E+01
        3  1    1    2  501    0 -.25100628E+01 -.12242211E+02 -.10191665E+03 0.10267997E+03 0.00000000E+00 0.0000E+00 0.9000E+01
#aMCatNLO 1  0  0  5  1 0.19322386D+02 0.00000000D+00  -5  6  0 0.00000000D+00 0.00000000D+00 0.00000000D+00 0.00000000D+00 0.00000000D+00
  <mgrwgt>
 0.4639538173D-04    1    2    0
 0.577877691354897D+02 0.000000000000000D+00 0.000000000000000D+00 0.577877691354897D+02
 0.577877691354897D+02 -.000000000000000D+00 -.000000000000000D+00 -.577877691354897D+02
 0.546846572512579D+02 0.171524147200124D+02 0.139573232655118D+02 0.118301953587428D+01
 0.304192671223294D+02 -.146423519366380D+02 -.171511213735329D+01 0.266081140327451D+02
 0.304716138973920D+02 -.251006278337440D+01 -.122422111281585D+02 -.277911335686194D+02
 0.000000000000000D+00 0.000000000000000D+00 0.000000000000000D+00 0.000000000000000D+00
 0.577877691354897D+02 0.000000000000000D+00 0.000000000000000D+00 0.577877691354897D+02
 0.577877691354897D+02 -.000000000000000D+00 -.000000000000000D+00 -.577877691354897D+02
 0.542074988714580D+02 0.161810128643716D+02 0.921955069432050D+01 -.957223284176749D+01
 0.262380812740432D+02 -.151477790980388D+02 -.418020825397586D+01 0.210120811985322D+02
 0.157759247616902D+02 -.117291389462654D+02 0.953191341962391D+01 -.452213757270896D+01
 0.193540333637879D+02 0.106959051799326D+02 -.145712558599685D+02 -.691771078405569D+01
0.136413469791D-06 0.000000000000D+00 0.000000000000D+00 0.266968443168D-07 0.000000000000D+00  6 4 22 9900012 -11 3 21 2 0.25317165D-02 0.31219797D-01 0.16773613D+04 0.16773613D+04 0.16773613D+04 0.12990906D+01  1  2 14  2  6  5        3 0.463953817324D-04 0.100000000000D+01
  </mgrwgt>
  </event>
  <event>
  6     66 0.12453494E-05 0.20652096E+02 0.78161638E-02 0.12969179E+00
        2 -1    0    0  501    0 0.00000000E+00 0.00000000E+00 0.11714757E+03 0.11714757E+03 0.00000000E+00 0.0000E+00 0.9000E+01
       22 -1    0    0    0    0 0.00000000E+00 0.00000000E+00 -.50655423E+02 0.50655423E+02 0.00000000E+00 0.0000E+00 0.9000E+01
       24  2    1    2    0    0 -.20624801E+02 0.10614456E+01 -.82753562E+01 0.90235677E+02 0.87449910E+02 0.0000E+00 0.0000E+00
  9900012  1    3    3    0    0 -.13009018E+02 0.18091391E+02 0.18341980E+02 0.57731804E+02 0.50000000E+02 0.0000E+00 0.9000E+01
      -11  1    3    3    0    0 -.76157834E+01 -.17029945E+02 -.26617336E+02 0.32503873E+02 0.00000000E+00 0.0000E+00 0.9000E+01
        1  1    1    2  501    0 0.20624801E+02 -.10614456E+01 0.74767507E+02 0.77567320E+02 0.00000000E+00 0.0000E+00 0.9000E+01
#aMCatNLO 1  0  0  5  1 0.69813342D+01 0.00000000D+00  -5  6  0 0.00000000D+00 0.00000000D+00 0.00000000D+00 0.00000000D+00 0.00000000D+00
  <mgrwgt>
 0.9409906870D-04    8    2    0
 0.770334988587803D+02 0.000000000000000D+00 0.000000000000000D+00 0.770334988587803D+02
 0.770334988587803D+02 -.000000000000000D+00 -.000000000000000D+00 -.770334988587803D+02
 0.549629198759851D+02 -.130090176043844D+02 0.180913908539108D+02 -.493858271509209D+01
 0.468892842479702D+02 -.761578335334807D+01 -.170299452425644D+02 -.430184354229331D+02
 0.522147935936053D+02 0.206248009577325D+02 -.106144561134644D+01 0.479570181380252D+02
 0.000000000000000D+00 0.000000000000000D+00 0.000000000000000D+00 0.000000000000000D+00
 0.770334988587803D+02 0.000000000000000D+00 0.000000000000000D+00 0.770334988587803D+02
 0.770334988587803D+02 -.000000000000000D+00 -.000000000000000D+00 -.770334988587803D+02
 0.547443106803786D+02 -.125053702644806D+02 0.180654708821398D+02 -.376749628063698D+01
 0.459215291211881D+02 -.718970460693696D+01 -.170518731834155D+02 -.420277123506601D+02
 0.449410165254634D+02 0.228264621889230D+02 0.225263878236184D+01 0.386467748822051D+02
 0.846014139053066D+01 -.313138731750550D+01 -.326623648108621D+01 0.714843374909199D+01
0.118089132288D-06 0.000000000000D+00 0.000000000000D+00 0.221585561371D-07 0.000000000000D+00  6 2 22 9900012 -11 1 21 0 0.18022704D-01 0.77931420D-02 0.22112550D+04 0.22112550D+04 0.22112550D+04 0.12838337D+01  1  2  2  2  6  5        1 0.267749529399D-04 0.100000000000D+01
0.693433593593D-08 0.000000000000D+00 -.226746680785D-09 0.221585561371D-07 0.000000000000D+00  6 2 22 9900012 -11 1 21 2 0.18022704D-01 0.77931420D-02 0.22112550D+04 0.22112550D+04 0.22112550D+04 0.12838337D+01  1  2  3  2  6  5        1 0.259144029101D-05 0.100000000000D+01
-.202395015800D-07 0.000000000000D+00 0.000000000000D+00 0.221585561371D-07 0.000000000000D+00  6 2 22 9900012 -11 1 21 2 0.18022704D-01 0.77931420D-02 0.22112550D+04 0.22112550D+04 0.22112550D+04 0.12838337D+01  1  2 15  2  6  5        1 -.756373217984D-05 0.100000000000D+01
0.187585865826D-06 0.000000000000D+00 0.000000000000D+00 0.221585561371D-07 0.000000000000D+00  6 2 22 9900012 -11 1 21 2 0.18022704D-01 0.77931420D-02 0.25291996D+04 0.25291996D+04 0.25291996D+04 0.12766186D+01  1  2 12  2  6  5        1 0.703090501343D-04 0.100000000000D+01
-.295038305423D-07 0.000000000000D+00 0.000000000000D+00 0.221585561371D-07 0.000000000000D+00  6 2 22 9900012 -11 1 21 2 0.18022704D-01 0.77931420D-02 0.22112550D+04 0.22112550D+04 0.22112550D+04 0.12838337D+01  1  2  4  2  6  5        1 -.110259173933D-04 0.100000000000D+01
-.190550925876D-06 0.000000000000D+00 0.000000000000D+00 0.221585561371D-07 0.000000000000D+00  6 2 22 9900012 -11 1 21 2 0.18022704D-01 0.77931420D-02 0.22112550D+04 0.22112550D+04 0.22112550D+04 0.12838337D+01  1  2  5  2  6  5        1 -.712110505414D-04 0.100000000000D+01
0.223887712961D-06 0.000000000000D+00 -.000000000000D+00 0.221585561371D-07 0.000000000000D+00  6 2 22 9900012 -11 1 21 2 0.18022704D-01 0.77931420D-02 0.22112550D+04 0.22112550D+04 0.22112550D+04 0.12838337D+01  1  2  6  2  6  5        1 0.836693874355D-04 0.100000000000D+01
0.148058505076D-08 0.000000000000D+00 0.000000000000D+00 0.221585561371D-07 0.159929210417D-08  6 2 22 9900012 -11 1 21 2 0.18022704D-01 0.77931420D-02 0.25291996D+04 0.25291996D+04 0.25291996D+04 0.12766186D+01  1  2 11  2  6  5        1 0.554938017870D-06 0.100000000000D+01
  </mgrwgt>
  </event>
  <event>
  6     66 0.12453494E-05 0.76796564E+02 0.78161638E-02 0.10175560E+00
        2 -1    0    0  501    0 0.00000000E+00 0.00000000E+00 0.81878114E+03 0.81878114E+03 0.00000000E+00 0.0000E+00 0.9000E+01
       22 -1    0    0    0    0 0.00000000E+00 0.00000000E+00 -.76113910E+02 0.76113910E+02 0.00000000E+00 0.0000E+00 0.9000E+01
       24  2    1    2    0    0 0.28092125E+01 0.76745167E+02 -.31136169E+02 0.11729013E+03 0.83004826E+02 0.0000E+00 0.0000E+00
  9900012  1    3    3    0    0 -.59185405E+01 0.33611312E+02 -.39785040E+02 0.72440312E+02 0.50000000E+02 0.0000E+00 0.9000E+01
      -11  1    3    3    0    0 0.87277530E+01 0.43133855E+02 0.86488712E+01 0.44849817E+02 0.00000000E+00 0.0000E+00 0.9000E+01
        1  1    1    2  501    0 -.28092125E+01 -.76745167E+02 0.77380340E+03 0.77760492E+03 0.00000000E+00 0.0000E+00 0.9000E+01
#aMCatNLO 1  0  0  1  5 0.19108776D+02 0.00000000D+00  -5  6  0 0.00000000D+00 0.00000000D+00 0.00000000D+00 0.00000000D+00 0.00000000D+00
  <mgrwgt>
 0.3132808193D-03    5    2    0
 0.249641009487944D+03 0.000000000000000D+00 0.000000000000000D+00 0.249641009487944D+03
 0.249641009487944D+03 0.000000000000000D+00 0.000000000000000D+00 -.249641009487944D+03
 0.189018467193668D+03 -.591854048824635D+01 0.336113120423133D+02 -.179062088454053D+03
 0.675222510742588D+02 0.872775296639555D+01 0.431338548461041D+02 -.512108512369014D+02
 0.242741300707960D+03 -.280921247814920D+01 -.767451668884173D+02 0.230272939690954D+03
 0.000000000000000D+00 -.000000000000000D+00 -.000000000000000D+00 0.000000000000000D+00
 0.398870261238707D+03 0.000000000000000D+00 0.000000000000000D+00 0.398870261238707D+03
 0.390954842980028D+03 0.000000000000000D+00 0.000000000000000D+00 -.390954842980028D+03
 0.213260435185940D+03 0.766372470731330D+02 0.710177024073654D+02 -.179062088454053D+03
 0.869684055276153D+02 0.404323682251073D+02 0.574993554339268D+02 -.512108512369014D+02
 0.252452741080521D+03 0.988146456802720D+02 -.306989498881821D+02 0.230272939690954D+03
 0.237143522424658D+03 -.215884260978512D+03 -.978181079531101D+02 0.791541825867855D+01
0.187936102485D-04 0.000000000000D+00 0.000000000000D+00 0.306888210015D-05 0.000000000000D+00  6 2 22 9900012 -11 1 21 0 0.12596633D+00 0.11709832D-01 0.82212055D+04 0.82212055D+04 0.82212055D+04 0.12182512D+01  1  2  2  1  6  1        2 0.325151265513D-03 0.100000000000D+01
0.323377774254D-06 0.000000000000D+00 -.360862059128D-07 0.306888210015D-05 0.000000000000D+00  6 2 22 9900012 -11 1 21 2 0.12596633D+00 0.11709832D-01 0.82212055D+04 0.82212055D+04 0.82212055D+04 0.12182512D+01  1  2  3  1  6  1        2 0.830346020357D-05 0.100000000000D+01
-.313007854011D-05 0.000000000000D+00 0.000000000000D+00 0.306888210015D-05 0.000000000000D+00  6 2 22 9900012 -11 1 21 2 0.12596633D+00 0.11709832D-01 0.82212055D+04 0.82212055D+04 0.82212055D+04 0.12182512D+01  1  2 15  1  6  1        2 -.803718890448D-04 0.100000000000D+01
0.717829775878D-05 0.000000000000D+00 -.500202520803D-05 0.306888210015D-05 0.000000000000D+00  6 2 22 9900012 -11 1 21 2 0.27007605D+00 0.11709832D-01 0.82212055D+04 0.82212055D+04 0.82212055D+04 0.12182512D+01  1  2  5  1  6  1        2 0.577735138367D-04 0.100000000000D+01
0.905141277482D-06 0.000000000000D+00 -.412883086139D-06 0.306888210015D-05 0.000000000000D+00  6 21 22 9900012 -11 1 -2 2 0.27007605D+00 0.11709832D-01 0.82212055D+04 0.82212055D+04 0.82212055D+04 0.12182512D+01  1  2  5  3  6  1        2 0.242446876597D-05 0.100000000000D+01
  </mgrwgt>
  </event>
  <event>
  6     66 -.12453494E-05 0.45083250E+02 0.78161638E-02 0.12387838E+00
        2 -1    0    0  501    0 0.00000000E+00 0.00000000E+00 0.18925060E+04 0.18925060E+04 0.00000000E+00 0.0000E+00 0.9000E+01
       22 -1    0    0    0    0 0.00000000E+00 0.00000000E+00 -.60377836E+01 0.60377836E+01 0.00000000E+00 0.0000E+00 0.9000E+01
       24  2    1    2    0    0 -.93891468E+00 0.45073472E+02 0.33998096E+03 0.35139954E+03 0.76564214E+02 0.0000E+00 0.0000E+00
  9900012  1    3    3    0    0 -.15743617E+02 0.14439086E+02 0.19143582E+03 0.19900760E+03 0.50000000E+02 0.0000E+00 0.9000E+01
      -11  1    3    3    0    0 0.14804703E+02 0.30634385E+02 0.14854514E+03 0.15239194E+03 0.00000000E+00 0.0000E+00 0.9000E+01
        1  1    1    2  501    0 0.93891468E+00 -.45073472E+02 0.15464873E+04 0.15471443E+04 0.00000000E+00 0.0000E+00 0.9000E+01
#aMCatNLO 1  0  0  5  1 0.50728893D+01 0.00000000D+00  -5  6  0 0.00000000D+00 0.00000000D+00 0.00000000D+00 0.00000000D+00 0.00000000D+00
  <mgrwgt>
 -.3762370608D-03    8    2    0
 0.106895003144595D+03 0.000000000000000D+00 0.000000000000000D+00 0.106895003144595D+03
 0.106895003144595D+03 -.000000000000000D+00 -.000000000000000D+00 -.106895003144595D+03
 0.780534033411896D+02 -.157436173049660D+02 0.144390863648100D+02 -.559998667163303D+02
 0.425514991189950D+02 0.148047026206796D+02 0.306343853637801D+02 -.255535768723380D+02
 0.931851038290052D+02 0.938914684286393D+00 -.450734717285901D+02 0.815534435886683D+02
 0.000000000000000D+00 0.000000000000000D+00 0.000000000000000D+00 0.000000000000000D+00
 0.106895003144595D+03 0.000000000000000D+00 0.000000000000000D+00 0.106895003144595D+03
 0.106895003144595D+03 -.000000000000000D+00 -.000000000000000D+00 -.106895003144595D+03
 0.778721684097323D+02 -.157410762411788D+02 0.143171002369013D+02 -.557791517720521D+02
 0.424319282988117D+02 0.148060875654805D+02 0.305678998019143D+02 -.254332815786510D+02
 0.676299670301330D+02 -.337072395019063D+00 -.369670143971867D+02 0.566316048620873D+02
 0.258559425505128D+02 0.127206107071736D+01 -.791798564162888D+01 0.245808284886157D+02
0.216472028422D-06 0.000000000000D+00 0.000000000000D+00 0.157014089801D-06 0.000000000000D+00  6 2 22 9900012 -11 1 21 0 0.29115477D+00 0.92888978D-03 0.44542106D+04 0.44542106D+04 0.44542106D+04 0.12475391D+01  1  2  2  2  6  5        1 0.307448120920D-04 0.100000000000D+01
0.601528076723D-08 0.000000000000D+00 -.415654793767D-09 0.157014089801D-06 0.000000000000D+00  6 2 22 9900012 -11 1 21 2 0.29115477D+00 0.92888978D-03 0.44542106D+04 0.44542106D+04 0.44542106D+04 0.12475391D+01  1  2  3  2  6  5        1 0.132964073942D-05 0.100000000000D+01
-.323615412545D-07 0.000000000000D+00 0.000000000000D+00 0.157014089801D-06 0.000000000000D+00  6 2 22 9900012 -11 1 21 2 0.29115477D+00 0.92888978D-03 0.44542106D+04 0.44542106D+04 0.44542106D+04 0.12475391D+01  1  2 15  2  6  5        1 -.715331923935D-05 0.100000000000D+01
0.102088961838D-05 0.000000000000D+00 0.000000000000D+00 0.157014089801D-06 0.000000000000D+00  6 2 22 9900012 -11 1 21 2 0.29115477D+00 0.92888978D-03 0.44417102D+04 0.44417102D+04 0.44417102D+04 0.12476785D+01  1  2 12  2  6  5        1 0.225673684426D-03 0.100000000000D+01
-.618617529520D-05 0.000000000000D+00 0.000000000000D+00 0.157014089801D-06 0.000000000000D+00  6 2 22 9900012 -11 1 21 2 0.29115477D+00 0.92888978D-03 0.44542106D+04 0.44542106D+04 0.44542106D+04 0.12475391D+01  1  2  4  2  6  5        1 -.136741592154D-02 0.100000000000D+01
-.238410218413D-05 0.000000000000D+00 0.000000000000D+00 0.157014089801D-06 0.000000000000D+00  6 2 22 9900012 -11 1 21 2 0.29115477D+00 0.92888978D-03 0.44542106D+04 0.44542106D+04 0.44542106D+04 0.12475391D+01  1  2  5  2  6  5        1 -.526991093786D-03 0.100000000000D+01
0.313274819490D-05 0.000000000000D+00 -.000000000000D+00 0.157014089801D-06 0.000000000000D+00  6 2 22 9900012 -11 1 21 2 0.29115477D+00 0.92888978D-03 0.44542106D+04 0.44542106D+04 0.44542106D+04 0.12475391D+01  1  2  6  2  6  5        1 0.692474680311D-03 0.100000000000D+01
0.260160632692D-05 0.000000000000D+00 0.000000000000D+00 0.157014089801D-06 0.696567156883D-07  6 2 22 9900012 -11 1 21 2 0.29115477D+00 0.92888978D-03 0.44417102D+04 0.44417102D+04 0.44417102D+04 0.12476785D+01  1  2 11  2  6  5        1 0.575100456162D-03 0.100000000000D+01
  </mgrwgt>
  </event>
  <event>
  6     66 0.12453494E-05 0.92908945E+02 0.78161638E-02 0.11593572E+00
        2 -1    0    0  501    0 0.00000000E+00 0.00000000E+00 0.56341934E+03 0.56341934E+03 0.00000000E+00 0.0000E+00 0.9000E+01
       22 -1    0    0    0    0 0.00000000E+00 0.00000000E+00 -.48254691E+03 0.48254691E+03 0.00000000E+00 0.0000E+00 0.9000E+01
       24  2    1    2    0    0 0.92042084E+02 -.12662018E+02 -.47080200E+03 0.48652299E+03 0.80112577E+02 0.0000E+00 0.0000E+00
  9900012  1    3    3    0    0 0.34381456E+02 -.19921452E+02 -.22051909E+03 0.22958140E+03 0.50000000E+02 0.0000E+00 0.9000E+01
      -11  1    3    3    0    0 0.57660629E+02 0.72594335E+01 -.25028291E+03 0.25694160E+03 0.00000000E+00 0.0000E+00 0.9000E+01
        1  1    1    2  501    0 -.92042084E+02 0.12662018E+02 0.55167444E+03 0.55944325E+03 0.00000000E+00 0.0000E+00 0.9000E+01
#aMCatNLO 1  0  0  5  5 0.82516873D+02 0.00000000D+00  -5  6  0 0.00000000D+00 0.00000000D+00 0.00000000D+00 0.00000000D+00 0.00000000D+00
  <mgrwgt>
 0.5414960540D-03    3    2    0
 0.521417549796425D+03 0.000000000000000D+00 0.000000000000000D+00 0.521417549796425D+03
 0.521417549796425D+03 -.000000000000000D+00 -.000000000000000D+00 -.521417549796425D+03
 0.247372100274607D+03 0.343814557246220D+02 -.199214519392232D+02 -.238985370366387D+03
 0.277122649867521D+03 0.576606287335758D+02 0.725943345857609D+01 -.270960357966818D+03
 0.518340349450722D+03 -.920420844581978D+02 0.126620184806471D+02 0.509945728333205D+03
 0.000000000000000D+00 0.000000000000000D+00 0.000000000000000D+00 0.000000000000000D+00
 0.521417549796425D+03 0.000000000000000D+00 0.000000000000000D+00 0.521417549796425D+03
 0.521417549796425D+03 -.000000000000000D+00 -.000000000000000D+00 -.521417549796425D+03
 0.228274283592559D+03 0.309038418273965D+02 -.194430445705241D+02 -.219718158393501D+03
 0.255244817749373D+03 0.537683075331852D+02 0.779489115993163D+01 -.249395520739111D+03
 0.488247752371143D+02 -.296260210820443D+02 -.773395232209495D+01 -.380308234630880D+02
 0.510491223013804D+03 -.550461282785374D+02 0.193821057326874D+02 0.507144502595700D+03
0.475584762609D-03 0.000000000000D+00 0.000000000000D+00 0.529233224457D-03 0.000000000000D+00  6 2 22 9900012 -11 1 21 0 0.86679899D-01 0.74237986D-01 0.11544579D+05 0.11544579D+05 0.11544579D+05 0.12029184D+01  1  2  2  2  6  5        1 0.702857634065D-03 0.100000000000D+01
0.919443380166D-05 0.000000000000D+00 -.913185356382D-06 0.529233224457D-03 0.000000000000D+00  6 2 22 9900012 -11 1 21 2 0.86679899D-01 0.74237986D-01 0.11544579D+05 0.11544579D+05 0.11544579D+05 0.12029184D+01  1  2  3  2  6  5        1 0.196624090168D-04 0.100000000000D+01
-.846494996177D-04 0.000000000000D+00 0.000000000000D+00 0.529233224457D-03 0.000000000000D+00  6 2 22 9900012 -11 1 21 2 0.86679899D-01 0.74237986D-01 0.11544579D+05 0.11544579D+05 0.11544579D+05 0.12029184D+01  1  2 15  2  6  5        1 -.181023989128D-03 0.100000000000D+01
  </mgrwgt>
  </event>
  <event>
  6     66 0.12453494E-05 0.42634141E+02 0.78161638E-02 0.12328501E+00
        2 -1    0    0  501    0 0.00000000E+00 0.00000000E+00 0.54430138E+02 0.54430138E+02 0.00000000E+00 0.0000E+00 0.9000E+01
       22 -1    0    0    0    0 -.00000000E+00 -.00000000E+00 -.18178169E+03 0.18178169E+03 0.00000000E+00 0.0000E+00 0.9000E+01
       24  2    1    2    0    0 0.43592420E+02 0.12983225E+02 -.15697860E+03 0.18192899E+03 0.79918793E+02 0.0000E+00 0.0000E+00
  9900012  1    3    3    0    0 0.41639010E+02 0.30922530E+02 -.10887275E+03 0.13054994E+03 0.50000000E+02 0.0000E+00 0.9000E+01
      -11  1    3    3    0    0 0.19534102E+01 -.17939305E+02 -.48105853E+02 0.51379058E+02 0.00000000E+00 0.0000E+00 0.9000E+01
        1  1    1    2  501    0 -.43592420E+02 -.12983225E+02 0.29627056E+02 0.54282830E+02 0.00000000E+00 0.0000E+00 0.9000E+01
#aMCatNLO 1  0  0  5  1 0.67136099D+01 0.00000000D+00  -5  6  0 0.00000000D+00 0.00000000D+00 0.00000000D+00 0.00000000D+00 0.00000000D+00
  <mgrwgt>
 0.1012143272D-03    8    2    0
 0.994706101402701D+02 0.000000000000000D+00 0.000000000000000D+00 0.994706101402701D+02
 0.994706101402701D+02 -.000000000000000D+00 -.000000000000000D+00 -.994706101402701D+02
 0.853132660917614D+02 0.416390100332570D+02 0.309225298006356D+02 -.456983956548018D+02
 0.302098582091183D+02 0.195341023536088D+01 -.179393045889569D+02 -.242281050091015D+02
 0.834180959796605D+02 -.435924202686179D+02 -.129832252116787D+02 0.699265006639033D+02
 0.000000000000000D+00 0.000000000000000D+00 0.000000000000000D+00 0.000000000000000D+00
 0.994706101402701D+02 0.000000000000000D+00 0.000000000000000D+00 0.994706101402701D+02
 0.994706101402701D+02 -.000000000000000D+00 -.000000000000000D+00 -.994706101402701D+02
 0.844260880643466D+02 0.410270233595311D+02 0.307402604803600D+02 -.447167092450339D+02
 0.299569173362013D+02 0.173648196308214D+01 -.180039128074596D+02 -.238801308685962D+02
 0.750982610897012D+02 -.440664690969284D+02 -.136095558878062D+02 0.592678252390205D+02
 0.945995379029111D+01 0.130296377431508D+01 0.873208214905752D+00 0.932901487460958D+01
0.191114403877D-06 0.000000000000D+00 0.000000000000D+00 0.138580841392D-05 0.000000000000D+00  6 2 22 9900012 -11 1 21 0 0.83738674D-02 0.27966413D-01 0.45949301D+04 0.45949301D+04 0.45949301D+04 0.12459995D+01  1  2  2  2  6  5        1 0.182535341281D-04 0.100000000000D+01
0.430940590283D-08 0.000000000000D+00 -.366964816234D-09 0.138580841392D-05 0.000000000000D+00  6 2 22 9900012 -11 1 21 2 0.83738674D-02 0.27966413D-01 0.45949301D+04 0.45949301D+04 0.45949301D+04 0.12459995D+01  1  2  3  2  6  5        1 0.639008550656D-06 0.100000000000D+01
-.376183084091D-07 0.000000000000D+00 0.000000000000D+00 0.138580841392D-05 0.000000000000D+00  6 2 22 9900012 -11 1 21 2 0.83738674D-02 0.27966413D-01 0.45949301D+04 0.45949301D+04 0.45949301D+04 0.12459995D+01  1  2 15  2  6  5        1 -.557812869724D-05 0.100000000000D+01
0.654812609685D-06 0.000000000000D+00 0.000000000000D+00 0.138580841392D-05 0.000000000000D+00  6 2 22 9900012 -11 1 21 2 0.83738674D-02 0.27966413D-01 0.47188305D+04 0.47188305D+04 0.47188305D+04 0.12446868D+01  1  2 12  2  6  5        1 0.971431598746D-04 0.100000000000D+01
-.153798459052D-06 0.000000000000D+00 0.000000000000D+00 0.138580841392D-05 0.000000000000D+00  6 2 22 9900012 -11 1 21 2 0.83738674D-02 0.27966413D-01 0.45949301D+04 0.45949301D+04 0.45949301D+04 0.12459995D+01  1  2  4  2  6  5        1 -.228055868090D-04 0.100000000000D+01
-.696120454837D-06 0.000000000000D+00 0.000000000000D+00 0.138580841392D-05 0.000000000000D+00  6 2 22 9900012 -11 1 21 2 0.83738674D-02 0.27966413D-01 0.45949301D+04 0.45949301D+04 0.45949301D+04 0.12459995D+01  1  2  5  2  6  5        1 -.103222331096D-03 0.100000000000D+01
0.779507359581D-06 0.000000000000D+00 -.000000000000D+00 0.138580841392D-05 0.000000000000D+00  6 2 22 9900012 -11 1 21 2 0.83738674D-02 0.27966413D-01 0.45949301D+04 0.45949301D+04 0.45949301D+04 0.12459995D+01  1  2  6  2  6  5        1 0.115587131800D-03 0.100000000000D+01
0.807225068220D-08 0.000000000000D+00 0.000000000000D+00 0.138580841392D-05 0.230431306984D-05  6 2 22 9900012 -11 1 21 2 0.83738674D-02 0.27966413D-01 0.47188305D+04 0.47188305D+04 0.47188305D+04 0.12446868D+01  1  2 11  2  6  5        1 0.119753945934D-05 0.100000000000D+01
  </mgrwgt>
  </event>
  <event>
  7     66 -.12453494E-05 0.59338433E+02 0.78161638E-02 0.12034063E+00
        2 -1    0    0  501    0 0.00000000E+00 0.00000000E+00 0.23717155E+04 0.23717155E+04 0.00000000E+00 0.0000E+00 0.9000E+01
       22 -1    0    0    0    0 0.00000000E+00 0.00000000E+00 -.10363401E+02 0.10363401E+02 0.00000000E+00 0.0000E+00 0.9000E+01
       24  2    1    2    0    0 -.32734164E+02 0.46439956E+02 0.24582279E+03 0.26505839E+03 0.81233689E+02 0.0000E+00 0.0000E+00
  9900012  1    3    3    0    0 -.19127988E+02 0.53496838E+02 0.14993436E+03 0.16795268E+03 0.50000000E+02 0.0000E+00 0.9000E+01
      -11  1    3    3    0    0 -.13606176E+02 -.70568824E+01 0.95888430E+02 0.97105708E+02 0.00000000E+00 0.0000E+00 0.9000E+01
        1  1    1    2  502    0 0.38818620E+02 -.49215677E+02 0.13427594E+04 0.13442216E+04 0.00000000E+00 0.0000E+00 0.9000E+01
       21  1    1    2  501  502 -.60844562E+01 0.27757209E+01 0.77276997E+03 0.77279891E+03 0.00000000E+00 0.0000E+00 0.9000E+01
#aMCatNLO 2  0  0  5  1 0.26292241D+02 0.00000000D+00  -5  6  0 0.00000000D+00 0.00000000D+00 0.00000000D+00 0.00000000D+00 0.00000000D+00
  <mgrwgt>
 -.9373264232D-04    2    2    0
 0.156777032512872D+03 0.000000000000000D+00 0.000000000000000D+00 0.156777032512872D+03
 0.156777032512872D+03 -.000000000000000D+00 -.000000000000000D+00 -.156777032512872D+03
 0.151587022399885D+03 -.203186777847681D+02 0.551860695806438D+02 -.130461773778308D+03
 0.157127761820247D+02 -.137310734297339D+02 -.687969041745751D+01 -.331946043410687D+01
 0.146254266443834D+03 0.340497512145020D+02 -.483063791631863D+02 0.133781234212415D+03
 0.000000000000000D+00 0.000000000000000D+00 0.000000000000000D+00 0.000000000000000D+00
 0.156777032512872D+03 0.000000000000000D+00 0.000000000000000D+00 0.156777032512872D+03
 0.156777032512872D+03 -.000000000000000D+00 -.000000000000000D+00 -.156777032512872D+03
 0.146796784845967D+03 -.191279879788128D+02 0.534968380538148D+02 -.125783561864178D+03
 0.155861920074695D+02 -.136061760276123D+02 -.705688235126559D+01 -.282873941531034D+01
 0.998689899877873D+02 0.388186201693423D+02 -.492156765548492D+02 0.777479714885061D+02
 0.513020981845202D+02 -.608445616291723D+01 0.277572085229995D+01 0.508643297909821D+02
-.172013077007D-05 0.000000000000D+00 0.000000000000D+00 0.311152682004D-05 0.000000000000D+00  6 2 22 9900012 -11 1 21 2 0.36487931D+00 0.15943693D-02 0.64303956D+04 0.64303956D+04 0.64303956D+04 0.12297337D+01  1  2 13  2  6  5        1 -.103350887618D-03 0.100000000000D+01
0.160082221605D-06 0.000000000000D+00 0.000000000000D+00 0.311152682004D-05 0.150394260287D-06  6 2 22 9900012 -11 1 21 2 0.36487931D+00 0.15943693D-02 0.64303956D+04 0.64303956D+04 0.64303956D+04 0.12297337D+01  1  2  1  2  6  5        1 0.961824530004D-05 0.100000000000D+01
  </mgrwgt>
  </event>
  <event>
  6     66 0.12453494E-05 0.29999017E+02 0.78161638E-02 0.12144257E+00
        2 -1    0    0  501    0 0.00000000E+00 0.00000000E+00 0.43196898E+03 0.43196898E+03 0.00000000E+00 0.0000E+00 0.9000E+01
       22 -1    0    0    0    0 0.00000000E+00 0.00000000E+00 -.12909403E+02 0.12909403E+02 0.00000000E+00 0.0000E+00 0.9000E+01
       24  2    1    2    0    0 0.29779939E+02 -.36188743E+01 0.13851515E+03 0.16273460E+03 0.79976004E+02 0.0000E+00 0.0000E+00
  9900012  1    3    3    0    0 0.33754258E+02 -.23318805E+02 0.11363428E+03 0.13075116E+03 0.50000000E+02 0.0000E+00 0.9000E+01
      -11  1    3    3    0    0 -.39743194E+01 0.19699930E+02 0.24880874E+02 0.31983439E+02 0.00000000E+00 0.0000E+00 0.9000E+01
        1  1    1    2  501    0 -.29779939E+02 0.36188743E+01 0.28054443E+03 0.28214379E+03 0.00000000E+00 0.0000E+00 0.9000E+01
#aMCatNLO 1  0  0  1  1 0.39096898D+02 0.00000000D+00  -5  6  0 0.00000000D+00 0.00000000D+00 0.00000000D+00 0.00000000D+00 0.00000000D+00
  <mgrwgt>
 0.1538981352D-03    7    2    0
 0.746757106868296D+02 0.000000000000000D+00 0.000000000000000D+00 0.746757106868296D+02
 0.746757106868296D+02 0.000000000000000D+00 0.000000000000000D+00 -.746757106868296D+02
 0.706309454006004D+02 0.337542584053795D+02 -.233188046062260D+02 -.283833373552532D+02
 0.254578898677710D+02 -.397431940838147D+01 0.196999303026863D+02 -.156275937952400D+02
 0.532625861052879D+02 -.297799389969981D+02 0.361887430353972D+01 0.440109311504933D+02
 0.000000000000000D+00 -.000000000000000D+00 0.000000000000000D+00 0.000000000000000D+00
 0.112569720724189D+03 0.000000000000000D+00 0.000000000000000D+00 0.112569720724189D+03
 0.847824594305116D+02 0.000000000000000D+00 0.000000000000000D+00 -.847824594305116D+02
 0.797507254734699D+02 0.384654929449323D+02 -.396858945549426D+02 -.283833373552532D+02
 0.215233348641512D+02 -.250246737095550D+01 0.145866347353551D+02 -.156275937952400D+02
 0.519585974940082D+02 -.264835154928282D+02 -.783308368090270D+01 0.440109311504933D+02
 0.441195223230711D+02 -.947951008114860D+01 0.329323435004902D+02 0.277872612936773D+02
0.331015594688D-06 0.000000000000D+00 0.000000000000D+00 0.480366281140D-06 0.000000000000D+00  6 2 22 9900012 -11 1 21 0 0.66456767D-01 0.19860620D-02 0.32932025D+04 0.32932025D+04 0.32932025D+04 0.12627929D+01  1  2  2  1  6  1        2 0.122611942060D-03 0.100000000000D+01
0.128072861867D-07 0.000000000000D+00 -.635593521005D-09 0.480366281140D-06 0.000000000000D+00  6 2 22 9900012 -11 1 21 2 0.66456767D-01 0.19860620D-02 0.32932025D+04 0.32932025D+04 0.32932025D+04 0.12627929D+01  1  2  3  1  6  1        2 0.756494392203D-05 0.100000000000D+01
-.554638774286D-07 0.000000000000D+00 0.000000000000D+00 0.480366281140D-06 0.000000000000D+00  6 2 22 9900012 -11 1 21 2 0.66456767D-01 0.19860620D-02 0.32932025D+04 0.32932025D+04 0.32932025D+04 0.12627929D+01  1  2 15  1  6  1        2 -.327611264657D-04 0.100000000000D+01
-.297656160867D-07 0.000000000000D+00 0.000000000000D+00 0.480366281140D-06 0.000000000000D+00  6 2 22 9900012 -11 1 21 2 0.66456767D-01 0.19860620D-02 0.32932025D+04 0.32932025D+04 0.32932025D+04 0.12627929D+01  1  2  4  1  6  1        2 -.175818056392D-04 0.100000000000D+01
-.241315134515D-06 0.000000000000D+00 -.110219364170D-06 0.480366281140D-06 0.000000000000D+00  6 2 22 9900012 -11 1 21 2 0.10959428D+00 0.19860620D-02 0.32932025D+04 0.32932025D+04 0.32932025D+04 0.12627929D+01  1  2  5  1  6  1        2 -.836391904931D-04 0.100000000000D+01
0.273940581441D-06 0.000000000000D+00 0.977340619041D-07 0.480366281140D-06 0.000000000000D+00  6 2 22 9900012 -11 1 21 2 0.66456767D-01 0.19860620D-02 0.32932025D+04 0.32932025D+04 0.32932025D+04 0.12627929D+01  1  2  6  1  6  1        2 0.161809856230D-03 0.100000000000D+01
-.863700430449D-08 0.000000000000D+00 -.621675093072D-08 0.480366281140D-06 0.000000000000D+00  6 21 22 9900012 -11 1 -2 2 0.10959428D+00 0.19860620D-02 0.32932025D+04 0.32932025D+04 0.32932025D+04 0.12627929D+01  1  2  5  3  6  1        2 -.410648440071D-05 0.100000000000D+01
  </mgrwgt>
  </event>
  <event>
  6     66 0.12453494E-05 0.31611065E+02 0.78161638E-02 0.98287920E-01
        2 -1    0    0  501    0 0.00000000E+00 0.00000000E+00 0.92999553E+03 0.92999553E+03 0.00000000E+00 0.0000E+00 0.9000E+01
       22 -1    0    0    0    0 0.00000000E+00 0.00000000E+00 -.76983220E+02 0.76983220E+02 0.00000000E+00 0.0000E+00 0.9000E+01
       24  2    1    2    0    0 -.27309277E+02 0.15920515E+02 -.52767744E+02 0.10064726E+03 0.79662896E+02 0.0000E+00 0.0000E+00
  9900012  1    3    3    0    0 0.11366127E+01 0.23849028E+02 -.40683616E+02 0.68740270E+02 0.50000000E+02 0.0000E+00 0.9000E+01
      -11  1    3    3    0    0 -.28445890E+02 -.79285136E+01 -.12084128E+02 0.31906992E+02 0.00000000E+00 0.0000E+00 0.9000E+01
        1  1    1    2  501    0 0.27309277E+02 -.15920515E+02 0.90578006E+03 0.90633149E+03 0.00000000E+00 0.0000E+00 0.9000E+01
#aMCatNLO 1  0  0  1  5 0.20599445D+02 0.00000000D+00  -5  6  0 0.00000000D+00 0.00000000D+00 0.00000000D+00 0.00000000D+00 0.00000000D+00
  <mgrwgt>
 0.6099304754D-03    5    2    0
 0.267570646044506D+03 0.000000000000000D+00 0.000000000000000D+00 0.267570646044506D+03
 0.267570646044506D+03 0.000000000000000D+00 0.000000000000000D+00 -.267570646044506D+03
 0.194198462946945D+03 0.113661269106866D+01 0.238490284994635D+02 -.186126233944005D+03
 0.793016237195058D+02 -.284458901261502D+02 -.792851361624577D+01 -.735983527758474D+02
 0.261641205422561D+03 0.273092774350816D+02 -.159205148832178D+02 0.259724586719852D+03
 0.000000000000000D+00 0.000000000000000D+00 0.000000000000000D+00 0.000000000000000D+00
 0.578702279329737D+03 0.000000000000000D+00 0.000000000000000D+00 0.578702279329737D+03
 0.424031629127772D+03 0.000000000000000D+00 0.000000000000000D+00 -.424031629127772D+03
 0.216167776071075D+03 -.592962457321468D+02 -.779069168393224D+02 -.186126233944005D+03
 0.107116813745507D+03 -.558989258967304D+02 -.541535256401973D+02 -.735983527758474D+02
 0.308951177290220D+03 -.567193911131915D+02 -.157406733254851D+03 0.259724586719852D+03
 0.370498141350707D+03 0.171914562742069D+03 0.289467175734370D+03 0.154670650201965D+03
0.407708756328D-04 0.000000000000D+00 0.000000000000D+00 0.114198530760D-03 0.000000000000D+00  6 2 22 9900012 -11 1 21 0 0.14307624D+00 0.11843572D-01 0.33959415D+04 0.33959415D+04 0.33959415D+04 0.12612145D+01  1  2  2  1  6  1        2 0.569884984341D-03 0.100000000000D+01
0.340482421033D-05 0.000000000000D+00 -.782854488241D-07 0.114198530760D-03 0.000000000000D+00  6 2 22 9900012 -11 1 21 2 0.14307624D+00 0.11843572D-01 0.33959415D+04 0.33959415D+04 0.33959415D+04 0.12612145D+01  1  2  3  1  6  1        2 0.757024254176D-04 0.100000000000D+01
-.621793118694D-05 0.000000000000D+00 0.000000000000D+00 0.114198530760D-03 0.000000000000D+00  6 2 22 9900012 -11 1 21 2 0.14307624D+00 0.11843572D-01 0.33959415D+04 0.33959415D+04 0.33959415D+04 0.12612145D+01  1  2 15  1  6  1        2 -.138248685645D-03 0.100000000000D+01
0.292782978896D-04 0.000000000000D+00 -.106013512944D-04 0.114198530760D-03 0.000000000000D+00  6 2 22 9900012 -11 1 21 2 0.38558706D+00 0.11843572D-01 0.33959415D+04 0.33959415D+04 0.33959415D+04 0.12612145D+01  1  2  5  1  6  1        2 0.100055331895D-03 0.100000000000D+01
0.385496292798D-05 0.000000000000D+00 -.117195276428D-05 0.114198530760D-03 0.000000000000D+00  6 21 22 9900012 -11 1 -2 2 0.38558706D+00 0.11843572D-01 0.33959415D+04 0.33959415D+04 0.33959415D+04 0.12612145D+01  1  2  5  3  6  1        2 0.253641935311D-05 0.100000000000D+01
  </mgrwgt>
  </event>
  <event>
  7     66 -.12453494E-05 0.21767834E+02 0.78161638E-02 0.12418535E+00
        2 -1    0    0  501    0 0.00000000E+00 0.00000000E+00 0.52252537E+03 0.52252537E+03 0.00000000E+00 0.0000E+00 0.9000E+01
       22 -1    0    0    0    0 0.00000000E+00 0.00000000E+00 -.25356311E+02 0.25356311E+02 0.00000000E+00 0.0000E+00 0.9000E+01
       24  2    1    2    0    0 -.15838328E+02 -.34917367E+02 0.57305094E+02 0.10468726E+03 0.78774826E+02 0.0000E+00 0.0000E+00
  9900012  1    3    3    0    0 -.25965844E+02 -.44832803E+02 0.40166255E+02 0.82447155E+02 0.50000000E+02 0.0000E+00 0.9000E+01
      -11  1    3    3    0    0 0.10127515E+02 0.99154356E+01 0.17138839E+02 0.22240104E+02 0.00000000E+00 0.0000E+00 0.9000E+01
        1  1    1    2  502    0 0.14555440E+02 0.54127653E+01 0.29185633E+03 0.29226918E+03 0.00000000E+00 0.0000E+00 0.9000E+01
       21  1    1    2  501  502 0.12828882E+01 0.29504602E+02 0.14800764E+03 0.15092524E+03 0.00000000E+00 0.0000E+00 0.9000E+01
#aMCatNLO 2  0  0  5  1 0.18589706D+02 0.00000000D+00  -5  6  0 0.00000000D+00 0.00000000D+00 0.00000000D+00 0.00000000D+00 0.00000000D+00
  <mgrwgt>
 -.1322840377D-03    2    2    0
 0.115105671709429D+03 0.000000000000000D+00 0.000000000000000D+00 0.115105671709429D+03
 0.115105671709429D+03 -.000000000000000D+00 -.000000000000000D+00 -.115105671709429D+03
 0.112612230968514D+03 -.265441543042482D+02 -.461077527483155D+02 -.857379587608568D+02
 0.159712152371426D+02 0.100444809964365D+02 0.973237672291911D+01 -.771161208740064D+01
 0.101627897213201D+03 0.164996733078117D+02 0.363753760253964D+02 0.934495708482574D+02
 0.000000000000000D+00 0.000000000000000D+00 0.000000000000000D+00 0.000000000000000D+00
 0.115105671709429D+03 0.000000000000000D+00 0.000000000000000D+00 0.115105671709429D+03
 0.115105671709429D+03 -.000000000000000D+00 -.000000000000000D+00 -.115105671709429D+03
 0.109472738615941D+03 -.259658438516400D+02 -.448328026459349D+02 -.824625688422144D+02
 0.159160064056078D+02 0.101275154927158D+02 0.991543556104817D+01 -.724132774309042D+01
 0.652747804614148D+02 0.145554401342296D+02 0.541276528409578D+01 0.634006159178604D+02
 0.395478179358944D+02 0.128288822469464D+01 0.295046018007910D+02 0.263032806674444D+02
-.828750332956D-06 0.000000000000D+00 0.000000000000D+00 0.163536760997D-05 0.000000000000D+00  6 2 22 9900012 -11 1 21 2 0.80388518D-01 0.39009709D-02 0.43057544D+04 0.43057544D+04 0.43057544D+04 0.12492234D+01  1  2 13  2  6  5        1 -.162498118198D-03 0.100000000000D+01
0.154093657078D-06 0.000000000000D+00 0.000000000000D+00 0.163536760997D-05 0.395118897886D-08  6 2 22 9900012 -11 1 21 2 0.80388518D-01 0.39009709D-02 0.43057544D+04 0.43057544D+04 0.43057544D+04 0.12492234D+01  1  2  1  2  6  5        1 0.302140805327D-04 0.100000000000D+01
  </mgrwgt>
  </event>
  <event>
  6     66 0.12453494E-05 0.98158899E+02 0.78161638E-02 0.10986920E+00
        2 -1    0    0  501    0 0.00000000E+00 0.00000000E+00 0.24881776E+03 0.24881776E+03 0.00000000E+00 0.0000E+00 0.9000E+01
       22 -1    0    0    0    0 0.00000000E+00 0.00000000E+00 -.17375182E+03 0.17375182E+03 0.00000000E+00 0.0000E+00 0.9000E+01
       24  2    1    2    0    0 0.87372075E+02 -.44735778E+02 -.13865087E+03 0.18738871E+03 0.79090444E+02 0.0000E+00 0.0000E+00
  9900012  1    3    3    0    0 0.29131507E+02 -.32616315E+02 -.77588334E+02 0.10213921E+03 0.50000000E+02 0.0000E+00 0.9000E+01
      -11  1    3    3    0    0 0.58240568E+02 -.12119463E+02 -.61062533E+02 0.85249505E+02 0.00000000E+00 0.0000E+00 0.9000E+01
        1  1    1    2  501    0 -.87372075E+02 0.44735778E+02 0.21371681E+03 0.23518087E+03 0.00000000E+00 0.0000E+00 0.9000E+01
#aMCatNLO 1  0  0  5  5 0.81294605D+02 0.00000000D+00  -5  6  0 0.00000000D+00 0.00000000D+00 0.00000000D+00 0.00000000D+00 0.00000000D+00
  <mgrwgt>
 0.1282282487D-03    4    2    0
 0.207924361887780D+03 0.000000000000000D+00 0.000000000000000D+00 0.207924361887780D+03
 0.207924361887780D+03 -.000000000000000D+00 -.000000000000000D+00 -.207924361887780D+03
 0.117795636571835D+03 0.291315070109086D+02 -.326163151246119D+02 -.972797167056386D+02
 0.976498477590412D+02 0.582405681368011D+02 -.121194629639598D+02 -.774380243028692D+02
 0.200403239444683D+03 -.873720751477096D+02 0.447357780885717D+02 0.174717741008508D+03
 0.000000000000000D+00 0.000000000000000D+00 0.000000000000000D+00 0.000000000000000D+00
 0.207924361887780D+03 0.000000000000000D+00 0.000000000000000D+00 0.207924361887780D+03
 0.207924361887780D+03 -.000000000000000D+00 -.000000000000000D+00 -.207924361887780D+03
 0.998029261340713D+02 0.200931042868808D+02 -.279885209712319D+02 -.792056432262395D+02
 0.810538854913376D+02 0.508177419502735D+02 -.831886758483951D+01 -.625946155705440D+02
 0.150949575779994D+03 -.125927756438177D+03 0.154632260345604D+02 0.817854707586343D+02
 0.840423363701565D+02 0.550169102010227D+02 0.208441625215110D+02 0.600147880381491D+02
0.907338545816D-05 0.000000000000D+00 0.000000000000D+00 0.481203923535D-05 0.000000000000D+00  6 2 22 9900012 -11 1 21 0 0.38279656D-01 0.26731050D-01 0.12552234D+05 0.12552234D+05 0.12552234D+05 0.11992305D+01  1  2  2  2  6  5        1 0.174005349278D-03 0.100000000000D+01
0.765232884004D-07 0.000000000000D+00 -.174220946183D-07 0.481203923535D-05 0.000000000000D+00  6 2 22 9900012 -11 1 21 2 0.38279656D-01 0.26731050D-01 0.12552234D+05 0.12552234D+05 0.12552234D+05 0.11992305D+01  1  2  3  2  6  5        1 0.211053308125D-05 0.100000000000D+01
-.156148067314D-05 0.000000000000D+00 0.000000000000D+00 0.481203923535D-05 0.000000000000D+00  6 2 22 9900012 -11 1 21 2 0.38279656D-01 0.26731050D-01 0.12552234D+05 0.12552234D+05 0.12552234D+05 0.11992305D+01  1  2 15  2  6  5        1 -.430660611334D-04 0.100000000000D+01
-.174819618806D-06 0.000000000000D+00 0.000000000000D+00 0.481203923535D-05 0.000000000000D+00  6 2 22 9900012 -11 1 21 2 0.38279656D-01 0.26731050D-01 0.12552234D+05 0.12552234D+05 0.12552234D+05 0.11992305D+01  1  2  4  2  6  5        1 -.482157257553D-05 0.100000000000D+01
  </mgrwgt>
  </event>
  <event>
  7     66 -.12453494E-05 0.42952183E+02 0.78161638E-02 0.12283663E+00
        2 -1    0    0  502    0 0.00000000E+00 0.00000000E+00 0.15186726E+04 0.15186726E+04 0.00000000E+00 0.0000E+00 0.9000E+01
       22 -1    0    0    0    0 0.00000000E+00 0.00000000E+00 -.18278821E+02 0.18278821E+02 0.00000000E+00 0.0000E+00 0.9000E+01
       24  2    1    2    0    0 -.29366634E+02 -.24155282E+02 0.10020585E+03 0.13225274E+03 0.77483539E+02 0.0000E+00 0.0000E+00
  9900012  1    3    3    0    0 -.40802838E+00 -.18711868E+02 0.45632168E+02 0.70232437E+02 0.50000000E+02 0.0000E+00 0.9000E+01
      -11  1    3    3    0    0 -.28958606E+02 -.54434146E+01 0.54573681E+02 0.62020306E+02 0.00000000E+00 0.0000E+00 0.9000E+01
        1  1    1    2  501    0 0.36871485E+02 0.30546135E+02 0.13888491E+04 0.13896742E+04 0.00000000E+00 0.0000E+00 0.9000E+01
       21  1    1    2  502  501 -.75048511E+01 -.63908529E+01 0.11338840E+02 0.15024483E+02 0.00000000E+00 0.0000E+00 0.9000E+01
#aMCatNLO 2  0  0  1  5 0.35011028D+02 0.00000000D+00  -5  6  0 0.00000000D+00 0.00000000D+00 0.00000000D+00 0.00000000D+00 0.00000000D+00
  <mgrwgt>
 -.3521855778D-04    2    2    0
 0.157225814678341D+03 0.000000000000000D+00 0.000000000000000D+00 0.157225814678341D+03
 0.157225814678341D+03 0.000000000000000D+00 0.000000000000000D+00 -.157225814678341D+03
 0.124224132107520D+03 -.336671362002585D+01 -.212313742583911D+02 -.111667045202993D+03
 0.425479821042366D+02 -.299640167918310D+02 -.629958532982486D+01 -.295432514038919D+02
 0.147679515144926D+03 0.333307304118569D+02 0.275309595882159D+02 0.141210296606885D+03
 0.000000000000000D+00 -.000000000000000D+00 -.000000000000000D+00 -.000000000000000D+00
 0.158680347762971D+03 0.000000000000000D+00 0.000000000000000D+00 0.158680347762971D+03
 0.174940027684901D+03 0.000000000000000D+00 0.000000000000000D+00 -.174940027684901D+03
 0.123773298659392D+03 -.408028380786923D+00 -.187118676112272D+02 -.111667045202993D+03
 0.417257152789081D+02 -.289586057932875D+02 -.544341460224393D+01 -.295432514038919D+02
 0.149107077860022D+03 0.368714852866647D+02 0.305461351549656D+02 0.141210296606885D+03
 0.190142836495504D+02 -.750485111259029D+01 -.639085294149438D+01 -.162596799219297D+02
-.486290261832D-06 0.000000000000D+00 0.000000000000D+00 0.168881911089D-05 0.000000000000D+00  6 2 22 9900012 -11 1 21 2 0.25996576D+00 0.25273738D-02 0.49415322D+04 0.49415322D+04 0.49415322D+04 0.12424213D+01  1  2 13  1  6  1        2 -.358183118414D-04 0.100000000000D+01
0.771000005156D-08 0.000000000000D+00 0.000000000000D+00 0.168881911089D-05 0.208247333311D-09  6 2 22 9900012 -11 1 21 2 0.23364194D+00 0.28121262D-02 0.49415322D+04 0.49415322D+04 0.49415322D+04 0.12424213D+01  1  2  1  1  6  1        2 0.599754060699D-06 0.100000000000D+01
  </mgrwgt>
  </event>
  <event>
  6     66 -.12453494E-05 0.12750304E+02 0.78161638E-02 0.13520652E+00
        2 -1    0    0  501    0 0.00000000E+00 0.00000000E+00 0.15417368E+04 0.15417368E+04 0.00000000E+00 0.0000E+00 0.9000E+01
       22 -1    0    0    0    0 0.00000000E+00 0.00000000E+00 -.50211037E+01 0.50211037E+01 0.00000000E+00 0.0000E+00 0.9000E+01
       24  2    1    2    0    0 -.11861521E+02 0.46770264E+01 0.32190948E+03 0.33188477E+03 0.79744729E+02 0.0000E+00 0.0000E+00
  9900012  1    3    3    0    0 -.22789386E+02 0.39403202E+01 0.15291562E+03 0.16253636E+03 0.50000000E+02 0.0000E+00 0.9000E+01
      -11  1    3    3    0    0 0.10927865E+02 0.73670620E+00 0.16899385E+03 0.16934841E+03 0.00000000E+00 0.0000E+00 0.9000E+01
        1  1    1    2  501    0 0.11861521E+02 -.46770264E+01 0.12148062E+04 0.12148731E+04 0.00000000E+00 0.0000E+00 0.9000E+01
#aMCatNLO 1  0  0  5  1 0.58667970D+02 0.00000000D+00  -5  6  0 0.00000000D+00 0.00000000D+00 0.00000000D+00 0.00000000D+00 0.00000000D+00
  <mgrwgt>
 -.1114718374D-04    1    2    0
 0.879842050417599D+02 0.000000000000000D+00 0.000000000000000D+00 0.879842050417599D+02
 0.879842050417599D+02 -.000000000000000D+00 -.000000000000000D+00 -.879842050417599D+02
 0.932927070096567D+02 -.227893858062689D+02 0.394032018432262D+01 -.752904174022677D+02
 0.127607121902755D+02 0.109278651118765D+02 0.736706201902251D+00 0.654788543514285D+01
 0.699149908835875D+02 0.118615206943924D+02 -.467702638622488D+01 0.687425319671249D+02
 0.000000000000000D+00 0.000000000000000D+00 -.000000000000000D+00 0.000000000000000D+00
 0.879842050417599D+02 0.000000000000000D+00 0.000000000000000D+00 0.879842050417599D+02
 0.879842050417599D+02 -.000000000000000D+00 -.000000000000000D+00 -.879842050417599D+02
 0.922765953838115D+02 -.225831299176390D+02 0.385899298705252D+01 -.740950772445550D+02
 0.128698147367277D+02 0.109563528360809D+02 0.725473423136347D+00 0.671298385230575D+01
 0.400932314717380D+02 0.401942896800892D+01 0.577633097216932D+01 0.394708170819588D+02
 0.307287684912426D+02 0.760734811354924D+01 -.103607973823582D+02 0.279112763102905D+02
-.261716935787D-07 0.000000000000D+00 0.000000000000D+00 0.153110054665D-05 0.000000000000D+00  6 2 22 9900012 -11 1 21 2 0.23719027D+00 0.77247750D-03 0.15520739D+04 0.15520739D+04 0.15520739D+04 0.13034781D+01  1  2 14  2  6  5        1 -.111471837426D-04 0.100000000000D+01
  </mgrwgt>
  </event>
  <event>
  6     66 0.12453494E-05 0.20605654E+02 0.78161638E-02 0.12419260E+00
        2 -1    0    0  501    0 0.00000000E+00 0.00000000E+00 0.22627792E+02 0.22627792E+02 0.00000000E+00 0.0000E+00 0.9000E+01
       22 -1    0    0    0    0 -.00000000E+00 -.00000000E+00 -.12270325E+04 0.12270325E+04 0.00000000E+00 0.0000E+00 0.9000E+01
       24  2    1    2    0    0 -.42195519E+02 -.78808674E+01 -.12031063E+04 0.12067155E+04 0.82794723E+02 0.0000E+00 0.0000E+00
  9900012  1    3    3    0    0 -.27949477E+02 -.18173422E+01 -.11492443E+04 0.11506724E+04 0.50000000E+02 0.0000E+00 0.9000E+01
      -11  1    3    3    0    0 -.14246042E+02 -.60635253E+01 -.53861999E+02 0.56043117E+02 0.00000000E+00 0.0000E+00 0.9000E+01
        1  1    1    2  501    0 0.42195519E+02 0.78808674E+01 -.12984191E+01 0.42944799E+02 0.00000000E+00 0.0000E+00 0.9000E+01
#aMCatNLO 1  0  0  5  1 0.14899095D+02 0.00000000D+00  -5  6  0 0.00000000D+00 0.00000000D+00 0.00000000D+00 0.00000000D+00 0.00000000D+00
  <mgrwgt>
 0.2525691044D-03    5    2    0
 0.166628434525079D+03 0.000000000000000D+00 0.000000000000000D+00 0.166628434525079D+03
 0.166628434525079D+03 -.000000000000000D+00 -.000000000000000D+00 -.166628434525079D+03
 0.161420049996667D+03 -.279494768615460D+02 -.181734217929037D+01 -.150903798996234D+03
 0.154931929204787D+02 -.142460420135269D+02 -.606352526853495D+01 0.568309016148615D+00
 0.156343626133013D+03 0.421955188750729D+02 0.788086744782532D+01 0.150335489980085D+03
 0.000000000000000D+00 -.000000000000000D+00 0.000000000000000D+00 0.000000000000000D+00
 0.166628434525079D+03 0.000000000000000D+00 0.000000000000000D+00 0.166628434525079D+03
 0.166628434525079D+03 -.000000000000000D+00 -.000000000000000D+00 -.166628434525079D+03
 0.155943389149087D+03 -.263841606432487D+02 -.152498768385556D+01 -.145326842321090D+03
 0.153717731506165D+02 -.140938082461518D+02 -.603509253032598D+01 0.111069215587515D+01
 0.151653581234438D+03 0.490036566027345D+02 0.184569334907389D+01 0.143506249887776D+03
 0.102881255160169D+02 -.852568771333403D+01 0.571438686510765D+01 0.709900277439544D+00
0.105727384245D-04 0.000000000000D+00 0.000000000000D+00 0.174824517571D-05 0.000000000000D+00  6 2 22 9900012 -11 1 21 0 0.34811987D-02 0.18877423D+00 0.33476801D+04 0.33476801D+04 0.33476801D+04 0.12619491D+01  1  2  2  2  6  5        1 0.894568154501D-04 0.100000000000D+01
0.296809197179D-06 0.000000000000D+00 -.203010497081D-07 0.174824517571D-05 0.000000000000D+00  6 2 22 9900012 -11 1 21 2 0.34811987D-02 0.18877423D+00 0.33476801D+04 0.33476801D+04 0.33476801D+04 0.12619491D+01  1  2  3  2  6  5        1 0.399932788148D-05 0.100000000000D+01
-.178210626523D-05 0.000000000000D+00 0.000000000000D+00 0.174824517571D-05 0.000000000000D+00  6 2 22 9900012 -11 1 21 2 0.34811987D-02 0.18877423D+00 0.33476801D+04 0.33476801D+04 0.33476801D+04 0.12619491D+01  1  2 15  2  6  5        1 -.240128248789D-04 0.100000000000D+01
0.137927968456D-04 0.000000000000D+00 0.000000000000D+00 0.174824517571D-05 0.000000000000D+00  6 2 22 9900012 -11 1 21 2 0.34811987D-02 0.18877423D+00 0.43026015D+04 0.43026015D+04 0.43026015D+04 0.12492599D+01  1  2 12  2  6  5        1 0.186520445801D-03 0.100000000000D+01
-.251933896324D-06 0.000000000000D+00 0.000000000000D+00 0.174824517571D-05 0.000000000000D+00  6 2 22 9900012 -11 1 21 2 0.34811987D-02 0.18877423D+00 0.33476801D+04 0.33476801D+04 0.33476801D+04 0.12619491D+01  1  2  4  2  6  5        1 -.339465981997D-05 0.100000000000D+01
  </mgrwgt>
  </event>
  <event>
  7     66 -.12453494E-05 0.44493027E+02 0.78161638E-02 0.12174360E+00
        2 -1    0    0  502    0 0.00000000E+00 0.00000000E+00 0.13982784E+03 0.13982784E+03 0.00000000E+00 0.0000E+00 0.9000E+01
       22 -1    0    0    0    0 0.00000000E+00 0.00000000E+00 -.40727517E+03 0.40727517E+03 0.00000000E+00 0.0000E+00 0.9000E+01
       24  2    1    2    0    0 0.48512701E+02 0.15902528E+02 -.39590302E+03 0.40706505E+03 0.79726897E+02 0.0000E+00 0.0000E+00
  9900012  1    3    3    0    0 0.69383913E+01 0.10578769E+02 -.24980027E+03 0.25506906E+03 0.50000000E+02 0.0000E+00 0.9000E+01
      -11  1    3    3    0    0 0.41574310E+02 0.53237588E+01 -.14610276E+03 0.15199599E+03 0.00000000E+00 0.0000E+00 0.9000E+01
        1  1    1    2  501    0 -.36179385E+02 -.21186765E+02 0.10419691E+03 0.11231573E+03 0.00000000E+00 0.0000E+00 0.9000E+01
       21  1    1    2  502  501 -.12333316E+02 0.52842366E+01 0.24258782E+02 0.27722235E+02 0.00000000E+00 0.0000E+00 0.9000E+01
#aMCatNLO 2  0  0  1  5 0.13570269D+02 0.00000000D+00  -5  6  0 0.00000000D+00 0.00000000D+00 0.00000000D+00 0.00000000D+00 0.00000000D+00
  <mgrwgt>
 -.1582704866D-03    2    2    0
 0.214757949378130D+03 0.000000000000000D+00 0.000000000000000D+00 0.214757949378130D+03
 0.214757949378130D+03 0.000000000000000D+00 0.000000000000000D+00 -.214757949378130D+03
 0.138714376418557D+03 0.295623438797568D+01 0.122849335173407D+02 -.128771189758840D+03
 0.834430407135692D+02 0.391632690991774D+02 0.635677450441735D+01 -.734068853370839D+02
 0.207358481624133D+03 -.421195034871531D+02 -.186417080217581D+02 0.202178075095924D+03
 0.000000000000000D+00 -.000000000000000D+00 0.000000000000000D+00 0.000000000000000D+00
 0.263918597104947D+03 0.000000000000000D+00 0.000000000000000D+00 0.263918597104947D+03
 0.215780206167523D+03 0.000000000000000D+00 0.000000000000000D+00 -.215780206167523D+03
 0.138715791999760D+03 0.693839133447440D+01 0.105787694890893D+02 -.128771189758840D+03
 0.845300919375513D+02 0.415743096173205D+02 0.532375881518663D+01 -.734068853370839D+02
 0.206479541320023D+03 -.361793854128004D+02 -.211867648636130D+02 0.202178075095924D+03
 0.499733780151357D+02 -.123333155389944D+02 0.528423655933702D+01 0.481383909374234D+02
-.172673196656D-04 0.000000000000D+00 0.000000000000D+00 0.358771869529D-04 0.000000000000D+00  6 2 22 9900012 -11 1 21 2 0.21614374D-01 0.62360879D-01 0.55378595D+04 0.55378595D+04 0.55378595D+04 0.12368812D+01  1  2 13  1  6  1        2 -.229106544651D-03 0.100000000000D+01
0.535412689146D-05 0.000000000000D+00 0.000000000000D+00 0.358771869529D-04 0.184104546007D-05  6 2 22 9900012 -11 1 21 2 0.21511976D-01 0.62657719D-01 0.55378595D+04 0.55378595D+04 0.55378595D+04 0.12368812D+01  1  2  1  1  6  1        2 0.708360580734D-04 0.100000000000D+01
  </mgrwgt>
  </event>
  <event>
  6     66 0.12453494E-05 0.46873377E+02 0.78161638E-02 0.12455873E+00
        2 -1    0    0  501    0 0.00000000E+00 0.00000000E+00 0.19755742E+03 0.19755742E+03 0.00000000E+00 0.0000E+00 0.9000E+01
       22 -1    0    0    0    0 0.00000000E+00 0.00000000E+00 -.70959230E+02 0.70959230E+02 0.00000000E+00 0.0000E+00 0.9000E+01
       24  2    1    2    0    0 -.46602257E+02 0.50341948E+01 -.35726164E+02 0.99560119E+02 0.80241791E+02 0.0000E+00 0.0000E+00
  9900012  1    3    3    0    0 -.51516627E+02 -.37110355E+01 -.45885219E+02 0.85282988E+02 0.50000000E+02 0.0000E+00 0.9000E+01
      -11  1    3    3    0    0 0.49143700E+01 0.87452303E+01 0.10159055E+02 0.14277131E+02 0.00000000E+00 0.0000E+00 0.9000E+01
        1  1    1    2  501    0 0.46602257E+02 -.50341948E+01 0.16232435E+03 0.16895653E+03 0.00000000E+00 0.0000E+00 0.9000E+01
#aMCatNLO 1  0  0  1  1 0.48510410D+02 0.00000000D+00  -5  6  0 0.00000000D+00 0.00000000D+00 0.00000000D+00 0.00000000D+00 0.00000000D+00
  <mgrwgt>
 0.1451833656D-03    4    2    0
 0.118399840868076D+03 0.000000000000000D+00 0.000000000000000D+00 0.118399840868076D+03
 0.118399840868076D+03 0.000000000000000D+00 0.000000000000000D+00 -.118399840868076D+03
 0.121237019342191D+03 -.515166272631069D+02 -.371103551838515D+01 -.976252026363796D+02
 0.107581627907733D+02 0.491436995797244D+01 0.874523032374303D+01 0.388689865235041D+01
 0.104804499603187D+03 0.466022573051344D+02 -.503419480535788D+01 0.937383039840291D+02
 0.000000000000000D+00 -.000000000000000D+00 0.000000000000000D+00 -.000000000000000D+00
 0.129517187944442D+03 0.000000000000000D+00 0.000000000000000D+00 0.129517187944442D+03
 0.139527573341007D+03 0.000000000000000D+00 0.000000000000000D+00 -.139527573341007D+03
 0.119002408826399D+03 -.433789026783774D+02 -.157849269593223D+02 -.976252026363796D+02
 0.102893773090500D+02 0.562732155723372D+01 0.768742846248609D+01 0.388689865235041D+01
 0.109253956990011D+03 0.538531435483588D+02 -.157922897051973D+02 0.937383039840291D+02
 0.304990181599883D+02 -.161015624272152D+02 0.238897882020335D+02 -.100103853965654D+02
0.230004278392D-05 0.000000000000D+00 0.000000000000D+00 0.319801019030D-05 0.000000000000D+00  6 2 22 9900012 -11 1 21 0 0.30393449D-01 0.10916805D-01 0.41468313D+04 0.41468313D+04 0.41468313D+04 0.12511000D+01  1  2  2  1  6  1        2 0.194448309061D-03 0.100000000000D+01
0.471996346851D-07 0.000000000000D+00 -.441638495270D-08 0.319801019030D-05 0.000000000000D+00  6 2 22 9900012 -11 1 21 2 0.30393449D-01 0.10916805D-01 0.41468313D+04 0.41468313D+04 0.41468313D+04 0.12511000D+01  1  2  3  1  6  1        2 0.624584117035D-05 0.100000000000D+01
-.384387759432D-06 0.000000000000D+00 0.000000000000D+00 0.319801019030D-05 0.000000000000D+00  6 2 22 9900012 -11 1 21 2 0.30393449D-01 0.10916805D-01 0.41468313D+04 0.41468313D+04 0.41468313D+04 0.12511000D+01  1  2 15  1  6  1        2 -.508653278623D-04 0.100000000000D+01
-.351055779960D-07 0.000000000000D+00 0.000000000000D+00 0.319801019030D-05 0.000000000000D+00  6 2 22 9900012 -11 1 21 2 0.30393449D-01 0.10916805D-01 0.41468313D+04 0.41468313D+04 0.41468313D+04 0.12511000D+01  1  2  4  1  6  1        2 -.464545680955D-05 0.100000000000D+01
  </mgrwgt>
  </event>
  <event>
  6     66 0.12453494E-05 0.19884993E+02 0.78161638E-02 0.12715284E+00
        2 -1    0    0  501    0 0.00000000E+00 0.00000000E+00 0.47842351E+02 0.47842351E+02 0.00000000E+00 0.0000E+00 0.9000E+01
       22 -1    0    0    0    0 0.00000000E+00 0.00000000E+00 -.18912303E+03 0.18912303E+03 0.00000000E+00 0.0000E+00 0.9000E+01
       24  2    1    2    0    0 0.20953945E+02 -.26537146E+02 -.17143058E+03 0.19166301E+03 0.78758972E+02 0.0000E+00 0.0000E+00
  9900012  1    3    3    0    0 0.33699734E+01 -.26907881E+02 -.77689663E+02 0.96286419E+02 0.50000000E+02 0.0000E+00 0.9000E+01
      -11  1    3    3    0    0 0.17583971E+02 0.37073489E+00 -.93740922E+02 0.95376590E+02 0.00000000E+00 0.0000E+00 0.9000E+01
        1  1    1    2  501    0 -.20953945E+02 0.26537146E+02 0.30149907E+02 0.45302371E+02 0.00000000E+00 0.0000E+00 0.9000E+01
#aMCatNLO 1  0  0  1  5 0.67006130D+01 0.00000000D+00  -5  6  0 0.00000000D+00 0.00000000D+00 0.00000000D+00 0.00000000D+00 0.00000000D+00
  <mgrwgt>
 0.1957912552D-03   11    2    0
 0.951214504922059D+02 0.000000000000000D+00 0.000000000000000D+00 0.951214504922059D+02
 0.951214504922059D+02 0.000000000000000D+00 0.000000000000000D+00 -.951214504922059D+02
 0.622388514639315D+02 0.336997336290693D+01 -.269078809101501D+02 -.252642802392589D+02
 0.491853774731610D+02 0.175839714026373D+02 0.370734888026904D+00 -.459332979714212D+02
 0.788186720473193D+02 -.209539447655442D+02 0.265371460221232D+02 0.711975782106800D+02
 0.000000000000000D+00 0.000000000000000D+00 0.000000000000000D+00 0.000000000000000D+00
 0.101277581425676D+03 0.000000000000000D+00 0.000000000000000D+00 0.101277581425676D+03
 0.966363542642533D+02 0.000000000000000D+00 0.000000000000000D+00 -.966363542642533D+02
 0.630848686715393D+02 0.302298132094390D+01 -.288492354011467D+02 -.252642802392589D+02
 0.491008582390565D+02 0.173118398253925D+02 -.115178953828922D+01 -.459332979714212D+02
 0.781514165124782D+02 -.213885581930550D+02 0.241055665410140D+02 0.711975782106800D+02
 0.757679226685549D+01 0.105373704671854D+01 0.589545839842196D+01 0.464122716142293D+01
0.339141662100D-06 0.000000000000D+00 0.000000000000D+00 0.845566719559D-06 0.000000000000D+00  6 2 22 9900012 -11 1 21 0 0.73603617D-02 0.29095851D-01 0.29311892D+04 0.29311892D+04 0.29311892D+04 0.12688350D+01  1  2  2  1  6  1        2 0.341818649624D-04 0.100000000000D+01
0.110131284945D-07 0.000000000000D+00 -.651196640256D-09 0.845566719559D-06 0.000000000000D+00  6 2 22 9900012 -11 1 21 2 0.73603617D-02 0.29095851D-01 0.29311892D+04 0.29311892D+04 0.29311892D+04 0.12688350D+01  1  2  3  1  6  1        2 0.178704539168D-05 0.100000000000D+01
-.537247866937D-07 0.000000000000D+00 0.000000000000D+00 0.845566719559D-06 0.000000000000D+00  6 2 22 9900012 -11 1 21 2 0.73603617D-02 0.29095851D-01 0.29311892D+04 0.29311892D+04 0.29311892D+04 0.12688350D+01  1  2 15  1  6  1        2 -.871765298372D-05 0.100000000000D+01
0.116753166816D-05 0.000000000000D+00 0.000000000000D+00 0.845566719559D-06 0.000000000000D+00  6 2 22 9900012 -11 1 21 2 0.79615218D-02 0.29095851D-01 0.32132184D+04 0.32132184D+04 0.32132184D+04 0.12640608D+01  1  2 12  1  6  1        2 0.172258851840D-03 0.100000000000D+01
-.131111696364D-06 0.000000000000D+00 0.000000000000D+00 0.845566719559D-06 0.000000000000D+00  6 2 22 9900012 -11 1 21 2 0.73603617D-02 0.29095851D-01 0.29311892D+04 0.29311892D+04 0.29311892D+04 0.12688350D+01  1  2  4  1  6  1        2 -.212748405595D-04 0.100000000000D+01
-.323295937909D-05 0.000000000000D+00 -.560713922614D-06 0.845566719559D-06 0.000000000000D+00  6 2 22 9900012 -11 1 21 2 0.79568771D-02 0.29095851D-01 0.29311892D+04 0.29311892D+04 0.29311892D+04 0.12688350D+01  1  2  5  1  6  1        2 -.476464932470D-03 0.100000000000D+01
0.326842355449D-05 0.000000000000D+00 0.559015696323D-06 0.845566719559D-06 0.000000000000D+00  6 2 22 9900012 -11 1 21 2 0.73603617D-02 0.29095851D-01 0.29311892D+04 0.29311892D+04 0.29311892D+04 0.12688350D+01  1  2  6  1  6  1        2 0.530350776716D-03 0.100000000000D+01
0.111006401367D-07 0.000000000000D+00 0.000000000000D+00 0.845566719559D-06 0.695472980827D-07  6 2 22 9900012 -11 1 21 2 0.78367143D-02 0.29559231D-01 0.32132184D+04 0.32132184D+04 0.32132184D+04 0.12640608D+01  1  2 11  1  6  1        2 0.163007319641D-05 0.100000000000D+01
0.169496966016D-07 0.000000000000D+00 0.000000000000D+00 0.845566719559D-06 0.000000000000D+00  6 21 22 9900012 -11 1 -2 2 0.79615218D-02 0.29095851D-01 0.32132184D+04 0.32132184D+04 0.32132184D+04 0.12640608D+01  1  2 12  3  6  1        2 0.282032087531D-04 0.100000000000D+01
-.410294469908D-07 0.000000000000D+00 -.731651059888D-08 0.845566719559D-06 0.000000000000D+00  6 21 22 9900012 -11 1 -2 2 0.79568771D-02 0.29095851D-01 0.29311892D+04 0.29311892D+04 0.29311892D+04 0.12688350D+01  1  2  5  3  6  1        2 -.682241021450D-04 0.100000000000D+01
0.123718552471D-08 0.000000000000D+00 0.000000000000D+00 0.845566719559D-06 0.245348856995D-08  6 21 22 9900012 -11 1 -2 2 0.78367143D-02 0.29559231D-01 0.32132184D+04 0.32132184D+04 0.32132184D+04 0.12640608D+01  1  2 11  3  6  1        2 0.206096252805D-05 0.100000000000D+01
  </mgrwgt>
  </event>
  <event>
  6     66 0.12453494E-05 0.71850338E+02 0.78161638E-02 0.11061437E+00
        2 -1    0    0  501    0 0.00000000E+00 0.00000000E+00 0.15055774E+04 0.15055774E+04 0.00000000E+00 0.0000E+00 0.9000E+01
       22 -1    0    0    0    0 0.00000000E+00 0.00000000E+00 -.94238048E+02 0.94238048E+02 0.00000000E+00 0.0000E+00 0.9000E+01
       24  2    1    2    0    0 0.10867561E+02 -.71023709E+02 -.62498484E+02 0.12422728E+03 0.79773966E+02 0.0000E+00 0.0000E+00
  9900012  1    3    3    0    0 -.59006466E+01 -.23232202E+02 -.23134919E+02 0.60081422E+02 0.50000000E+02 0.0000E+00 0.9000E+01
      -11  1    3    3    0    0 0.16768207E+02 -.47791506E+02 -.39363565E+02 0.64145858E+02 0.00000000E+00 0.0000E+00 0.9000E+01
        1  1    1    2  501    0 -.10867561E+02 0.71023709E+02 0.14738378E+04 0.14755881E+04 0.00000000E+00 0.0000E+00 0.9000E+01
#aMCatNLO 1  0  0  5  1 0.84351704D+02 0.00000000D+00  -5  6  0 0.00000000D+00 0.00000000D+00 0.00000000D+00 0.00000000D+00 0.00000000D+00
  <mgrwgt>
 0.1239985045D-03    4    2    0
 0.376673164642200D+03 0.000000000000000D+00 0.000000000000000D+00 0.376673164642200D+03
 0.376673164642200D+03 -.000000000000000D+00 -.000000000000000D+00 -.376673164642200D+03
 0.170931220276931D+03 -.590064656580508D+01 -.232322021499738D+02 -.161687752222390D+03
 0.209965689430337D+03 0.167682072254438D+02 -.477915063650173D+02 -.203765526730514D+03
 0.372449419577132D+03 -.108675606596387D+02 0.710237085149912D+02 0.365453278952904D+03
 0.000000000000000D+00 0.000000000000000D+00 0.000000000000000D+00 0.000000000000000D+00
 0.376673164642200D+03 0.000000000000000D+00 0.000000000000000D+00 0.376673164642200D+03
 0.376673164642200D+03 -.000000000000000D+00 -.000000000000000D+00 -.376673164642200D+03
 0.154334189245186D+03 -.641156216252251D+01 -.198931712898297D+02 -.144506731942281D+03
 0.188560294299757D+03 0.161422164658238D+02 -.437004148462507D+02 -.182714770000258D+03
 0.350768102700190D+03 -.293086706300453D+02 0.119964362610413D+03 0.328310547197722D+03
 0.596837430392672D+02 0.195780163267441D+02 -.563707764743328D+02 -.108904525518268D+01
0.294561478608D-04 0.000000000000D+00 0.000000000000D+00 0.249989516156D-03 0.000000000000D+00  6 2 22 9900012 -11 1 21 0 0.23162729D+00 0.14498161D-01 0.79162659D+04 0.79162659D+04 0.79162659D+04 0.12199973D+01  1  2  2  2  6  5        1 0.157373610713D-03 0.100000000000D+01
0.782772148630D-06 0.000000000000D+00 -.565596818836D-07 0.249989516156D-03 0.000000000000D+00  6 2 22 9900012 -11 1 21 2 0.23162729D+00 0.14498161D-01 0.79162659D+04 0.79162659D+04 0.79162659D+04 0.12199973D+01  1  2  3  2  6  5        1 0.622456601109D-05 0.100000000000D+01
-.483804536005D-05 0.000000000000D+00 0.000000000000D+00 0.249989516156D-03 0.000000000000D+00  6 2 22 9900012 -11 1 21 2 0.23162729D+00 0.14498161D-01 0.79162659D+04 0.79162659D+04 0.79162659D+04 0.12199973D+01  1  2 15  2  6  5        1 -.384719011285D-04 0.100000000000D+01
-.141823195006D-06 0.000000000000D+00 0.000000000000D+00 0.249989516156D-03 0.000000000000D+00  6 2 22 9900012 -11 1 21 2 0.23162729D+00 0.14498161D-01 0.79162659D+04 0.79162659D+04 0.79162659D+04 0.12199973D+01  1  2  4  2  6  5        1 -.112777114102D-05 0.100000000000D+01
  </mgrwgt>
  </event>
  <event>
  6     66 0.12453494E-05 0.50810799E+02 0.78161638E-02 0.11582883E+00
        2 -1    0    0  501    0 0.00000000E+00 0.00000000E+00 0.18059051E+04 0.18059051E+04 0.00000000E+00 0.0000E+00 0.9000E+01
       22 -1    0    0    0    0 0.00000000E+00 0.00000000E+00 -.12969979E+02 0.12969979E+02 0.00000000E+00 0.0000E+00 0.9000E+01
       24  2    1    2    0    0 0.27642139E+02 -.42633900E+02 0.16670567E+03 0.19185204E+03 0.80216506E+02 0.0000E+00 0.0000E+00
  9900012  1    3    3    0    0 0.21785513E+02 -.79569136E+01 0.12905151E+03 0.14032895E+03 0.50000000E+02 0.0000E+00 0.9000E+01
      -11  1    3    3    0    0 0.58566262E+01 -.34676987E+02 0.37654160E+02 0.51523094E+02 0.00000000E+00 0.0000E+00 0.9000E+01
        1  1    1    2  501    0 -.27642139E+02 0.42633900E+02 0.16262295E+04 0.16270231E+04 0.00000000E+00 0.0000E+00 0.9000E+01
#aMCatNLO 1  0  0  1  5 0.20830874D+01 0.00000000D+00  -5  6  0 0.00000000D+00 0.00000000D+00 0.00000000D+00 0.00000000D+00 0.00000000D+00
  <mgrwgt>
 0.4496607275D-03    7    2    0
 0.153044279201760D+03 0.000000000000000D+00 0.000000000000000D+00 0.153044279201760D+03
 0.153044279201760D+03 0.000000000000000D+00 0.000000000000000D+00 -.153044279201760D+03
 0.779507733695840D+02 0.217855127807936D+02 -.795691355040625D+01 -.551217019743176D+02
 0.856046597350531D+02 0.585662619401312D+01 -.346769868256509D+02 -.780471926636151D+02
 0.142533125298882D+03 -.276421389748067D+02 0.426339003760571D+02 0.133168894637933D+03
 0.000000000000000D+00 0.000000000000000D+00 0.000000000000000D+00 0.000000000000000D+00
 0.257858816652363D+03 0.000000000000000D+00 0.000000000000000D+00 0.257858816652363D+03
 0.161808895887683D+03 0.000000000000000D+00 0.000000000000000D+00 -.161808895887683D+03
 0.753967123928463D+02 0.886628280669171D+01 -.822503740391900D+01 -.551217019743176D+02
 0.859573307999710D+02 -.859714068398082D+01 -.349769582388753D+02 -.780471926636151D+02
 0.149112546764794D+03 -.522127244631097D+02 0.421239659544705D+02 0.133168894637933D+03
 0.109201122582435D+03 0.519435823403988D+02 0.107802968832382D+01 0.960499207646803D+02
0.424758467706D-05 0.000000000000D+00 0.000000000000D+00 0.965964352690D-05 0.000000000000D+00  6 2 22 9900012 -11 1 21 0 0.27783156D+00 0.19953814D-02 0.49770353D+04 0.49770353D+04 0.49770353D+04 0.12420708D+01  1  2  2  1  6  1        2 0.243212757548D-03 0.100000000000D+01
0.129116056794D-06 0.000000000000D+00 -.815592178733D-08 0.965964352690D-05 0.000000000000D+00  6 2 22 9900012 -11 1 21 2 0.27783156D+00 0.19953814D-02 0.49770353D+04 0.49770353D+04 0.49770353D+04 0.12420708D+01  1  2  3  1  6  1        2 0.114055767282D-04 0.100000000000D+01
-.767423568350D-06 0.000000000000D+00 0.000000000000D+00 0.965964352690D-05 0.000000000000D+00  6 2 22 9900012 -11 1 21 2 0.27783156D+00 0.19953814D-02 0.49770353D+04 0.49770353D+04 0.49770353D+04 0.12420708D+01  1  2 15  1  6  1        2 -.677910138299D-04 0.100000000000D+01
-.656642466424D-06 0.000000000000D+00 0.000000000000D+00 0.965964352690D-05 0.000000000000D+00  6 2 22 9900012 -11 1 21 2 0.27783156D+00 0.19953814D-02 0.49770353D+04 0.49770353D+04 0.49770353D+04 0.12420708D+01  1  2  4  1  6  1        2 -.580050709394D-04 0.100000000000D+01
-.450178264728D-05 0.000000000000D+00 -.105743935003D-05 0.965964352690D-05 0.000000000000D+00  6 2 22 9900012 -11 1 21 2 0.47403458D+00 0.19953814D-02 0.49770353D+04 0.49770353D+04 0.49770353D+04 0.12420708D+01  1  2  5  1  6  1        2 -.795614971108D-04 0.100000000000D+01
0.453831109682D-05 0.000000000000D+00 0.922603637526D-06 0.965964352690D-05 0.000000000000D+00  6 2 22 9900012 -11 1 21 2 0.27783156D+00 0.19953814D-02 0.49770353D+04 0.49770353D+04 0.49770353D+04 0.12420708D+01  1  2  6  1  6  1        2 0.400895571907D-03 0.100000000000D+01
-.216499719434D-06 0.000000000000D+00 -.628928538158D-07 0.965964352690D-05 0.000000000000D+00  6 21 22 9900012 -11 1 -2 2 0.47403458D+00 0.19953814D-02 0.49770353D+04 0.49770353D+04 0.49770353D+04 0.12420708D+01  1  2  5  3  6  1        2 -.495596791128D-06 0.100000000000D+01
  </mgrwgt>
  </event>
  <event>
  6     66 0.12453494E-05 0.37392184E+02 0.78161638E-02 0.12231569E+00
        2 -1    0    0  501    0 0.00000000E+00 0.00000000E+00 0.90131975E+02 0.90131975E+02 0.00000000E+00 0.0000E+00 0.9000E+01
       22 -1    0    0    0    0 -.00000000E+00 -.00000000E+00 -.82543641E+03 0.82543641E+03 0.00000000E+00 0.0000E+00 0.9000E+01
       24  2    1    2    0    0 0.45614712E+02 -.29424213E+01 -.81719383E+03 0.82178548E+03 0.73731053E+02 0.0000E+00 0.0000E+00
  9900012  1    3    3    0    0 0.34230318E+02 0.17158502E+02 -.54961878E+03 0.55321509E+03 0.50000000E+02 0.0000E+00 0.9000E+01
      -11  1    3    3    0    0 0.11384394E+02 -.20100923E+02 -.26757505E+03 0.26857040E+03 0.00000000E+00 0.0000E+00 0.9000E+01
        1  1    1    2  501    0 -.45614712E+02 0.29424213E+01 0.81889393E+02 0.93782901E+02 0.00000000E+00 0.0000E+00 0.9000E+01
#aMCatNLO 1  0  0  5  1 0.94229170D+01 0.00000000D+00  -5  6  0 0.00000000D+00 0.00000000D+00 0.00000000D+00 0.00000000D+00 0.00000000D+00
  <mgrwgt>
 0.5845966377D-03    8    2    0
 0.272760359461368D+03 0.000000000000000D+00 0.000000000000000D+00 0.272760359461368D+03
 0.272760359461368D+03 -.000000000000000D+00 -.000000000000000D+00 -.272760359461368D+03
 0.187653948145302D+03 0.342303178869676D+02 0.171585021526932D+02 -.176770685906212D+03
 0.900890525998338D+02 0.113843936870042D+02 -.201009234163584D+02 -.870768962269822D+02
 0.267777718177600D+03 -.456147115739719D+02 0.294242126366518D+01 0.263847582133195D+03
 0.000000000000000D+00 0.000000000000000D+00 0.000000000000000D+00 0.000000000000000D+00
 0.272760359461368D+03 0.000000000000000D+00 0.000000000000000D+00 0.272760359461368D+03
 0.272760359461368D+03 -.000000000000000D+00 -.000000000000000D+00 -.272760359461368D+03
 0.186245212531611D+03 0.339798054957146D+02 0.171746616977479D+02 -.175321655835742D+03
 0.893999112029736D+02 0.112641361035307D+02 -.200931660841618D+02 -.863812944893453D+02
 0.258965336292591D+03 -.501694412677385D+02 0.875105764104709D+01 0.253908431435785D+03
 0.109102588955600D+02 0.492549966849312D+01 -.583255325463312D+01 0.779451888930220D+01
0.289258106079D-04 0.000000000000D+00 0.000000000000D+00 0.348447104000D-05 0.000000000000D+00  6 2 22 9900012 -11 1 21 0 0.13866458D-01 0.12699022D+00 0.43419944D+04 0.43419944D+04 0.43419944D+04 0.12488063D+01  1  2  2  2  6  5        1 0.108046498147D-03 0.100000000000D+01
0.131670971614D-05 0.000000000000D+00 -.555413645377D-07 0.348447104000D-05 0.000000000000D+00  6 2 22 9900012 -11 1 21 2 0.13866458D-01 0.12699022D+00 0.43419944D+04 0.43419944D+04 0.43419944D+04 0.12488063D+01  1  2  3  2  6  5        1 0.767017710671D-05 0.100000000000D+01
-.527313067054D-05 0.000000000000D+00 0.000000000000D+00 0.348447104000D-05 0.000000000000D+00  6 2 22 9900012 -11 1 21 2 0.13866458D-01 0.12699022D+00 0.43419944D+04 0.43419944D+04 0.43419944D+04 0.12488063D+01  1  2 15  2  6  5        1 -.307173598356D-04 0.100000000000D+01
0.771075526479D-04 0.000000000000D+00 0.000000000000D+00 0.348447104000D-05 0.000000000000D+00  6 2 22 9900012 -11 1 21 2 0.13866458D-01 0.12699022D+00 0.52158691D+04 0.52158691D+04 0.52158691D+04 0.12397840D+01  1  2 12  2  6  5        1 0.448374590637D-03 0.100000000000D+01
-.153791145951D-05 0.000000000000D+00 0.000000000000D+00 0.348447104000D-05 0.000000000000D+00  6 2 22 9900012 -11 1 21 2 0.13866458D-01 0.12699022D+00 0.43419944D+04 0.43419944D+04 0.43419944D+04 0.12488063D+01  1  2  4  2  6  5        1 -.895873488609D-05 0.100000000000D+01
-.248503312941D-03 0.000000000000D+00 0.000000000000D+00 0.348447104000D-05 0.000000000000D+00  6 2 22 9900012 -11 1 21 2 0.13866458D-01 0.12699022D+00 0.43419944D+04 0.43419944D+04 0.43419944D+04 0.12488063D+01  1  2  5  2  6  5        1 -.144759653437D-02 0.100000000000D+01
0.258834346647D-03 0.000000000000D+00 -.000000000000D+00 0.348447104000D-05 0.000000000000D+00  6 2 22 9900012 -11 1 21 2 0.13866458D-01 0.12699022D+00 0.43419944D+04 0.43419944D+04 0.43419944D+04 0.12488063D+01  1  2  6  2  6  5        1 0.150777749700D-02 0.100000000000D+01
0.866630429659D-10 0.000000000000D+00 0.000000000000D+00 0.348447104000D-05 0.149005920711D-07  6 2 22 9900012 -11 1 21 2 0.13866458D-01 0.12699022D+00 0.52158691D+04 0.52158691D+04 0.52158691D+04 0.12397840D+01  1  2 11  2  6  5        1 0.503939044605D-09 0.100000000000D+01
  </mgrwgt>
  </event>
  <event>
  6     66 0.12453494E-05 0.60619386E+02 0.78161638E-02 0.11988602E+00
        2 -1    0    0  501    0 0.00000000E+00 0.00000000E+00 0.20712164E+03 0.20712164E+03 0.00000000E+00 0.0000E+00 0.9000E+01
       22 -1    0    0    0    0 0.00000000E+00 0.00000000E+00 -.50160967E+02 0.50160967E+02 0.00000000E+00 0.0000E+00 0.9000E+01
       24  2    1    2    0    0 -.67557322E+02 0.11658614E+02 0.25139592E+02 0.10870026E+03 0.80522254E+02 0.0000E+00 0.0000E+00
  9900012  1    3    3    0    0 -.47850532E+02 0.19069863E+02 0.40698407E+02 0.82520866E+02 0.50000000E+02 0.0000E+00 0.9000E+01
      -11  1    3    3    0    0 -.19706790E+02 -.74112489E+01 -.15558814E+02 0.26179398E+02 0.00000000E+00 0.0000E+00 0.9000E+01
        1  1    1    2  501    0 0.67557322E+02 -.11658614E+02 0.13182108E+03 0.14858234E+03 0.00000000E+00 0.0000E+00 0.9000E+01
#aMCatNLO 1  0  0  1  5 0.38129281D+01 0.00000000D+00  -5  6  0 0.00000000D+00 0.00000000D+00 0.00000000D+00 0.00000000D+00 0.00000000D+00
  <mgrwgt>
 0.1019723058D-03   11    2    0
 0.101928512144656D+03 0.000000000000000D+00 0.000000000000000D+00 0.101928512144656D+03
 0.101928512144656D+03 0.000000000000000D+00 0.000000000000000D+00 -.101928512144656D+03
 0.728114923945200D+02 -.478505319407225D+02 0.190698626463746D+02 -.121729354042294D+02
 0.450199138803389D+02 -.197067904540804D+02 -.741124885215049D+01 -.397933216286803D+02
 0.860256180144534D+02 0.675573223948030D+02 -.116586137942241D+02 0.519662570329096D+02
 0.000000000000000D+00 0.000000000000000D+00 0.000000000000000D+00 0.000000000000000D+00
 0.103479774989301D+03 0.000000000000000D+00 0.000000000000000D+00 0.103479774989301D+03
 0.103222832134450D+03 0.000000000000000D+00 0.000000000000000D+00 -.103222832134450D+03
 0.732755149209502D+02 -.487386042462247D+02 0.185921807947519D+02 -.121729354042294D+02
 0.453122828894738D+02 -.202559256832881D+02 -.770662112246452D+01 -.397933216286803D+02
 0.852886537182172D+02 0.665158919277217D+02 -.122187848870164D+02 0.519662570329096D+02
 0.282615559510998D+01 0.247863800179110D+01 0.133322521472902D+01 0.256942854851499D+00
0.530751206590D-06 0.000000000000D+00 0.000000000000D+00 0.558849943219D-06 0.000000000000D+00  6 2 22 9900012 -11 1 21 0 0.31864867D-01 0.77170719D-02 0.65122448D+04 0.65122448D+04 0.65122448D+04 0.12291346D+01  1  2  2  1  6  1        2 0.720966087297D-04 0.100000000000D+01
-.720039171967D-08 0.000000000000D+00 -.101911219165D-08 0.558849943219D-06 0.000000000000D+00  6 2 22 9900012 -11 1 21 2 0.31864867D-01 0.77170719D-02 0.65122448D+04 0.65122448D+04 0.65122448D+04 0.12291346D+01  1  2  3  1  6  1        2 -.147767482752D-05 0.100000000000D+01
-.776180211341D-07 0.000000000000D+00 0.000000000000D+00 0.558849943219D-06 0.000000000000D+00  6 2 22 9900012 -11 1 21 2 0.31864867D-01 0.77170719D-02 0.65122448D+04 0.65122448D+04 0.65122448D+04 0.12291346D+01  1  2 15  1  6  1        2 -.159288828243D-04 0.100000000000D+01
0.249926566738D-07 0.000000000000D+00 0.000000000000D+00 0.558849943219D-06 0.000000000000D+00  6 2 22 9900012 -11 1 21 2 0.32760611D-01 0.77170719D-02 0.67546266D+04 0.67546266D+04 0.67546266D+04 0.12274087D+01  1  2 12  1  6  1        2 0.497873497624D-05 0.100000000000D+01
-.426355538954D-06 0.000000000000D+00 0.000000000000D+00 0.558849943219D-06 0.000000000000D+00  6 2 22 9900012 -11 1 21 2 0.31864867D-01 0.77170719D-02 0.65122448D+04 0.65122448D+04 0.65122448D+04 0.12291346D+01  1  2  4  1  6  1        2 -.874973018155D-04 0.100000000000D+01
-.173165299698D-04 0.000000000000D+00 -.241445031028D-05 0.558849943219D-06 0.000000000000D+00  6 2 22 9900012 -11 1 21 2 0.32732374D-01 0.77170719D-02 0.65122448D+04 0.65122448D+04 0.65122448D+04 0.12291346D+01  1  2  5  1  6  1        2 -.345175732447D-02 0.100000000000D+01
0.173759855473D-04 0.000000000000D+00 0.241357957073D-05 0.558849943219D-06 0.000000000000D+00  6 2 22 9900012 -11 1 21 2 0.31864867D-01 0.77170719D-02 0.65122448D+04 0.65122448D+04 0.65122448D+04 0.12291346D+01  1  2  6  1  6  1        2 0.356592494495D-02 0.100000000000D+01
0.414187320086D-06 0.000000000000D+00 0.000000000000D+00 0.558849943219D-06 0.373909523460D-06  6 2 22 9900012 -11 1 21 2 0.32349823D-01 0.78150656D-02 0.67546266D+04 0.67546266D+04 0.67546266D+04 0.12274087D+01  1  2 11  1  6  1        2 0.821845735305D-04 0.100000000000D+01
0.100508393619D-08 0.000000000000D+00 0.000000000000D+00 0.558849943219D-06 0.000000000000D+00  6 21 22 9900012 -11 1 -2 2 0.32760611D-01 0.77170719D-02 0.67546266D+04 0.67546266D+04 0.67546266D+04 0.12274087D+01  1  2 12  3  6  1        2 0.991055101337D-06 0.100000000000D+01
-.831710656418D-07 0.000000000000D+00 -.116846279377D-07 0.558849943219D-06 0.000000000000D+00  6 21 22 9900012 -11 1 -2 2 0.32732374D-01 0.77170719D-02 0.65122448D+04 0.65122448D+04 0.65122448D+04 0.12291346D+01  1  2  5  3  6  1        2 -.821894361444D-04 0.100000000000D+01
0.147602706521D-07 0.000000000000D+00 0.000000000000D+00 0.558849943219D-06 0.190059825792D-08  6 21 22 9900012 -11 1 -2 2 0.32349823D-01 0.78150656D-02 0.67546266D+04 0.67546266D+04 0.67546266D+04 0.12274087D+01  1  2 11  3  6  1        2 0.146470086267D-04 0.100000000000D+01
  </mgrwgt>
  </event>
  <event>
  6     66 0.12453494E-05 0.73770549E+02 0.78161638E-02 0.10526502E+00
        2 -1    0    0  501    0 0.00000000E+00 0.00000000E+00 0.14654848E+02 0.14654848E+02 0.00000000E+00 0.0000E+00 0.9000E+01
       22 -1    0    0    0    0 0.00000000E+00 0.00000000E+00 -.66612905E+03 0.66612905E+03 0.00000000E+00 0.0000E+00 0.9000E+01
       24  2    1    2    0    0 -.43731451E+02 -.59410893E+02 -.50260348E+03 0.51463762E+03 0.82459247E+02 0.0000E+00 0.0000E+00
  9900012  1    3    3    0    0 -.54985828E+02 -.56859526E+02 -.37443966E+03 0.38595532E+03 0.50000000E+02 0.0000E+00 0.9000E+01
      -11  1    3    3    0    0 0.11254378E+02 -.25513669E+01 -.12816382E+03 0.12868230E+03 0.00000000E+00 0.0000E+00 0.9000E+01
        1  1    1    2  501    0 0.43731451E+02 0.59410893E+02 -.14887072E+03 0.16614627E+03 0.00000000E+00 0.0000E+00 0.9000E+01
#aMCatNLO 1  0  0  1  1 0.23388903D+03 0.00000000D+00  -5  6  0 0.00000000D+00 0.00000000D+00 0.00000000D+00 0.00000000D+00 0.00000000D+00
  <mgrwgt>
 0.2141140501D-03    5    2    0
 0.988029353069952D+02 0.000000000000000D+00 0.000000000000000D+00 0.988029353069952D+02
 0.988029353069952D+02 0.000000000000000D+00 0.000000000000000D+00 -.988029353069952D+02
 0.952116748150153D+02 -.549858282491130D+02 -.568595257750403D+02 -.175731625348655D+02
 0.207960310942289D+02 0.112543775286795D+02 -.255136685002611D+01 -.173004168421075D+02
 0.815981647047463D+02 0.437314507204335D+02 0.594108926250664D+02 0.348735793769730D+02
 0.000000000000000D+00 0.000000000000000D+00 0.000000000000000D+00 0.000000000000000D+00
 0.217196693313752D+03 0.000000000000000D+00 0.000000000000000D+00 0.217196693313752D+03
 0.209702293155797D+03 0.000000000000000D+00 0.000000000000000D+00 -.209702293155797D+03
 0.177018206628601D+03 -.638285598203961D+02 -.156373093554433D+03 -.175731625348655D+02
 0.285802791704789D+02 0.965050709632347D+01 -.206008652084237D+02 -.173004168421075D+02
 0.535197901023486D+02 0.393424696192998D+02 0.100185566970441D+02 0.348735793769730D+02
 0.167780710568120D+03 0.148355831047729D+02 0.166955402065813D+03 0.749440015795407D+01
0.326935453997D-05 0.000000000000D+00 0.000000000000D+00 0.462748624555D-07 0.000000000000D+00  6 2 22 9900012 -11 1 21 0 0.22545920D-02 0.10248139D+00 0.80000851D+04 0.80000851D+04 0.80000851D+04 0.12195100D+01  1  2  2  1  6  1        2 0.198654075457D-03 0.100000000000D+01
-.659169197658D-07 0.000000000000D+00 -.627759113715D-08 0.462748624555D-07 0.000000000000D+00  6 2 22 9900012 -11 1 21 2 0.22545920D-02 0.10248139D+00 0.80000851D+04 0.80000851D+04 0.80000851D+04 0.12195100D+01  1  2  3  1  6  1        2 -.595666421460D-05 0.100000000000D+01
-.497952720603D-06 0.000000000000D+00 0.000000000000D+00 0.462748624555D-07 0.000000000000D+00  6 2 22 9900012 -11 1 21 2 0.22545920D-02 0.10248139D+00 0.80000851D+04 0.80000851D+04 0.80000851D+04 0.12195100D+01  1  2 15  1  6  1        2 -.449981152323D-04 0.100000000000D+01
0.201407500142D-05 0.000000000000D+00 -.128496643529D-05 0.462748624555D-07 0.000000000000D+00  6 2 22 9900012 -11 1 21 2 0.10828099D-01 0.10248139D+00 0.80000851D+04 0.80000851D+04 0.80000851D+04 0.12195100D+01  1  2  5  1  6  1        2 0.241240608632D-04 0.100000000000D+01
0.357476750751D-06 0.000000000000D+00 -.245104059883D-06 0.462748624555D-07 0.000000000000D+00  6 21 22 9900012 -11 1 -2 2 0.10828099D-01 0.10248139D+00 0.80000851D+04 0.80000851D+04 0.80000851D+04 0.12195100D+01  1  2  5  3  6  1        2 0.422906932111D-04 0.100000000000D+01
  </mgrwgt>
  </event>
  <event>
  7     66 0.12453494E-05 0.80006909E+02 0.78161638E-02 0.11724946E+00
       21 -1    0    0  501  502 0.00000000E+00 0.00000000E+00 0.65697441E+02 0.65697441E+02 0.00000000E+00 0.0000E+00 0.9000E+01
       22 -1    0    0    0    0 0.00000000E+00 0.00000000E+00 -.21009866E+03 0.21009866E+03 0.00000000E+00 0.0000E+00 0.9000E+01
       24  2    1    2    0    0 0.26330205E+02 -.75456037E+02 -.54351094E+02 0.12467713E+03 0.78761990E+02 0.0000E+00 0.0000E+00
  9900012  1    3    3    0    0 0.39541311E+02 -.70998724E+02 -.36812433E+02 0.10227164E+03 0.50000000E+02 0.0000E+00 0.9000E+01
      -11  1    3    3    0    0 -.13211106E+02 -.44573132E+01 -.17538661E+02 0.22405481E+02 0.00000000E+00 0.0000E+00 0.9000E+01
        3  1    1    2  501    0 -.26906227E+02 0.75673802E+02 -.22282482E+02 0.83348536E+02 0.00000000E+00 0.0000E+00 0.9000E+01
       -4  1    1    2    0  502 0.57602249E+00 -.21776553E+00 -.67767643E+02 0.67770441E+02 0.00000000E+00 0.0000E+00 0.9000E+01
#aMCatNLO 2  0  0  1  5 0.75794600D+02 0.00000000D+00  -5  6  0 0.00000000D+00 0.00000000D+00 0.00000000D+00 0.00000000D+00 0.00000000D+00
  <mgrwgt>
 0.3489066467D-01    2    2    0
 0.966974554506334D+02 0.000000000000000D+00 0.000000000000000D+00 0.966974554506334D+02
 0.966974554506334D+02 0.000000000000000D+00 0.000000000000000D+00 -.966974554506334D+02
 0.956193506318722D+02 0.398258147987391D+02 -.711062804884759D+02 0.928205780868445D+00
 0.171164044143963D+02 -.131600740734733D+02 -.447660575353589D+01 -.998717935081127D+01
 0.806591558549983D+02 -.266657407252659D+02 0.755828862420118D+02 0.905897356994283D+01
 0.000000000000000D+00 0.000000000000000D+00 -.000000000000000D+00 -.000000000000000D+00
 0.967000047914111D+02 0.000000000000000D+00 0.000000000000000D+00 0.967000047914111D+02
 0.142739853154201D+03 0.000000000000000D+00 0.000000000000000D+00 -.142739853154201D+03
 0.954211483474139D+02 0.395413105564149D+02 -.709987235480237D+02 0.928205780868445D+00
 0.171506474549454D+02 -.132111057745045D+02 -.445731319893582D+01 -.998717935081127D+01
 0.808240955351889D+02 -.269062272730412D+02 0.756738022757669D+02 0.905897356994283D+01
 0.460439666080641D+02 0.576022491130820D+00 -.217765528807420D+00 -.460398483627900D+02
-.159799074601D-08 0.000000000000D+00 0.000000000000D+00 0.118163054670D-06 0.000000000000D+00  6 21 22 9900012 -11 3 -4 2 0.14919879D-01 0.21896753D-01 0.90525743D+04 0.90525743D+04 0.90525743D+04 0.12138369D+01  1  2 13  3  6  1        4 -.144732797008D-05 0.100000000000D+01
0.361006329599D-04 0.000000000000D+00 0.000000000000D+00 0.118163054670D-06 0.347874830458D-07  6 21 22 9900012 -11 3 -4 2 0.10107299D-01 0.32322871D-01 0.90525743D+04 0.90525743D+04 0.90525743D+04 0.12138369D+01  1  2  1  3  6  1        4 0.348921119946D-01 0.100000000000D+01
  </mgrwgt>
  </event>
  <event>
  6     66 0.12453494E-05 0.40109060E+02 0.78161638E-02 0.12324427E+00
        2 -1    0    0  501    0 0.00000000E+00 0.00000000E+00 0.63066685E+03 0.63066685E+03 0.00000000E+00 0.0000E+00 0.9000E+01
       22 -1    0    0    0    0 0.00000000E+00 0.00000000E+00 -.13900319E+02 0.13900319E+02 0.00000000E+00 0.0000E+00 0.9000E+01
       24  2    1    2    0    0 -.22553949E+02 0.37587286E+02 0.15030562E+03 0.17605114E+03 0.80503052E+02 0.0000E+00 0.0000E+00
  9900012  1    3    3    0    0 -.44903954E+01 0.30539279E+02 0.61130670E+02 0.84792512E+02 0.50000000E+02 0.0000E+00 0.9000E+01
      -11  1    3    3    0    0 -.18063553E+02 0.70480072E+01 0.89174950E+02 0.91258633E+02 0.00000000E+00 0.0000E+00 0.9000E+01
        1  1    1    2  501    0 0.22553949E+02 -.37587286E+02 0.46646091E+03 0.46851602E+03 0.00000000E+00 0.0000E+00 0.9000E+01
#aMCatNLO 1  0  0  1  5 0.15949796D+02 0.00000000D+00  -5  6  0 0.00000000D+00 0.00000000D+00 0.00000000D+00 0.00000000D+00 0.00000000D+00
  <mgrwgt>
 0.2186170349D-03    9    2    0
 0.936294322363424D+02 0.000000000000000D+00 0.000000000000000D+00 0.936294322363424D+02
 0.936294322363424D+02 0.000000000000000D+00 0.000000000000000D+00 -.936294322363424D+02
 0.905223780792992D+02 -.449039544345063D+01 0.305392785875736D+02 -.688584762047752D+02
 0.204112853147577D+02 -.180635531815208D+02 0.704800720117405D+01 0.637606533459386D+01
 0.763252010786280D+02 0.225539486249714D+02 -.375872857887476D+02 0.624824108701813D+02
 0.000000000000000D+00 0.000000000000000D+00 0.000000000000000D+00 0.000000000000000D+00
 0.139562842212346D+03 0.000000000000000D+00 0.000000000000000D+00 0.139562842212346D+03
 0.952915701623213D+02 0.000000000000000D+00 0.000000000000000D+00 -.952915701623213D+02
 0.907231000493042D+02 -.118995918354189D+02 0.291134136003131D+02 -.688584762047752D+02
 0.218504839927867D+02 -.197911866204609D+02 0.671553227392345D+01 0.637606533459386D+01
 0.753354505680735D+02 0.163541605552962D+02 -.387804058343396D+02 0.624824108701813D+02
 0.469453777645025D+02 0.153366179005836D+02 0.295145996010309D+01 0.442712720500242D+02
0.359603293570D-06 0.000000000000D+00 0.000000000000D+00 0.677923595203D-06 0.000000000000D+00  6 2 22 9900012 -11 1 21 0 0.97025669D-01 0.21385107D-02 0.37200985D+04 0.37200985D+04 0.37200985D+04 0.12565670D+01  1  2  2  1  6  1        2 0.818219730332D-04 0.100000000000D+01
0.355529930482D-08 0.000000000000D+00 -.690485666514D-09 0.677923595203D-06 0.000000000000D+00  6 2 22 9900012 -11 1 21 2 0.97025669D-01 0.21385107D-02 0.37200985D+04 0.37200985D+04 0.37200985D+04 0.12565670D+01  1  2  3  1  6  1        2 0.127730241808D-05 0.100000000000D+01
-.569639469903D-07 0.000000000000D+00 0.000000000000D+00 0.677923595203D-06 0.000000000000D+00  6 2 22 9900012 -11 1 21 2 0.97025669D-01 0.21385107D-02 0.37200985D+04 0.37200985D+04 0.37200985D+04 0.12565670D+01  1  2 15  1  6  1        2 -.204652776027D-04 0.100000000000D+01
0.157286769591D-05 0.000000000000D+00 0.000000000000D+00 0.677923595203D-06 0.000000000000D+00  6 2 22 9900012 -11 1 21 2 0.14719266D+00 0.21385107D-02 0.47385783D+04 0.47385783D+04 0.47385783D+04 0.12444811D+01  1  2 12  1  6  1        2 0.349259750644D-03 0.100000000000D+01
-.107470184910D-05 0.000000000000D+00 0.000000000000D+00 0.677923595203D-06 0.000000000000D+00  6 2 22 9900012 -11 1 21 2 0.97025669D-01 0.21385107D-02 0.37200985D+04 0.37200985D+04 0.37200985D+04 0.12565670D+01  1  2  4  1  6  1        2 -.386105121643D-03 0.100000000000D+01
-.161480646181D-05 0.000000000000D+00 -.131221877001D-06 0.677923595203D-06 0.000000000000D+00  6 2 22 9900012 -11 1 21 2 0.14564377D+00 0.21385107D-02 0.37200985D+04 0.37200985D+04 0.37200985D+04 0.12565670D+01  1  2  5  1  6  1        2 -.363756675747D-03 0.100000000000D+01
0.154870885870D-05 0.000000000000D+00 0.121094180704D-06 0.677923595203D-06 0.000000000000D+00  6 2 22 9900012 -11 1 21 2 0.97025669D-01 0.21385107D-02 0.37200985D+04 0.37200985D+04 0.37200985D+04 0.12565670D+01  1  2  6  1  6  1        2 0.556400291652D-03 0.100000000000D+01
0.771694319944D-07 0.000000000000D+00 0.000000000000D+00 0.677923595203D-06 0.000000000000D+00  6 21 22 9900012 -11 1 -2 2 0.14719266D+00 0.21385107D-02 0.47385783D+04 0.47385783D+04 0.47385783D+04 0.12444811D+01  1  2 12  3  6  1        2 0.151935803879D-04 0.100000000000D+01
-.731641809083D-07 0.000000000000D+00 -.631702429056D-08 0.677923595203D-06 0.000000000000D+00  6 21 22 9900012 -11 1 -2 2 0.14564377D+00 0.21385107D-02 0.37200985D+04 0.37200985D+04 0.37200985D+04 0.12565670D+01  1  2  5  3  6  1        2 -.150087882377D-04 0.100000000000D+01
  </mgrwgt>
  </event>
  <event>
  6     66 0.12453494E-05 0.30378329E+02 0.78161638E-02 0.11740628E+00
        2 -1    0    0  501    0 0.00000000E+00 0.00000000E+00 0.24394122E+04 0.24394122E+04 0.00000000E+00 0.0000E+00 0.9000E+01
       22 -1    0    0    0    0 0.00000000E+00 0.00000000E+00 -.13944347E+03 0.13944347E+03 0.00000000E+00 0.0000E+00 0.9000E+01
       24  2    1    2    0    0 0.65634595E+02 0.41479687E+01 -.11987385E+03 0.15811959E+03 0.79416365E+02 0.0000E+00 0.0000E+00
  9900012  1    3    3    0    0 0.24440686E+02 0.10489871E+02 -.91811349E+02 0.10787358E+03 0.50000000E+02 0.0000E+00 0.9000E+01
      -11  1    3    3    0    0 0.41193909E+02 -.63419023E+01 -.28062497E+02 0.50246011E+02 0.00000000E+00 0.0000E+00 0.9000E+01
        1  1    1    2  501    0 -.65634595E+02 -.41479687E+01 0.24198425E+04 0.24207360E+04 0.00000000E+00 0.0000E+00 0.9000E+01
#aMCatNLO 1  0  0  5  1 0.30312202D+02 0.00000000D+00  -5  6  0 0.00000000D+00 0.00000000D+00 0.00000000D+00 0.00000000D+00 0.00000000D+00
  <mgrwgt>
 0.1190236391D-02    7    2    0
 0.583232458602381D+03 0.000000000000000D+00 0.000000000000000D+00 0.583232458602381D+03
 0.583232458602381D+03 -.000000000000000D+00 -.000000000000000D+00 -.583232458602381D+03
 0.419518496303230D+03 0.244406858922990D+02 0.104898709675029D+02 -.415678221970699D+03
 0.166417412213378D+03 0.411939089024934D+02 -.634190226238163D+01 -.161113615913816D+03
 0.580529008688155D+03 -.656345947947925D+02 -.414796870512128D+01 0.576791837884516D+03
 0.000000000000000D+00 0.000000000000000D+00 -.000000000000000D+00 0.000000000000000D+00
 0.583232458602381D+03 0.000000000000000D+00 0.000000000000000D+00 0.583232458602381D+03
 0.583232458602381D+03 -.000000000000000D+00 -.000000000000000D+00 -.583232458602381D+03
 0.413366463732081D+03 0.237388925041095D+02 0.104455190975665D+02 -.409510914936130D+03
 0.163981005675951D+03 0.409155134021915D+02 -.635949627399258D+01 -.158667097385287D+03
 0.560733946671823D+03 -.610341341280964D+02 0.217418758250541D+02 0.556978172154888D+03
 0.283835011249084D+02 -.362027177820465D+01 -.258278986486279D+02 0.111998401665299D+02
0.309022896605D-03 0.000000000000D+00 0.000000000000D+00 0.108988992147D-02 0.000000000000D+00  6 2 22 9900012 -11 1 21 0 0.37529418D+00 0.21452842D-01 0.67304416D+04 0.67304416D+04 0.67304416D+04 0.12275778D+01  1  2  2  2  6  5        1 0.303637253918D-03 0.100000000000D+01
0.866226343941D-05 0.000000000000D+00 -.593364645280D-06 0.108988992147D-02 0.000000000000D+00  6 2 22 9900012 -11 1 21 2 0.37529418D+00 0.21452842D-01 0.67304416D+04 0.67304416D+04 0.67304416D+04 0.12275778D+01  1  2  3  2  6  5        1 0.128260771693D-04 0.100000000000D+01
-.520219551122D-04 0.000000000000D+00 0.000000000000D+00 0.108988992147D-02 0.000000000000D+00  6 2 22 9900012 -11 1 21 2 0.37529418D+00 0.21452842D-01 0.67304416D+04 0.67304416D+04 0.67304416D+04 0.12275778D+01  1  2 15  2  6  5        1 -.770280903411D-04 0.100000000000D+01
0.588537035459D-03 0.000000000000D+00 0.000000000000D+00 0.108988992147D-02 0.000000000000D+00  6 2 22 9900012 -11 1 21 2 0.37529418D+00 0.21452842D-01 0.88929065D+04 0.88929065D+04 0.88929065D+04 0.12146484D+01  1  2 12  2  6  5        1 0.851368536532D-03 0.100000000000D+01
-.357467814541D-05 0.000000000000D+00 0.000000000000D+00 0.108988992147D-02 0.000000000000D+00  6 2 22 9900012 -11 1 21 2 0.37529418D+00 0.21452842D-01 0.67304416D+04 0.67304416D+04 0.67304416D+04 0.12275778D+01  1  2  4  2  6  5        1 -.529296968041D-05 0.100000000000D+01
-.141212168943D-02 0.000000000000D+00 0.000000000000D+00 0.108988992147D-02 0.000000000000D+00  6 2 22 9900012 -11 1 21 2 0.37529418D+00 0.21452842D-01 0.67304416D+04 0.67304416D+04 0.67304416D+04 0.12275778D+01  1  2  5  2  6  5        1 -.209090636503D-02 0.100000000000D+01
0.148284951836D-02 0.000000000000D+00 -.000000000000D+00 0.108988992147D-02 0.000000000000D+00  6 2 22 9900012 -11 1 21 2 0.37529418D+00 0.21452842D-01 0.67304416D+04 0.67304416D+04 0.67304416D+04 0.12275778D+01  1  2  6  2  6  5        1 0.219563194840D-02 0.100000000000D+01
  </mgrwgt>
  </event>
  <event>
  6     66 -.12453494E-05 0.72397738E+02 0.78161638E-02 0.10904330E+00
        2 -1    0    0  501    0 0.00000000E+00 0.00000000E+00 0.23493047E+03 0.23493047E+03 0.00000000E+00 0.0000E+00 0.9000E+01
       22 -1    0    0    0    0 0.00000000E+00 0.00000000E+00 -.45407121E+03 0.45407121E+03 0.00000000E+00 0.0000E+00 0.9000E+01
       24  2    1    2    0    0 -.72386981E+02 0.12479939E+01 -.44257021E+03 0.45413542E+03 0.71618097E+02 0.0000E+00 0.0000E+00
  9900012  1    3    3    0    0 -.42224464E+02 -.12916023E+02 -.33277319E+03 0.33939317E+03 0.50000000E+02 0.0000E+00 0.9000E+01
      -11  1    3    3    0    0 -.30162517E+02 0.14164017E+02 -.10979703E+03 0.11474225E+03 0.00000000E+00 0.0000E+00 0.9000E+01
        1  1    1    2  501    0 0.72386981E+02 -.12479939E+01 0.22342947E+03 0.23486626E+03 0.00000000E+00 0.0000E+00 0.9000E+01
#aMCatNLO 1  0  0  1  5 0.14549357D+02 0.00000000D+00  -5  6  0 0.00000000D+00 0.00000000D+00 0.00000000D+00 0.00000000D+00 0.00000000D+00
  <mgrwgt>
 -.1438773317D-03    5    2    0
 0.326611636702865D+03 0.000000000000000D+00 0.000000000000000D+00 0.326611636702865D+03
 0.326611636702865D+03 0.000000000000000D+00 0.000000000000000D+00 -.326611636702865D+03
 0.246345017603368D+03 -.422244639172810D+02 -.129160231812361D+02 -.237141600505022D+03
 0.841926517793910D+02 -.301625169805917D+02 0.141640170601090D+02 -.773175646522978D+02
 0.322685604022971D+03 0.723869808978726D+02 -.124799387887285D+01 0.314459165157320D+03
 0.000000000000000D+00 -.000000000000000D+00 0.000000000000000D+00 0.000000000000000D+00
 0.910788761187688D+03 0.000000000000000D+00 0.000000000000000D+00 0.910788761187688D+03
 0.336827245567176D+03 0.000000000000000D+00 0.000000000000000D+00 -.336827245567176D+03
 0.242946898056778D+03 -.700489997676733D+00 -.169282574144612D+02 -.237141600505022D+03
 0.800346805750637D+02 -.162252920902684D+02 0.128173393329392D+02 -.773175646522978D+02
 0.339808300169945D+03 0.128609817857049D+03 -.668049876324134D+01 0.314459165157320D+03
 0.584826127953076D+03 -.111684035769104D+03 0.107914168447634D+02 0.573961515620512D+03
0.177301935842D-04 0.000000000000D+00 0.000000000000D+00 0.202660336182D-05 0.000000000000D+00  6 2 22 9900012 -11 1 21 0 0.36143149D-01 0.69857110D-01 0.74327369D+04 0.74327369D+04 0.74327369D+04 0.12229250D+01  1  2  2  1  6  1        2 0.729665061874D-04 0.100000000000D+01
0.383445770114D-06 0.000000000000D+00 -.340443059152D-07 0.202660336182D-05 0.000000000000D+00  6 2 22 9900012 -11 1 21 2 0.36143149D-01 0.69857110D-01 0.74327369D+04 0.74327369D+04 0.74327369D+04 0.12229250D+01  1  2  3  1  6  1        2 0.236000901049D-05 0.100000000000D+01
-.274031541198D-05 0.000000000000D+00 0.000000000000D+00 0.202660336182D-05 0.000000000000D+00  6 2 22 9900012 -11 1 21 2 0.36143149D-01 0.69857110D-01 0.74327369D+04 0.74327369D+04 0.74327369D+04 0.12229250D+01  1  2 15  1  6  1        2 -.168659288168D-04 0.100000000000D+01
-.854619375359D-04 0.000000000000D+00 -.523181693104D-05 0.202660336182D-05 0.000000000000D+00  6 2 22 9900012 -11 1 21 2 0.10188040D+00 0.69857110D-01 0.74327369D+04 0.74327369D+04 0.74327369D+04 0.12229250D+01  1  2  5  1  6  1        2 -.173595247815D-03 0.100000000000D+01
-.966915777660D-05 0.000000000000D+00 -.609639255074D-06 0.202660336182D-05 0.000000000000D+00  6 21 22 9900012 -11 1 -2 2 0.10188040D+00 0.69857110D-01 0.74327369D+04 0.74327369D+04 0.74327369D+04 0.12229250D+01  1  2  5  3  6  1        2 -.287426702972D-04 0.100000000000D+01
  </mgrwgt>
  </event>
  <event>
  6     66 0.12453494E-05 0.58167832E+02 0.78161638E-02 0.11554469E+00
        2 -1    0    0  501    0 0.00000000E+00 0.00000000E+00 0.27333259E+02 0.27333259E+02 0.00000000E+00 0.0000E+00 0.9000E+01
       22 -1    0    0    0    0 0.00000000E+00 0.00000000E+00 -.83357041E+03 0.83357041E+03 0.00000000E+00 0.0000E+00 0.9000E+01
       24  2    1    2    0    0 -.73365304E+01 -.71971151E+02 -.77451837E+03 0.78191157E+03 0.79204335E+02 0.0000E+00 0.0000E+00
  9900012  1    3    3    0    0 0.38609377E+01 -.22548183E+02 -.33514965E+03 0.33963012E+03 0.50000000E+02 0.0000E+00 0.9000E+01
      -11  1    3    3    0    0 -.11197468E+02 -.49422968E+02 -.43936871E+03 0.44228145E+03 0.00000000E+00 0.0000E+00 0.9000E+01
        1  1    1    2  501    0 0.73365304E+01 0.71971151E+02 -.31718787E+02 0.78992106E+02 0.00000000E+00 0.0000E+00 0.9000E+01
#aMCatNLO 1  0  0  1  5 0.44356617D+02 0.00000000D+00  -5  6  0 0.00000000D+00 0.00000000D+00 0.00000000D+00 0.00000000D+00 0.00000000D+00
  <mgrwgt>
 0.1373581544D-03    6    2    0
 0.150944348537564D+03 0.000000000000000D+00 0.000000000000000D+00 0.150944348537564D+03
 0.150944348537564D+03 0.000000000000000D+00 0.000000000000000D+00 -.150944348537564D+03
 0.734665261153477D+02 0.386093773009016D+01 -.225481830276720D+02 -.487237422767591D+02
 0.878679542711172D+02 -.111974681744728D+02 -.494229684278979D+02 -.717827575818024D+02
 0.140554216688662D+03 0.733653044438260D+01 0.719711514555698D+02 0.120506499858562D+03
 0.000000000000000D+00 -.000000000000000D+00 -.000000000000000D+00 -.000000000000000D+00
 0.163827577711045D+03 0.000000000000000D+00 0.000000000000000D+00 0.163827577711045D+03
 0.168720216626371D+03 0.000000000000000D+00 0.000000000000000D+00 -.168720216626371D+03
 0.726110856510466D+02 0.898343952817914D+01 -.178231454074506D+02 -.487237422767591D+02
 0.842771488338122D+02 -.516085798127353D+01 -.438547497359847D+02 -.717827575818024D+02
 0.146377771874800D+03 0.173983709247437D+02 0.812522755375777D+02 0.120506499858562D+03
 0.292817879777576D+02 -.212209524716493D+02 -.195743803941424D+02 -.489263891532633D+01
0.618042246696D-05 0.000000000000D+00 0.000000000000D+00 0.330570905005D-05 0.000000000000D+00  6 2 22 9900012 -11 1 21 0 0.42051168D-02 0.12824160D+00 0.79213985D+04 0.79213985D+04 0.79213985D+04 0.12199673D+01  1  2  2  1  6  1        2 0.104892716706D-03 0.100000000000D+01
0.739368519996D-07 0.000000000000D+00 -.118672248079D-07 0.330570905005D-05 0.000000000000D+00  6 2 22 9900012 -11 1 21 2 0.42051168D-02 0.12824160D+00 0.79213985D+04 0.79213985D+04 0.79213985D+04 0.12199673D+01  1  2  3  1  6  1        2 0.186760281647D-05 0.100000000000D+01
-.111579293709D-05 0.000000000000D+00 0.000000000000D+00 0.330570905005D-05 0.000000000000D+00  6 2 22 9900012 -11 1 21 2 0.42051168D-02 0.12824160D+00 0.79213985D+04 0.79213985D+04 0.79213985D+04 0.12199673D+01  1  2 15  1  6  1        2 -.281842947805D-04 0.100000000000D+01
0.237674165254D-05 0.000000000000D+00 0.000000000000D+00 0.330570905005D-05 0.000000000000D+00  6 2 22 9900012 -11 1 21 2 0.51015070D-02 0.12824160D+00 0.11020605D+05 0.11020605D+05 0.11020605D+05 0.12049803D+01  1  2 12  1  6  1        2 0.468304693595D-04 0.100000000000D+01
-.201292122870D-06 0.000000000000D+00 0.000000000000D+00 0.330570905005D-05 0.000000000000D+00  6 2 22 9900012 -11 1 21 2 0.42051168D-02 0.12824160D+00 0.79213985D+04 0.79213985D+04 0.79213985D+04 0.12199673D+01  1  2  4  1  6  1        2 -.508452450216D-05 0.100000000000D+01
0.662372585824D-07 0.000000000000D+00 0.000000000000D+00 0.330570905005D-05 0.000000000000D+00  6 21 22 9900012 -11 1 -2 2 0.51015070D-02 0.12824160D+00 0.11020605D+05 0.11020605D+05 0.11020605D+05 0.12049803D+01  1  2 12  3  6  1        2 0.170361847578D-04 0.100000000000D+01
  </mgrwgt>
  </event>
  <event>
  5     66 0.12453494E-05 0.55596157E+02 0.78161638E-02 0.11220964E+00
        2 -1    0    0  501    0 0.00000000E+00 0.00000000E+00 0.29477944E+02 0.29477944E+02 0.00000000E+00 0.0000E+00 0.9000E+01
       22 -1    0    0    0    0 -.00000000E+00 -.00000000E+00 -.89169297E+03 0.89169297E+03 0.00000000E+00 0.0000E+00 0.9000E+01
  9900012  1    1    2    0    0 0.31109504E+02 0.13036555E+02 -.10790028E+03 0.12361320E+03 0.50000000E+02 0.0000E+00 0.9000E+01
      -11  1    1    2    0    0 -.80890730E+02 -.68777958E+02 -.69243974E+03 0.70053302E+03 0.00000000E+00 0.0000E+00 0.9000E+01
        1  1    1    2  501    0 0.49781226E+02 0.55741404E+02 -.61875004E+02 0.97024691E+02 0.00000000E+00 0.0000E+00 0.9000E+01
#aMCatNLO 1  0  0  5  1 0.39188008D+02 0.00000000D+00  -5  6  0 0.00000000D+00 0.00000000D+00 0.00000000D+00 0.00000000D+00 0.00000000D+00
  <mgrwgt>
 0.1073748645D-02    7    2    0
 0.162127342131790D+03 0.000000000000000D+00 0.000000000000000D+00 0.162127342131790D+03
 0.162127342131790D+03 -.000000000000000D+00 -.000000000000000D+00 -.162127342131790D+03
 0.642570277635432D+02 0.311095040850358D+02 0.130365546484710D+02 0.221633168881677D+02
 0.148891273307223D+03 -.808907304735216D+02 -.687779581835226D+02 -.104378606326258D+03
 0.111106383192813D+03 0.497812263884859D+02 0.557414035350515D+02 0.822152894380903D+02
 0.000000000000000D+00 0.000000000000000D+00 0.000000000000000D+00 0.000000000000000D+00
 0.162127342131790D+03 0.000000000000000D+00 0.000000000000000D+00 0.162127342131790D+03
 0.162127342131790D+03 -.000000000000000D+00 -.000000000000000D+00 -.162127342131790D+03
 0.681934816051138D+02 0.340203134718273D+02 0.162958676950514D+02 0.269706117982330D+02
 0.135057210469683D+03 -.746505135360197D+02 -.617906162537543D+02 -.940726882343755D+02
 0.479585667217881D+02 -.215270678271418D+02 0.219496385681779D+02 0.368079181630828D+02
 0.730454254669942D+02 0.621572678913343D+02 0.235451099905249D+02 0.302941582730598D+02
0.668187918199D-04 0.000000000000D+00 0.000000000000D+00 0.878648563047D-09 0.000000000000D+00  6 2 22 9900012 -11 1 21 0 0.45350683D-02 0.13718353D+00 0.14547526D+05 0.14547526D+05 0.14547526D+05 0.11928095D+01  1  2  2  2  6  5        1 0.937992210046D-03 0.100000000000D+01
0.589534863858D-06 0.000000000000D+00 -.128300877190D-06 0.878648563047D-09 0.000000000000D+00  6 2 22 9900012 -11 1 21 2 0.45350683D-02 0.13718353D+00 0.14547526D+05 0.14547526D+05 0.14547526D+05 0.11928095D+01  1  2  3  2  6  5        1 0.117747652506D-04 0.100000000000D+01
-.937929898924D-05 0.000000000000D+00 0.000000000000D+00 0.878648563047D-09 0.000000000000D+00  6 2 22 9900012 -11 1 21 2 0.45350683D-02 0.13718353D+00 0.14547526D+05 0.14547526D+05 0.14547526D+05 0.11928095D+01  1  2 15  2  6  5        1 -.187332506666D-03 0.100000000000D+01
0.107500601115D-04 0.000000000000D+00 0.000000000000D+00 0.878648563047D-09 0.000000000000D+00  6 2 22 9900012 -11 1 21 2 0.45350683D-02 0.13718353D+00 0.16480241D+05 0.16480241D+05 0.16480241D+05 0.11874628D+01  1  2 12  2  6  5        1 0.214917306129D-03 0.100000000000D+01
-.240395623274D-05 0.000000000000D+00 0.000000000000D+00 0.878648563047D-09 0.000000000000D+00  6 2 22 9900012 -11 1 21 2 0.45350683D-02 0.13718353D+00 0.14547526D+05 0.14547526D+05 0.14547526D+05 0.11928095D+01  1  2  4  2  6  5        1 -.480141583621D-04 0.100000000000D+01
-.915288280361D-05 0.000000000000D+00 0.000000000000D+00 0.878648563047D-09 0.000000000000D+00  6 2 22 9900012 -11 1 21 2 0.45350683D-02 0.13718353D+00 0.14547526D+05 0.14547526D+05 0.14547526D+05 0.11928095D+01  1  2  5  2  6  5        1 -.182810301792D-03 0.100000000000D+01
0.163832040899D-04 0.000000000000D+00 -.000000000000D+00 0.878648563047D-09 0.000000000000D+00  6 2 22 9900012 -11 1 21 2 0.45350683D-02 0.13718353D+00 0.14547526D+05 0.14547526D+05 0.14547526D+05 0.11928095D+01  1  2  6  2  6  5        1 0.327221329964D-03 0.100000000000D+01
  </mgrwgt>
  </event>
  <event>
  7     66 -.12453494E-05 0.68051720E+02 0.78161638E-02 0.11851414E+00
        2 -1    0    0  502    0 0.00000000E+00 0.00000000E+00 0.46548580E+02 0.46548580E+02 0.00000000E+00 0.0000E+00 0.9000E+01
       22 -1    0    0    0    0 0.00000000E+00 0.00000000E+00 -.43575749E+03 0.43575749E+03 0.00000000E+00 0.0000E+00 0.9000E+01
       24  2    1    2    0    0 -.43513659E+02 -.46472628E+02 -.38689018E+03 0.39970469E+03 0.77631736E+02 0.0000E+00 0.0000E+00
  9900012  1    3    3    0    0 -.34547818E+02 -.55861279E+02 -.27664883E+03 0.28870159E+03 0.50000000E+02 0.0000E+00 0.9000E+01
      -11  1    3    3    0    0 -.89658409E+01 0.93886509E+01 -.11024135E+03 0.11100310E+03 0.00000000E+00 0.0000E+00 0.9000E+01
        1  1    1    2  501    0 0.48260295E+02 0.54243995E+02 0.17534455E+01 0.72626040E+02 0.00000000E+00 0.0000E+00 0.9000E+01
       21  1    1    2  502  501 -.47466360E+01 -.77713668E+01 -.40721716E+01 0.99753334E+01 0.00000000E+00 0.0000E+00 0.9000E+01
#aMCatNLO 2  0  0  1  5 0.10198244D+02 0.00000000D+00  -5  6  0 0.00000000D+00 0.00000000D+00 0.00000000D+00 0.00000000D+00 0.00000000D+00
  <mgrwgt>
 -.2044119719D-03    3    2    0
 0.136641036986791D+03 0.000000000000000D+00 0.000000000000000D+00 0.136641036986791D+03
 0.136641036986791D+03 0.000000000000000D+00 0.000000000000000D+00 -.136641036986791D+03
 0.111288352140716D+03 -.364607224030362D+02 -.589931553428690D+02 -.712426885142394D+02
 0.363791790942424D+02 -.959832577228519D+01 0.835312345842450D+01 -.340814046428308D+02
 0.125614542738623D+03 0.460590481753214D+02 0.506400318844445D+02 0.105324093157070D+03
 0.000000000000000D+00 -.000000000000000D+00 -.000000000000000D+00 0.000000000000000D+00
 0.145972809388760D+03 0.000000000000000D+00 0.000000000000000D+00 0.145972809388760D+03
 0.138956647199730D+03 0.000000000000000D+00 0.000000000000000D+00 -.138956647199730D+03
 0.109039235549516D+03 -.345478184472449D+02 -.558612787449596D+02 -.712426885142394D+02
 0.364701962022710D+02 -.896584093621668D+01 0.938865085676482D+01 -.340814046428308D+02
 0.127924320098400D+03 0.482602954124566D+02 0.542439946904831D+02 0.105324093157070D+03
 0.114957047383031D+02 -.474663602899499D+01 -.777136680228830D+01 0.701616218903052D+01
-.530307822838D-05 0.000000000000D+00 0.000000000000D+00 0.629485310750D-06 0.000000000000D+00  6 2 22 9900012 -11 1 21 2 0.72826805D-02 0.65922447D-01 0.78535364D+04 0.78535364D+04 0.78535364D+04 0.12203658D+01  1  2 13  1  6  1        2 -.233725297129D-03 0.100000000000D+01
-.458085099199D-07 0.000000000000D+00 0.000000000000D+00 0.629485310750D-06 0.000000000000D+00  6 2 22 9900012 -11 1 21 2 0.67035100D-02 0.65922447D-01 0.69450068D+04 0.69450068D+04 0.69450068D+04 0.12261009D+01  1  2  8  1  6  1        2 -.223890129253D-05 0.100000000000D+01
0.721844930453D-06 0.000000000000D+00 0.000000000000D+00 0.629485310750D-06 0.816182239320D-08  6 2 22 9900012 -11 1 21 2 0.71613200D-02 0.67039613D-01 0.78535364D+04 0.78535364D+04 0.78535364D+04 0.12203658D+01  1  2  1  1  6  1        2 0.315522265043D-04 0.100000000000D+01
  </mgrwgt>
  </event>
  <event>
  7     66 -.12453494E-05 0.28853149E+02 0.78161638E-02 0.12570342E+00
        2 -1    0    0  502    0 0.00000000E+00 0.00000000E+00 0.17364832E+04 0.17364832E+04 0.00000000E+00 0.0000E+00 0.9000E+01
       22 -1    0    0    0    0 0.00000000E+00 0.00000000E+00 -.29418807E+01 0.29418807E+01 0.00000000E+00 0.0000E+00 0.9000E+01
       24  2    1    2    0    0 0.12886028E+02 0.26624261E+02 0.76109630E+03 0.76591925E+03 0.80559449E+02 0.0000E+00 0.0000E+00
  9900012  1    3    3    0    0 0.92468865E+01 0.10821856E+01 0.64445026E+03 0.64645403E+03 0.50000000E+02 0.0000E+00 0.9000E+01
      -11  1    3    3    0    0 0.36391411E+01 0.25542075E+02 0.11664604E+03 0.11946522E+03 0.00000000E+00 0.0000E+00 0.9000E+01
        1  1    1    2  501    0 -.23511483E+02 -.24886635E+02 0.79229492E+03 0.79303428E+03 0.00000000E+00 0.0000E+00 0.9000E+01
       21  1    1    2  502  501 0.10625456E+02 -.17376260E+01 0.18015007E+03 0.18047152E+03 0.00000000E+00 0.0000E+00 0.9000E+01
#aMCatNLO 2  0  0  1  5 0.13300726D+02 0.00000000D+00  -5  6  0 0.00000000D+00 0.00000000D+00 0.00000000D+00 0.00000000D+00 0.00000000D+00
  <mgrwgt>
 -.1375022014D-03    2    2    0
 0.655666261062866D+02 0.000000000000000D+00 0.000000000000000D+00 0.655666261062866D+02
 0.655666261062866D+02 0.000000000000000D+00 0.000000000000000D+00 -.655666261062866D+02
 0.518922087282648D+02 0.134078790009795D+02 0.401720813901655D+00 0.358730090465985D+01
 0.384195705314502D+02 0.674351610772561D+01 0.250344032984637D+02 -.283525491237701D+02
 0.408214729528583D+02 -.201513951087051D+02 -.254361241123653D+02 0.247652482191102D+02
 0.000000000000000D+00 0.000000000000000D+00 -.000000000000000D+00 0.000000000000000D+00
 0.734098971022185D+02 0.000000000000000D+00 0.000000000000000D+00 0.734098971022185D+02
 0.695890688234709D+02 0.000000000000000D+00 0.000000000000000D+00 -.695890688234709D+02
 0.509857309750881D+02 0.924688647882047D+01 0.108218562700426D+01 0.358730090465985D+01
 0.383341620843346D+02 0.363914107472070D+01 0.255420749574211D+02 -.283525491237701D+02
 0.422546086138339D+02 -.235114833372023D+02 -.248866345864322D+02 0.247652482191102D+02
 0.114244642524329D+02 0.106254557836611D+02 -.173762599799324D+01 0.382082827874763D+01
-.251125379057D-06 0.000000000000D+00 0.000000000000D+00 0.249302953900D-06 0.000000000000D+00  6 2 22 9900012 -11 1 21 2 0.28354070D+00 0.42643566D-03 0.37004374D+04 0.37004374D+04 0.37004374D+04 0.12568356D+01  1  2 13  1  6  1        2 -.163634605844D-03 0.100000000000D+01
0.383396232717D-07 0.000000000000D+00 0.000000000000D+00 0.249302953900D-06 0.349062446177D-08  6 2 22 9900012 -11 1 21 2 0.26715126D+00 0.45259703D-03 0.37004374D+04 0.37004374D+04 0.37004374D+04 0.12568356D+01  1  2  1  1  6  1        2 0.261324044025D-04 0.100000000000D+01
  </mgrwgt>
  </event>
  <event>
  6     66 0.12453494E-05 0.31466973E+02 0.78161638E-02 0.12075643E+00
        2 -1    0    0  501    0 0.00000000E+00 0.00000000E+00 0.13207831E+04 0.13207831E+04 0.00000000E+00 0.0000E+00 0.9000E+01
       22 -1    0    0    0    0 0.00000000E+00 0.00000000E+00 -.49293859E+02 0.49293859E+02 0.00000000E+00 0.0000E+00 0.9000E+01
       24  2    1    2    0    0 -.64626525E+01 -.30796177E+02 -.11320338E+02 0.86881501E+02 0.80187747E+02 0.0000E+00 0.0000E+00
  9900012  1    3    3    0    0 0.13639069E+02 -.59523785E+01 -.16038596E+02 0.54577391E+02 0.50000000E+02 0.0000E+00 0.9000E+01
      -11  1    3    3    0    0 -.20101722E+02 -.24843799E+02 0.47182585E+01 0.32304110E+02 0.00000000E+00 0.0000E+00 0.9000E+01
        1  1    1    2  501    0 0.64626525E+01 0.30796177E+02 0.12828096E+04 0.12831954E+04 0.00000000E+00 0.0000E+00 0.9000E+01
#aMCatNLO 1  0  0  1  1 0.33942988D+02 0.00000000D+00  -5  6  0 0.00000000D+00 0.00000000D+00 0.00000000D+00 0.00000000D+00 0.00000000D+00
  <mgrwgt>
 0.1834160675D-03    7    2    0
 0.255159745252587D+03 0.000000000000000D+00 0.000000000000000D+00 0.255159745252587D+03
 0.255159745252587D+03 0.000000000000000D+00 0.000000000000000D+00 -.255159745252587D+03
 0.186487345690481D+03 0.136390693103098D+02 -.595237845410908D+01 -.179042104215094D+03
 0.749724477044658D+02 -.201017217668455D+02 -.248437987002260D+02 -.678201619206991D+02
 0.248859697110228D+03 0.646265245653565D+01 0.307961771543351D+02 0.246862266135793D+03
 0.000000000000000D+00 -.000000000000000D+00 -.000000000000000D+00 0.000000000000000D+00
 0.284845271239207D+03 0.000000000000000D+00 0.000000000000000D+00 0.284845271239207D+03
 0.263270383157408D+03 0.000000000000000D+00 0.000000000000000D+00 -.263270383157408D+03
 0.186562586753651D+03 0.150169014368622D+02 0.490064951619408D+01 -.179042104215094D+03
 0.735061086205020D+02 -.195533272833823D+02 -.205241573207803D+02 -.678201619206991D+02
 0.251129327062596D+03 0.830932465914235D+01 0.453422054263142D+02 0.246862266135793D+03
 0.369176319598659D+02 -.377289881262219D+01 -.297186976217280D+02 0.215748880817984D+02
0.701450307117D-05 0.000000000000D+00 0.000000000000D+00 0.967369890862D-04 0.000000000000D+00  6 2 22 9900012 -11 1 21 0 0.20319740D+00 0.75836707D-02 0.33403905D+04 0.33403905D+04 0.33403905D+04 0.12620612D+01  1  2  2  1  6  1        2 0.113142707354D-03 0.100000000000D+01
0.577699910921D-06 0.000000000000D+00 -.134687693772D-07 0.967369890862D-04 0.000000000000D+00  6 2 22 9900012 -11 1 21 2 0.20319740D+00 0.75836707D-02 0.33403905D+04 0.33403905D+04 0.33403905D+04 0.12620612D+01  1  2  3  1  6  1        2 0.148420111639D-04 0.100000000000D+01
-.129846122798D-05 0.000000000000D+00 0.000000000000D+00 0.967369890862D-04 0.000000000000D+00  6 2 22 9900012 -11 1 21 2 0.20319740D+00 0.75836707D-02 0.33403905D+04 0.33403905D+04 0.33403905D+04 0.12620612D+01  1  2 15  1  6  1        2 -.333594928392D-04 0.100000000000D+01
-.111418862363D-06 0.000000000000D+00 0.000000000000D+00 0.967369890862D-04 0.000000000000D+00  6 2 22 9900012 -11 1 21 2 0.20319740D+00 0.75836707D-02 0.33403905D+04 0.33403905D+04 0.33403905D+04 0.12620612D+01  1  2  4  1  6  1        2 -.286252424105D-05 0.100000000000D+01
-.163272364051D-04 0.000000000000D+00 -.595246943332D-05 0.967369890862D-04 0.000000000000D+00  6 2 22 9900012 -11 1 21 2 0.23033303D+00 0.75836707D-02 0.33403905D+04 0.33403905D+04 0.33403905D+04 0.12620612D+01  1  2  5  1  6  1        2 -.341988259603D-03 0.100000000000D+01
0.169862072109D-04 0.000000000000D+00 0.590601044741D-05 0.967369890862D-04 0.000000000000D+00  6 2 22 9900012 -11 1 21 2 0.20319740D+00 0.75836707D-02 0.33403905D+04 0.33403905D+04 0.33403905D+04 0.12620612D+01  1  2  6  1  6  1        2 0.436402139399D-03 0.100000000000D+01
-.291491922577D-06 0.000000000000D+00 -.117143443165D-06 0.967369890862D-04 0.000000000000D+00  6 21 22 9900012 -11 1 -2 2 0.23033303D+00 0.75836707D-02 0.33403905D+04 0.33403905D+04 0.33403905D+04 0.12620612D+01  1  2  5  3  6  1        2 -.276051375346D-05 0.100000000000D+01
  </mgrwgt>
  </event>
  <event>
  6     66 0.12453494E-05 0.38624163E+02 0.78161638E-02 0.10412994E+00
        2 -1    0    0  501    0 0.00000000E+00 0.00000000E+00 0.38640272E+02 0.38640272E+02 0.00000000E+00 0.0000E+00 0.9000E+01
       22 -1    0    0    0    0 0.00000000E+00 0.00000000E+00 -.48653528E+03 0.48653528E+03 0.00000000E+00 0.0000E+00 0.9000E+01
       24  2    1    2    0    0 0.50609317E+00 0.38620847E+02 -.47145430E+03 0.47993324E+03 0.81085921E+02 0.0000E+00 0.0000E+00
  9900012  1    3    3    0    0 -.22495140E+02 0.15744091E+02 -.28025481E+03 0.28600117E+03 0.50000000E+02 0.0000E+00 0.9000E+01
      -11  1    3    3    0    0 0.23001233E+02 0.22876756E+02 -.19119949E+03 0.19393207E+03 0.00000000E+00 0.0000E+00 0.9000E+01
        1  1    1    2  501    0 -.50609317E+00 -.38620847E+02 0.23559299E+02 0.45242309E+02 0.00000000E+00 0.0000E+00 0.9000E+01
#aMCatNLO 1  0  0  1  5 0.45561102D+02 0.00000000D+00  -5  6  0 0.00000000D+00 0.00000000D+00 0.00000000D+00 0.00000000D+00 0.00000000D+00
  <mgrwgt>
 0.2409292010D-03    5    2    0
 0.137112564112001D+03 0.000000000000000D+00 0.000000000000000D+00 0.137112564112001D+03
 0.137112564112001D+03 0.000000000000000D+00 0.000000000000000D+00 -.137112564112001D+03
 0.899847845271582D+02 -.224951397857741D+02 0.157440911329046D+02 -.695942075665523D+02
 0.591159709080661D+02 0.230012329543964D+02 0.228767561225058D+02 -.494195844609433D+02
 0.125124372788778D+03 -.506093168622248D+00 -.386208472554104D+02 0.119013792027496D+03
 0.000000000000000D+00 0.000000000000000D+00 -.000000000000000D+00 0.000000000000000D+00
 0.333800945172814D+03 0.000000000000000D+00 0.000000000000000D+00 0.333800945172814D+03
 0.242178641607239D+03 0.000000000000000D+00 0.000000000000000D+00 -.242178641607239D+03
 0.128237742799618D+03 -.342834448570362D+02 0.890292668747707D+02 -.695942075665523D+02
 0.891504131814264D+02 0.149919344238070D+02 0.726687191600279D+02 -.494195844609433D+02
 0.128593948223565D+03 -.142118686763139D+02 0.465848002645527D+02 0.119013792027496D+03
 0.229997482575444D+03 0.335033791095431D+02 -.208282786299351D+03 0.916223035655751D+02
0.639044543431D-05 0.000000000000D+00 0.000000000000D+00 0.313183839293D-05 0.000000000000D+00  6 2 22 9900012 -11 1 21 0 0.59446572D-02 0.74851581D-01 0.41029119D+04 0.41029119D+04 0.41029119D+04 0.12516328D+01  1  2  2  1  6  1        2 0.184201737666D-03 0.100000000000D+01
0.340790039407D-06 0.000000000000D+00 -.122704965553D-07 0.313183839293D-05 0.000000000000D+00  6 2 22 9900012 -11 1 21 2 0.59446572D-02 0.74851581D-01 0.41029119D+04 0.41029119D+04 0.41029119D+04 0.12516328D+01  1  2  3  1  6  1        2 0.153887509221D-04 0.100000000000D+01
-.109937859340D-05 0.000000000000D+00 0.000000000000D+00 0.313183839293D-05 0.000000000000D+00  6 2 22 9900012 -11 1 21 2 0.59446572D-02 0.74851581D-01 0.41029119D+04 0.41029119D+04 0.41029119D+04 0.12516328D+01  1  2 15  1  6  1        2 -.496436555847D-04 0.100000000000D+01
0.544347394058D-05 0.000000000000D+00 -.232342438613D-05 0.313183839293D-05 0.000000000000D+00  6 2 22 9900012 -11 1 21 2 0.25343038D-01 0.74851581D-01 0.41029119D+04 0.41029119D+04 0.41029119D+04 0.12516328D+01  1  2  5  1  6  1        2 0.440825522127D-04 0.100000000000D+01
0.951187441759D-06 0.000000000000D+00 -.405136383894D-06 0.313183839293D-05 0.000000000000D+00  6 21 22 9900012 -11 1 -2 2 0.25343038D-01 0.74851581D-01 0.41029119D+04 0.41029119D+04 0.41029119D+04 0.12516328D+01  1  2  5  3  6  1        2 0.468998157976D-04 0.100000000000D+01
  </mgrwgt>
  </event>
  <event>
  6     66 0.12453494E-05 0.63449442E+02 0.78161638E-02 0.11067681E+00
        2 -1    0    0  501    0 0.00000000E+00 0.00000000E+00 0.13467708E+04 0.13467708E+04 0.00000000E+00 0.0000E+00 0.9000E+01
       22 -1    0    0    0    0 0.00000000E+00 0.00000000E+00 -.52479515E+02 0.52479515E+02 0.00000000E+00 0.0000E+00 0.9000E+01
       24  2    1    2    0    0 -.55212984E+02 0.31262727E+02 -.28241480E+01 0.10058397E+03 0.77995688E+02 0.0000E+00 0.0000E+00
  9900012  1    3    3    0    0 -.38368908E+02 0.44451139E+00 0.86915681E+01 0.63623219E+02 0.50000000E+02 0.0000E+00 0.9000E+01
      -11  1    3    3    0    0 -.16844076E+02 0.30818216E+02 -.11515716E+02 0.36960750E+02 0.00000000E+00 0.0000E+00 0.9000E+01
        1  1    1    2  501    0 0.55212984E+02 -.31262727E+02 0.12971155E+04 0.12986664E+04 0.00000000E+00 0.0000E+00 0.9000E+01
#aMCatNLO 1  0  0  1  5 0.45561102D+02 0.00000000D+00  -5  6  0 0.00000000D+00 0.00000000D+00 0.00000000D+00 0.00000000D+00 0.00000000D+00
  <mgrwgt>
 0.3514386079D-03    3    2    0
 0.265853119309648D+03 0.000000000000000D+00 0.000000000000000D+00 0.265853119309648D+03
 0.265853119309648D+03 0.000000000000000D+00 0.000000000000000D+00 -.265853119309648D+03
 0.146275115358221D+03 -.383689076862643D+02 0.444511388501454D+00 -.132000146612226D+03
 0.125298575695288D+03 -.168440760508624D+02 0.308182158743865D+02 -.120275715518887D+03
 0.260132547565787D+03 0.552129837371268D+02 -.312627272628880D+02 0.252275862131114D+03
 0.000000000000000D+00 -.000000000000000D+00 0.000000000000000D+00 -.000000000000000D+00
 0.279180502868883D+03 0.000000000000000D+00 0.000000000000000D+00 0.279180502868883D+03
 0.551996406410465D+03 0.000000000000000D+00 0.000000000000000D+00 -.551996406410465D+03
 0.147804448472629D+03 -.349006050577508D+02 -.265342052688902D+02 -.132000146612226D+03
 0.121356964685665D+03 -.139350807847625D+02 0.819015614378545D+01 -.120275715518887D+03
 0.271721070126893D+03 0.614855355465716D+02 -.800547203821131D+02 0.252275862131114D+03
 0.290294425994161D+03 -.126498497040584D+02 0.983987695072178D+02 -.272815903541582D+03
0.307967700490D-04 0.000000000000D+00 0.000000000000D+00 0.147759781342D-04 0.000000000000D+00  6 2 22 9900012 -11 1 21 0 0.20719552D+00 0.80737716D-02 0.65284136D+04 0.65284136D+04 0.65284136D+04 0.12290173D+01  1  2  2  1  6  1        2 0.453442103886D-03 0.100000000000D+01
0.865348456948D-06 0.000000000000D+00 -.591338529820D-07 0.147759781342D-04 0.000000000000D+00  6 2 22 9900012 -11 1 21 2 0.20719552D+00 0.80737716D-02 0.65284136D+04 0.65284136D+04 0.65284136D+04 0.12290173D+01  1  2  3  1  6  1        2 0.192452550446D-04 0.100000000000D+01
-.545185914177D-05 0.000000000000D+00 0.000000000000D+00 0.147759781342D-04 0.000000000000D+00  6 2 22 9900012 -11 1 21 2 0.20719552D+00 0.80737716D-02 0.65284136D+04 0.65284136D+04 0.65284136D+04 0.12290173D+01  1  2 15  1  6  1        2 -.121248751076D-03 0.100000000000D+01
  </mgrwgt>
  </event>
  <event>
  7     66 -.12453494E-05 0.79421437E+02 0.78161638E-02 0.11769534E+00
        2 -1    0    0  501    0 0.00000000E+00 0.00000000E+00 0.27690645E+02 0.27690645E+02 0.00000000E+00 0.0000E+00 0.9000E+01
       22 -1    0    0    0    0 -.00000000E+00 -.00000000E+00 -.64992540E+03 0.64992540E+03 0.00000000E+00 0.0000E+00 0.9000E+01
       24  2    1    2    0    0 0.10836524E+02 0.76986683E+02 -.56025737E+03 0.57141612E+03 0.81139876E+02 0.0000E+00 0.0000E+00
  9900012  1    3    3    0    0 0.19464644E+02 0.61292621E+02 -.53024977E+03 0.53647039E+03 0.50000000E+02 0.0000E+00 0.9000E+01
      -11  1    3    3    0    0 -.86281201E+01 0.15694062E+02 -.30007601E+02 0.34945732E+02 0.00000000E+00 0.0000E+00 0.9000E+01
        1  1    1    2  502    0 -.91410109E+01 -.81161095E+02 -.57818254E+02 0.10006814E+03 0.00000000E+00 0.0000E+00 0.9000E+01
       21  1    1    2  501  502 -.16955129E+01 0.41744126E+01 -.41591283E+01 0.61317887E+01 0.00000000E+00 0.0000E+00 0.9000E+01
#aMCatNLO 2  0  0  5  1 0.78921471D+01 0.00000000D+00  -5  6  0 0.00000000D+00 0.00000000D+00 0.00000000D+00 0.00000000D+00 0.00000000D+00
  <mgrwgt>
 -.1045637042D-03    3    2    0
 0.134152352800303D+03 0.000000000000000D+00 0.000000000000000D+00 0.134152352800303D+03
 0.134152352800303D+03 -.000000000000000D+00 -.000000000000000D+00 -.134152352800303D+03
 0.127634862953564D+03 0.197134730009892D+02 0.630603950903764D+02 -.970846218227167D+02
 0.187865244516430D+02 -.859125576983657D+01 0.159559600276693D+02 0.495289459456298D+01
 0.121883318195399D+03 -.111222172311527D+02 -.790163551180457D+02 0.921317272281537D+02
 0.000000000000000D+00 0.000000000000000D+00 0.000000000000000D+00 0.000000000000000D+00
 0.134152352800303D+03 0.000000000000000D+00 0.000000000000000D+00 0.134152352800303D+03
 0.134152352800303D+03 -.000000000000000D+00 -.000000000000000D+00 -.134152352800303D+03
 0.125160334568835D+03 0.194646438608780D+02 0.612926206178843D+02 -.950234268301455D+02
 0.186654057304357D+02 -.862812012356657D+01 0.156940619901658D+02 0.525826325547904D+01
 0.118638425751836D+03 -.914101088246394D+01 -.811610952317185D+02 0.860487920060961D+02
 0.584053954950004D+01 -.169551285484754D+01 0.417441262366848D+01 0.371637156857036D+01
-.291684946195D-05 0.000000000000D+00 0.000000000000D+00 0.812200318074D-06 0.000000000000D+00  6 2 22 9900012 -11 1 21 2 0.42600993D-02 0.99988523D-01 0.86070923D+04 0.86070923D+04 0.86070923D+04 0.12161428D+01  1  2 13  2  6  5        1 -.119368248762D-03 0.100000000000D+01
-.689879841607D-06 0.000000000000D+00 0.000000000000D+00 0.812200318074D-06 0.000000000000D+00  6 2 22 9900012 -11 1 21 2 0.42600993D-02 0.99988523D-01 0.81697983D+04 0.81697983D+04 0.81697983D+04 0.12185405D+01  1  2  8  2  6  5        1 -.282109192133D-04 0.100000000000D+01
0.105111395659D-05 0.000000000000D+00 0.000000000000D+00 0.812200318074D-06 0.593235372456D-07  6 2 22 9900012 -11 1 21 2 0.42600993D-02 0.99988523D-01 0.86070923D+04 0.86070923D+04 0.86070923D+04 0.12161428D+01  1  2  1  2  6  5        1 0.430154637338D-04 0.100000000000D+01
  </mgrwgt>
  </event>
  <event>
  6     66 0.12453494E-05 0.36925327E+02 0.78161638E-02 0.12229459E+00
        2 -1    0    0  501    0 0.00000000E+00 0.00000000E+00 0.97188786E+03 0.97188786E+03 0.00000000E+00 0.0000E+00 0.9000E+01
       22 -1    0    0    0    0 0.00000000E+00 0.00000000E+00 -.67023046E+01 0.67023046E+01 0.00000000E+00 0.0000E+00 0.9000E+01
       24  2    1    2    0    0 0.40483589E+02 -.13047548E+02 0.33362820E+03 0.34560213E+03 0.79522931E+02 0.0000E+00 0.0000E+00
  9900012  1    3    3    0    0 0.40215703E+02 -.31622720E+02 0.25914363E+03 0.26883586E+03 0.50000000E+02 0.0000E+00 0.9000E+01
      -11  1    3    3    0    0 0.26788641E+00 0.18575173E+02 0.74484570E+02 0.76766268E+02 0.00000000E+00 0.0000E+00 0.9000E+01
        1  1    1    2  501    0 -.40483589E+02 0.13047548E+02 0.63155735E+03 0.63298803E+03 0.00000000E+00 0.0000E+00 0.9000E+01
#aMCatNLO 1  0  0  1  5 0.15012394D+02 0.00000000D+00  -5  6  0 0.00000000D+00 0.00000000D+00 0.00000000D+00 0.00000000D+00 0.00000000D+00
  <mgrwgt>
 0.2558399006D-03    9    2    0
 0.807086642222362D+02 0.000000000000000D+00 0.000000000000000D+00 0.807086642222362D+02
 0.807086642222362D+02 0.000000000000000D+00 0.000000000000000D+00 -.807086642222362D+02
 0.802791196100425D+02 0.402157030800445D+02 -.316227203861719D+02 -.364340201805839D+02
 0.200181991672831D+02 0.267886410405353D+00 0.185751727511910D+02 -.745784768117095D+01
 0.611200096671467D+02 -.404835894904499D+02 0.130475476349810D+02 0.438918678617549D+02
 0.000000000000000D+00 -.000000000000000D+00 -.000000000000000D+00 0.000000000000000D+00
 0.900020102027940D+02 0.000000000000000D+00 0.000000000000000D+00 0.900020102027940D+02
 0.851230413885018D+02 0.000000000000000D+00 0.000000000000000D+00 -.851230413885018D+02
 0.826430347994191D+02 0.460900778866081D+02 -.296333949243957D+02 -.364340201805839D+02
 0.205499226539339D+02 0.173062395914426D+01 0.190705209619233D+02 -.745784768117095D+01
 0.586928857344071D+02 -.361635763111530D+02 0.145104968841814D+02 0.438918678617549D+02
 0.132392084035356D+02 -.116571255345994D+02 -.394762292170901D+01 0.487896881429223D+01
0.226741660938D-06 0.000000000000D+00 0.000000000000D+00 0.408576363139D-06 0.000000000000D+00  6 2 22 9900012 -11 1 21 0 0.14952121D+00 0.10311238D-02 0.43987815D+04 0.43987815D+04 0.43987815D+04 0.12481606D+01  1  2  2  1  6  1        2 0.835178492039D-04 0.100000000000D+01
0.301705021273D-08 0.000000000000D+00 -.435373840226D-09 0.408576363139D-06 0.000000000000D+00  6 2 22 9900012 -11 1 21 2 0.14952121D+00 0.10311238D-02 0.43987815D+04 0.43987815D+04 0.43987815D+04 0.12481606D+01  1  2  3  1  6  1        2 0.173129639814D-05 0.100000000000D+01
-.340590295113D-07 0.000000000000D+00 0.000000000000D+00 0.408576363139D-06 0.000000000000D+00  6 2 22 9900012 -11 1 21 2 0.14952121D+00 0.10311238D-02 0.43987815D+04 0.43987815D+04 0.43987815D+04 0.12481606D+01  1  2 15  1  6  1        2 -.195443466166D-04 0.100000000000D+01
0.276038447463D-06 0.000000000000D+00 0.000000000000D+00 0.408576363139D-06 0.000000000000D+00  6 2 22 9900012 -11 1 21 2 0.17585788D+00 0.10311238D-02 0.52273483D+04 0.52273483D+04 0.52273483D+04 0.12396770D+01  1  2 12  1  6  1        2 0.127738928858D-03 0.100000000000D+01
-.404742219253D-07 0.000000000000D+00 0.000000000000D+00 0.408576363139D-06 0.000000000000D+00  6 2 22 9900012 -11 1 21 2 0.14952121D+00 0.10311238D-02 0.43987815D+04 0.43987815D+04 0.43987815D+04 0.12481606D+01  1  2  4  1  6  1        2 -.232256242675D-04 0.100000000000D+01
-.787108334054D-06 0.000000000000D+00 -.182217710899D-06 0.408576363139D-06 0.000000000000D+00  6 2 22 9900012 -11 1 21 2 0.17247626D+00 0.10311238D-02 0.43987815D+04 0.43987815D+04 0.43987815D+04 0.12481606D+01  1  2  5  1  6  1        2 -.374045316875D-03 0.100000000000D+01
0.806733830913D-06 0.000000000000D+00 0.180374943654D-06 0.408576363139D-06 0.000000000000D+00  6 2 22 9900012 -11 1 21 2 0.14952121D+00 0.10311238D-02 0.43987815D+04 0.43987815D+04 0.43987815D+04 0.12481606D+01  1  2  6  1  6  1        2 0.462934083704D-03 0.100000000000D+01
0.670640027163D-08 0.000000000000D+00 0.000000000000D+00 0.408576363139D-06 0.000000000000D+00  6 21 22 9900012 -11 1 -2 2 0.17585788D+00 0.10311238D-02 0.52273483D+04 0.52273483D+04 0.52273483D+04 0.12396770D+01  1  2 12  3  6  1        2 0.209433810352D-05 0.100000000000D+01
-.160951190992D-07 0.000000000000D+00 -.399408392598D-08 0.408576363139D-06 0.000000000000D+00  6 21 22 9900012 -11 1 -2 2 0.17247626D+00 0.10311238D-02 0.43987815D+04 0.43987815D+04 0.43987815D+04 0.12481606D+01  1  2  5  3  6  1        2 -.536130787021D-05 0.100000000000D+01
  </mgrwgt>
  </event>
  <event>
  6     66 -.12453494E-05 0.35530544E+02 0.78161638E-02 0.11725557E+00
        4 -1    0    0  501    0 0.00000000E+00 0.00000000E+00 0.20058234E+03 0.20058234E+03 0.00000000E+00 0.0000E+00 0.9000E+01
       22 -1    0    0    0    0 0.00000000E+00 0.00000000E+00 -.79322656E+03 0.79322656E+03 0.00000000E+00 0.0000E+00 0.9000E+01
       24  2    1    2    0    0 0.46912728E+02 -.75906470E+01 -.78732750E+03 0.79340929E+03 0.85763027E+02 0.0000E+00 0.0000E+00
  9900012  1    3    3    0    0 0.20857138E+02 0.21922044E+02 -.44297640E+03 0.44681505E+03 0.50000000E+02 0.0000E+00 0.9000E+01
      -11  1    3    3    0    0 0.26055590E+02 -.29512691E+02 -.34435109E+03 0.34659424E+03 0.00000000E+00 0.0000E+00 0.9000E+01
        3  1    1    2  501    0 -.46912728E+02 0.75906470E+01 0.19468328E+03 0.20039961E+03 0.00000000E+00 0.0000E+00 0.9000E+01
#aMCatNLO 1  0  0  1  5 0.36248471D+02 0.00000000D+00  -5  6  0 0.00000000D+00 0.00000000D+00 0.00000000D+00 0.00000000D+00 0.00000000D+00
  <mgrwgt>
 -.1300189114D-03    7    2    0
 0.398882488675639D+03 0.000000000000000D+00 0.000000000000000D+00 0.398882488675639D+03
 0.398882488675639D+03 0.000000000000000D+00 0.000000000000000D+00 -.398882488675639D+03
 0.227537401831313D+03 0.208571376482850D+02 0.219220437971718D+02 -.219903781315874D+03
 0.175955026527737D+03 0.260555899046089D+02 -.295126907777893D+02 -.171494252609684D+03
 0.394272548992228D+03 -.469127275528939D+02 0.759064698061751D+01 0.391398033925558D+03
 0.000000000000000D+00 0.000000000000000D+00 -.000000000000000D+00 0.000000000000000D+00
 0.851678359969633D+03 0.000000000000000D+00 0.000000000000000D+00 0.851678359969633D+03
 0.400016299313542D+03 0.000000000000000D+00 0.000000000000000D+00 -.400016299313542D+03
 0.227731971289725D+03 0.131791493837144D+02 0.288181840511494D+02 -.219903781315874D+03
 0.174362120802109D+03 0.201475910255336D+02 -.242063022439011D+02 -.171494252609684D+03
 0.396491188792521D+03 -.602487326901098D+02 0.195686493798111D+02 0.391398033925558D+03
 0.453109378398820D+03 0.269219922808617D+02 -.241805311870594D+02 0.451662060656091D+03
0.266629456753D-04 0.000000000000D+00 0.000000000000D+00 0.143522153960D-04 0.000000000000D+00  6 4 22 9900012 -11 3 21 0 0.30858822D-01 0.12203485D+00 0.52805391D+04 0.52805391D+04 0.52805391D+04 0.12391850D+01  1  2  2  1  6  1        4 0.101373908495D-04 0.100000000000D+01
0.146938537905D-05 0.000000000000D+00 -.511963659539D-07 0.143522153960D-04 0.000000000000D+00  6 4 22 9900012 -11 3 21 2 0.30858822D-01 0.12203485D+00 0.52805391D+04 0.52805391D+04 0.52805391D+04 0.12391850D+01  1  2  3  1  6  1        4 0.857879129364D-06 0.100000000000D+01
-.469464528484D-05 0.000000000000D+00 0.000000000000D+00 0.143522153960D-04 0.000000000000D+00  6 4 22 9900012 -11 3 21 2 0.30858822D-01 0.12203485D+00 0.52805391D+04 0.52805391D+04 0.52805391D+04 0.12391850D+01  1  2 15  1  6  1        4 -.274089988036D-05 0.100000000000D+01
0.764379418851D-03 0.000000000000D+00 0.000000000000D+00 0.143522153960D-04 0.000000000000D+00  6 4 22 9900012 -11 3 21 2 0.66075841D-01 0.12203485D+00 0.90462894D+04 0.90462894D+04 0.90462894D+04 0.12138686D+01  1  2 12  1  6  1        4 0.908013576328D-04 0.100000000000D+01
-.112985311376D-02 0.000000000000D+00 -.787471067440D-05 0.143522153960D-04 0.000000000000D+00  6 4 22 9900012 -11 3 21 2 0.65947580D-01 0.12203485D+00 0.52805391D+04 0.52805391D+04 0.52805391D+04 0.12391850D+01  1  2  5  1  6  1        4 -.136017275005D-03 0.100000000000D+01
0.629824147340D-04 0.000000000000D+00 0.000000000000D+00 0.143522153960D-04 0.000000000000D+00  6 21 22 9900012 -11 3 -4 2 0.66075841D-01 0.12203485D+00 0.90462894D+04 0.90462894D+04 0.90462894D+04 0.12138686D+01  1  2 12  3  6  1        4 0.174735775117D-03 0.100000000000D+01
-.923594774136D-04 0.000000000000D+00 -.647141567353D-06 0.143522153960D-04 0.000000000000D+00  6 21 22 9900012 -11 3 -4 2 0.65947580D-01 0.12203485D+00 0.52805391D+04 0.52805391D+04 0.52805391D+04 0.12391850D+01  1  2  5  3  6  1        4 -.267793139282D-03 0.100000000000D+01
  </mgrwgt>
  </event>
  <event>
  6     66 0.12453494E-05 0.27280308E+02 0.78161638E-02 0.12675244E+00
        4 -1    0    0  501    0 0.00000000E+00 0.00000000E+00 0.92124811E+01 0.92124811E+01 0.00000000E+00 0.0000E+00 0.9000E+01
       22 -1    0    0    0    0 -.00000000E+00 -.00000000E+00 -.44417417E+03 0.44417417E+03 0.00000000E+00 0.0000E+00 0.9000E+01
       24  2    1    2    0    0 -.24774140E+02 0.18844765E+02 -.38587629E+03 0.39526386E+03 0.79775428E+02 0.0000E+00 0.0000E+00
  9900012  1    3    3    0    0 -.24598197E+02 0.37066332E+02 -.31932973E+03 0.32626747E+03 0.50000000E+02 0.0000E+00 0.9000E+01
      -11  1    3    3    0    0 -.17594346E+00 -.18221567E+02 -.66546560E+02 0.68996385E+02 0.00000000E+00 0.0000E+00 0.9000E+01
        3  1    1    2  501    0 0.24774140E+02 -.18844765E+02 -.49085392E+02 0.58122791E+02 0.00000000E+00 0.0000E+00 0.9000E+01
#aMCatNLO 1  0  0  5  1 0.61318167D+01 0.00000000D+00  -5  6  0 0.00000000D+00 0.00000000D+00 0.00000000D+00 0.00000000D+00 0.00000000D+00
  <mgrwgt>
 0.1076375089D-03    8    2    0
 0.639683210015315D+02 0.000000000000000D+00 0.000000000000000D+00 0.639683210015315D+02
 0.639683210015315D+02 -.000000000000000D+00 -.000000000000000D+00 -.639683210015315D+02
 0.705749020431122D+02 -.245981966278430D+02 0.370663316093743D+02 -.224016200770558D+02
 0.182655695608101D+02 -.175943464539302D+00 -.182215666579598D+02 -.125482421382635D+01
 0.390961703991408D+02 0.247741400923823D+02 -.188447649514146D+02 0.236564442908821D+02
 0.000000000000000D+00 0.000000000000000D+00 0.000000000000000D+00 0.000000000000000D+00
 0.639683210015315D+02 0.000000000000000D+00 0.000000000000000D+00 0.639683210015315D+02
 0.639683210015315D+02 -.000000000000000D+00 -.000000000000000D+00 -.639683210015315D+02
 0.697090593799500D+02 -.237679621492184D+02 0.364348031871607D+02 -.216088419778477D+02
 0.184165633025297D+02 0.411502869038260D-01 -.183867017828566D+02 -.104752473873812D+01
 0.115130520417312D+02 0.184177334631414D+01 -.526201107729479D+01 0.100732059285435D+02
 0.282979672788521D+02 0.218850385160004D+02 -.127860903270093D+02 0.125831607880423D+02
0.470664511355D-06 0.000000000000D+00 0.000000000000D+00 0.171380695421D-06 0.000000000000D+00  6 4 22 9900012 -11 3 21 0 0.14173048D-02 0.68334487D-01 0.33799409D+04 0.33799409D+04 0.33799409D+04 0.12614568D+01  1  2  2  2  6  5        3 0.689119527765D-04 0.100000000000D+01
0.689777311677D-08 0.000000000000D+00 -.903737826207D-09 0.171380695421D-06 0.000000000000D+00  6 4 22 9900012 -11 3 21 2 0.14173048D-02 0.68334487D-01 0.33799409D+04 0.33799409D+04 0.33799409D+04 0.12614568D+01  1  2  3  2  6  5        3 0.160707723442D-05 0.100000000000D+01
-.623862257498D-07 0.000000000000D+00 0.000000000000D+00 0.171380695421D-06 0.000000000000D+00  6 4 22 9900012 -11 3 21 2 0.14173048D-02 0.68334487D-01 0.33799409D+04 0.33799409D+04 0.33799409D+04 0.12614568D+01  1  2 15  2  6  5        3 -.145350508703D-04 0.100000000000D+01
0.161644753675D-06 0.000000000000D+00 0.000000000000D+00 0.171380695421D-06 0.000000000000D+00  6 4 22 9900012 -11 3 21 2 0.14173048D-02 0.68334487D-01 0.33398817D+04 0.33398817D+04 0.33398817D+04 0.12620690D+01  1  2 12  2  6  5        3 0.376237181740D-04 0.100000000000D+01
-.121630080816D-06 0.000000000000D+00 0.000000000000D+00 0.171380695421D-06 0.000000000000D+00  6 4 22 9900012 -11 3 21 2 0.14173048D-02 0.68334487D-01 0.33799409D+04 0.33799409D+04 0.33799409D+04 0.12614568D+01  1  2  4  2  6  5        3 -.283379767050D-04 0.100000000000D+01
-.184092230852D-06 0.000000000000D+00 0.000000000000D+00 0.171380695421D-06 0.000000000000D+00  6 4 22 9900012 -11 3 21 2 0.14173048D-02 0.68334487D-01 0.33799409D+04 0.33799409D+04 0.33799409D+04 0.12614568D+01  1  2  5  2  6  5        3 -.428907167905D-04 0.100000000000D+01
0.342088515874D-06 0.000000000000D+00 -.000000000000D+00 0.171380695421D-06 0.000000000000D+00  6 4 22 9900012 -11 3 21 2 0.14173048D-02 0.68334487D-01 0.33799409D+04 0.33799409D+04 0.33799409D+04 0.12614568D+01  1  2  6  2  6  5        3 0.797014712880D-04 0.100000000000D+01
0.238749757391D-07 0.000000000000D+00 0.000000000000D+00 0.171380695421D-06 0.406277415340D-08  6 4 22 9900012 -11 3 21 2 0.14173048D-02 0.68334487D-01 0.33398817D+04 0.33398817D+04 0.33398817D+04 0.12620690D+01  1  2 11  2  6  5        3 0.555703379289D-05 0.100000000000D+01
  </mgrwgt>
  </event>
  <event>
  6     66 -.12453494E-05 0.12377290E+02 0.78161638E-02 0.13192306E+00
        4 -1    0    0  501    0 0.00000000E+00 0.00000000E+00 0.68653075E+03 0.68653075E+03 0.00000000E+00 0.0000E+00 0.9000E+01
       22 -1    0    0    0    0 0.00000000E+00 0.00000000E+00 -.66227650E+01 0.66227650E+01 0.00000000E+00 0.0000E+00 0.9000E+01
       24  2    1    2    0    0 -.68236824E+01 -.10326406E+02 0.23953492E+03 0.25260654E+03 0.79245762E+02 0.0000E+00 0.0000E+00
  9900012  1    3    3    0    0 -.19825411E+02 0.96798768E+01 0.14092131E+03 0.15114748E+03 0.50000000E+02 0.0000E+00 0.9000E+01
      -11  1    3    3    0    0 0.13001729E+02 -.20006283E+02 0.98613609E+02 0.10145906E+03 0.00000000E+00 0.0000E+00 0.9000E+01
        3  1    1    2  501    0 0.68236824E+01 0.10326406E+02 0.44037307E+03 0.44054697E+03 0.00000000E+00 0.0000E+00 0.9000E+01
#aMCatNLO 1  0  0  5  1 0.61318167D+01 0.00000000D+00  -5  6  0 0.00000000D+00 0.00000000D+00 0.00000000D+00 0.00000000D+00 0.00000000D+00
  <mgrwgt>
 -.7149571010D-06    1    2    0
 0.674294578107853D+02 0.000000000000000D+00 0.000000000000000D+00 0.674294578107853D+02
 0.674294578107853D+02 -.000000000000000D+00 -.000000000000000D+00 -.674294578107853D+02
 0.664018936561117D+02 -.198254112745389D+02 0.967987679941703D+01 -.377155741579134D+02
 0.243107513274869D+02 0.130017289032393D+02 -.200062826864902D+02 -.466007818623479D+01
 0.441462706379720D+02 0.682368237129963D+01 0.103264058870732D+02 0.423756523441481D+02
 0.000000000000000D+00 -.000000000000000D+00 0.000000000000000D+00 0.000000000000000D+00
 0.674294578107853D+02 0.000000000000000D+00 0.000000000000000D+00 0.674294578107853D+02
 0.674294578107853D+02 -.000000000000000D+00 -.000000000000000D+00 -.674294578107853D+02
 0.619635381289031D+02 -.184763682329956D+02 0.117214088122055D+02 -.293379012512472D+02
 0.235606971111434D+02 0.135048288695362D+02 -.192449321178286D+02 -.153578427774033D+01
 0.392408472160472D+02 0.110980243406655D+02 0.145722704795220D+02 0.347034130747799D+02
 0.100938331654769D+02 -.612648497720615D+01 -.704874717389890D+01 -.382972754579247D+01
-.153478623096D-07 0.000000000000D+00 0.000000000000D+00 0.244982757018D-06 0.000000000000D+00  6 4 22 9900012 -11 3 21 2 0.10562011D+00 0.10188869D-02 0.20651735D+04 0.20651735D+04 0.20651735D+04 0.12875535D+01  1  2 14  2  6  5        3 -.714957100953D-06 0.100000000000D+01
  </mgrwgt>
  </event>
  <event>
  6     66 0.12453494E-05 0.39509410E+02 0.78161638E-02 0.11597209E+00
        2 -1    0    0  501    0 0.00000000E+00 0.00000000E+00 0.66695781E+03 0.66695781E+03 0.00000000E+00 0.0000E+00 0.9000E+01
       22 -1    0    0    0    0 0.00000000E+00 0.00000000E+00 -.58189328E+02 0.58189328E+02 0.00000000E+00 0.0000E+00 0.9000E+01
       24  2    1    2    0    0 0.90777922E+02 -.34474879E+02 0.18529009E+02 0.12697343E+03 0.79685503E+02 0.0000E+00 0.0000E+00
  9900012  1    3    3    0    0 0.47061846E+02 -.16809848E+02 0.32488181E+02 0.77800194E+02 0.50000000E+02 0.0000E+00 0.9000E+01
      -11  1    3    3    0    0 0.43716076E+02 -.17665031E+02 -.13959172E+02 0.49173236E+02 0.00000000E+00 0.0000E+00 0.9000E+01
        1  1    1    2  501    0 -.90777922E+02 0.34474879E+02 0.59023948E+03 0.59817371E+03 0.00000000E+00 0.0000E+00 0.9000E+01
#aMCatNLO 1  0  0  5  1 0.29099862D+02 0.00000000D+00  -5  6  0 0.00000000D+00 0.00000000D+00 0.00000000D+00 0.00000000D+00 0.00000000D+00
  <mgrwgt>
 0.1890574648D-03    5    2    0
 0.197002098447919D+03 0.000000000000000D+00 0.000000000000000D+00 0.197002098447919D+03
 0.197002098447919D+03 -.000000000000000D+00 -.000000000000000D+00 -.197002098447919D+03
 0.929909076752845D+02 0.470618460652262D+02 -.168098481134367D+02 -.604145724275975D+02
 0.112069200537127D+03 0.437160764296329D+02 -.176650305178115D+02 -.101667876280732D+03
 0.188944088683425D+03 -.907779224948590D+02 0.344748786312482D+02 0.162082448708329D+03
 0.000000000000000D+00 0.000000000000000D+00 0.000000000000000D+00 -.000000000000000D+00
 0.197002098447919D+03 0.000000000000000D+00 0.000000000000000D+00 0.197002098447919D+03
 0.197002098447919D+03 -.000000000000000D+00 -.000000000000000D+00 -.197002098447919D+03
 0.872884674920126D+02 0.437260116759033D+02 -.155429928853678D+02 -.544584964187252D+02
 0.103805501274925D+03 0.397215970088938D+02 -.161480405995547D+02 -.945358006831095D+02
 0.185865774060901D+03 -.830014528704122D+02 0.245781487573730D+02 0.164477230619679D+03
 0.170444540679984D+02 -.446155814384976D+00 0.711288472754948D+01 -.154829335178445D+02
0.291343493330D-05 0.000000000000D+00 0.000000000000D+00 0.778374291406D-05 0.000000000000D+00  6 2 22 9900012 -11 1 21 0 0.10260889D+00 0.89522043D-02 0.11550477D+05 0.11550477D+05 0.11550477D+05 0.12028957D+01  1  2  2  2  6  5        1 0.952682956651D-04 0.100000000000D+01
0.112270137129D-07 0.000000000000D+00 -.559417863445D-08 0.778374291406D-05 0.000000000000D+00  6 2 22 9900012 -11 1 21 2 0.10260889D+00 0.89522043D-02 0.11550477D+05 0.11550477D+05 0.11550477D+05 0.12028957D+01  1  2  3  2  6  5        1 0.531206400178D-06 0.100000000000D+01
-.450124314845D-06 0.000000000000D+00 0.000000000000D+00 0.778374291406D-05 0.000000000000D+00  6 2 22 9900012 -11 1 21 2 0.10260889D+00 0.89522043D-02 0.11550477D+05 0.11550477D+05 0.11550477D+05 0.12028957D+01  1  2 15  2  6  5        1 -.212976418339D-04 0.100000000000D+01
0.252673442423D-05 0.000000000000D+00 0.000000000000D+00 0.778374291406D-05 0.000000000000D+00  6 2 22 9900012 -11 1 21 2 0.10260889D+00 0.89522043D-02 0.10484355D+05 0.10484355D+05 0.10484355D+05 0.12072068D+01  1  2 12  2  6  5        1 0.119742846437D-03 0.100000000000D+01
-.109632028346D-06 0.000000000000D+00 0.000000000000D+00 0.778374291406D-05 0.000000000000D+00  6 2 22 9900012 -11 1 21 2 0.10260889D+00 0.89522043D-02 0.11550477D+05 0.11550477D+05 0.11550477D+05 0.12028957D+01  1  2  4  2  6  5        1 -.518724182686D-05 0.100000000000D+01
  </mgrwgt>
  </event>
  <event>
  6     66 -.12453494E-05 0.55425925E+02 0.78161638E-02 0.11662538E+00
        2 -1    0    0  501    0 0.00000000E+00 0.00000000E+00 0.56954445E+03 0.56954445E+03 0.00000000E+00 0.0000E+00 0.9000E+01
       22 -1    0    0    0    0 0.00000000E+00 0.00000000E+00 -.80283112E+02 0.80283112E+02 0.00000000E+00 0.0000E+00 0.9000E+01
       24  2    1    2    0    0 0.17232697E+02 -.72132024E+02 -.34397746E+02 0.12094305E+03 0.89129236E+02 0.0000E+00 0.0000E+00
  9900012  1    3    3    0    0 -.34641350E+01 -.10871332E+02 -.15029508E+02 0.53442232E+02 0.50000000E+02 0.0000E+00 0.9000E+01
      -11  1    3    3    0    0 0.20696832E+02 -.61260692E+02 -.19368239E+02 0.67500814E+02 0.00000000E+00 0.0000E+00 0.9000E+01
        1  1    1    2  501    0 -.17232697E+02 0.72132024E+02 0.52365908E+03 0.52888452E+03 0.00000000E+00 0.0000E+00 0.9000E+01
#aMCatNLO 1  0  0  1  5 0.80672596D+01 0.00000000D+00  -5  6  0 0.00000000D+00 0.00000000D+00 0.00000000D+00 0.00000000D+00 0.00000000D+00
  <mgrwgt>
 -.6196517291D-03   11    2    0
 0.213833582468180D+03 0.000000000000000D+00 0.000000000000000D+00 0.213833582468180D+03
 0.213833582468180D+03 0.000000000000000D+00 0.000000000000000D+00 -.213833582468180D+03
 0.983979972989541D+02 -.346413504492264D+01 -.108713323803906D+02 -.839760666684895D+02
 0.124723205795883D+03 0.206968321962452D+02 -.612606920023285D+02 -.106651989275580D+03
 0.204545961841523D+03 -.172326971513225D+02 0.721320243827191D+02 0.190628055944069D+03
 0.000000000000000D+00 -.000000000000000D+00 0.000000000000000D+00 0.000000000000000D+00
 0.263477767130067D+03 0.000000000000000D+00 0.000000000000000D+00 0.263477767130067D+03
 0.214196678671372D+03 0.000000000000000D+00 0.000000000000000D+00 -.214196678671372D+03
 0.985275167888342D+02 -.225599349028126D+01 -.122720122569703D+02 -.839760666684895D+02
 0.125870729131333D+03 0.222342304736045D+02 -.630431013740720D+02 -.106651989275580D+03
 0.203344391401704D+03 -.147302825313926D+02 0.692308065680276D+02 0.190628055944069D+03
 0.499318084795678D+02 -.524795445193061D+01 0.608430706301467D+01 0.492810884586943D+02
0.641145420580D-06 0.000000000000D+00 0.000000000000D+00 0.276798449513D-06 0.000000000000D+00  6 2 22 9900012 -11 1 21 0 0.87622223D-01 0.12351248D-01 0.90354274D+04 0.90354274D+04 0.90354274D+04 0.12139233D+01  1  2  2  1  6  1        2 0.155648086396D-04 0.100000000000D+01
0.153758346291D-07 0.000000000000D+00 -.123108361625D-08 0.276798449513D-06 0.000000000000D+00  6 2 22 9900012 -11 1 21 2 0.87622223D-01 0.12351248D-01 0.90354274D+04 0.90354274D+04 0.90354274D+04 0.12139233D+01  1  2  3  1  6  1        2 0.550057958168D-06 0.100000000000D+01
-.108511792801D-06 0.000000000000D+00 0.000000000000D+00 0.276798449513D-06 0.000000000000D+00  6 2 22 9900012 -11 1 21 2 0.87622223D-01 0.12351248D-01 0.90354274D+04 0.90354274D+04 0.90354274D+04 0.12139233D+01  1  2 15  1  6  1        2 -.388192099000D-05 0.100000000000D+01
0.245043132642D-04 0.000000000000D+00 0.000000000000D+00 0.276798449513D-06 0.000000000000D+00  6 2 22 9900012 -11 1 21 2 0.10814816D+00 0.12351248D-01 0.97217529D+04 0.97217529D+04 0.97217529D+04 0.12106023D+01  1  2 12  1  6  1        2 0.693053143657D-03 0.100000000000D+01
-.418881082352D-04 0.000000000000D+00 0.000000000000D+00 0.276798449513D-06 0.000000000000D+00  6 2 22 9900012 -11 1 21 2 0.87622223D-01 0.12351248D-01 0.90354274D+04 0.90354274D+04 0.90354274D+04 0.12139233D+01  1  2  4  1  6  1        2 -.149851294861D-02 0.100000000000D+01
-.249132498727D-04 0.000000000000D+00 -.393816943083D-06 0.276798449513D-06 0.000000000000D+00  6 2 22 9900012 -11 1 21 2 0.10804012D+00 0.12351248D-01 0.90354274D+04 0.90354274D+04 0.90354274D+04 0.12139233D+01  1  2  5  1  6  1        2 -.706592853924D-03 0.100000000000D+01
0.244655260186D-04 0.000000000000D+00 0.385332402985D-06 0.276798449513D-06 0.000000000000D+00  6 2 22 9900012 -11 1 21 2 0.87622223D-01 0.12351248D-01 0.90354274D+04 0.90354274D+04 0.90354274D+04 0.12139233D+01  1  2  6  1  6  1        2 0.875234262848D-03 0.100000000000D+01
0.183193004693D-06 0.000000000000D+00 0.000000000000D+00 0.276798449513D-06 0.915850269480D-07  6 2 22 9900012 -11 1 21 2 0.10796484D+00 0.12372221D-01 0.97217529D+04 0.97217529D+04 0.97217529D+04 0.12106023D+01  1  2 11  1  6  1        2 0.517861168002D-05 0.100000000000D+01
0.729080214073D-06 0.000000000000D+00 0.000000000000D+00 0.276798449513D-06 0.000000000000D+00  6 21 22 9900012 -11 1 -2 2 0.10814816D+00 0.12351248D-01 0.97217529D+04 0.97217529D+04 0.97217529D+04 0.12106023D+01  1  2 12  3  6  1        2 0.275326313607D-04 0.100000000000D+01
-.733661046556D-06 0.000000000000D+00 -.116749727136D-07 0.276798449513D-06 0.000000000000D+00  6 21 22 9900012 -11 1 -2 2 0.10804012D+00 0.12351248D-01 0.90354274D+04 0.90354274D+04 0.90354274D+04 0.12139233D+01  1  2  5  3  6  1        2 -.279035801711D-04 0.100000000000D+01
0.333201605619D-08 0.000000000000D+00 0.000000000000D+00 0.276798449513D-06 0.109846265227D-08  6 21 22 9900012 -11 1 -2 2 0.10796484D+00 0.12372221D-01 0.97217529D+04 0.97217529D+04 0.97217529D+04 0.12106023D+01  1  2 11  3  6  1        2 0.126058410004D-06 0.100000000000D+01
  </mgrwgt>
  </event>
  <event>
  6     66 0.12453494E-05 0.49352097E+02 0.78161638E-02 0.11942044E+00
        4 -1    0    0  501    0 0.00000000E+00 0.00000000E+00 0.11958978E+03 0.11958978E+03 0.00000000E+00 0.0000E+00 0.9000E+01
       22 -1    0    0    0    0 0.00000000E+00 0.00000000E+00 -.24050187E+03 0.24050187E+03 0.00000000E+00 0.0000E+00 0.9000E+01
       24  2    1    2    0    0 0.56358727E+02 0.12063395E+02 -.22266788E+03 0.24314692E+03 0.78851816E+02 0.0000E+00 0.0000E+00
  9900012  1    3    3    0    0 0.44226926E+02 -.39051608E+01 -.11016387E+03 0.12886950E+03 0.50000000E+02 0.0000E+00 0.9000E+01
      -11  1    3    3    0    0 0.12131801E+02 0.15968556E+02 -.11250401E+03 0.11427742E+03 0.00000000E+00 0.0000E+00 0.9000E+01
        3  1    1    2  501    0 -.56358727E+02 -.12063395E+02 0.10175578E+03 0.11694473E+03 0.00000000E+00 0.0000E+00 0.9000E+01
#aMCatNLO 1  0  0  1  5 0.21687952D+02 0.00000000D+00  -5  6  0 0.00000000D+00 0.00000000D+00 0.00000000D+00 0.00000000D+00 0.00000000D+00
  <mgrwgt>
 0.6438354505D-04    9    2    0
 0.169592350359789D+03 0.000000000000000D+00 0.000000000000000D+00 0.169592350359789D+03
 0.169592350359789D+03 0.000000000000000D+00 0.000000000000000D+00 -.169592350359789D+03
 0.975418049760238D+02 0.442269255509772D+02 -.390516081461096D+01 -.710150159705750D+02
 0.812160661322452D+02 0.121318011082256D+02 0.159685557195569D+02 -.787011691660237D+02
 0.160426829611308D+03 -.563587266592028D+02 -.120633949049459D+02 0.149716185136599D+03
 0.000000000000000D+00 0.000000000000000D+00 -.000000000000000D+00 0.000000000000000D+00
 0.194174216866156D+03 0.000000000000000D+00 0.000000000000000D+00 0.194174216866156D+03
 0.173961313077796D+03 0.000000000000000D+00 0.000000000000000D+00 -.173961313077796D+03
 0.955556734868608D+02 0.398453389824698D+02 -.321253169033460D+00 -.710150159705750D+02
 0.813979993517435D+02 0.844191550823320D+01 0.189866883083702D+02 -.787011691660237D+02
 0.162814493749218D+03 -.636934150875413D+02 -.606400506629998D+01 0.149716185136599D+03
 0.283673633561296D+02 0.154061605968383D+02 -.126014300730367D+02 0.202129037883594D+02
0.183043068274D-05 0.000000000000D+00 0.000000000000D+00 0.560597482211D-05 0.000000000000D+00  6 4 22 9900012 -11 3 21 0 0.18398427D-01 0.37000288D-01 0.52241966D+04 0.52241966D+04 0.52241966D+04 0.12397064D+01  1  2  2  1  6  1        4 0.147842658792D-04 0.100000000000D+01
0.359906954216D-07 0.000000000000D+00 -.351466789259D-08 0.560597482211D-05 0.000000000000D+00  6 4 22 9900012 -11 3 21 2 0.18398427D-01 0.37000288D-01 0.52241966D+04 0.52241966D+04 0.52241966D+04 0.12397064D+01  1  2  3  1  6  1        4 0.446760104085D-06 0.100000000000D+01
-.319931268269D-06 0.000000000000D+00 0.000000000000D+00 0.560597482211D-05 0.000000000000D+00  6 4 22 9900012 -11 3 21 2 0.18398427D-01 0.37000288D-01 0.52241966D+04 0.52241966D+04 0.52241966D+04 0.12397064D+01  1  2 15  1  6  1        4 -.397137440767D-05 0.100000000000D+01
0.466627332030D-05 0.000000000000D+00 0.000000000000D+00 0.560597482211D-05 0.000000000000D+00  6 4 22 9900012 -11 3 21 2 0.21607893D-01 0.37000288D-01 0.71064252D+04 0.71064252D+04 0.71064252D+04 0.12250230D+01  1  2 12  1  6  1        4 0.439321904775D-04 0.100000000000D+01
-.409658654739D-06 0.000000000000D+00 0.000000000000D+00 0.560597482211D-05 0.000000000000D+00  6 4 22 9900012 -11 3 21 2 0.18398427D-01 0.37000288D-01 0.52241966D+04 0.52241966D+04 0.52241966D+04 0.12397064D+01  1  2  4  1  6  1        4 -.508517940780D-05 0.100000000000D+01
-.689518025299D-05 0.000000000000D+00 -.155051651426D-05 0.560597482211D-05 0.000000000000D+00  6 4 22 9900012 -11 3 21 2 0.21545360D-01 0.37000288D-01 0.52241966D+04 0.52241966D+04 0.52241966D+04 0.12397064D+01  1  2  5  1  6  1        4 -.647564846956D-04 0.100000000000D+01
0.707080455189D-05 0.000000000000D+00 0.153138736661D-05 0.560597482211D-05 0.000000000000D+00  6 4 22 9900012 -11 3 21 2 0.18398427D-01 0.37000288D-01 0.52241966D+04 0.52241966D+04 0.52241966D+04 0.12397064D+01  1  2  6  1  6  1        4 0.877713903708D-04 0.100000000000D+01
0.112561116862D-06 0.000000000000D+00 0.000000000000D+00 0.560597482211D-05 0.000000000000D+00  6 21 22 9900012 -11 3 -4 2 0.21607893D-01 0.37000288D-01 0.71064252D+04 0.71064252D+04 0.71064252D+04 0.12250230D+01  1  2 12  3  6  1        4 0.237677645212D-04 0.100000000000D+01
-.152126315706D-06 0.000000000000D+00 -.368612778171D-07 0.560597482211D-05 0.000000000000D+00  6 21 22 9900012 -11 3 -4 2 0.21545360D-01 0.37000288D-01 0.52241966D+04 0.52241966D+04 0.52241966D+04 0.12397064D+01  1  2  5  3  6  1        4 -.325057877894D-04 0.100000000000D+01
  </mgrwgt>
  </event>
  <event>
  6     66 0.12453494E-05 0.44849303E+02 0.78161638E-02 0.11843515E+00
        2 -1    0    0  501    0 0.00000000E+00 0.00000000E+00 0.11974868E+03 0.11974868E+03 0.00000000E+00 0.0000E+00 0.9000E+01
       22 -1    0    0    0    0 0.00000000E+00 0.00000000E+00 -.48055571E+03 0.48055571E+03 0.00000000E+00 0.0000E+00 0.9000E+01
       24  2    1    2    0    0 -.61296383E+02 0.17962911E+02 -.46597254E+03 0.47726091E+03 0.81041092E+02 0.0000E+00 0.0000E+00
  9900012  1    3    3    0    0 -.49775309E+02 -.82300582E+01 -.38197534E+03 0.38852345E+03 0.50000000E+02 0.0000E+00 0.9000E+01
      -11  1    3    3    0    0 -.11521074E+02 0.26192969E+02 -.83997203E+02 0.88737461E+02 0.00000000E+00 0.0000E+00 0.9000E+01
        1  1    1    2  501    0 0.61296383E+02 -.17962911E+02 0.10516551E+03 0.12304348E+03 0.00000000E+00 0.0000E+00 0.9000E+01
#aMCatNLO 1  0  0  1  5 0.13631464D+02 0.00000000D+00  -5  6  0 0.00000000D+00 0.00000000D+00 0.00000000D+00 0.00000000D+00 0.00000000D+00
  <mgrwgt>
 0.3597745277D-03    9    2    0
 0.239887292302820D+03 0.000000000000000D+00 0.000000000000000D+00 0.239887292302820D+03
 0.239887292302820D+03 0.000000000000000D+00 0.000000000000000D+00 -.239887292302820D+03
 0.198870369990461D+03 -.497753089254590D+02 -.823005824855726D+01 -.185752816459786D+03
 0.478614476176377D+02 -.115210739493360D+02 0.261929694312319D+02 -.383654972010576D+02
 0.233042766997542D+03 0.612963828747950D+02 -.179629111826746D+02 0.224118313660844D+03
 0.000000000000000D+00 -.000000000000000D+00 -.000000000000000D+00 0.000000000000000D+00
 0.286340031203620D+03 0.000000000000000D+00 0.000000000000000D+00 0.286340031203620D+03
 0.240959303710987D+03 0.000000000000000D+00 0.000000000000000D+00 -.240959303710987D+03
 0.197715617399115D+03 -.454408237339882D+02 -.474215975548324D+01 -.185752816459786D+03
 0.480892162697113D+02 -.104723814968643D+02 0.270368373101375D+02 -.383654972010576D+02
 0.234158629862862D+03 0.664026589423269D+02 -.138539635650405D+02 0.224118313660844D+03
 0.473358713829184D+02 -.104894537114744D+02 -.844071398961379D+01 0.453807274926325D+02
0.248946148107D-05 0.000000000000D+00 0.000000000000D+00 0.189167117352D-04 0.000000000000D+00  6 2 22 9900012 -11 1 21 0 0.18422874D-01 0.73931648D-01 0.66846467D+04 0.66846467D+04 0.66846467D+04 0.12278998D+01  1  2  2  1  6  1        2 0.194291756337D-04 0.100000000000D+01
0.680274009960D-07 0.000000000000D+00 -.478009378878D-08 0.189167117352D-04 0.000000000000D+00  6 2 22 9900012 -11 1 21 2 0.18422874D-01 0.73931648D-01 0.66846467D+04 0.66846467D+04 0.66846467D+04 0.12278998D+01  1  2  3  1  6  1        2 0.800495188663D-06 0.100000000000D+01
-.422962223667D-06 0.000000000000D+00 0.000000000000D+00 0.189167117352D-04 0.000000000000D+00  6 2 22 9900012 -11 1 21 2 0.18422874D-01 0.73931648D-01 0.66846467D+04 0.66846467D+04 0.66846467D+04 0.12278998D+01  1  2 15  1  6  1        2 -.497710069875D-05 0.100000000000D+01
0.383375505223D-04 0.000000000000D+00 0.000000000000D+00 0.189167117352D-04 0.000000000000D+00  6 2 22 9900012 -11 1 21 2 0.22088624D-01 0.73931648D-01 0.79228230D+04 0.79228230D+04 0.79228230D+04 0.12199590D+01  1  2 12  1  6  1        2 0.366387390328D-03 0.100000000000D+01
-.880157628609D-05 0.000000000000D+00 0.000000000000D+00 0.189167117352D-04 0.000000000000D+00  6 2 22 9900012 -11 1 21 2 0.18422874D-01 0.73931648D-01 0.66846467D+04 0.66846467D+04 0.66846467D+04 0.12278998D+01  1  2  4  1  6  1        2 -.103570316762D-03 0.100000000000D+01
-.395020054981D-04 0.000000000000D+00 -.187915376588D-05 0.189167117352D-04 0.000000000000D+00  6 2 22 9900012 -11 1 21 2 0.22050207D-01 0.73931648D-01 0.66846467D+04 0.66846467D+04 0.66846467D+04 0.12278998D+01  1  2  5  1  6  1        2 -.379114791462D-03 0.100000000000D+01
0.392343007968D-04 0.000000000000D+00 0.184920629458D-05 0.189167117352D-04 0.000000000000D+00  6 2 22 9900012 -11 1 21 2 0.18422874D-01 0.73931648D-01 0.66846467D+04 0.66846467D+04 0.66846467D+04 0.12278998D+01  1  2  6  1  6  1        2 0.461679684341D-03 0.100000000000D+01
0.101755895597D-05 0.000000000000D+00 0.000000000000D+00 0.189167117352D-04 0.000000000000D+00  6 21 22 9900012 -11 1 -2 2 0.22088624D-01 0.73931648D-01 0.79228230D+04 0.79228230D+04 0.79228230D+04 0.12199590D+01  1  2 12  3  6  1        2 0.643682927067D-04 0.100000000000D+01
-.102261635633D-05 0.000000000000D+00 -.495021615833D-07 0.189167117352D-04 0.000000000000D+00  6 21 22 9900012 -11 1 -2 2 0.22050207D-01 0.73931648D-01 0.66846467D+04 0.66846467D+04 0.66846467D+04 0.12278998D+01  1  2  5  3  6  1        2 -.652283016179D-04 0.100000000000D+01
  </mgrwgt>
  </event>
  <event>
  6     66 0.12453494E-05 0.48914962E+02 0.78161638E-02 0.11486420E+00
        2 -1    0    0  501    0 0.00000000E+00 0.00000000E+00 0.87658766E+03 0.87658766E+03 0.00000000E+00 0.0000E+00 0.9000E+01
       22 -1    0    0    0    0 0.00000000E+00 0.00000000E+00 -.22297021E+02 0.22297021E+02 0.00000000E+00 0.0000E+00 0.9000E+01
       24  2    1    2    0    0 0.97596015E+00 -.91898757E+02 0.18127907E+03 0.21962707E+03 0.83232286E+02 0.0000E+00 0.0000E+00
  9900012  1    3    3    0    0 0.15871173E+02 -.85812795E+02 0.17596704E+03 0.20268234E+03 0.50000000E+02 0.0000E+00 0.9000E+01
      -11  1    3    3    0    0 -.14895213E+02 -.60859618E+01 0.53120322E+01 0.16944733E+02 0.00000000E+00 0.0000E+00 0.9000E+01
        1  1    1    2  501    0 -.97596015E+00 0.91898757E+02 0.67301157E+03 0.67925761E+03 0.00000000E+00 0.0000E+00 0.9000E+01
#aMCatNLO 1  0  0  5  1 0.30571999D+02 0.00000000D+00  -5  6  0 0.00000000D+00 0.00000000D+00 0.00000000D+00 0.00000000D+00 0.00000000D+00
  <mgrwgt>
 0.2346375235D-03    7    2    0
 0.139804481911647D+03 0.000000000000000D+00 0.000000000000000D+00 0.139804481911647D+03
 0.139804481911647D+03 -.000000000000000D+00 -.000000000000000D+00 -.139804481911647D+03
 0.113948604057884D+03 0.158711732769903D+02 -.858127950999886D+02 -.535588874294405D+02
 0.382439166994841D+02 -.148952131238183D+02 -.608596175946853D+01 -.346942482261166D+02
 0.127416443065926D+03 -.975960153172070D+00 0.918987568594571D+02 0.882531356555571D+02
 0.000000000000000D+00 0.000000000000000D+00 0.000000000000000D+00 0.000000000000000D+00
 0.139804481911647D+03 0.000000000000000D+00 0.000000000000000D+00 0.139804481911647D+03
 0.139804481911647D+03 -.000000000000000D+00 -.000000000000000D+00 -.139804481911647D+03
 0.108102044208925D+03 0.158192302911431D+02 -.809217185417774D+02 -.488618397462639D+02
 0.365847900160367D+02 -.149127173575786D+02 -.443772098127554D+01 -.331113931151019D+02
 0.897630796454919D+02 -.284906091710913D+02 0.686084537006651D+02 0.503842806568353D+02
 0.451590499528399D+02 0.275840962375268D+02 0.167509858223879D+02 0.315889522045305D+02
0.165078340385D-05 0.000000000000D+00 0.000000000000D+00 0.159735911322D-06 0.000000000000D+00  6 2 22 9900012 -11 1 21 0 0.13485964D+00 0.34303109D-02 0.10875517D+05 0.10875517D+05 0.10875517D+05 0.12055706D+01  1  2  2  2  6  5        1 0.147666271396D-03 0.100000000000D+01
-.116402787034D-07 0.000000000000D+00 -.316972146601D-08 0.159735911322D-06 0.000000000000D+00  6 2 22 9900012 -11 1 21 2 0.13485964D+00 0.34303109D-02 0.10875517D+05 0.10875517D+05 0.10875517D+05 0.12055706D+01  1  2  3  2  6  5        1 -.151335166290D-05 0.100000000000D+01
-.236538540150D-06 0.000000000000D+00 0.000000000000D+00 0.159735911322D-06 0.000000000000D+00  6 2 22 9900012 -11 1 21 2 0.13485964D+00 0.34303109D-02 0.10875517D+05 0.10875517D+05 0.10875517D+05 0.12055706D+01  1  2 15  2  6  5        1 -.307523558669D-04 0.100000000000D+01
0.973085003730D-06 0.000000000000D+00 0.000000000000D+00 0.159735911322D-06 0.000000000000D+00  6 2 22 9900012 -11 1 21 2 0.13485964D+00 0.34303109D-02 0.11940906D+05 0.11940906D+05 0.11940906D+05 0.12014267D+01  1  2 12  2  6  5        1 0.126407109005D-03 0.100000000000D+01
-.442579193691D-06 0.000000000000D+00 0.000000000000D+00 0.159735911322D-06 0.000000000000D+00  6 2 22 9900012 -11 1 21 2 0.13485964D+00 0.34303109D-02 0.10875517D+05 0.10875517D+05 0.10875517D+05 0.12055706D+01  1  2  4  2  6  5        1 -.575396840405D-04 0.100000000000D+01
-.941138321042D-06 0.000000000000D+00 0.000000000000D+00 0.159735911322D-06 0.000000000000D+00  6 2 22 9900012 -11 1 21 2 0.13485964D+00 0.34303109D-02 0.10875517D+05 0.10875517D+05 0.10875517D+05 0.12055706D+01  1  2  5  2  6  5        1 -.122357314585D-03 0.100000000000D+01
0.132856672658D-05 0.000000000000D+00 -.000000000000D+00 0.159735911322D-06 0.000000000000D+00  6 2 22 9900012 -11 1 21 2 0.13485964D+00 0.34303109D-02 0.10875517D+05 0.10875517D+05 0.10875517D+05 0.12055706D+01  1  2  6  2  6  5        1 0.172726849260D-03 0.100000000000D+01
  </mgrwgt>
  </event>
  <event>
  6     66 0.12453494E-05 0.16425750E+02 0.78161638E-02 0.12394122E+00
        4 -1    0    0  501    0 0.00000000E+00 0.00000000E+00 0.26901531E+02 0.26901531E+02 0.00000000E+00 0.0000E+00 0.9000E+01
       22 -1    0    0    0    0 0.00000000E+00 0.00000000E+00 -.12343881E+03 0.12343881E+03 0.00000000E+00 0.0000E+00 0.9000E+01
       24  2    1    2    0    0 -.14544396E+02 0.76332036E+01 -.10448845E+03 0.13209133E+03 0.79123181E+02 0.0000E+00 0.0000E+00
  9900012  1    3    3    0    0 -.25246384E+02 -.14431751E+01 -.47669573E+02 0.73565283E+02 0.50000000E+02 0.0000E+00 0.9000E+01
      -11  1    3    3    0    0 0.10701988E+02 0.90763787E+01 -.56818880E+02 0.58526049E+02 0.00000000E+00 0.0000E+00 0.9000E+01
        3  1    1    2  501    0 0.14544396E+02 -.76332036E+01 0.79511731E+01 0.18249011E+02 0.00000000E+00 0.0000E+00 0.9000E+01
#aMCatNLO 1  0  0  1  5 0.60918704D+03 0.00000000D+00  -5  6  0 0.00000000D+00 0.00000000D+00 0.00000000D+00 0.00000000D+00 0.00000000D+00
  <mgrwgt>
 0.6389854686D-04    7    2    0
 0.576254550081277D+02 0.000000000000000D+00 0.000000000000000D+00 0.576254550081277D+02
 0.576254550081277D+02 0.000000000000000D+00 0.000000000000000D+00 -.576254550081277D+02
 0.560337350624900D+02 -.252463843673919D+02 -.144317513929843D+01 -.562838293425660D+00
 0.287519295060124D+02 0.107019880633185D+02 0.907637874940084D+01 -.250950244193689D+02
 0.304652454477530D+02 0.145443963040733D+02 -.763320361010241D+01 0.256578627127945D+02
 0.000000000000000D+00 -.000000000000000D+00 -.000000000000000D+00 0.000000000000000D+00
 0.937729008325096D+02 0.000000000000000D+00 0.000000000000000D+00 0.937729008325096D+02
 0.692429695719223D+02 0.000000000000000D+00 0.000000000000000D+00 -.692429695719223D+02
 0.516529222299157D+02 -.113237949734767D+02 0.628325197201520D+01 -.562838293425660D+00
 0.341979445475835D+02 0.188406495361795D+02 0.135929792807072D+02 -.250950244193689D+02
 0.345522223151478D+02 0.229503727718638D+02 -.296825496871058D+01 0.256578627127945D+02
 0.426127813117850D+02 -.304672273345666D+02 -.169079762840118D+02 0.245299312605874D+02
0.239253897135D-06 0.000000000000D+00 0.000000000000D+00 0.178863723556D-06 0.000000000000D+00  6 4 22 9900012 -11 3 21 0 0.41386971D-02 0.18990586D-01 0.18700969D+04 0.18700969D+04 0.18700969D+04 0.12930161D+01  1  2  2  1  6  1        4 0.500493624807D-04 0.100000000000D+01
0.129638582310D-07 0.000000000000D+00 -.459398980998D-09 0.178863723556D-06 0.000000000000D+00  6 4 22 9900012 -11 3 21 2 0.41386971D-02 0.18990586D-01 0.18700969D+04 0.18700969D+04 0.18700969D+04 0.12930161D+01  1  2  3  1  6  1        4 0.453400172933D-05 0.100000000000D+01
-.386376775213D-07 0.000000000000D+00 0.000000000000D+00 0.178863723556D-06 0.000000000000D+00  6 4 22 9900012 -11 3 21 2 0.41386971D-02 0.18990586D-01 0.18700969D+04 0.18700969D+04 0.18700969D+04 0.12930161D+01  1  2 15  1  6  1        4 -.135132067613D-04 0.100000000000D+01
-.918179639572D-08 0.000000000000D+00 0.000000000000D+00 0.178863723556D-06 0.000000000000D+00  6 4 22 9900012 -11 3 21 2 0.41386971D-02 0.18990586D-01 0.18700969D+04 0.18700969D+04 0.18700969D+04 0.12930161D+01  1  2  4  1  6  1        4 -.321125701893D-05 0.100000000000D+01
-.892567423979D-07 0.000000000000D+00 -.750106747481D-07 0.178863723556D-06 0.000000000000D+00  6 4 22 9900012 -11 3 21 2 0.80617316D-02 0.18990586D-01 0.18700969D+04 0.18700969D+04 0.18700969D+04 0.12930161D+01  1  2  5  1  6  1        4 -.112773377346D-04 0.100000000000D+01
0.124592491916D-06 0.000000000000D+00 0.609528980920D-07 0.178863723556D-06 0.000000000000D+00  6 4 22 9900012 -11 3 21 2 0.41386971D-02 0.18990586D-01 0.18700969D+04 0.18700969D+04 0.18700969D+04 0.12930161D+01  1  2  6  1  6  1        4 0.435751890945D-04 0.100000000000D+01
-.205305326416D-08 0.000000000000D+00 -.542044329767D-08 0.178863723556D-06 0.000000000000D+00  6 21 22 9900012 -11 3 -4 2 0.80617316D-02 0.18990586D-01 0.18700969D+04 0.18700969D+04 0.18700969D+04 0.12930161D+01  1  2  5  3  6  1        4 -.625820492591D-05 0.100000000000D+01
  </mgrwgt>
  </event>
  <event>
  7     66 -.12453494E-05 0.57749141E+02 0.78161638E-02 0.12043734E+00
       21 -1    0    0  501  502 0.00000000E+00 0.00000000E+00 0.48011470E+02 0.48011470E+02 0.00000000E+00 0.0000E+00 0.9000E+01
       22 -1    0    0    0    0 0.00000000E+00 0.00000000E+00 -.46695974E+03 0.46695974E+03 0.00000000E+00 0.0000E+00 0.9000E+01
       24  2    1    2    0    0 -.28279962E+02 0.45959296E+02 -.42899625E+03 0.43945061E+03 0.78530510E+02 0.0000E+00 0.0000E+00
  9900012  1    3    3    0    0 -.49341994E+01 0.20947915E+02 -.17812411E+03 0.18625617E+03 0.50000000E+02 0.0000E+00 0.9000E+01
      -11  1    3    3    0    0 -.23345762E+02 0.25011380E+02 -.25087214E+03 0.25319444E+03 0.00000000E+00 0.0000E+00 0.9000E+01
        3  1    1    2  501    0 0.29607825E+02 -.54623784E+02 -.72189708E-01 0.62132007E+02 0.00000000E+00 0.0000E+00 0.9000E+01
       -4  1    1    2    0  502 -.13278635E+01 0.86644881E+01 0.10120172E+02 0.13388594E+02 0.00000000E+00 0.0000E+00 0.9000E+01
#aMCatNLO 2  0  0  1  5 0.88280761D+01 0.00000000D+00  -5  6  0 0.00000000D+00 0.00000000D+00 0.00000000D+00 0.00000000D+00 0.00000000D+00
  <mgrwgt>
 -.1181917617D-04    2    2    0
 0.129815789749935D+03 0.000000000000000D+00 0.000000000000000D+00 0.129815789749935D+03
 0.129815789749935D+03 0.000000000000000D+00 0.000000000000000D+00 -.129815789749935D+03
 0.661840782674485D+02 -.527064882950935D+01 0.231432931992145D+02 -.362896742465805D+02
 0.755082346379742D+02 -.237292852316301D+02 0.275139180015064D+02 -.661921357620805D+02
 0.117939266594448D+03 0.289999340611394D+02 -.506572112007209D+02 0.102481810008661D+03
 0.000000000000000D+00 -.000000000000000D+00 0.000000000000000D+00 0.000000000000000D+00
 0.171999422927410D+03 0.000000000000000D+00 0.000000000000000D+00 0.171999422927410D+03
 0.130345924282360D+03 0.000000000000000D+00 0.000000000000000D+00 -.130345924282360D+03
 0.654224880618283D+02 -.493419940871981D+01 0.209479154922901D+02 -.362896742465805D+02
 0.745116943824945D+02 -.233457624361220D+02 0.250113801954376D+02 -.661921357620805D+02
 0.119845327234443D+03 0.296078253776429D+02 -.546237837730644D+02 0.102481810008661D+03
 0.425658375310045D+02 -.132786353280112D+01 0.866448808533678D+01 0.416534986450501D+02
-.253426515182D-06 0.000000000000D+00 0.000000000000D+00 0.142682003044D-05 0.000000000000D+00  6 21 22 9900012 -11 3 -4 2 0.74165441D-02 0.71547777D-01 0.63637700D+04 0.63637700D+04 0.63637700D+04 0.12302277D+01  1  2 13  3  6  1        4 -.108952334395D-03 0.100000000000D+01
0.226081811320D-06 0.000000000000D+00 0.000000000000D+00 0.142682003044D-05 0.517912426222D-08  6 21 22 9900012 -11 3 -4 2 0.73863801D-02 0.71839960D-01 0.63637700D+04 0.63637700D+04 0.63637700D+04 0.12302277D+01  1  2  1  3  6  1        4 0.971331582286D-04 0.100000000000D+01
  </mgrwgt>
  </event>
  <event>
  7     66 -.12453494E-05 0.25827415E+02 0.78161638E-02 0.12449357E+00
        2 -1    0    0  502    0 0.00000000E+00 0.00000000E+00 0.87289375E+03 0.87289375E+03 0.00000000E+00 0.0000E+00 0.9000E+01
       22 -1    0    0    0    0 0.00000000E+00 0.00000000E+00 -.19941541E+03 0.19941541E+03 0.00000000E+00 0.0000E+00 0.9000E+01
       24  2    1    2    0    0 -.20997700E+02 0.10324269E+02 -.18955384E+03 0.20470798E+03 0.73669558E+02 0.0000E+00 0.0000E+00
  9900012  1    3    3    0    0 -.21129810E+01 0.14529792E+02 -.96574179E+02 0.10973674E+03 0.50000000E+02 0.0000E+00 0.9000E+01
      -11  1    3    3    0    0 -.18884719E+02 -.42055229E+01 -.92979659E+02 0.94971238E+02 0.00000000E+00 0.0000E+00 0.9000E+01
        1  1    1    2  501    0 0.36179512E+02 0.45949166E+01 0.80437568E+03 0.80520202E+03 0.00000000E+00 0.0000E+00 0.9000E+01
       21  1    1    2  502  501 -.15181812E+02 -.14919186E+02 0.58656500E+02 0.62399155E+02 0.00000000E+00 0.0000E+00 0.9000E+01
#aMCatNLO 2  0  0  1  5 0.22680033D+02 0.00000000D+00  -5  6  0 0.00000000D+00 0.00000000D+00 0.00000000D+00 0.00000000D+00 0.00000000D+00
  <mgrwgt>
 -.1372134359D-02    3    2    0
 0.400455754872254D+03 0.000000000000000D+00 0.000000000000000D+00 0.400455754872254D+03
 0.400455754872254D+03 0.000000000000000D+00 0.000000000000000D+00 -.400455754872254D+03
 0.212277445595217D+03 -.613760591849833D+01 0.105747885226919D+02 -.205942267516214D+03
 0.191566451259646D+03 -.225105738207467D+02 -.776865535449298D+01 -.190080581092489D+03
 0.397067612889645D+03 0.286481797392450D+02 -.280613316819892D+01 0.396022848608703D+03
 0.000000000000000D+00 -.000000000000000D+00 -.000000000000000D+00 0.000000000000000D+00
 0.430444879169409D+03 0.000000000000000D+00 0.000000000000000D+00 0.430444879169409D+03
 0.404391994367936D+03 0.000000000000000D+00 0.000000000000000D+00 -.404391994367936D+03
 0.212433041466744D+03 -.211298100580564D+01 0.145297924403900D+02 -.205942267516214D+03
 0.191062676443791D+03 -.188847186403625D+02 -.420552294973149D+01 -.190080581092489D+03
 0.397698588100504D+03 0.361795121402847D+02 0.459491656879879D+01 0.396022848608703D+03
 0.336425675263059D+02 -.151818124941166D+02 -.149191860594573D+02 0.260528848014732D+02
-.234310126542D-03 0.000000000000D+00 0.000000000000D+00 0.235542336284D-04 0.000000000000D+00  6 2 22 9900012 -11 1 21 2 0.13561135D+00 0.30380670D-01 0.41740715D+04 0.41740715D+04 0.41740715D+04 0.12507727D+01  1  2 13  1  6  1        2 -.137832777342D-02 0.100000000000D+01
-.107084996063D-06 0.000000000000D+00 0.000000000000D+00 0.235542336284D-04 0.000000000000D+00  6 2 22 9900012 -11 1 21 2 0.12493526D+00 0.30380670D-01 0.27077422D+04 0.27077422D+04 0.27077422D+04 0.12730018D+01  1  2  8  1  6  1        2 -.706702318218D-06 0.100000000000D+01
0.117690654820D-05 0.000000000000D+00 0.000000000000D+00 0.235542336284D-04 0.277734426537D-08  6 2 22 9900012 -11 1 21 2 0.13429135D+00 0.30679294D-01 0.41740715D+04 0.41740715D+04 0.41740715D+04 0.12507727D+01  1  2  1  1  6  1        2 0.690011635983D-05 0.100000000000D+01
  </mgrwgt>
  </event>
  <event>
  6     66 0.12453494E-05 0.11137446E+02 0.78161638E-02 0.10623105E+00
        2 -1    0    0  501    0 0.00000000E+00 0.00000000E+00 0.16879599E+04 0.16879599E+04 0.00000000E+00 0.0000E+00 0.9000E+01
       22 -1    0    0    0    0 0.00000000E+00 0.00000000E+00 -.51952608E+01 0.51952608E+01 0.00000000E+00 0.0000E+00 0.9000E+01
       24  2    1    2    0    0 -.61023946E+01 0.93168391E+01 0.31321754E+03 0.32356277E+03 0.80396517E+02 0.0000E+00 0.0000E+00
  9900012  1    3    3    0    0 -.50558347E+00 -.46809874E+01 0.29778070E+03 0.30198595E+03 0.50000000E+02 0.0000E+00 0.9000E+01
      -11  1    3    3    0    0 -.55968111E+01 0.13997827E+02 0.15436835E+02 0.21576823E+02 0.00000000E+00 0.0000E+00 0.9000E+01
        1  1    1    2  501    0 0.61023946E+01 -.93168391E+01 0.13695471E+04 0.13695924E+04 0.00000000E+00 0.0000E+00 0.9000E+01
#aMCatNLO 1  0  0  1  1 0.64922796D+03 0.00000000D+00  -5  6  0 0.00000000D+00 0.00000000D+00 0.00000000D+00 0.00000000D+00 0.00000000D+00
  <mgrwgt>
 0.2168010658D-03    3    2    0
 0.936450304517700D+02 0.000000000000000D+00 0.000000000000000D+00 0.936450304517700D+02
 0.936450304517700D+02 0.000000000000000D+00 0.000000000000000D+00 -.936450304517700D+02
 0.545369748870717D+02 -.505583470210887D+00 -.468098737086148D+01 -.212629812684292D+02
 0.563636429234928D+02 -.559681111081627D+01 0.139978265077452D+02 -.543101905912316D+02
 0.763894430929756D+02 0.610239458102716D+01 -.931683913688370D+01 0.755731718596609D+02
 0.000000000000000D+00 0.000000000000000D+00 -.000000000000000D+00 -.000000000000000D+00
 0.146086081439935D+03 0.000000000000000D+00 0.000000000000000D+00 0.146086081439935D+03
 0.616445245084370D+03 0.000000000000000D+00 0.000000000000000D+00 -.616445245084370D+03
 0.747327661358641D+02 -.504573450109953D+02 0.932353454101841D+01 -.212629812684292D+02
 0.867748573691637D+02 -.609076686815426D+02 0.295048295226771D+02 -.543101905912316D+02
 0.976908082641066D+02 -.611648184259669D+02 0.954225870971344D+01 0.755731718596609D+02
 0.503332894755170D+03 0.172529832118505D+03 -.483706227734090D+02 -.470359163644435D+03
0.105970496679D-05 0.000000000000D+00 0.000000000000D+00 0.271365599319D-05 0.000000000000D+00  6 2 22 9900012 -11 1 21 0 0.25968614D+00 0.79927089D-03 0.14605348D+04 0.14605348D+04 0.14605348D+04 0.13069452D+01  1  2  2  1  6  1        2 0.214791446547D-03 0.100000000000D+01
0.181131712185D-06 0.000000000000D+00 -.203477304960D-08 0.271365599319D-05 0.000000000000D+00  6 2 22 9900012 -11 1 21 2 0.25968614D+00 0.79927089D-03 0.14605348D+04 0.14605348D+04 0.14605348D+04 0.13069452D+01  1  2  3  1  6  1        2 0.627106420758D-04 0.100000000000D+01
-.175327182551D-06 0.000000000000D+00 0.000000000000D+00 0.271365599319D-05 0.000000000000D+00  6 2 22 9900012 -11 1 21 2 0.25968614D+00 0.79927089D-03 0.14605348D+04 0.14605348D+04 0.14605348D+04 0.13069452D+01  1  2 15  1  6  1        2 -.607010227999D-04 0.100000000000D+01
  </mgrwgt>
  </event>
  <event>
  6     66 -.12453494E-05 0.57827531E+02 0.78161638E-02 0.12103597E+00
        2 -1    0    0  501    0 0.00000000E+00 0.00000000E+00 0.11669147E+04 0.11669147E+04 0.00000000E+00 0.0000E+00 0.9000E+01
       22 -1    0    0    0    0 0.00000000E+00 0.00000000E+00 -.19224202E+02 0.19224202E+02 0.00000000E+00 0.0000E+00 0.9000E+01
       24  2    1    2    0    0 0.10796185E+02 -.56810789E+02 0.11186635E+03 0.14870183E+03 0.79083057E+02 0.0000E+00 0.0000E+00
  9900012  1    3    3    0    0 0.92143553E+01 -.12850930E+02 0.73769103E+02 0.90509289E+02 0.50000000E+02 0.0000E+00 0.9000E+01
      -11  1    3    3    0    0 0.15818293E+01 -.43959859E+02 0.38097252E+02 0.58192542E+02 0.00000000E+00 0.0000E+00 0.9000E+01
        1  1    1    2  501    0 -.10796185E+02 0.56810789E+02 0.10358242E+04 0.10374371E+04 0.00000000E+00 0.0000E+00 0.9000E+01
#aMCatNLO 1  0  0  5  1 0.57742252D+01 0.00000000D+00  -5  6  0 0.00000000D+00 0.00000000D+00 0.00000000D+00 0.00000000D+00 0.00000000D+00
  <mgrwgt>
 -.5809996798D-03    8    2    0
 0.149776517169505D+03 0.000000000000000D+00 0.000000000000000D+00 0.149776517169505D+03
 0.149776517169505D+03 -.000000000000000D+00 -.000000000000000D+00 -.149776517169505D+03
 0.757544989828993D+02 0.921435527400948D+01 -.128509296811746D+02 -.546689434630297D+02
 0.844611209681115D+02 0.158182925669021D+01 -.439598589526782D+02 -.721020774475554D+02
 0.139337414388000D+03 -.107961845306997D+02 0.568107886338528D+02 0.126771020910585D+03
 0.000000000000000D+00 0.000000000000000D+00 0.000000000000000D+00 0.000000000000000D+00
 0.149776517169505D+03 0.000000000000000D+00 0.000000000000000D+00 0.149776517169505D+03
 0.149776517169505D+03 -.000000000000000D+00 -.000000000000000D+00 -.149776517169505D+03
 0.756648886354299D+02 0.920490608357071D+01 -.128012069333601D+02 -.545579891239949D+02
 0.843264948639905D+02 0.157129621762044D+01 -.439044328663082D+02 -.719783963348096D+02
 0.757246995495274D+02 -.324451545046811D+01 0.355659628685613D+02 0.667739883981029D+02
 0.638369512900631D+02 -.753168685072304D+01 0.211396769311071D+02 0.597623970607016D+02
0.401665249001D-06 0.000000000000D+00 0.000000000000D+00 0.438307465600D-05 0.000000000000D+00  6 2 22 9900012 -11 1 21 0 0.17952534D+00 0.29575696D-02 0.59487875D+04 0.59487875D+04 0.59487875D+04 0.12334411D+01  1  2  2  2  6  5        1 0.289920420162D-04 0.100000000000D+01
0.967550838910D-08 0.000000000000D+00 -.771250158527D-09 0.438307465600D-05 0.000000000000D+00  6 2 22 9900012 -11 1 21 2 0.17952534D+00 0.29575696D-02 0.59487875D+04 0.59487875D+04 0.59487875D+04 0.12334411D+01  1  2  3  2  6  5        1 0.106249079716D-05 0.100000000000D+01
-.715354257090D-07 0.000000000000D+00 0.000000000000D+00 0.438307465600D-05 0.000000000000D+00  6 2 22 9900012 -11 1 21 2 0.17952534D+00 0.29575696D-02 0.59487875D+04 0.59487875D+04 0.59487875D+04 0.12334411D+01  1  2 15  2  6  5        1 -.785547678013D-05 0.100000000000D+01
0.428318495305D-05 0.000000000000D+00 0.000000000000D+00 0.438307465600D-05 0.000000000000D+00  6 2 22 9900012 -11 1 21 2 0.17952534D+00 0.29575696D-02 0.59686903D+04 0.59686903D+04 0.59686903D+04 0.12332813D+01  1  2 12  2  6  5        1 0.470319807866D-03 0.100000000000D+01
-.154738583450D-04 0.000000000000D+00 0.000000000000D+00 0.438307465600D-05 0.000000000000D+00  6 2 22 9900012 -11 1 21 2 0.17952534D+00 0.29575696D-02 0.59487875D+04 0.59487875D+04 0.59487875D+04 0.12334411D+01  1  2  4  2  6  5        1 -.169922152169D-02 0.100000000000D+01
-.602660814508D-05 0.000000000000D+00 0.000000000000D+00 0.438307465600D-05 0.000000000000D+00  6 2 22 9900012 -11 1 21 2 0.17952534D+00 0.29575696D-02 0.59487875D+04 0.59487875D+04 0.59487875D+04 0.12334411D+01  1  2  5  2  6  5        1 -.661796304104D-03 0.100000000000D+01
0.931753855989D-05 0.000000000000D+00 -.000000000000D+00 0.438307465600D-05 0.000000000000D+00  6 2 22 9900012 -11 1 21 2 0.17952534D+00 0.29575696D-02 0.59487875D+04 0.59487875D+04 0.59487875D+04 0.12334411D+01  1  2  6  2  6  5        1 0.102318127110D-02 0.100000000000D+01
0.240713427044D-05 0.000000000000D+00 0.000000000000D+00 0.438307465600D-05 0.528501290486D-06  6 2 22 9900012 -11 1 21 2 0.17952534D+00 0.29575696D-02 0.59686903D+04 0.59686903D+04 0.59686903D+04 0.12332813D+01  1  2 11  2  6  5        1 0.264318011010D-03 0.100000000000D+01
  </mgrwgt>
  </event>
  <event>
  6     66 0.12453494E-05 0.18562153E+02 0.78161638E-02 0.11184123E+00
        2 -1    0    0  501    0 0.00000000E+00 0.00000000E+00 0.40158602E+02 0.40158602E+02 0.00000000E+00 0.0000E+00 0.9000E+01
       22 -1    0    0    0    0 0.00000000E+00 0.00000000E+00 -.96970609E+02 0.96970609E+02 0.00000000E+00 0.0000E+00 0.9000E+01
       24  2    1    2    0    0 -.68078748E+01 0.17268653E+02 -.69083832E+01 0.83885196E+02 0.81513476E+02 0.0000E+00 0.0000E+00
  9900012  1    3    3    0    0 -.29595977E+01 0.36680654E+02 0.21525092E+01 0.62119747E+02 0.50000000E+02 0.0000E+00 0.9000E+01
      -11  1    3    3    0    0 -.38482771E+01 -.19412001E+02 -.90608923E+01 0.21765450E+02 0.00000000E+00 0.0000E+00 0.9000E+01
        1  1    1    2  501    0 0.68078748E+01 -.17268653E+02 -.49903623E+02 0.53244015E+02 0.00000000E+00 0.0000E+00 0.9000E+01
#aMCatNLO 1  0  0  1  5 0.16893248D+03 0.00000000D+00  -5  6  0 0.00000000D+00 0.00000000D+00 0.00000000D+00 0.00000000D+00 0.00000000D+00
  <mgrwgt>
 0.4420140376D-03    3    2    0
 0.624035586360207D+02 0.000000000000000D+00 0.000000000000000D+00 0.624035586360207D+02
 0.624035586360207D+02 0.000000000000000D+00 0.000000000000000D+00 -.624035586360207D+02
 0.692325919040609D+02 -.295959768747108D+01 0.366806542339773D+02 0.306418368941869D+02
 0.197898285586363D+02 -.384827708207947D+01 -.194120010977047D+02 -.478671334984924D-01
 0.357846968093443D+02 0.680787476955055D+01 -.172686531362726D+02 -.305939697606884D+02
 0.000000000000000D+00 -.000000000000000D+00 0.000000000000000D+00 -.000000000000000D+00
 0.120554665616412D+03 0.000000000000000D+00 0.000000000000000D+00 0.120554665616412D+03
 0.166030814157657D+03 0.000000000000000D+00 0.000000000000000D+00 -.166030814157657D+03
 0.744843187339343D+02 0.447708492094396D+02 0.102255870283314D+02 0.306418368941869D+02
 0.318219398953787D+02 0.132927313247540D+02 -.289125727214050D+02 -.478671334984924D-01
 0.605549056703284D+02 0.388036382452081D+02 -.350026181015003D+02 -.305939697606884D+02
 0.119724315474427D+03 -.968672187794018D+02 0.536896037945739D+02 -.454761485412446D+02
0.189648006087D-05 0.000000000000D+00 0.000000000000D+00 0.432312231455D-07 0.000000000000D+00  6 2 22 9900012 -11 1 21 0 0.61782465D-02 0.14918555D-01 0.25217655D+04 0.25217655D+04 0.25217655D+04 0.12767754D+01  1  2  2  1  6  1        2 0.627739215194D-03 0.100000000000D+01
-.100858578816D-06 0.000000000000D+00 -.364149139420D-08 0.432312231455D-07 0.000000000000D+00  6 2 22 9900012 -11 1 21 2 0.61782465D-02 0.14918555D-01 0.25217655D+04 0.25217655D+04 0.25217655D+04 0.12767754D+01  1  2  3  1  6  1        2 -.544217914121D-04 0.100000000000D+01
-.243341363528D-06 0.000000000000D+00 0.000000000000D+00 0.432312231455D-07 0.000000000000D+00  6 2 22 9900012 -11 1 21 2 0.61782465D-02 0.14918555D-01 0.25217655D+04 0.25217655D+04 0.25217655D+04 0.12767754D+01  1  2 15  1  6  1        2 -.131303386220D-03 0.100000000000D+01
  </mgrwgt>
  </event>
  <event>
  6     66 0.12453494E-05 0.37071809E+02 0.78161638E-02 0.12394132E+00
        2 -1    0    0  501    0 0.00000000E+00 0.00000000E+00 0.12208102E+03 0.12208102E+03 0.00000000E+00 0.0000E+00 0.9000E+01
       22 -1    0    0    0    0 -.00000000E+00 -.00000000E+00 -.12208313E+03 0.12208313E+03 0.00000000E+00 0.0000E+00 0.9000E+01
       24  2    1    2    0    0 -.20560427E+02 0.43808139E+02 -.97769003E+02 0.13507589E+03 0.79654460E+02 0.0000E+00 0.0000E+00
  9900012  1    3    3    0    0 -.32006971E+02 0.29111874E+02 -.47351653E+02 0.81327280E+02 0.50000000E+02 0.0000E+00 0.9000E+01
      -11  1    3    3    0    0 0.11446544E+02 0.14696265E+02 -.50417350E+02 0.53748607E+02 0.00000000E+00 0.0000E+00 0.9000E+01
        1  1    1    2  501    0 0.20560427E+02 -.43808139E+02 0.97766891E+02 0.10908826E+03 0.00000000E+00 0.0000E+00 0.9000E+01
#aMCatNLO 1  0  0  5  1 0.13189253D+01 0.00000000D+00  -5  6  0 0.00000000D+00 0.00000000D+00 0.00000000D+00 0.00000000D+00 0.00000000D+00
  <mgrwgt>
 0.3043034435D-03    5    2    0
 0.122082075071553D+03 0.000000000000000D+00 0.000000000000000D+00 0.122082075071553D+03
 0.122082075071553D+03 -.000000000000000D+00 -.000000000000000D+00 -.122082075071553D+03
 0.813268702281897D+02 -.320069707739893D+02 0.291118740966754D+02 -.473509496162973D+02
 0.537481708702427D+02 0.114465437660626D+02 0.146962649352198D+02 -.504168851146344D+02
 0.109089109044675D+03 0.205604270079266D+02 -.438081390318951D+02 0.977678347309317D+02
 0.000000000000000D+00 0.000000000000000D+00 0.000000000000000D+00 0.000000000000000D+00
 0.122082075071553D+03 0.000000000000000D+00 0.000000000000000D+00 0.122082075071553D+03
 0.122082075071553D+03 -.000000000000000D+00 -.000000000000000D+00 -.122082075071553D+03
 0.810721654339301D+02 -.319419909035481D+02 0.289734213691390D+02 -.470419608374321D+02
 0.535409044860089D+02 0.114894727784670D+02 0.146047960108055D+02 -.502127513878253D+02
 0.851370414852129D+00 -.101530307214284D+00 -.689820063988234D+00 -.488540130716612D+00
 0.108699709808316D+03 0.205540484322954D+02 -.428883973159563D+02 0.977432523559740D+02
0.412372172123D-05 0.000000000000D+00 0.000000000000D+00 0.330648246198D-05 0.000000000000D+00  6 2 22 9900012 -11 1 21 0 0.18781695D-01 0.18782020D-01 0.44316816D+04 0.44316816D+04 0.44316816D+04 0.12477907D+01  1  2  2  2  6  5        1 0.273537522231D-03 0.100000000000D+01
0.907966989197D-07 0.000000000000D+00 -.791808860520D-08 0.330648246198D-05 0.000000000000D+00  6 2 22 9900012 -11 1 21 2 0.18781695D-01 0.18782020D-01 0.44316816D+04 0.44316816D+04 0.44316816D+04 0.12477907D+01  1  2  3  2  6  5        1 0.937737058071D-05 0.100000000000D+01
-.690376739424D-06 0.000000000000D+00 0.000000000000D+00 0.330648246198D-05 0.000000000000D+00  6 2 22 9900012 -11 1 21 2 0.18781695D-01 0.18782020D-01 0.44316816D+04 0.44316816D+04 0.44316816D+04 0.12477907D+01  1  2 15  2  6  5        1 -.713012543727D-04 0.100000000000D+01
0.434082748544D-10 0.000000000000D+00 0.000000000000D+00 0.330648246198D-05 0.000000000000D+00  6 2 22 9900012 -11 1 21 2 0.18781695D-01 0.18782020D-01 0.44134354D+04 0.44134354D+04 0.44134354D+04 0.12479954D+01  1  2 12  2  6  5        1 0.448302994034D-08 0.100000000000D+01
0.897453282082D-06 0.000000000000D+00 0.000000000000D+00 0.330648246198D-05 0.102480904730D-06  6 2 22 9900012 -11 1 21 2 0.18781695D-01 0.18782020D-01 0.44134354D+04 0.44134354D+04 0.44134354D+04 0.12479954D+01  1  2 11  2  6  5        1 0.926853220297D-04 0.100000000000D+01
  </mgrwgt>
  </event>
  <event>
  6     66 0.12453494E-05 0.21638114E+02 0.78161638E-02 0.12221451E+00
        2 -1    0    0  501    0 0.00000000E+00 0.00000000E+00 0.78273342E+02 0.78273342E+02 0.00000000E+00 0.0000E+00 0.9000E+01
       22 -1    0    0    0    0 -.00000000E+00 -.00000000E+00 -.93150627E+02 0.93150627E+02 0.00000000E+00 0.0000E+00 0.9000E+01
       24  2    1    2    0    0 0.22094171E+00 0.54334655E+02 -.47839266E+02 0.10787245E+03 0.79972284E+02 0.0000E+00 0.0000E+00
  9900012  1    3    3    0    0 0.80280318E+01 0.61918797E+02 -.27109518E+02 0.84458941E+02 0.50000000E+02 0.0000E+00 0.9000E+01
      -11  1    3    3    0    0 -.78070901E+01 -.75841419E+01 -.20729748E+02 0.23413507E+02 0.00000000E+00 0.0000E+00 0.9000E+01
        1  1    1    2  501    0 -.22094171E+00 -.54334655E+02 0.32961980E+02 0.63551520E+02 0.00000000E+00 0.0000E+00 0.9000E+01
#aMCatNLO 1  0  0  5  1 0.40376794D+00 0.00000000D+00  -5  6  0 0.00000000D+00 0.00000000D+00 0.00000000D+00 0.00000000D+00 0.00000000D+00
  <mgrwgt>
 0.2417722761D-04    5    2    0
 0.853885874867474D+02 0.000000000000000D+00 0.000000000000000D+00 0.853885874867474D+02
 0.853885874867474D+02 -.000000000000000D+00 -.000000000000000D+00 -.853885874867474D+02
 0.824171663611940D+02 0.802803184923572D+01 0.619187973690540D+02 -.198545346962959D+02
 0.216963067904124D+02 -.780709014228298D+01 -.758414190359794D+01 -.187685871455486D+02
 0.666637018218885D+02 -.220941706952735D+00 -.543346554654561D+02 0.386231218418445D+02
 0.000000000000000D+00 0.000000000000000D+00 0.000000000000000D+00 0.000000000000000D+00
 0.853885874867474D+02 0.000000000000000D+00 0.000000000000000D+00 0.853885874867474D+02
 0.853885874867474D+02 -.000000000000000D+00 -.000000000000000D+00 -.853885874867474D+02
 0.824131989778296D+02 0.802801436901297D+01 0.619144985795970D+02 -.198514789546602D+02
 0.216960081901797D+02 -.780709474402811D+01 -.758527357873419D+01 -.187677827081909D+02
 0.855791165363702D+01 0.208216643458272D+00 -.715757713421653D+01 0.468653254214492D+01
 0.581100561518486D+02 -.429136268443126D+00 -.471716478666464D+02 0.339327291207062D+02
0.750687662495D-07 0.000000000000D+00 0.000000000000D+00 0.431092922748D-06 0.000000000000D+00  6 2 22 9900012 -11 1 21 0 0.12042053D-01 0.14330866D-01 0.52714430D+04 0.52714430D+04 0.52714430D+04 0.12392688D+01  1  2  2  2  6  5        1 0.125832745085D-04 0.100000000000D+01
-.572452665541D-09 0.000000000000D+00 -.144141914229D-09 0.431092922748D-06 0.000000000000D+00  6 2 22 9900012 -11 1 21 2 0.12042053D-01 0.14330866D-01 0.52714430D+04 0.52714430D+04 0.52714430D+04 0.12392688D+01  1  2  3  2  6  5        1 -.147368612073D-06 0.100000000000D+01
-.138447294547D-07 0.000000000000D+00 0.000000000000D+00 0.431092922748D-06 0.000000000000D+00  6 2 22 9900012 -11 1 21 2 0.12042053D-01 0.14330866D-01 0.52714430D+04 0.52714430D+04 0.52714430D+04 0.12392688D+01  1  2 15  2  6  5        1 -.356410003321D-05 0.100000000000D+01
-.441205464285D-05 0.000000000000D+00 0.000000000000D+00 0.431092922748D-06 0.000000000000D+00  6 2 22 9900012 -11 1 21 2 0.12042053D-01 0.14330866D-01 0.52714430D+04 0.52714430D+04 0.52714430D+04 0.12392688D+01  1  2  5  2  6  5        1 -.113581158451D-02 0.100000000000D+01
0.447151249494D-05 0.000000000000D+00 0.000000000000D+00 0.431092922748D-06 0.143127504701D-05  6 2 22 9900012 -11 1 21 2 0.12042053D-01 0.14330866D-01 0.52711935D+04 0.52711935D+04 0.52711935D+04 0.12392711D+01  1  2 11  2  6  5        1 0.115111700625D-02 0.100000000000D+01
  </mgrwgt>
  </event>
  <event>
  6     66 0.12453494E-05 0.41127557E+02 0.78161638E-02 0.11288335E+00
        2 -1    0    0  501    0 0.00000000E+00 0.00000000E+00 0.18851699E+03 0.18851699E+03 0.00000000E+00 0.0000E+00 0.9000E+01
       22 -1    0    0    0    0 0.00000000E+00 0.00000000E+00 -.79160268E+03 0.79160268E+03 0.00000000E+00 0.0000E+00 0.9000E+01
       24  2    1    2    0    0 0.59778218E+02 -.77162926E+02 -.77351226E+03 0.78372016E+03 0.79803012E+02 0.0000E+00 0.0000E+00
  9900012  1    3    3    0    0 0.17428215E+02 -.58715759E+02 -.44382563E+03 0.45081313E+03 0.50000000E+02 0.0000E+00 0.9000E+01
      -11  1    3    3    0    0 0.42350003E+02 -.18447167E+02 -.32968663E+03 0.33290704E+03 0.00000000E+00 0.0000E+00 0.9000E+01
        1  1    1    2  501    0 -.59778218E+02 0.77162926E+02 0.17042657E+03 0.19639951E+03 0.00000000E+00 0.0000E+00 0.9000E+01
#aMCatNLO 1  0  0  1  5 0.78804951D+02 0.00000000D+00  -5  6  0 0.00000000D+00 0.00000000D+00 0.00000000D+00 0.00000000D+00 0.00000000D+00
  <mgrwgt>
 0.5807414291D-04    6    2    0
 0.386303706588463D+03 0.000000000000000D+00 0.000000000000000D+00 0.386303706588463D+03
 0.386303706588463D+03 0.000000000000000D+00 0.000000000000000D+00 -.386303706588463D+03
 0.225452047820140D+03 0.174282147612404D+02 -.587157587423576D+02 -.211133471699397D+03
 0.164973105586553D+03 0.423500028141355D+02 -.184471671005765D+02 -.158373939947448D+03
 0.382182259770234D+03 -.597782175753759D+02 0.771629258429342D+02 0.369507411646845D+03
 0.000000000000000D+00 0.000000000000000D+00 -.000000000000000D+00 -.000000000000000D+00
 0.389387887988913D+03 0.000000000000000D+00 0.000000000000000D+00 0.389387887988913D+03
 0.426098352600945D+03 0.000000000000000D+00 0.000000000000000D+00 -.426098352600945D+03
 0.224658286906282D+03 0.113468359742587D+02 -.571423863449759D+02 -.211133471699397D+03
 0.163763795851871D+03 0.379084837805393D+02 -.172980587002143D+02 -.158373939947448D+03
 0.384486338335180D+03 -.701365714931928D+02 0.798428358941699D+02 0.369507411646845D+03
 0.425778194965247D+02 0.208812517383948D+02 -.540239084897966D+01 -.367104646120324D+02
0.333439746686D-04 0.000000000000D+00 0.000000000000D+00 0.117210682777D-03 0.000000000000D+00  6 2 22 9900012 -11 1 21 0 0.29002614D-01 0.12178503D+00 0.12417485D+05 0.12417485D+05 0.12417485D+05 0.11997042D+01  1  2  2  1  6  1        2 0.624063897503D-04 0.100000000000D+01
0.559427248085D-06 0.000000000000D+00 -.640248211987D-07 0.117210682777D-03 0.000000000000D+00  6 2 22 9900012 -11 1 21 2 0.29002614D-01 0.12178503D+00 0.12417485D+05 0.12417485D+05 0.12417485D+05 0.11997042D+01  1  2  3  1  6  1        2 0.150696676704D-05 0.100000000000D+01
-.569207296415D-05 0.000000000000D+00 0.000000000000D+00 0.117210682777D-03 0.000000000000D+00  6 2 22 9900012 -11 1 21 2 0.29002614D-01 0.12178503D+00 0.12417485D+05 0.12417485D+05 0.12417485D+05 0.11997042D+01  1  2 15  1  6  1        2 -.153331194037D-04 0.100000000000D+01
0.385892937968D-05 0.000000000000D+00 0.000000000000D+00 0.117210682777D-03 0.000000000000D+00  6 2 22 9900012 -11 1 21 2 0.32245690D-01 0.12178503D+00 0.15163848D+05 0.15163848D+05 0.15163848D+05 0.11910223D+01  1  2 12  1  6  1        2 0.920234784756D-05 0.100000000000D+01
-.178914734080D-06 0.000000000000D+00 0.000000000000D+00 0.117210682777D-03 0.000000000000D+00  6 2 22 9900012 -11 1 21 2 0.29002614D-01 0.12178503D+00 0.12417485D+05 0.12417485D+05 0.12417485D+05 0.11997042D+01  1  2  4  1  6  1        2 -.481954640777D-06 0.100000000000D+01
0.658992559944D-07 0.000000000000D+00 0.000000000000D+00 0.117210682777D-03 0.000000000000D+00  6 21 22 9900012 -11 1 -2 2 0.32245690D-01 0.12178503D+00 0.15163848D+05 0.15163848D+05 0.15163848D+05 0.11910223D+01  1  2 12  3  6  1        2 0.773512589436D-06 0.100000000000D+01
  </mgrwgt>
  </event>
  <event>
  6     66 0.12453494E-05 0.62075543E+02 0.78161638E-02 0.11149004E+00
        2 -1    0    0  501    0 0.00000000E+00 0.00000000E+00 0.78864988E+03 0.78864988E+03 0.00000000E+00 0.0000E+00 0.9000E+01
       22 -1    0    0    0    0 0.00000000E+00 0.00000000E+00 -.24697791E+03 0.24697791E+03 0.00000000E+00 0.0000E+00 0.9000E+01
       24  2    1    2    0    0 -.33093298E+02 0.52518631E+02 -.23493402E+03 0.25654485E+03 0.82267187E+02 0.0000E+00 0.0000E+00
  9900012  1    3    3    0    0 -.24733988E+02 0.66055833E+02 -.20814506E+03 0.22538746E+03 0.50000000E+02 0.0000E+00 0.9000E+01
      -11  1    3    3    0    0 -.83593104E+01 -.13537202E+02 -.26788965E+02 0.31157384E+02 0.00000000E+00 0.0000E+00 0.9000E+01
        1  1    1    2  501    0 0.33093298E+02 -.52518631E+02 0.77660599E+03 0.77908294E+03 0.00000000E+00 0.0000E+00 0.9000E+01
#aMCatNLO 1  0  0  1  5 0.41637684D+00 0.00000000D+00  -5  6  0 0.00000000D+00 0.00000000D+00 0.00000000D+00 0.00000000D+00 0.00000000D+00
  <mgrwgt>
 0.5003168037D-03    7    2    0
 0.441337852972146D+03 0.000000000000000D+00 0.000000000000000D+00 0.441337852972146D+03
 0.441337852972146D+03 0.000000000000000D+00 0.000000000000000D+00 -.441337852972146D+03
 0.392175586087283D+03 -.247339878100547D+02 0.660558329987899D+02 -.382526531232478D+03
 0.529960022269797D+02 -.835931038259607D+01 -.135372020531120D+02 -.505513831911915D+02
 0.437504117630030D+03 0.330932981926508D+02 -.525186309456779D+02 0.433077914423670D+03
 0.000000000000000D+00 -.000000000000000D+00 0.000000000000000D+00 0.000000000000000D+00
 0.856102638278774D+03 0.000000000000000D+00 0.000000000000000D+00 0.856102638278774D+03
 0.447296013038720D+03 0.000000000000000D+00 0.000000000000000D+00 -.447296013038720D+03
 0.389170779842220D+03 0.798673145714529D+01 0.506316196351769D+02 -.382526531232478D+03
 0.530576501205025D+02 -.391806391747042D+01 -.156307603431695D+02 -.505513831911915D+02
 0.444239262383178D+03 0.700183788754056D+02 -.699247374028289D+02 0.433077914423670D+03
 0.416930958971593D+03 -.740870464150805D+02 0.349238781108215D+02 0.408806625240054D+03
0.383722722420D-04 0.000000000000D+00 0.000000000000D+00 0.793103143098D-04 0.000000000000D+00  6 2 22 9900012 -11 1 21 0 0.12133075D+00 0.37996602D-01 0.67605096D+04 0.67605096D+04 0.67605096D+04 0.12273677D+01  1  2  2  1  6  1        2 0.118001881054D-03 0.100000000000D+01
0.136039971059D-05 0.000000000000D+00 -.736798145304D-07 0.793103143098D-04 0.000000000000D+00  6 2 22 9900012 -11 1 21 2 0.12133075D+00 0.37996602D-01 0.67605096D+04 0.67605096D+04 0.67605096D+04 0.12273677D+01  1  2  3  1  6  1        2 0.630212967871D-05 0.100000000000D+01
-.663000423705D-05 0.000000000000D+00 0.000000000000D+00 0.793103143098D-04 0.000000000000D+00  6 2 22 9900012 -11 1 21 2 0.12133075D+00 0.37996602D-01 0.67605096D+04 0.67605096D+04 0.67605096D+04 0.12273677D+01  1  2 15  1  6  1        2 -.307138748611D-04 0.100000000000D+01
-.225867076429D-04 0.000000000000D+00 0.000000000000D+00 0.793103143098D-04 0.000000000000D+00  6 2 22 9900012 -11 1 21 2 0.12133075D+00 0.37996602D-01 0.67605096D+04 0.67605096D+04 0.67605096D+04 0.12273677D+01  1  2  4  1  6  1        2 -.104634218511D-03 0.100000000000D+01
-.250405679278D-03 0.000000000000D+00 -.106168269979D-04 0.793103143098D-04 0.000000000000D+00  6 2 22 9900012 -11 1 21 2 0.23623943D+00 0.37996602D-01 0.67605096D+04 0.67605096D+04 0.67605096D+04 0.12273677D+01  1  2  5  1  6  1        2 -.452409774657D-03 0.100000000000D+01
0.210892454505D-03 0.000000000000D+00 0.862924447934D-05 0.793103143098D-04 0.000000000000D+00  6 2 22 9900012 -11 1 21 2 0.12133075D+00 0.37996602D-01 0.67605096D+04 0.67605096D+04 0.67605096D+04 0.12273677D+01  1  2  6  1  6  1        2 0.976971390249D-03 0.100000000000D+01
-.174620092685D-04 0.000000000000D+00 -.766737705645D-06 0.793103143098D-04 0.000000000000D+00  6 21 22 9900012 -11 1 -2 2 0.23623943D+00 0.37996602D-01 0.67605096D+04 0.67605096D+04 0.67605096D+04 0.12273677D+01  1  2  5  3  6  1        2 -.132007292913D-04 0.100000000000D+01
  </mgrwgt>
  </event>
</LesHouchesEvents>
