<LesHouchesEvents version="3.0">
  <!--
  <scalesfunctionalform>
    muR  H_T/2 := sum_i mT(i)/2, i=final state
    muF1 H_T/2 := sum_i mT(i)/2, i=final state
    muF2 H_T/2 := sum_i mT(i)/2, i=final state
    QES  H_T/2 := sum_i mT(i)/2, i=final state
  </scalesfunctionalform>
PYTHIA8   
  -->
  <header>
       46
  </header>
  <init>
   2212   2212 0.65000000D+04 0.65000000D+04 -1 -1  82200  82200 -4   1
 0.51163175D-04 0.82813635D-06 0.14626492D-05     66
  </init>
  <event>
  7     66 0.14626492E-05 0.16827755E+02 0.78161638E-02 0.12748890E+00
       22 -1    0    0    0    0 0.00000000E+00 0.00000000E+00 0.99661179E+03 0.99661179E+03 0.00000000E+00 0.0000E+00 0.9000E+01
        1 -1    0    0  501    0 0.00000000E+00 0.00000000E+00 -.13458472E+03 0.13458472E+03 0.00000000E+00 0.0000E+00 0.9000E+01
      -24  2    1    2    0    0 -.56528996E+01 0.11151268E+02 -.12277426E+03 0.14543053E+03 0.76942935E+02 0.0000E+00 0.0000E+00
  9900012  1    3    3    0    0 0.75427166E+00 -.89461483E+01 -.56976936E+02 0.76334617E+02 0.50000000E+02 0.0000E+00 0.9000E+01
       11  1    3    3    0    0 -.64071712E+01 0.20097416E+02 -.65797321E+02 0.69095914E+02 0.00000000E+00 0.0000E+00 0.9000E+01
        2  1    1    2  502    0 0.75602892E+01 0.13213828E+02 0.19768302E+03 0.19826835E+03 0.00000000E+00 0.0000E+00 0.9000E+01
       21  1    1    2  501  502 -.19073897E+01 -.24365096E+02 0.78711830E+03 0.78749763E+03 0.00000000E+00 0.0000E+00 0.9000E+01
#aMCatNLO 2  0  0  5  2 0.91423363D+01 0.00000000D+00  -5  6  0 0.00000000D+00 0.00000000D+00 0.00000000D+00 0.00000000D+00 0.00000000D+00
  <mgrwgt>
 0.7957167487D-03    1    2    0
 0.366235883337199D+03 0.000000000000000D+00 0.000000000000000D+00 0.366235883337199D+03
 0.366235883337199D+03 -.000000000000000D+00 -.000000000000000D+00 -.366235883337199D+03
 0.185527835070581D+03 0.744717681011741D+00 -.892730148533757D+01 -.178438578423339D+03
 0.184749306605221D+03 -.641668452505979D+01 0.201161827311155D+02 -.183538746980424D+03
 0.362194624998596D+03 0.567196684404767D+01 -.111888812457772D+02 0.361977325403763D+03
 0.000000000000000D+00 0.000000000000000D+00 -.000000000000000D+00 0.000000000000000D+00
 0.366235883337199D+03 0.000000000000000D+00 0.000000000000000D+00 0.366235883337199D+03
 0.366235883337199D+03 -.000000000000000D+00 -.000000000000000D+00 -.366235883337199D+03
 0.184942435984373D+03 0.754271659729599D+00 -.894614826922012D+01 -.177828856300777D+03
 0.184143791065261D+03 -.640717121972959D+01 0.200974161821350D+02 -.182931620578973D+03
 0.735487111497607D+02 0.756028921407824D+01 0.132138281846055D+02 0.719558870663003D+02
 0.289836828475004D+03 -.190738965407863D+01 -.243650960975197D+02 0.288804589813450D+03
0.389631498756D-03 0.000000000000D+00 0.000000000000D+00 0.143151814899D-04 0.645474257729D-07  6 22 1 9900012 11 2 21 2 0.15332489D+00 0.20705342D-01 0.31112450D+04 0.31112450D+04 0.31112450D+04 0.12657301D+01  1  2  1  2  6  5        2 0.795716748669D-03 0.100000000000D+01
  </mgrwgt>
  </event>
  <event>
  6     66 0.14626492E-05 0.18653034E+02 0.78161638E-02 0.12517179E+00
       22 -1    0    0    0    0 0.00000000E+00 0.00000000E+00 0.23712515E+01 0.23712515E+01 0.00000000E+00 0.0000E+00 0.9000E+01
        1 -1    0    0  501    0 0.00000000E+00 0.00000000E+00 -.13205805E+04 0.13205805E+04 0.00000000E+00 0.0000E+00 0.9000E+01
      -24  2    1    2    0    0 0.16917119E+02 -.78579086E+01 -.12317329E+04 0.12344865E+04 0.80269150E+02 0.0000E+00 0.0000E+00
  9900012  1    3    3    0    0 0.56234830E+01 0.10315236E+02 -.54359484E+03 0.54601591E+03 0.50000000E+02 0.0000E+00 0.9000E+01
       11  1    3    3    0    0 0.11293636E+02 -.18173144E+02 -.68813802E+03 0.68847059E+03 0.00000000E+00 0.0000E+00 0.9000E+01
        2  1    1    2  501    0 -.16917119E+02 0.78579086E+01 -.86476422E+02 0.88465288E+02 0.00000000E+00 0.0000E+00 0.9000E+01
#aMCatNLO 1  0  0  2  5 0.38464505D+02 0.00000000D+00  -5  6  0 0.00000000D+00 0.00000000D+00 0.00000000D+00 0.00000000D+00 0.00000000D+00
  <mgrwgt>
 0.1027961164D-03    7    2    0
 0.559591682137781D+02 0.000000000000000D+00 0.000000000000000D+00 0.559591682137781D+02
 0.559591682137781D+02 0.000000000000000D+00 0.000000000000000D+00 -.559591682137781D+02
 0.516534083551405D+02 0.562348301049435D+01 0.103152357674944D+02 0.548150933544623D+01
 0.330907499845465D+02 0.112936364646048D+02 -.181731444087857D+02 -.252425896500841D+02
 0.271741780878692D+02 -.169171194750991D+02 0.785790864129127D+01 0.197610803146379D+02
 0.000000000000000D+00 -.000000000000000D+00 0.000000000000000D+00 -.000000000000000D+00
 0.694271843932843D+02 0.000000000000000D+00 0.000000000000000D+00 0.694271843932843D+02
 0.772252757403910D+02 0.000000000000000D+00 0.000000000000000D+00 -.772252757403910D+02
 0.540935745527419D+02 0.188776850224242D+02 0.630086275779823D+01 0.548150933544623D+01
 0.385299542247226D+02 0.202704909877570D+02 -.208920136758510D+02 -.252425896500841D+02
 0.232008079992501D+02 -.106031781825286D+02 0.594557053999422D+01 0.197610803146379D+02
 0.308281233569607D+02 -.285449978276526D+02 0.864558037805855D+01 -.779809134710669D+01
0.188356633070D-06 0.000000000000D+00 0.000000000000D+00 0.423449695244D-06 0.000000000000D+00  6 22 1 9900012 11 2 21 0 0.36480792D-03 0.20316624D+00 0.20890041D+04 0.20890041D+04 0.20890041D+04 0.12869267D+01  1  2  2  1  6  2        1 0.779467752924D-04 0.100000000000D+01
-.789321158943D-08 0.000000000000D+00 -.361669533215D-09 0.423449695244D-06 0.000000000000D+00  6 22 1 9900012 11 2 21 2 0.36480792D-03 0.20316624D+00 0.20890041D+04 0.20890041D+04 0.20890041D+04 0.12869267D+01  1  2  3  1  6  2        1 -.540976734004D-05 0.100000000000D+01
0.234211155729D-08 0.000000000000D+00 0.000000000000D+00 0.423449695244D-06 0.000000000000D+00  6 22 1 9900012 11 2 21 2 0.36480792D-03 0.20316624D+00 0.20890041D+04 0.20890041D+04 0.20890041D+04 0.12869267D+01  1  2 15  1  6  2        1 0.160521208203D-05 0.100000000000D+01
-.272740881252D-07 0.000000000000D+00 0.000000000000D+00 0.423449695244D-06 0.000000000000D+00  6 22 1 9900012 11 2 21 2 0.36480792D-03 0.20316624D+00 0.20890041D+04 0.20890041D+04 0.20890041D+04 0.12869267D+01  1  2  4  1  6  2        1 -.186928311115D-04 0.100000000000D+01
-.834246371090D-07 0.000000000000D+00 -.484946142804D-07 0.423449695244D-06 0.000000000000D+00  6 22 1 9900012 11 2 21 2 0.36480792D-03 0.31370258D+00 0.20890041D+04 0.20890041D+04 0.20890041D+04 0.12869267D+01  1  2  5  1  6  2        1 -.202302355252D-04 0.100000000000D+01
0.992226245952D-07 0.000000000000D+00 0.442528031264D-07 0.423449695244D-06 0.000000000000D+00  6 22 1 9900012 11 2 21 2 0.36480792D-03 0.20316624D+00 0.20890041D+04 0.20890041D+04 0.20890041D+04 0.12869267D+01  1  2  6  1  6  2        1 0.680041714132D-04 0.100000000000D+01
-.237582405681D-08 0.000000000000D+00 -.245397998690D-08 0.423449695244D-06 0.000000000000D+00  6 22 21 9900012 11 2 -1 2 0.36480792D-03 0.31370258D+00 0.20890041D+04 0.20890041D+04 0.20890041D+04 0.12869267D+01  1  2  5  3  6  2        1 -.427208405681D-06 0.100000000000D+01
  </mgrwgt>
  </event>
  <event>
  7     66 0.14626492E-05 0.15861496E+02 0.78161638E-02 0.12986828E+00
       22 -1    0    0    0    0 0.00000000E+00 0.00000000E+00 0.65953433E+01 0.65953433E+01 0.00000000E+00 0.0000E+00 0.9000E+01
        1 -1    0    0  502    0 0.00000000E+00 0.00000000E+00 -.50219637E+03 0.50219637E+03 0.00000000E+00 0.0000E+00 0.9000E+01
      -24  2    1    2    0    0 -.24948987E+01 -.15708365E+02 -.37951861E+03 0.38884061E+03 0.83124433E+02 0.0000E+00 0.0000E+00
  9900012  1    3    3    0    0 -.10451544E+02 -.35690415E+02 -.25686112E+03 0.26431170E+03 0.50000000E+02 0.0000E+00 0.9000E+01
       11  1    3    3    0    0 0.79566451E+01 0.19982049E+02 -.12265749E+03 0.12452891E+03 0.00000000E+00 0.0000E+00 0.9000E+01
        2  1    1    2  501    0 -.49595048E-01 0.24314311E-01 0.13989881E+01 0.14000780E+01 0.00000000E+00 0.0000E+00 0.9000E+01
       21  1    1    2  502  501 0.25444938E+01 0.15684051E+02 -.11748141E+03 0.11855103E+03 0.00000000E+00 0.0000E+00 0.9000E+01
#aMCatNLO 2  0  0  2  2 0.24676804D+02 0.00000000D+00  -5  6  0 0.00000000D+00 0.00000000D+00 0.00000000D+00 0.00000000D+00 0.00000000D+00
  <mgrwgt>
 0.3496281359D-01    1    2    0
 0.475943434476658D+02 0.000000000000000D+00 0.000000000000000D+00 0.475943434476658D+02
 0.475943434476658D+02 0.000000000000000D+00 0.000000000000000D+00 -.475943434476658D+02
 0.570927902701218D+02 -.886557041611054D+01 -.259146048436263D+02 -.306946539706783D+01
 0.267961567419061D+02 0.861726874945864D+01 0.240540795939641D+02 -.807328621588801D+01
 0.112997398833036D+02 0.248301666651906D+00 0.186052524966226D+01 0.111427516129558D+02
 0.000000000000000D+00 0.000000000000000D+00 0.000000000000000D+00 -.000000000000000D+00
 0.525108880768636D+02 0.000000000000000D+00 0.000000000000000D+00 0.525108880768636D+02
 0.630756321154044D+02 0.000000000000000D+00 0.000000000000000D+00 -.630756321154044D+02
 0.623895992604453D+02 -.104515437984634D+02 -.356904148236464D+02 -.306946539706783D+01
 0.229732116360990D+02 0.795664508923432D+01 0.199820494814049D+02 -.807328621588801D+01
 0.111428885107276D+02 -.495950476907921D-01 0.243143110107142D-01 0.111427516129558D+02
 0.190808207849961D+02 0.254449375691989D+01 0.156840510312308D+02 -.105647440385408D+02
0.436750567315D-04 0.000000000000D+00 0.000000000000D+00 0.992458804525D-06 0.399286100739D-04  6 22 1 9900012 11 2 21 2 0.10146682D-02 0.77260980D-01 0.24883292D+04 0.24883292D+04 0.24883292D+04 0.12774870D+01  1  2  1  1  6  2        1 0.349628135948D-01 0.100000000000D+01
  </mgrwgt>
  </event>
  <event>
  6     66 -.14626492E-05 0.19779968E+02 0.78161638E-02 0.12952344E+00
       22 -1    0    0    0    0 0.00000000E+00 0.00000000E+00 0.10274085E+03 0.10274085E+03 0.00000000E+00 0.0000E+00 0.9000E+01
        3 -1    0    0  501    0 0.00000000E+00 0.00000000E+00 -.31164984E+02 0.31164984E+02 0.00000000E+00 0.0000E+00 0.9000E+01
      -24  2    1    2    0    0 0.19767597E+02 -.69944472E+00 0.77675422E+02 0.11320675E+03 0.79944050E+02 0.0000E+00 0.0000E+00
  9900012  1    3    3    0    0 0.32764703E+02 -.15635323E+02 0.65080594E+02 0.89741144E+02 0.50000000E+02 0.0000E+00 0.9000E+01
       11  1    3    3    0    0 -.12997106E+02 0.14935878E+02 0.12594827E+02 0.23465611E+02 0.00000000E+00 0.0000E+00 0.9000E+01
        4  1    1    2  501    0 -.19767597E+02 0.69944472E+00 -.60995593E+01 0.20699076E+02 0.00000000E+00 0.0000E+00 0.9000E+01
#aMCatNLO 1  0  0  2  2 0.24676804D+02 0.00000000D+00  -5  6  0 0.00000000D+00 0.00000000D+00 0.00000000D+00 0.00000000D+00 0.00000000D+00
  <mgrwgt>
 -.6024207393D-05    1    2    0
 0.565854826467221D+02 0.000000000000000D+00 0.000000000000000D+00 0.565854826467221D+02
 0.565854826467221D+02 0.000000000000000D+00 0.000000000000000D+00 -.565854826467221D+02
 0.650225319846608D+02 0.327647031612424D+02 -.156353230266358D+02 0.202469890676284D+02
 0.197992170941954D+02 -.129971060634706D+02 0.149358783044361D+02 0.614067834036076D-01
 0.283492162145881D+02 -.197675970977718D+02 0.699444722199676D+00 -.203083958510320D+02
 0.000000000000000D+00 0.000000000000000D+00 0.000000000000000D+00 0.000000000000000D+00
 0.694701494356917D+03 0.000000000000000D+00 0.000000000000000D+00 0.694701494356917D+03
 0.133221282525615D+03 0.000000000000000D+00 0.000000000000000D+00 -.133221282525615D+03
 0.988664955611987D+02 -.479417050132009D+02 -.675739320942262D+02 0.202469890676284D+02
 0.455406072793609D+02 -.451734061788831D+02 -.577117966949408D+01 0.614067834036076D-01
 0.868969355809801D+02 -.765200417649069D+02 -.358235911044622D+02 -.203083958510320D+02
 0.596618738460992D+03 0.169635152956991D+03 0.109168702868182D+03 0.561480211831301D+03
-.122679936217D-07 0.000000000000D+00 0.000000000000D+00 0.289072124837D-06 0.000000000000D+00  6 22 3 9900012 11 4 21 2 0.15806284D-01 0.47946129D-02 0.25689169D+04 0.25689169D+04 0.25689169D+04 0.12757898D+01  1  2 14  1  6  2        3 -.602420739279D-05 0.100000000000D+01
  </mgrwgt>
  </event>
  <event>
  6     66 -.14626492E-05 0.21877443E+02 0.78161638E-02 0.12120242E+00
       22 -1    0    0    0    0 0.00000000E+00 0.00000000E+00 0.77476087E+02 0.77476087E+02 0.00000000E+00 0.0000E+00 0.9000E+01
        1 -1    0    0  501    0 -.00000000E+00 -.00000000E+00 -.96216916E+03 0.96216916E+03 0.00000000E+00 0.0000E+00 0.9000E+01
      -24  2    1    2    0    0 0.16008854E+02 -.14911040E+02 -.95889220E+03 0.96228807E+03 0.77752548E+02 0.0000E+00 0.0000E+00
  9900012  1    3    3    0    0 0.33009154E+02 -.12421547E+02 -.63520861E+03 0.63814879E+03 0.50000000E+02 0.0000E+00 0.9000E+01
       11  1    3    3    0    0 -.17000300E+02 -.24894930E+01 -.32368359E+03 0.32413929E+03 0.00000000E+00 0.0000E+00 0.9000E+01
        2  1    1    2  501    0 -.16008854E+02 0.14911040E+02 0.74199126E+02 0.77357177E+02 0.00000000E+00 0.0000E+00 0.9000E+01
#aMCatNLO 1  0  0  5  2 0.40555776D+01 0.00000000D+00  -5  6  0 0.00000000D+00 0.00000000D+00 0.00000000D+00 0.00000000D+00 0.00000000D+00
  <mgrwgt>
 -.2025602066D-03    6    2    0
 0.273029489373627D+03 0.000000000000000D+00 0.000000000000000D+00 0.273029489373627D+03
 0.273029489373627D+03 -.000000000000000D+00 -.000000000000000D+00 -.273029489373627D+03
 0.185847504716111D+03 0.330091540352260D+02 -.124215473212529D+02 -.175486170170842D+03
 0.927175210901518D+02 -.170003004116048D+02 -.248949304834194D+01 -.911116399115952D+02
 0.267493952940991D+03 -.160088536236210D+02 0.149110403695948D+02 0.266597810082437D+03
 0.000000000000000D+00 -.000000000000000D+00 0.000000000000000D+00 0.000000000000000D+00
 0.273029489373627D+03 0.000000000000000D+00 0.000000000000000D+00 0.273029489373627D+03
 0.273029489373627D+03 -.000000000000000D+00 -.000000000000000D+00 -.273029489373627D+03
 0.182619768885401D+03 0.328068020445694D+02 -.122330716956718D+02 -.172116372504926D+03
 0.910826096570855D+02 -.171012383374513D+02 -.239547697932753D+01 -.894307056849727D+02
 0.156889531048019D+03 0.177886993445005D+02 0.323740883096984D+02 0.152478869140003D+03
 0.115467069156749D+03 -.334942630516184D+02 -.177455396346991D+02 0.109068209049896D+03
0.126832515262D-04 0.000000000000D+00 0.000000000000D+00 0.236695829977D-05 0.000000000000D+00  6 22 1 9900012 11 2 21 0 0.11919398D-01 0.14802602D+00 0.25123384D+04 0.25123384D+04 0.25123384D+04 0.12769749D+01  1  2  2  2  6  5        2 0.892595143147D-04 0.100000000000D+01
0.141050177096D-05 0.000000000000D+00 -.243535127187D-07 0.236695829977D-05 0.000000000000D+00  6 22 1 9900012 11 2 21 2 0.11919398D-01 0.14802602D+00 0.25123384D+04 0.25123384D+04 0.25123384D+04 0.12769749D+01  1  2  3  2  6  5        2 0.161868484163D-04 0.100000000000D+01
0.102469535461D-05 0.000000000000D+00 0.000000000000D+00 0.236695829977D-05 0.000000000000D+00  6 22 1 9900012 11 2 21 2 0.11919398D-01 0.14802602D+00 0.25123384D+04 0.25123384D+04 0.25123384D+04 0.12769749D+01  1  2 15  2  6  5        2 0.117593531036D-04 0.100000000000D+01
-.409659965257D-04 0.000000000000D+00 0.000000000000D+00 0.236695829977D-05 0.000000000000D+00  6 22 1 9900012 11 2 21 2 0.11919398D-01 0.14802602D+00 0.25123384D+04 0.25123384D+04 0.25123384D+04 0.12769749D+01  1  2  4  2  6  5        2 -.470123745774D-03 0.100000000000D+01
-.256044817637D-04 0.000000000000D+00 0.000000000000D+00 0.236695829977D-05 0.000000000000D+00  6 22 1 9900012 11 2 21 2 0.11919398D-01 0.14802602D+00 0.25123384D+04 0.25123384D+04 0.25123384D+04 0.12769749D+01  1  2  5  2  6  5        2 -.293835763712D-03 0.100000000000D+01
0.387064748495D-04 0.000000000000D+00 -.000000000000D+00 0.236695829977D-05 0.000000000000D+00  6 22 1 9900012 11 2 21 2 0.11919398D-01 0.14802602D+00 0.25123384D+04 0.25123384D+04 0.25123384D+04 0.12769749D+01  1  2  6  2  6  5        2 0.444193587004D-03 0.100000000000D+01
  </mgrwgt>
  </event>
  <event>
  7     66 0.14626492E-05 0.11211898E+02 0.78161638E-02 0.13366801E+00
       22 -1    0    0    0    0 0.00000000E+00 0.00000000E+00 0.26876629E+02 0.26876629E+02 0.00000000E+00 0.0000E+00 0.9000E+01
        3 -1    0    0  501    0 -.00000000E+00 -.00000000E+00 -.95588213E+02 0.95588213E+02 0.00000000E+00 0.0000E+00 0.9000E+01
      -24  2    1    2    0    0 0.32415592E+01 0.11431544E+02 -.61351924E+02 0.10082499E+03 0.79122891E+02 0.0000E+00 0.0000E+00
  9900012  1    3    3    0    0 -.33990660E+01 -.86164085E+01 -.20481448E+02 0.54820488E+02 0.50000000E+02 0.0000E+00 0.9000E+01
       11  1    3    3    0    0 0.66406252E+01 0.20047953E+02 -.40870476E+02 0.46004501E+02 0.00000000E+00 0.0000E+00 0.9000E+01
        4  1    1    2  502    0 0.43809977E+00 -.49239848E+00 0.48174265E+01 0.48623025E+01 0.00000000E+00 0.0000E+00 0.9000E+01
       21  1    1    2  501  502 -.36796590E+01 -.10939146E+02 -.12177086E+02 0.16777551E+02 0.00000000E+00 0.0000E+00 0.9000E+01
#aMCatNLO 2  0  0  5  2 0.81836465D+01 0.00000000D+00  -5  6  0 0.00000000D+00 0.00000000D+00 0.00000000D+00 0.00000000D+00 0.00000000D+00
  <mgrwgt>
 0.1406421624D-02    2    2    0
 0.506861813424369D+02 0.000000000000000D+00 0.000000000000000D+00 0.506861813424369D+02
 0.506861813424369D+02 -.000000000000000D+00 -.000000000000000D+00 -.506861813424369D+02
 0.513982827783644D+02 -.236137777072994D+01 -.495694134612465D+01 0.105657986011323D+02
 0.301662943232873D+02 0.722117532674161D+01 0.220952959333038D+02 -.192264879195182D+02
 0.198077855832222D+02 -.485979755601167D+01 -.171383545871791D+02 0.866068931838588D+01
 0.000000000000000D+00 0.000000000000000D+00 0.000000000000000D+00 -.000000000000000D+00
 0.506861813424369D+02 0.000000000000000D+00 0.000000000000000D+00 0.506861813424369D+02
 0.506861813424369D+02 -.000000000000000D+00 -.000000000000000D+00 -.506861813424369D+02
 0.523443422524767D+02 -.339906604710958D+01 -.861640852075079D+01 0.124150722936009D+02
 0.278740554820733D+02 0.664062523431730D+01 0.200479527621300D+02 -.181918843323734D+02
 0.913931654607081D+01 0.438099773552816D+00 -.492398475377272D+00 0.911552078924417D+01
 0.120146484042530D+02 -.367965896076053D+01 -.109391457660019D+02 -.333870875047167D+01
-.508146603923D-08 0.000000000000D+00 0.000000000000D+00 0.199850011469D-06 0.000000000000D+00  6 22 3 9900012 11 4 21 2 0.41348661D-02 0.14705879D-01 0.17711636D+04 0.17711636D+04 0.17711636D+04 0.12960408D+01  1  2 13  2  6  5        4 -.275477417212D-05 0.100000000000D+01
0.259937169593D-05 0.000000000000D+00 0.000000000000D+00 0.199850011469D-06 0.384979624769D-05  6 22 3 9900012 11 4 21 2 0.41348661D-02 0.14705879D-01 0.17711636D+04 0.17711636D+04 0.17711636D+04 0.12960408D+01  1  2  1  2  6  5        4 0.140917639838D-02 0.100000000000D+01
  </mgrwgt>
  </event>
  <event>
  6     66 0.14626492E-05 0.10186978E+02 0.78161638E-02 0.13677673E+00
       22 -1    0    0    0    0 0.00000000E+00 0.00000000E+00 0.27070079E+02 0.27070079E+02 0.00000000E+00 0.0000E+00 0.9000E+01
        1 -1    0    0  501    0 0.00000000E+00 0.00000000E+00 -.36259757E+03 0.36259757E+03 0.00000000E+00 0.0000E+00 0.9000E+01
      -24  2    1    2    0    0 0.40035475E+01 -.93672903E+01 -.35680220E+03 0.36607978E+03 0.81257743E+02 0.0000E+00 0.0000E+00
  9900012  1    3    3    0    0 -.30266450E+00 -.18638859E+02 -.15331644E+03 0.16233740E+03 0.50000000E+02 0.0000E+00 0.9000E+01
       11  1    3    3    0    0 0.43062120E+01 0.92715687E+01 -.20348575E+03 0.20374238E+03 0.00000000E+00 0.0000E+00 0.9000E+01
        2  1    1    2  501    0 -.40035475E+01 0.93672903E+01 0.21274706E+02 0.23587871E+02 0.00000000E+00 0.0000E+00 0.9000E+01
#aMCatNLO 1  0  0  2  2 0.58902878D+02 0.00000000D+00  -5  6  0 0.00000000D+00 0.00000000D+00 0.00000000D+00 0.00000000D+00 0.00000000D+00
  <mgrwgt>
 0.1914448941D-03    4    2    0
 0.990734306326953D+02 0.000000000000000D+00 0.000000000000000D+00 0.990734306326953D+02
 0.990734306326953D+02 0.000000000000000D+00 0.000000000000000D+00 -.990734306326953D+02
 0.596312756692145D+02 -.302664499368784D+00 -.186388589869451D+02 -.266156038406694D+02
 0.561035866866657D+02 0.430621204538609D+01 0.927156870075938D+01 -.551643634129451D+02
 0.824119989095105D+02 -.400354754601731D+01 0.936729028618571D+01 0.817799672536145D+02
 0.000000000000000D+00 -.000000000000000D+00 0.000000000000000D+00 0.000000000000000D+00
 0.127627259291861D+03 0.000000000000000D+00 0.000000000000000D+00 0.127627259291861D+03
 0.108555775674018D+03 0.000000000000000D+00 0.000000000000000D+00 -.108555775674018D+03
 0.631645475925711D+02 -.241646526688422D+00 -.279519464747423D+02 -.266156038406694D+02
 0.553425844286350D+02 0.436159030861861D+01 0.819262146617696D+00 -.551643634129451D+02
 0.819325040460337D+02 -.392188378803972D+01 -.309693442038739D+01 0.817799672536145D+02
 0.357433988986389D+02 -.198059993890464D+00 0.302296187485120D+02 0.190714836178429D+02
0.208041608647D-05 0.000000000000D+00 0.000000000000D+00 0.428371344365D-05 0.000000000000D+00  6 22 1 9900012 11 2 21 0 0.41646275D-02 0.55784241D-01 0.13605669D+04 0.13605669D+04 0.13605669D+04 0.13110252D+01  1  2  2  1  6  2        1 0.224430930526D-03 0.100000000000D+01
-.386251482902D-07 0.000000000000D+00 -.399467277909D-08 0.428371344365D-05 0.000000000000D+00  6 22 1 9900012 11 2 21 2 0.41646275D-02 0.55784241D-01 0.13605669D+04 0.13605669D+04 0.13605669D+04 0.13110252D+01  1  2  3  1  6  2        1 -.716184214689D-05 0.100000000000D+01
0.109592540343D-06 0.000000000000D+00 0.000000000000D+00 0.428371344365D-05 0.000000000000D+00  6 22 1 9900012 11 2 21 2 0.41646275D-02 0.55784241D-01 0.13605669D+04 0.13605669D+04 0.13605669D+04 0.13110252D+01  1  2 15  1  6  2        1 0.203205556265D-04 0.100000000000D+01
-.248867228543D-06 0.000000000000D+00 0.000000000000D+00 0.428371344365D-05 0.000000000000D+00  6 22 1 9900012 11 2 21 2 0.41646275D-02 0.55784241D-01 0.13605669D+04 0.13605669D+04 0.13605669D+04 0.13110252D+01  1  2  4  1  6  2        1 -.461447498652D-04 0.100000000000D+01
  </mgrwgt>
  </event>
  <event>
  7     66 0.14626492E-05 0.10913003E+02 0.78161638E-02 0.13573044E+00
       22 -1    0    0    0    0 0.00000000E+00 0.00000000E+00 0.40577055E+02 0.40577055E+02 0.00000000E+00 0.0000E+00 0.9000E+01
       21 -1    0    0  501  502 0.00000000E+00 0.00000000E+00 -.64255996E+02 0.64255996E+02 0.00000000E+00 0.0000E+00 0.9000E+01
      -24  2    1    2    0    0 0.17242286E+01 0.10871869E+02 -.10147594E+02 0.82602805E+02 0.81234717E+02 0.0000E+00 0.0000E+00
  9900012  1    3    3    0    0 0.66825939E+01 0.21087290E+02 0.13546790E+02 0.56328025E+02 0.50000000E+02 0.0000E+00 0.9000E+01
       11  1    3    3    0    0 -.49583652E+01 -.10215421E+02 -.23694384E+02 0.26274780E+02 0.00000000E+00 0.0000E+00 0.9000E+01
        4  1    1    2  501    0 0.54043233E-01 -.62756820E-01 0.26709820E+01 0.26722657E+01 0.00000000E+00 0.0000E+00 0.9000E+01
       -3  1    1    2    0  502 -.17782718E+01 -.10809113E+02 -.16202328E+02 0.19557981E+02 0.00000000E+00 0.0000E+00 0.9000E+01
#aMCatNLO 2  0  0  2  5 0.61849650D+01 0.00000000D+00  -5  6  0 0.00000000D+00 0.00000000D+00 0.00000000D+00 0.00000000D+00 0.00000000D+00
  <mgrwgt>
 0.5745085571D-01    1    2    0
 0.421186975834263D+02 0.000000000000000D+00 0.000000000000000D+00 0.421186975834263D+02
 0.421186975834263D+02 0.000000000000000D+00 0.000000000000000D+00 -.421186975834263D+02
 0.553773299641587D+02 0.549365215787544D+01 0.138603834113216D+02 0.185568917553222D+02
 0.259109025256060D+02 -.548602972925322D+01 -.134227957764681D+02 -.214733998482876D+02
 0.294916267708775D+01 -.762242862221989D-02 -.437587634853493D+00 0.291650809296539D+01
 0.000000000000000D+00 -.000000000000000D+00 -.000000000000000D+00 -.000000000000000D+00
 0.443053253350329D+02 0.000000000000000D+00 0.000000000000000D+00 0.443053253350329D+02
 0.588488873585009D+02 0.000000000000000D+00 0.000000000000000D+00 -.588488873585009D+02
 0.577381078239285D+02 0.668259385112130D+01 0.210872900793298D+02 0.185568917553222D+02
 0.242908852709390D+02 -.495836524990414D+01 -.102154207084206D+02 -.214733998482876D+02
 0.291768376386334D+01 0.540432332707714D-01 -.627568204802924D-01 0.291650809296539D+01
 0.182075358348029D+02 -.177827183448794D+01 -.108091125504289D+02 -.145435620234680D+02
0.552336217627D-05 0.000000000000D+00 0.000000000000D+00 0.440421139696D-04 0.410854227134D-05  6 22 21 9900012 11 4 -3 2 0.62426239D-02 0.98855378D-02 0.14848380D+04 0.14848380D+04 0.14848380D+04 0.13060012D+01  1  2  1  3  6  2        3 0.574508557093D-01 0.100000000000D+01
  </mgrwgt>
  </event>
  <event>
  7     66 0.14626492E-05 0.78355894E+02 0.78161638E-02 0.11094828E+00
       22 -1    0    0    0    0 0.00000000E+00 0.00000000E+00 0.63090612E+02 0.63090612E+02 0.00000000E+00 0.0000E+00 0.9000E+01
        1 -1    0    0  501    0 -.00000000E+00 -.00000000E+00 -.34658735E+03 0.34658735E+03 0.00000000E+00 0.0000E+00 0.9000E+01
      -24  2    1    2    0    0 -.77961688E+02 0.83486703E+02 -.20734432E+03 0.24931924E+03 0.78232744E+02 0.0000E+00 0.0000E+00
  9900012  1    3    3    0    0 -.49556943E+02 0.29908743E+02 -.98363489E+02 0.12460257E+03 0.50000000E+02 0.0000E+00 0.9000E+01
       11  1    3    3    0    0 -.28404745E+02 0.53577960E+02 -.10898083E+03 0.12471667E+03 0.00000000E+00 0.0000E+00 0.9000E+01
        2  1    1    2  502    0 0.40778728E+02 0.84587049E+01 -.17838398E+02 0.45306322E+02 0.00000000E+00 0.0000E+00 0.9000E+01
       21  1    1    2  501  502 0.37182959E+02 -.91945408E+02 -.58314027E+02 0.11505241E+03 0.00000000E+00 0.0000E+00 0.9000E+01
#aMCatNLO 2  0  0  5  2 0.38195386D+02 0.00000000D+00  -5  6  0 0.00000000D+00 0.00000000D+00 0.00000000D+00 0.00000000D+00 0.00000000D+00
  <mgrwgt>
 0.2649422836D-05    2    2    0
 0.147872946504272D+03 0.000000000000000D+00 0.000000000000000D+00 0.147872946504272D+03
 0.147872946504272D+03 -.000000000000000D+00 -.000000000000000D+00 -.147872946504272D+03
 0.837697793308337D+02 -.540816373161881D+02 0.347540950432453D+02 -.196139060888424D+02
 0.744504996875257D+02 -.323895829784683D+02 0.578451969121546D+02 -.338780904479169D+02
 0.137525613990184D+03 0.864712202946565D+02 -.925992919553999D+02 0.534919965367593D+02
 0.000000000000000D+00 0.000000000000000D+00 -.000000000000000D+00 0.000000000000000D+00
 0.147872946504272D+03 0.000000000000000D+00 0.000000000000000D+00 0.147872946504272D+03
 0.147872946504272D+03 -.000000000000000D+00 -.000000000000000D+00 -.147872946504272D+03
 0.783145183904837D+02 -.495569428900407D+02 0.299087430434923D+02 -.168148830410744D+02
 0.682949896865727D+02 -.284047446615626D+02 0.535779597268246D+02 -.314130280060880D+02
 0.456603944895189D+02 0.407787281716919D+02 0.845870493947149D+01 0.187194354718487D+02
 0.103475990441968D+03 0.371829593799114D+02 -.919454077097884D+02 0.295084755753137D+02
-.145972019925D-06 0.000000000000D+00 0.000000000000D+00 0.856550508104D-07 0.000000000000D+00  6 22 1 9900012 11 2 21 2 0.97062480D-02 0.53321131D-01 0.19314874D+05 0.19314874D+05 0.19314874D+05 0.11807698D+01  1  2 13  2  6  5        2 -.881990316720D-05 0.100000000000D+01
0.189820755645D-06 0.000000000000D+00 0.000000000000D+00 0.856550508104D-07 0.886359164821D-10  6 22 1 9900012 11 2 21 2 0.97062480D-02 0.53321131D-01 0.19314874D+05 0.19314874D+05 0.19314874D+05 0.11807698D+01  1  2  1  2  6  5        2 0.114693260036D-04 0.100000000000D+01
  </mgrwgt>
  </event>
  <event>
  6     66 0.14626492E-05 0.20624787E+02 0.78161638E-02 0.12795618E+00
       22 -1    0    0    0    0 0.00000000E+00 0.00000000E+00 0.63683815E+02 0.63683815E+02 0.00000000E+00 0.0000E+00 0.9000E+01
        3 -1    0    0  501    0 0.00000000E+00 0.00000000E+00 -.41303676E+02 0.41303676E+02 0.00000000E+00 0.0000E+00 0.9000E+01
      -24  2    1    2    0    0 0.20231550E+02 0.40082713E+01 0.99506209E+01 0.80906902E+02 0.77598519E+02 0.0000E+00 0.0000E+00
  9900012  1    3    3    0    0 0.58333311E+01 0.23889330E+02 0.59691035E+01 0.56038897E+02 0.50000000E+02 0.0000E+00 0.9000E+01
       11  1    3    3    0    0 0.14398218E+02 -.19881058E+02 0.39815174E+01 0.24868005E+02 0.00000000E+00 0.0000E+00 0.9000E+01
        4  1    1    2  501    0 -.20231550E+02 -.40082713E+01 0.12429518E+02 0.24080589E+02 0.00000000E+00 0.0000E+00 0.9000E+01
#aMCatNLO 1  0  0  2  5 0.88156957D+01 0.00000000D+00  -5  6  0 0.00000000D+00 0.00000000D+00 0.00000000D+00 0.00000000D+00 0.00000000D+00
  <mgrwgt>
 0.2530131063D-04   11    2    0
 0.512871879963301D+02 0.000000000000000D+00 0.000000000000000D+00 0.512871879963301D+02
 0.512871879963301D+02 0.000000000000000D+00 0.000000000000000D+00 -.512871879963301D+02
 0.560548753547614D+02 0.583333114959647D+01 0.238893296226068D+02 -.611728934409851D+01
 0.245843317933783D+02 0.143982183520102D+02 -.198810583326712D+02 -.135062858983336D+01
 0.219351688445205D+02 -.202315495016066D+02 -.400827128993555D+01 0.746791793393188D+01
 0.000000000000000D+00 -.000000000000000D+00 -.000000000000000D+00 -.000000000000000D+00
 0.532023472053484D+02 0.000000000000000D+00 0.000000000000000D+00 0.532023472053484D+02
 0.604782443676863D+02 0.000000000000000D+00 0.000000000000000D+00 -.604782443676863D+02
 0.578179239099866D+02 0.908065386279578D+01 0.268892696398707D+02 -.611728934409851D+01
 0.244318839444299D+02 0.157960189831372D+02 -.185897428645688D+02 -.135062858983336D+01
 0.206342487267530D+02 -.190175928986301D+02 -.288679451841284D+01 0.746791793393188D+01
 0.107965349918652D+02 -.585907994730283D+01 -.541273225688913D+01 -.727589716233788D+01
0.442729628487D-07 0.000000000000D+00 0.000000000000D+00 0.225424590147D-07 0.000000000000D+00  6 22 3 9900012 11 4 21 0 0.97975100D-02 0.63544117D-02 0.25448027D+04 0.25448027D+04 0.25448027D+04 0.12762913D+01  1  2  2  1  6  2        3 0.172271960115D-04 0.100000000000D+01
-.596135192954D-09 0.000000000000D+00 -.850099173389D-10 0.225424590147D-07 0.000000000000D+00  6 22 3 9900012 11 4 21 2 0.97975100D-02 0.63544117D-02 0.25448027D+04 0.25448027D+04 0.25448027D+04 0.12762913D+01  1  2  3  1  6  2        3 -.377850819557D-06 0.100000000000D+01
0.383568669400D-09 0.000000000000D+00 0.000000000000D+00 0.225424590147D-07 0.000000000000D+00  6 22 3 9900012 11 4 21 2 0.97975100D-02 0.63544117D-02 0.25448027D+04 0.25448027D+04 0.25448027D+04 0.12762913D+01  1  2 15  1  6  2        3 0.243118906252D-06 0.100000000000D+01
0.708806040016D-07 0.000000000000D+00 0.000000000000D+00 0.225424590147D-07 0.000000000000D+00  6 22 3 9900012 11 4 21 2 0.97975100D-02 0.77729798D-02 0.29757021D+04 0.29757021D+04 0.29757021D+04 0.12680476D+01  1  2 12  1  6  2        3 0.332877611034D-04 0.100000000000D+01
-.579423524312D-07 0.000000000000D+00 0.000000000000D+00 0.225424590147D-07 0.000000000000D+00  6 22 3 9900012 11 4 21 2 0.97975100D-02 0.63544117D-02 0.25448027D+04 0.25448027D+04 0.25448027D+04 0.12762913D+01  1  2  4  1  6  2        3 -.367258393935D-04 0.100000000000D+01
-.134339074872D-06 0.000000000000D+00 -.257048701370D-07 0.225424590147D-07 0.000000000000D+00  6 22 3 9900012 11 4 21 2 0.97975100D-02 0.77622822D-02 0.25448027D+04 0.25448027D+04 0.25448027D+04 0.12762913D+01  1  2  5  1  6  2        3 -.627333079324D-04 0.100000000000D+01
0.137232294719D-06 0.000000000000D+00 0.251985716583D-07 0.225424590147D-07 0.000000000000D+00  6 22 3 9900012 11 4 21 2 0.97975100D-02 0.63544117D-02 0.25448027D+04 0.25448027D+04 0.25448027D+04 0.12762913D+01  1  2  6  1  6  2        3 0.869825094074D-04 0.100000000000D+01
0.230632333956D-10 0.000000000000D+00 0.000000000000D+00 0.225424590147D-07 0.540036304760D-08  6 22 3 9900012 11 4 21 2 0.10163367D-01 0.74931708D-02 0.29757021D+04 0.29757021D+04 0.29757021D+04 0.12680476D+01  1  2 11  1  6  2        3 0.108866011404D-07 0.100000000000D+01
0.204005986743D-08 0.000000000000D+00 0.000000000000D+00 0.225424590147D-07 0.000000000000D+00  6 22 21 9900012 11 4 -3 2 0.97975100D-02 0.77729798D-02 0.29757021D+04 0.29757021D+04 0.29757021D+04 0.12680476D+01  1  2 12  3  6  2        3 0.171825139283D-04 0.100000000000D+01
-.354987360409D-08 0.000000000000D+00 -.735950002050D-09 0.225424590147D-07 0.000000000000D+00  6 22 21 9900012 11 4 -3 2 0.97975100D-02 0.77622822D-02 0.25448027D+04 0.25448027D+04 0.25448027D+04 0.12762913D+01  1  2  5  3  6  2        3 -.298039810257D-04 0.100000000000D+01
0.978791450812D-12 0.000000000000D+00 0.000000000000D+00 0.225424590147D-07 0.889739676797D-10  6 22 21 9900012 11 4 -3 2 0.10163367D-01 0.74931708D-02 0.29757021D+04 0.29757021D+04 0.29757021D+04 0.12680476D+01  1  2 11  3  6  2        3 0.830384040843D-08 0.100000000000D+01
  </mgrwgt>
  </event>
  <event>
  6     66 0.14626492E-05 0.40528871E+02 0.78161638E-02 0.12355921E+00
       22 -1    0    0    0    0 0.00000000E+00 0.00000000E+00 0.46747127E+02 0.46747127E+02 0.00000000E+00 0.0000E+00 0.9000E+01
        1 -1    0    0  501    0 0.00000000E+00 0.00000000E+00 -.18364534E+03 0.18364534E+03 0.00000000E+00 0.0000E+00 0.9000E+01
      -24  2    1    2    0    0 0.39435863E+02 -.10149211E+02 -.19988792E+01 0.89481063E+02 0.79653446E+02 0.0000E+00 0.0000E+00
  9900012  1    3    3    0    0 0.51976130E+02 -.42332892E+01 -.10813968E+02 0.73050536E+02 0.50000000E+02 0.0000E+00 0.9000E+01
       11  1    3    3    0    0 -.12540268E+02 -.59159215E+01 0.88150891E+01 0.16430528E+02 0.00000000E+00 0.0000E+00 0.9000E+01
        2  1    1    2  501    0 -.39435863E+02 0.10149211E+02 -.13489934E+03 0.14091141E+03 0.00000000E+00 0.0000E+00 0.9000E+01
#aMCatNLO 1  0  0  2  5 0.78989705D+01 0.00000000D+00  -5  6  0 0.00000000D+00 0.00000000D+00 0.00000000D+00 0.00000000D+00 0.00000000D+00
  <mgrwgt>
 0.1327473798D-03   11    2    0
 0.926546939255709D+02 0.000000000000000D+00 0.000000000000000D+00 0.926546939255709D+02
 0.926546939255709D+02 0.000000000000000D+00 0.000000000000000D+00 -.926546939255709D+02
 0.828337985729955D+02 0.519761303530304D+02 -.423328922424852D+01 0.405215908115691D+02
 0.269400264769251D+02 -.125402676210364D+02 -.591592151803126D+01 0.230978048126376D+02
 0.755355628012211D+02 -.394358627319940D+02 0.101492107422798D+02 -.636193956242068D+02
 0.000000000000000D+00 0.000000000000000D+00 0.000000000000000D+00 -.000000000000000D+00
 0.933935022838284D+02 0.000000000000000D+00 0.000000000000000D+00 0.933935022838284D+02
 0.115643488404516D+03 0.000000000000000D+00 0.000000000000000D+00 -.115643488404516D+03
 0.820343496470949D+02 0.503458319995030D+02 -.727546564828596D+01 0.405215908115691D+02
 0.274301871498774D+02 -.130779073696092D+02 -.691917037993109D+01 0.230978048126376D+02
 0.760073516092280D+02 -.409343945376784D+02 0.735291390491885D+01 -.636193956242068D+02
 0.235651022821439D+02 0.366646990778458D+01 0.684172212329819D+01 -.222499861206875D+02
0.148540175623D-06 0.000000000000D+00 0.000000000000D+00 0.103554792226D-05 0.000000000000D+00  6 22 1 9900012 11 2 21 0 0.71918658D-02 0.28253130D-01 0.40216059D+04 0.40216059D+04 0.40216059D+04 0.12526363D+01  1  2  2  1  6  2        1 0.192534141339D-04 0.100000000000D+01
0.374529719284D-08 0.000000000000D+00 -.285216692960D-09 0.103554792226D-05 0.000000000000D+00  6 22 1 9900012 11 2 21 2 0.71918658D-02 0.28253130D-01 0.40216059D+04 0.40216059D+04 0.40216059D+04 0.12526363D+01  1  2  3  1  6  2        1 0.761728310855D-06 0.100000000000D+01
-.259945315510D-08 0.000000000000D+00 0.000000000000D+00 0.103554792226D-05 0.000000000000D+00  6 22 1 9900012 11 2 21 2 0.71918658D-02 0.28253130D-01 0.40216059D+04 0.40216059D+04 0.40216059D+04 0.12526363D+01  1  2 15  1  6  2        1 -.528683562087D-06 0.100000000000D+01
0.110020223288D-05 0.000000000000D+00 0.000000000000D+00 0.103554792226D-05 0.000000000000D+00  6 22 1 9900012 11 2 21 2 0.71918658D-02 0.35544267D-01 0.45883636D+04 0.45883636D+04 0.45883636D+04 0.12460702D+01  1  2 12  1  6  2        1 0.169011150879D-03 0.100000000000D+01
-.549063305386D-06 0.000000000000D+00 0.000000000000D+00 0.103554792226D-05 0.000000000000D+00  6 22 1 9900012 11 2 21 2 0.71918658D-02 0.28253130D-01 0.40216059D+04 0.40216059D+04 0.40216059D+04 0.12526363D+01  1  2  4  1  6  2        1 -.111669927012D-03 0.100000000000D+01
-.121981390761D-05 0.000000000000D+00 -.759603544695D-07 0.103554792226D-05 0.000000000000D+00  6 22 1 9900012 11 2 21 2 0.71918658D-02 0.35426869D-01 0.40216059D+04 0.40216059D+04 0.40216059D+04 0.12526363D+01  1  2  5  1  6  2        1 -.188030760218D-03 0.100000000000D+01
0.120785394530D-05 0.000000000000D+00 0.740565372752D-07 0.103554792226D-05 0.000000000000D+00  6 22 1 9900012 11 2 21 2 0.71918658D-02 0.28253130D-01 0.40216059D+04 0.40216059D+04 0.40216059D+04 0.12526363D+01  1  2  6  1  6  2        1 0.245656485490D-03 0.100000000000D+01
0.353729358964D-08 0.000000000000D+00 0.000000000000D+00 0.103554792226D-05 0.823851223669D-07  6 22 1 9900012 11 2 21 2 0.72492121D-02 0.35263087D-01 0.45883636D+04 0.45883636D+04 0.45883636D+04 0.12460702D+01  1  2 11  1  6  2        1 0.542714807685D-06 0.100000000000D+01
0.349503493921D-07 0.000000000000D+00 0.000000000000D+00 0.103554792226D-05 0.000000000000D+00  6 22 21 9900012 11 2 -1 2 0.71918658D-02 0.35544267D-01 0.45883636D+04 0.45883636D+04 0.45883636D+04 0.12460702D+01  1  2 12  3  6  2        1 0.327312404853D-04 0.100000000000D+01
-.372522003256D-07 0.000000000000D+00 -.238695774383D-08 0.103554792226D-05 0.000000000000D+00  6 22 21 9900012 11 2 -1 2 0.71918658D-02 0.35426869D-01 0.40216059D+04 0.40216059D+04 0.40216059D+04 0.12526363D+01  1  2  5  3  6  2        1 -.351846434038D-04 0.100000000000D+01
0.217619295777D-09 0.000000000000D+00 0.000000000000D+00 0.103554792226D-05 0.444025667246D-08  6 22 21 9900012 11 2 -1 2 0.72492121D-02 0.35263087D-01 0.45883636D+04 0.45883636D+04 0.45883636D+04 0.12460702D+01  1  2 11  3  6  2        1 0.204659902618D-06 0.100000000000D+01
  </mgrwgt>
  </event>
  <event>
  6     66 0.14626492E-05 0.29244823E+02 0.78161638E-02 0.12198834E+00
       22 -1    0    0    0    0 0.00000000E+00 0.00000000E+00 0.55262319E+03 0.55262319E+03 0.00000000E+00 0.0000E+00 0.9000E+01
        1 -1    0    0  501    0 0.00000000E+00 0.00000000E+00 -.18125665E+02 0.18125665E+02 0.00000000E+00 0.0000E+00 0.9000E+01
      -24  2    1    2    0    0 0.20639028E+01 0.52472511E+02 0.49734903E+03 0.50642440E+03 0.79699435E+02 0.0000E+00 0.0000E+00
  9900012  1    3    3    0    0 0.54369331E+01 0.62350115E+02 0.47561569E+03 0.48231460E+03 0.50000000E+02 0.0000E+00 0.9000E+01
       11  1    3    3    0    0 -.33730303E+01 -.98776040E+01 0.21733340E+02 0.24109800E+02 0.00000000E+00 0.0000E+00 0.9000E+01
        2  1    1    2  501    0 -.20639028E+01 -.52472511E+02 0.37148505E+02 0.64324455E+02 0.00000000E+00 0.0000E+00 0.9000E+01
#aMCatNLO 1  0  0  2  5 0.39291580D+01 0.00000000D+00  -5  6  0 0.00000000D+00 0.00000000D+00 0.00000000D+00 0.00000000D+00 0.00000000D+00
  <mgrwgt>
 0.1802104077D-04    9    2    0
 0.100083278497785D+03 0.000000000000000D+00 0.000000000000000D+00 0.100083278497785D+03
 0.100083278497785D+03 0.000000000000000D+00 0.000000000000000D+00 -.100083278497785D+03
 0.105237863948557D+03 0.543693310467379D+01 0.623501151027418D+02 0.682488894674869D+02
 0.107122008348445D+02 -.337303028847715D+01 -.987760399718855D+01 -.240974120473224D+01
 0.842164922121677D+02 -.206390281619665D+01 -.524725111055532D+02 -.658391482627546D+02
 0.000000000000000D+00 -.000000000000000D+00 -.000000000000000D+00 -.000000000000000D+00
 0.100111469912207D+03 0.000000000000000D+00 0.000000000000000D+00 0.100111469912207D+03
 0.533053566929994D+03 0.000000000000000D+00 0.000000000000000D+00 -.533053566929994D+03
 0.105901769607775D+03 0.728938316222790D+01 0.632782647172577D+02 0.682488894674869D+02
 0.105682210398722D+02 -.318632484591003D+01 -.978405730002388D+01 -.240974120473224D+01
 0.837351219981035D+02 -.590366217834058D+00 -.517342118892434D+02 -.658391482627546D+02
 0.432959924196450D+03 -.351269209848381D+01 -.175999552799044D+01 -.432942097017786D+03
0.727467882719D-08 0.000000000000D+00 0.000000000000D+00 0.154141947709D-05 0.000000000000D+00  6 22 1 9900012 11 2 21 0 0.85018953D-01 0.27885638D-02 0.51163631D+04 0.51163631D+04 0.51163631D+04 0.12407221D+01  1  2  2  1  6  2        1 0.427704402688D-06 0.100000000000D+01
0.683922748479D-10 0.000000000000D+00 -.139683410817D-10 0.154141947709D-05 0.000000000000D+00  6 22 1 9900012 11 2 21 2 0.85018953D-01 0.27885638D-02 0.51163631D+04 0.51163631D+04 0.51163631D+04 0.12407221D+01  1  2  3  1  6  2        1 0.618993314431D-08 0.100000000000D+01
-.634323015950D-10 0.000000000000D+00 0.000000000000D+00 0.154141947709D-05 0.000000000000D+00  6 22 1 9900012 11 2 21 2 0.85018953D-01 0.27885638D-02 0.51163631D+04 0.51163631D+04 0.51163631D+04 0.12407221D+01  1  2 15  1  6  2        1 -.574102421561D-08 0.100000000000D+01
0.107843815894D-05 0.000000000000D+00 0.000000000000D+00 0.154141947709D-05 0.000000000000D+00  6 22 1 9900012 11 2 21 2 0.85018953D-01 0.14856354D-01 0.53973517D+04 0.53973517D+04 0.53973517D+04 0.12381239D+01  1  2 12  1  6  2        1 0.108094898576D-04 0.100000000000D+01
-.116610775283D-04 0.000000000000D+00 -.255818733177D-08 0.154141947709D-05 0.000000000000D+00  6 22 1 9900012 11 2 21 2 0.85018953D-01 0.14852856D-01 0.51163631D+04 0.51163631D+04 0.51163631D+04 0.12407221D+01  1  2  5  1  6  2        1 -.116960371324D-03 0.100000000000D+01
0.112351456872D-04 0.000000000000D+00 0.000000000000D+00 0.154141947709D-05 0.238750777586D-05  6 22 1 9900012 11 2 21 2 0.85042901D-01 0.14852170D-01 0.53973517D+04 0.53973517D+04 0.53973517D+04 0.12381239D+01  1  2 11  1  6  2        1 0.112594626192D-03 0.100000000000D+01
0.220560067949D-06 0.000000000000D+00 0.000000000000D+00 0.154141947709D-05 0.000000000000D+00  6 22 21 9900012 11 2 -1 2 0.85018953D-01 0.14856354D-01 0.53973517D+04 0.53973517D+04 0.53973517D+04 0.12381239D+01  1  2 12  3  6  2        1 0.218978256675D-04 0.100000000000D+01
-.238464716354D-05 0.000000000000D+00 -.523117059410D-09 0.154141947709D-05 0.000000000000D+00  6 22 21 9900012 11 2 -1 2 0.85018953D-01 0.14852856D-01 0.51163631D+04 0.51163631D+04 0.51163631D+04 0.12407221D+01  1  2  5  3  6  2        1 -.237078889049D-03 0.100000000000D+01
0.227973937160D-05 0.000000000000D+00 0.000000000000D+00 0.154141947709D-05 0.484446642330D-06  6 22 21 9900012 11 2 -1 2 0.85042901D-01 0.14852170D-01 0.53973517D+04 0.53973517D+04 0.53973517D+04 0.12381239D+01  1  2 11  3  6  2        1 0.226330206115D-03 0.100000000000D+01
  </mgrwgt>
  </event>
  <event>
  7     66 0.14626492E-05 0.37347054E+02 0.78161638E-02 0.12303889E+00
       22 -1    0    0    0    0 0.00000000E+00 0.00000000E+00 0.23999911E+03 0.23999911E+03 0.00000000E+00 0.0000E+00 0.9000E+01
       21 -1    0    0  501  502 0.00000000E+00 0.00000000E+00 -.52031276E+02 0.52031276E+02 0.00000000E+00 0.0000E+00 0.9000E+01
      -24  2    1    2    0    0 -.86319819E+01 0.35785625E+02 0.42717681E+01 0.87498479E+02 0.79262941E+02 0.0000E+00 0.0000E+00
  9900012  1    3    3    0    0 0.79465610E+01 0.45535204E+02 0.47669510E+01 0.68259259E+02 0.50000000E+02 0.0000E+00 0.9000E+01
       11  1    3    3    0    0 -.16578543E+02 -.97495789E+01 -.49518288E+00 0.19239220E+02 0.00000000E+00 0.0000E+00 0.9000E+01
        4  1    1    2  501    0 0.72465898E+01 0.63592861E+01 0.15064970E+03 0.15095789E+03 0.00000000E+00 0.0000E+00 0.9000E+01
       -3  1    1    2    0  502 0.13853921E+01 -.42144912E+02 0.33046372E+02 0.53574020E+02 0.00000000E+00 0.0000E+00 0.9000E+01
#aMCatNLO 2  0  0  2  2 0.58350378D+02 0.00000000D+00  -5  6  0 0.00000000D+00 0.00000000D+00 0.00000000D+00 0.00000000D+00 0.00000000D+00
  <mgrwgt>
 0.2350604812D-04    1    2    0
 0.881513859261881D+02 0.000000000000000D+00 0.000000000000000D+00 0.881513859261881D+02
 0.881513859261881D+02 0.000000000000000D+00 0.000000000000000D+00 -.881513859261881D+02
 0.773117975028797D+02 0.857819504996829D+01 0.263203123117261D+02 -.520650531798842D+02
 0.286572712965134D+02 -.163678217129699D+02 -.161599140082232D+02 -.170935891427527D+02
 0.703337030529831D+02 0.778962666300165D+01 -.101603983035029D+02 0.691586423226369D+02
 0.000000000000000D+00 0.000000000000000D+00 -.000000000000000D+00 -.000000000000000D+00
 0.110595813231380D+03 0.000000000000000D+00 0.000000000000000D+00 0.110595813231380D+03
 0.112910786367869D+03 0.000000000000000D+00 0.000000000000000D+00 -.112910786367869D+03
 0.857168153194585D+02 0.794656102542911D+01 0.455352043341754D+02 -.520650531798842D+02
 0.257311710578120D+02 -.165785429485736D+02 -.974957885897891D+01 -.170935891427527D+02
 0.698274401021264D+02 0.724658979724882D+01 0.635928609326864D+01 0.691586423226369D+02
 0.422311731198520D+02 0.138539212589571D+01 -.421449115684652D+02 -.231497313648939D+01
0.205269265178D-07 0.000000000000D+00 0.000000000000D+00 0.109161052946D-05 0.536836756138D-09  6 22 21 9900012 11 4 -3 2 0.36922941D-01 0.80048117D-02 0.48395932D+04 0.48395932D+04 0.48395932D+04 0.12434437D+01  1  2  1  3  6  2        3 0.235060481196D-04 0.100000000000D+01
  </mgrwgt>
  </event>
  <event>
  6     66 0.14626492E-05 0.14694329E+02 0.78161638E-02 0.10564212E+00
       22 -1    0    0    0    0 0.00000000E+00 0.00000000E+00 0.71984173E+03 0.71984173E+03 0.00000000E+00 0.0000E+00 0.9000E+01
        1 -1    0    0  501    0 0.00000000E+00 0.00000000E+00 -.38884321E+02 0.38884321E+02 0.00000000E+00 0.0000E+00 0.9000E+01
      -24  2    1    2    0    0 -.10908977E+01 0.14653779E+02 0.39654765E+01 0.81574664E+02 0.80142233E+02 0.0000E+00 0.0000E+00
  9900012  1    3    3    0    0 0.15865741E+02 -.10133738E+01 0.16887899E+02 0.55117600E+02 0.50000000E+02 0.0000E+00 0.9000E+01
       11  1    3    3    0    0 -.16956638E+02 0.15667153E+02 -.12922423E+02 0.26457065E+02 0.00000000E+00 0.0000E+00 0.9000E+01
        2  1    1    2  501    0 0.10908977E+01 -.14653779E+02 0.67699193E+03 0.67715139E+03 0.00000000E+00 0.0000E+00 0.9000E+01
#aMCatNLO 1  0  0  2  5 0.13032357D+02 0.00000000D+00  -5  6  0 0.00000000D+00 0.00000000D+00 0.00000000D+00 0.00000000D+00 0.00000000D+00
  <mgrwgt>
 0.9508329575D-04    5    2    0
 0.167303786051742D+03 0.000000000000000D+00 0.000000000000000D+00 0.167303786051742D+03
 0.167303786051742D+03 0.000000000000000D+00 0.000000000000000D+00 -.167303786051742D+03
 0.906112751575791D+02 0.158657407880979D+02 -.101337378966256D+01 -.738759401191607D+02
 0.862899887908453D+02 -.169566384972555D+02 0.156671526490278D+02 -.831443016945218D+02
 0.157706308155059D+03 0.109089770915763D+01 -.146537788593652D+02 0.157020241813683D+03
 0.000000000000000D+00 -.000000000000000D+00 -.000000000000000D+00 -.000000000000000D+00
 0.245554821883342D+03 0.000000000000000D+00 0.000000000000000D+00 0.245554821883342D+03
 0.352703474210791D+03 0.000000000000000D+00 0.000000000000000D+00 -.352703474210791D+03
 0.111993133106543D+03 0.660016124156982D+02 0.151193416873250D+02 -.738759401191607D+02
 0.924729264770451D+02 0.272794896720921D+02 0.299014492991486D+02 -.831443016945218D+02
 0.178641358609847D+03 0.843224699520719D+02 0.121284676660562D+02 0.157020241813683D+03
 0.215150877900697D+03 -.177603572039862D+03 -.571492586525299D+02 -.107148652327449D+03
0.449715659755D-05 0.000000000000D+00 0.000000000000D+00 0.176677828234D-04 0.000000000000D+00  6 22 1 9900012 11 2 21 0 0.11074488D+00 0.59822032D-02 0.20361523D+04 0.20361523D+04 0.20361523D+04 0.12883281D+01  1  2  2  1  6  2        1 0.526743985996D-04 0.100000000000D+01
0.147852715696D-06 0.000000000000D+00 -.863513273156D-08 0.176677828234D-04 0.000000000000D+00  6 22 1 9900012 11 2 21 2 0.11074488D+00 0.59822032D-02 0.20361523D+04 0.20361523D+04 0.20361523D+04 0.12883281D+01  1  2  3  1  6  2        1 0.287437765953D-05 0.100000000000D+01
0.370942258609D-06 0.000000000000D+00 0.000000000000D+00 0.176677828234D-04 0.000000000000D+00  6 22 1 9900012 11 2 21 2 0.11074488D+00 0.59822032D-02 0.20361523D+04 0.20361523D+04 0.20361523D+04 0.12883281D+01  1  2 15  1  6  2        1 0.721142074462D-05 0.100000000000D+01
0.297639033867D-05 0.000000000000D+00 -.117245955559D-05 0.176677828234D-04 0.000000000000D+00  6 22 1 9900012 11 2 21 2 0.11074488D+00 0.18509160D-01 0.20361523D+04 0.20361523D+04 0.20361523D+04 0.12883281D+01  1  2  5  1  6  2        1 0.138343550123D-04 0.100000000000D+01
0.439751629144D-06 0.000000000000D+00 -.151555640649D-06 0.176677828234D-04 0.000000000000D+00  6 22 21 9900012 11 2 -1 2 0.11074488D+00 0.18509160D-01 0.20361523D+04 0.20361523D+04 0.20361523D+04 0.12883281D+01  1  2  5  3  6  2        1 0.184887437368D-04 0.100000000000D+01
  </mgrwgt>
  </event>
  <event>
  6     66 0.14626492E-05 0.11219666E+03 0.78161638E-02 0.10350280E+00
       22 -1    0    0    0    0 0.00000000E+00 0.00000000E+00 0.94890538E+02 0.94890538E+02 0.00000000E+00 0.0000E+00 0.9000E+01
        1 -1    0    0  501    0 0.00000000E+00 0.00000000E+00 -.43488823E+03 0.43488823E+03 0.00000000E+00 0.0000E+00 0.9000E+01
      -24  2    1    2    0    0 0.17198351E+03 -.90023201E+02 -.14904929E+03 0.25748518E+03 0.80002634E+02 0.0000E+00 0.0000E+00
  9900012  1    3    3    0    0 0.10145319E+03 -.56860104E+02 -.63054471E+02 0.14142732E+03 0.50000000E+02 0.0000E+00 0.9000E+01
       11  1    3    3    0    0 0.70530328E+02 -.33163098E+02 -.85994819E+02 0.11605786E+03 0.00000000E+00 0.0000E+00 0.9000E+01
        2  1    1    2  501    0 -.17198351E+03 0.90023201E+02 -.19094840E+03 0.27229359E+03 0.00000000E+00 0.0000E+00 0.9000E+01
#aMCatNLO 1  0  0  2  5 0.11243228D+03 0.00000000D+00  -5  6  0 0.00000000D+00 0.00000000D+00 0.00000000D+00 0.00000000D+00 0.00000000D+00
  <mgrwgt>
 0.7092399469D-04    6    2    0
 0.203142261900634D+03 0.000000000000000D+00 0.000000000000000D+00 0.203142261900634D+03
 0.203142261900634D+03 0.000000000000000D+00 0.000000000000000D+00 -.203142261900634D+03
 0.131648669916974D+03 0.101453187209340D+03 -.568601037317407D+02 0.361324189557064D+02
 0.793703644117807D+02 0.705303276411868D+02 -.331630975275739D+02 -.150112155424643D+02
 0.195265489472513D+03 -.171983514850527D+03 0.900232012593146D+02 -.211212034132421D+02
 0.000000000000000D+00 -.000000000000000D+00 -.000000000000000D+00 0.000000000000000D+00
 0.256689043304725D+03 0.000000000000000D+00 0.000000000000000D+00 0.256689043304725D+03
 0.222234687169917D+03 0.000000000000000D+00 0.000000000000000D+00 -.222234687169917D+03
 0.136970410868114D+03 0.114633272865611D+03 -.425975880292255D+02 0.361324189557064D+02
 0.836219236641893D+02 0.785277204990364D+02 -.245089093690928D+02 -.150112155424643D+02
 0.189961503388585D+03 -.153081935900226D+03 0.110477094626294D+03 -.211212034132421D+02
 0.683698925537541D+02 -.400790574644215D+02 -.433705972279754D+02 0.344543561348084D+02
0.393070269320D-05 0.000000000000D+00 0.000000000000D+00 0.437463175518D-06 0.000000000000D+00  6 22 1 9900012 11 2 21 0 0.14598544D-01 0.66905882D-01 0.39730628D+05 0.39730628D+05 0.39730628D+05 0.11517514D+01  1  2  2  1  6  2        1 0.729845763905D-04 0.100000000000D+01
-.161899438188D-06 0.000000000000D+00 -.754746665983D-08 0.437463175518D-06 0.000000000000D+00  6 22 1 9900012 11 2 21 2 0.14598544D-01 0.66905882D-01 0.39730628D+05 0.39730628D+05 0.39730628D+05 0.11517514D+01  1  2  3  1  6  2        1 -.398771178163D-05 0.100000000000D+01
0.422852774927D-07 0.000000000000D+00 0.000000000000D+00 0.437463175518D-06 0.000000000000D+00  6 22 1 9900012 11 2 21 2 0.14598544D-01 0.66905882D-01 0.39730628D+05 0.39730628D+05 0.39730628D+05 0.11517514D+01  1  2 15  1  6  2        1 0.104151997767D-05 0.100000000000D+01
0.502298493584D-06 0.000000000000D+00 0.000000000000D+00 0.437463175518D-06 0.000000000000D+00  6 22 1 9900012 11 2 21 2 0.14598544D-01 0.92487472D-01 0.53411729D+05 0.53411729D+05 0.53411729D+05 0.11404625D+01  1  2 12  1  6  2        1 0.788287312450D-05 0.100000000000D+01
-.317003619469D-06 0.000000000000D+00 0.000000000000D+00 0.437463175518D-06 0.000000000000D+00  6 22 1 9900012 11 2 21 2 0.14598544D-01 0.66905882D-01 0.39730628D+05 0.39730628D+05 0.39730628D+05 0.11517514D+01  1  2  4  1  6  2        1 -.780805098721D-05 0.100000000000D+01
0.205148672438D-07 0.000000000000D+00 0.000000000000D+00 0.437463175518D-06 0.000000000000D+00  6 22 21 9900012 11 2 -1 2 0.14598544D-01 0.92487472D-01 0.53411729D+05 0.53411729D+05 0.53411729D+05 0.11404625D+01  1  2 12  3  6  2        1 0.810787965848D-06 0.100000000000D+01
  </mgrwgt>
  </event>
  <event>
  6     66 0.14626492E-05 0.10450726E+02 0.78161638E-02 0.13517103E+00
       22 -1    0    0    0    0 0.00000000E+00 0.00000000E+00 0.61372558E+02 0.61372558E+02 0.00000000E+00 0.0000E+00 0.9000E+01
        1 -1    0    0  501    0 0.00000000E+00 0.00000000E+00 -.59987634E+02 0.59987634E+02 0.00000000E+00 0.0000E+00 0.9000E+01
      -24  2    1    2    0    0 -.85498475E+01 -.60098066E+01 -.31243325E+02 0.87099130E+02 0.80628130E+02 0.0000E+00 0.0000E+00
  9900012  1    3    3    0    0 0.83418491E+01 -.84603295E+01 0.11965700E+00 0.51392392E+02 0.50000000E+02 0.0000E+00 0.9000E+01
       11  1    3    3    0    0 -.16891697E+02 0.24505230E+01 -.31362982E+02 0.35706738E+02 0.00000000E+00 0.0000E+00 0.9000E+01
        2  1    1    2  501    0 0.85498475E+01 0.60098066E+01 0.32628249E+02 0.34261061E+02 0.00000000E+00 0.0000E+00 0.9000E+01
#aMCatNLO 1  0  0  2  5 0.11243228D+03 0.00000000D+00  -5  6  0 0.00000000D+00 0.00000000D+00 0.00000000D+00 0.00000000D+00 0.00000000D+00
  <mgrwgt>
 0.2597022944D-05    1    2    0
 0.606761443692986D+02 0.000000000000000D+00 0.000000000000000D+00 0.606761443692986D+02
 0.606761443692986D+02 0.000000000000000D+00 0.000000000000000D+00 -.606761443692986D+02
 0.513943729194634D+02 0.834184906169640D+01 -.846032953697378D+01 -.466847022650189D+00
 0.360669909337527D+02 -.168916966108636D+02 0.245052297143513D+01 -.317725252032067D+02
 0.338909248853811D+02 0.854984754916724D+01 0.600980656553865D+01 0.322393722258569D+02
 0.000000000000000D+00 -.000000000000000D+00 0.000000000000000D+00 -.000000000000000D+00
 0.101194782877323D+03 0.000000000000000D+00 0.000000000000000D+00 0.101194782877323D+03
 0.231448519525423D+03 0.000000000000000D+00 0.000000000000000D+00 -.231448519525423D+03
 0.792161896644122D+02 0.521373621263456D+02 -.325066490015792D+02 -.466847022650189D+00
 0.341049459807785D+02 0.663791630186330D+01 -.104686221506399D+02 -.317725252032067D+02
 0.496340597873163D+02 0.365569205231362D+02 -.936772818343046D+01 0.322393722258569D+02
 0.169688106970239D+03 -.953321989513451D+02 0.523429993356495D+02 -.130253736648100D+03
0.472793913799D-08 0.000000000000D+00 0.000000000000D+00 0.136652970889D-05 0.000000000000D+00  6 22 1 9900012 11 2 21 2 0.94419319D-02 0.92288667D-02 0.15567563D+04 0.15567563D+04 0.15567563D+04 0.13033070D+01  1  2 14  1  6  2        1 0.259702294393D-05 0.100000000000D+01
  </mgrwgt>
  </event>
  <event>
  6     66 0.14626492E-05 0.10536203E+02 0.78161638E-02 0.13377805E+00
       22 -1    0    0    0    0 0.00000000E+00 0.00000000E+00 0.13877376E+04 0.13877376E+04 0.00000000E+00 0.0000E+00 0.9000E+01
        1 -1    0    0  501    0 0.00000000E+00 0.00000000E+00 -.15471858E+01 0.15471858E+01 0.00000000E+00 0.0000E+00 0.9000E+01
      -24  2    1    2    0    0 -.22064950E+01 -.10302570E+02 0.12192486E+04 0.12220108E+04 0.81438780E+02 0.0000E+00 0.0000E+00
  9900012  1    3    3    0    0 0.86993635E+01 -.22927193E+02 0.11188902E+04 0.11202752E+04 0.50000000E+02 0.0000E+00 0.9000E+01
       11  1    3    3    0    0 -.10905859E+02 0.12624623E+02 0.10035838E+03 0.10173556E+03 0.00000000E+00 0.0000E+00 0.9000E+01
        2  1    1    2  501    0 0.22064950E+01 0.10302570E+02 0.16694189E+03 0.16727405E+03 0.00000000E+00 0.0000E+00 0.9000E+01
#aMCatNLO 1  0  0  2  5 0.22542490D+01 0.00000000D+00  -5  6  0 0.00000000D+00 0.00000000D+00 0.00000000D+00 0.00000000D+00 0.00000000D+00
  <mgrwgt>
 0.9549441817D-04    8    2    0
 0.463366803153671D+02 0.000000000000000D+00 0.000000000000000D+00 0.463366803153671D+02
 0.463366803153671D+02 0.000000000000000D+00 0.000000000000000D+00 -.463366803153671D+02
 0.581232608066860D+02 0.869936354008842D+01 -.229271928853252D+02 0.166426664690041D+02
 0.239964906397369D+02 -.109058585309314D+02 0.126246231160577D+02 -.172485565745020D+02
 0.105536091843113D+02 0.220649499084296D+01 0.103025697692675D+02 0.605890105497825D+00
 0.000000000000000D+00 -.000000000000000D+00 0.000000000000000D+00 0.000000000000000D+00
 0.473772453886693D+02 0.000000000000000D+00 0.000000000000000D+00 0.473772453886693D+02
 0.465425357754011D+02 0.000000000000000D+00 0.000000000000000D+00 -.465425357754011D+02
 0.583517672350552D+02 0.909153411467003D+01 -.233515395573255D+02 0.166426664690041D+02
 0.238322386992305D+02 -.107448195461659D+02 0.124503714978162D+02 -.172485565745020D+02
 0.104939161636753D+02 0.227736185602443D+01 0.102258885485336D+02 0.605890105497825D+00
 0.124185906610944D+01 -.624076424528547D+00 0.675279510975690D+00 0.834709613268170D+00
0.349612567298D-06 0.000000000000D+00 0.000000000000D+00 0.152533921325D-06 0.000000000000D+00  6 22 1 9900012 11 2 21 0 0.21349810D+00 0.23802858D-03 0.17184642D+04 0.17184642D+04 0.17184642D+04 0.12977312D+01  1  2  2  1  6  2        1 0.669363359898D-04 0.100000000000D+01
0.172943307500D-07 0.000000000000D+00 -.671302156764D-09 0.152533921325D-06 0.000000000000D+00  6 22 1 9900012 11 2 21 2 0.21349810D+00 0.23802858D-03 0.17184642D+04 0.17184642D+04 0.17184642D+04 0.12977312D+01  1  2  3  1  6  2        1 0.557632583978D-05 0.100000000000D+01
0.391066515856D-08 0.000000000000D+00 0.000000000000D+00 0.152533921325D-06 0.000000000000D+00  6 22 1 9900012 11 2 21 2 0.21349810D+00 0.23802858D-03 0.17184642D+04 0.17184642D+04 0.17184642D+04 0.12977312D+01  1  2 15  1  6  2        1 0.126094172070D-05 0.100000000000D+01
0.211466611265D-09 0.000000000000D+00 0.000000000000D+00 0.152533921325D-06 0.000000000000D+00  6 22 1 9900012 11 2 21 2 0.21349810D+00 0.24445511D-03 0.17543426D+04 0.17543426D+04 0.17543426D+04 0.12965742D+01  1  2 12  1  6  2        1 0.659385235449D-07 0.100000000000D+01
-.272355735283D-07 0.000000000000D+00 0.000000000000D+00 0.152533921325D-06 0.000000000000D+00  6 22 1 9900012 11 2 21 2 0.21349810D+00 0.23802858D-03 0.17184642D+04 0.17184642D+04 0.17184642D+04 0.12977312D+01  1  2  4  1  6  2        1 -.878174672511D-05 0.100000000000D+01
0.251727687486D-07 0.000000000000D+00 0.000000000000D+00 0.152533921325D-06 0.493284914974D-06  6 22 1 9900012 11 2 21 2 0.21829254D+00 0.23908605D-03 0.17543426D+04 0.17543426D+04 0.17543426D+04 0.12965742D+01  1  2 11  1  6  2        1 0.763413917329D-05 0.100000000000D+01
0.899749907164D-11 0.000000000000D+00 0.000000000000D+00 0.152533921325D-06 0.000000000000D+00  6 22 21 9900012 11 2 -1 2 0.21349810D+00 0.24445511D-03 0.17543426D+04 0.17543426D+04 0.17543426D+04 0.12965742D+01  1  2 12  3  6  2        1 0.579204321598D-07 0.100000000000D+01
0.362748960060D-08 0.000000000000D+00 0.000000000000D+00 0.152533921325D-06 0.148207189179D-08  6 22 21 9900012 11 2 -1 2 0.21829254D+00 0.23908605D-03 0.17543426D+04 0.17543426D+04 0.17543426D+04 0.12965742D+01  1  2 11  3  6  2        1 0.227445632199D-04 0.100000000000D+01
  </mgrwgt>
  </event>
  <event>
  6     66 0.14626492E-05 0.12359284E+02 0.78161638E-02 0.13160311E+00
       22 -1    0    0    0    0 0.00000000E+00 0.00000000E+00 0.50040103E+01 0.50040103E+01 0.00000000E+00 0.0000E+00 0.9000E+01
        1 -1    0    0  501    0 0.00000000E+00 0.00000000E+00 -.49736117E+03 0.49736117E+03 0.00000000E+00 0.0000E+00 0.9000E+01
      -24  2    1    2    0    0 -.10762324E+02 -.60765342E+01 -.46857779E+03 0.47556573E+03 0.80279953E+02 0.0000E+00 0.0000E+00
  9900012  1    3    3    0    0 -.10281794E-01 0.14836207E+02 -.23036533E+03 0.23619547E+03 0.50000000E+02 0.0000E+00 0.9000E+01
       11  1    3    3    0    0 -.10752043E+02 -.20912742E+02 -.23821246E+03 0.23937026E+03 0.00000000E+00 0.0000E+00 0.9000E+01
        2  1    1    2  501    0 0.10762324E+02 0.60765342E+01 -.23779374E+02 0.26799450E+02 0.00000000E+00 0.0000E+00 0.9000E+01
#aMCatNLO 1  0  0  2  5 0.53806084D+01 0.00000000D+00  -5  6  0 0.00000000D+00 0.00000000D+00 0.00000000D+00 0.00000000D+00 0.00000000D+00
  <mgrwgt>
 0.7809459995D-04   11    2    0
 0.498878788592085D+02 0.000000000000000D+00 0.000000000000000D+00 0.498878788592085D+02
 0.498878788592085D+02 0.000000000000000D+00 0.000000000000000D+00 -.498878788592085D+02
 0.524612263018048D+02 -.102817942485123D-01 0.148362074532540D+02 0.566278268856309D+01
 0.297234295848157D+02 -.107520425573056D+02 -.209127416552907D+02 -.181805688466686D+02
 0.175911018317965D+02 0.107623243515542D+02 0.607653420203670D+01 0.125177861581055D+02
 0.000000000000000D+00 -.000000000000000D+00 -.000000000000000D+00 -.000000000000000D+00
 0.516139299293931D+02 0.000000000000000D+00 0.000000000000000D+00 0.516139299293931D+02
 0.525215876302028D+02 0.000000000000000D+00 0.000000000000000D+00 -.525215876302028D+02
 0.530888524632409D+02 0.759002134315181D+00 0.169051194567200D+02 0.566278268856309D+01
 0.287724514217397D+02 -.103257052047236D+02 -.197661500867786D+02 -.181805688466686D+02
 0.180017615253606D+02 0.110217369268226D+02 0.677419831653981D+01 0.125177861581055D+02
 0.427245214925474D+01 -.145503385641417D+01 -.391316768648123D+01 -.907657700809648D+00
0.431131213371D-07 0.000000000000D+00 0.000000000000D+00 0.473182678808D-06 0.000000000000D+00  6 22 1 9900012 11 2 21 0 0.76984774D-03 0.76517104D-01 0.19372700D+04 0.19372700D+04 0.19372700D+04 0.12910647D+01  1  2  2  1  6  2        1 0.298866726326D-04 0.100000000000D+01
-.579773333936D-09 0.000000000000D+00 -.827828689400D-10 0.473182678808D-06 0.000000000000D+00  6 22 1 9900012 11 2 21 2 0.76984774D-03 0.76517104D-01 0.19372700D+04 0.19372700D+04 0.19372700D+04 0.12910647D+01  1  2  3  1  6  2        1 -.669919075284D-06 0.100000000000D+01
0.121671932762D-08 0.000000000000D+00 0.000000000000D+00 0.473182678808D-06 0.000000000000D+00  6 22 1 9900012 11 2 21 2 0.76984774D-03 0.76517104D-01 0.19372700D+04 0.19372700D+04 0.19372700D+04 0.12910647D+01  1  2 15  1  6  2        1 0.140590027021D-05 0.100000000000D+01
0.361566565168D-07 0.000000000000D+00 0.000000000000D+00 0.473182678808D-06 0.000000000000D+00  6 22 1 9900012 11 2 21 2 0.76984774D-03 0.83343785D-01 0.21251496D+04 0.21251496D+04 0.21251496D+04 0.12859912D+01  1  2 12  1  6  2        1 0.374832432201D-04 0.100000000000D+01
-.264435539184D-07 0.000000000000D+00 0.000000000000D+00 0.473182678808D-06 0.000000000000D+00  6 22 1 9900012 11 2 21 2 0.76984774D-03 0.76517104D-01 0.19372700D+04 0.19372700D+04 0.19372700D+04 0.12910647D+01  1  2  4  1  6  2        1 -.305551155103D-04 0.100000000000D+01
-.292313385260D-06 0.000000000000D+00 -.543730618412D-07 0.473182678808D-06 0.000000000000D+00  6 22 1 9900012 11 2 21 2 0.76984774D-03 0.82838812D-01 0.19372700D+04 0.19372700D+04 0.19372700D+04 0.12910647D+01  1  2  5  1  6  2        1 -.304791426005D-03 0.100000000000D+01
0.295867813735D-06 0.000000000000D+00 0.542021927930D-07 0.473182678808D-06 0.000000000000D+00  6 22 1 9900012 11 2 21 2 0.76984774D-03 0.76517104D-01 0.19372700D+04 0.19372700D+04 0.19372700D+04 0.12910647D+01  1  2  6  1  6  2        1 0.341870659760D-03 0.100000000000D+01
0.122674026869D-07 0.000000000000D+00 0.000000000000D+00 0.473182678808D-06 0.149906153901D-06  6 22 1 9900012 11 2 21 2 0.79648340D-03 0.80556637D-01 0.21251496D+04 0.21251496D+04 0.21251496D+04 0.12859912D+01  1  2 11  1  6  2        1 0.127182279028D-04 0.100000000000D+01
0.536974108427D-09 0.000000000000D+00 0.000000000000D+00 0.473182678808D-06 0.000000000000D+00  6 22 21 9900012 11 2 -1 2 0.76984774D-03 0.83343785D-01 0.21251496D+04 0.21251496D+04 0.21251496D+04 0.12859912D+01  1  2 12  3  6  2        1 0.171662441962D-05 0.100000000000D+01
-.376149112134D-08 0.000000000000D+00 -.721269741332D-09 0.473182678808D-06 0.000000000000D+00  6 22 21 9900012 11 2 -1 2 0.76984774D-03 0.82838812D-01 0.19372700D+04 0.19372700D+04 0.19372700D+04 0.12910647D+01  1  2  5  3  6  2        1 -.122026986071D-04 0.100000000000D+01
0.373102626582D-09 0.000000000000D+00 0.000000000000D+00 0.473182678808D-06 0.183887866384D-08  6 22 21 9900012 11 2 -1 2 0.79648340D-03 0.80556637D-01 0.21251496D+04 0.21251496D+04 0.21251496D+04 0.12859912D+01  1  2 11  3  6  2        1 0.123243094260D-05 0.100000000000D+01
  </mgrwgt>
  </event>
  <event>
  6     66 0.14626492E-05 0.17991724E+02 0.78161638E-02 0.12923387E+00
       22 -1    0    0    0    0 0.00000000E+00 0.00000000E+00 0.10544141E+03 0.10544141E+03 0.00000000E+00 0.0000E+00 0.9000E+01
        1 -1    0    0  501    0 0.00000000E+00 0.00000000E+00 -.37008080E+02 0.37008080E+02 0.00000000E+00 0.0000E+00 0.9000E+01
      -24  2    1    2    0    0 0.69630273E+01 0.16589707E+02 0.16703934E+02 0.87680588E+02 0.84173404E+02 0.0000E+00 0.0000E+00
  9900012  1    3    3    0    0 0.31158519E+02 0.11616369E+02 0.18716133E+02 0.62897432E+02 0.50000000E+02 0.0000E+00 0.9000E+01
       11  1    3    3    0    0 -.24195491E+02 0.49733381E+01 -.20121985E+01 0.24783156E+02 0.00000000E+00 0.0000E+00 0.9000E+01
        2  1    1    2  501    0 -.69630273E+01 -.16589707E+02 0.51729391E+02 0.54768897E+02 0.00000000E+00 0.0000E+00 0.9000E+01
#aMCatNLO 1  0  0  2  2 0.21837775D+03 0.00000000D+00  -5  6  0 0.00000000D+00 0.00000000D+00 0.00000000D+00 0.00000000D+00 0.00000000D+00
  <mgrwgt>
 0.2586750169D-04    5    2    0
 0.624674628970991D+02 0.000000000000000D+00 0.000000000000000D+00 0.624674628970991D+02
 0.624674628970991D+02 0.000000000000000D+00 0.000000000000000D+00 -.624674628970991D+02
 0.614631937974311D+02 0.311585186274523D+02 0.116163687035816D+02 -.131122418703185D+02
 0.293596787183839D+02 -.241954913535493D+02 0.497333810102801D+01 -.158693049860386D+02
 0.341120532783831D+02 -.696302727390294D+01 -.165897068046096D+02 0.289815468563570D+02
 0.000000000000000D+00 -.000000000000000D+00 0.000000000000000D+00 -.000000000000000D+00
 0.230314511527915D+03 0.000000000000000D+00 0.000000000000000D+00 0.230314511527915D+03
 0.346035835147653D+03 0.000000000000000D+00 0.000000000000000D+00 -.346035835147653D+03
 0.205254159023475D+03 0.198570620524001D+03 -.520072824529614D+01 -.131122418703185D+02
 0.166804614274282D+02 0.470280323397082D+01 0.207040924325723D+01 -.158693049860386D+02
 0.681641319700608D+02 0.572332875339302D+02 -.230384380352296D+02 0.289815468563570D+02
 0.286251594254604D+03 -.260506711291902D+03 0.261687570372685D+02 -.115721323619738D+03
0.676847014129D-07 0.000000000000D+00 0.000000000000D+00 0.220439498157D-07 0.000000000000D+00  6 22 1 9900012 11 2 21 0 0.16221755D-01 0.56935507D-02 0.26389445D+04 0.26389445D+04 0.26389445D+04 0.12743629D+01  1  2  2  1  6  2        1 0.202642720612D-04 0.100000000000D+01
-.339179216666D-08 0.000000000000D+00 -.129963537608D-09 0.220439498157D-07 0.000000000000D+00  6 22 1 9900012 11 2 21 2 0.16221755D-01 0.56935507D-02 0.26389445D+04 0.26389445D+04 0.26389445D+04 0.12743629D+01  1  2  3  1  6  2        1 -.164913398491D-05 0.100000000000D+01
0.522902766362D-08 0.000000000000D+00 0.000000000000D+00 0.220439498157D-07 0.000000000000D+00  6 22 1 9900012 11 2 21 2 0.16221755D-01 0.56935507D-02 0.26389445D+04 0.26389445D+04 0.26389445D+04 0.12743629D+01  1  2 15  1  6  2        1 0.254242206019D-05 0.100000000000D+01
0.238966950932D-06 0.000000000000D+00 -.683744712876D-07 0.220439498157D-07 0.000000000000D+00  6 22 1 9900012 11 2 21 2 0.16221755D-01 0.10501059D+00 0.26389445D+04 0.26389445D+04 0.26389445D+04 0.12743629D+01  1  2  5  1  6  2        1 0.294443992910D-05 0.100000000000D+01
0.589652826941D-07 0.000000000000D+00 -.216993814924D-07 0.220439498157D-07 0.000000000000D+00  6 22 21 9900012 11 2 -1 2 0.16221755D-01 0.10501059D+00 0.26389445D+04 0.26389445D+04 0.26389445D+04 0.12743629D+01  1  2  5  3  6  2        1 0.176550162274D-05 0.100000000000D+01
  </mgrwgt>
  </event>
  <event>
  7     66 0.14626492E-05 0.16142732E+02 0.78161638E-02 0.13373858E+00
       22 -1    0    0    0    0 0.00000000E+00 0.00000000E+00 0.15115291E+04 0.15115291E+04 0.00000000E+00 0.0000E+00 0.9000E+01
       21 -1    0    0  501  502 0.00000000E+00 0.00000000E+00 -.23365502E+01 0.23365502E+01 0.00000000E+00 0.0000E+00 0.9000E+01
      -24  2    1    2    0    0 -.32163018E+01 0.15866656E+02 0.75953893E+03 0.76378295E+03 0.78758607E+02 0.0000E+00 0.0000E+00
  9900012  1    3    3    0    0 -.16377577E+02 0.12645160E+02 0.71912546E+03 0.72115848E+03 0.50000000E+02 0.0000E+00 0.9000E+01
       11  1    3    3    0    0 0.13161276E+02 0.32214968E+01 0.40413468E+02 0.42624472E+02 0.00000000E+00 0.0000E+00 0.9000E+01
        4  1    1    2  501    0 -.68001494E-01 -.24625193E-01 0.44484114E+03 0.44484115E+03 0.00000000E+00 0.0000E+00 0.9000E+01
       -3  1    1    2    0  502 0.32843033E+01 -.15842031E+02 0.30481253E+03 0.30524160E+03 0.00000000E+00 0.0000E+00 0.9000E+01
#aMCatNLO 2  0  0  2  5 0.10493475D+02 0.00000000D+00  -5  6  0 0.00000000D+00 0.00000000D+00 0.00000000D+00 0.00000000D+00 0.00000000D+00
  <mgrwgt>
 0.1366129950D-01    1    2    0
 0.499477315340160D+02 0.000000000000000D+00 0.000000000000000D+00 0.499477315340160D+02
 0.499477315340160D+02 0.000000000000000D+00 0.000000000000000D+00 -.499477315340160D+02
 0.526053086783627D+02 -.146292862155623D+02 0.421217399188984D+01 0.596322699811370D+01
 0.283894695056110D+02 0.140839021928382D+02 -.122884742304575D+01 -.246190091564112D+02
 0.189006848840582D+02 0.545384022724047D+00 -.298332656884409D+01 0.186557821582975D+02
 0.000000000000000D+00 0.000000000000000D+00 -.000000000000000D+00 0.000000000000000D+00
 0.633908640329518D+02 0.000000000000000D+00 0.000000000000000D+00 0.633908640329518D+02
 0.557140798847207D+02 0.000000000000000D+00 0.000000000000000D+00 -.557140798847207D+02
 0.544397389505172D+02 -.163775773082200D+02 0.126451596384822D+02 0.596322699811370D+01
 0.281014737664070D+02 0.131612755498878D+02 0.322149684161376D+01 -.246190091564112D+02
 0.186559223449610D+02 -.680014943395709D-01 -.246251929984846D-01 0.186557821582975D+02
 0.179078088557874D+02 0.328430325267182D+01 -.158420312870975D+02 0.767678414823105D+01
0.452911205620D-05 0.000000000000D+00 0.000000000000D+00 0.418809694182D-05 0.438696649011D-05  6 22 21 9900012 11 4 -3 2 0.23254295D+00 0.35946926D-03 0.17603552D+04 0.17603552D+04 0.17603552D+04 0.12963829D+01  1  2  1  3  6  2        3 0.136612994987D-01 0.100000000000D+01
  </mgrwgt>
  </event>
  <event>
  6     66 0.14626492E-05 0.13167731E+02 0.78161638E-02 0.12323168E+00
       22 -1    0    0    0    0 0.00000000E+00 0.00000000E+00 0.36189653E+01 0.36189653E+01 0.00000000E+00 0.0000E+00 0.9000E+01
        3 -1    0    0  501    0 0.00000000E+00 0.00000000E+00 -.61334657E+03 0.61334657E+03 0.00000000E+00 0.0000E+00 0.9000E+01
      -24  2    1    2    0    0 -.74958281E+01 0.10825973E+02 -.53913376E+03 0.54515411E+03 0.79714548E+02 0.0000E+00 0.0000E+00
  9900012  1    3    3    0    0 0.15100127E+02 0.15754255E+02 -.30135040E+03 0.30624871E+03 0.50000000E+02 0.0000E+00 0.9000E+01
       11  1    3    3    0    0 -.22595955E+02 -.49282818E+01 -.23778336E+03 0.23890540E+03 0.00000000E+00 0.0000E+00 0.9000E+01
        4  1    1    2  501    0 0.74958281E+01 -.10825973E+02 -.70593842E+02 0.71811418E+02 0.00000000E+00 0.0000E+00 0.9000E+01
#aMCatNLO 1  0  0  2  5 0.88201689D+02 0.00000000D+00  -5  6  0 0.00000000D+00 0.00000000D+00 0.00000000D+00 0.00000000D+00 0.00000000D+00
  <mgrwgt>
 0.1429919942D-04    3    2    0
 0.471134795669741D+02 0.000000000000000D+00 0.000000000000000D+00 0.471134795669741D+02
 0.471134795669741D+02 0.000000000000000D+00 0.000000000000000D+00 -.471134795669741D+02
 0.552203252509949D+02 0.151001270226153D+02 0.157542550977287D+02 0.854832913745380D+01
 0.256117904281945D+02 -.225959551095585D+02 -.492828181265878D+01 -.110044836316652D+02
 0.133948434547587D+02 0.749582808694329D+01 -.108259732850700D+02 0.245615449421145D+01
 0.000000000000000D+00 -.000000000000000D+00 -.000000000000000D+00 0.000000000000000D+00
 0.103630399588808D+03 0.000000000000000D+00 0.000000000000000D+00 0.103630399588808D+03
 0.584105727631755D+02 0.000000000000000D+00 0.000000000000000D+00 -.584105727631755D+02
 0.682093305120317D+02 0.237810104090618D+02 0.389088984909805D+02 0.854832913745380D+01
 0.225161362802968D+02 -.192110885083749D+02 0.410022088632946D+01 -.110044836316652D+02
 0.113819302750829D+02 0.923839377840134D+01 -.617800309830044D+01 0.245615449421145D+01
 0.599335752845722D+02 -.138083156790882D+02 -.368311162790096D+02 0.452198268256326D+02
0.949654087887D-07 0.000000000000D+00 0.000000000000D+00 0.274296175737D-06 0.000000000000D+00  6 22 3 9900012 11 4 21 0 0.55676390D-03 0.94361010D-01 0.20634096D+04 0.20634096D+04 0.20634096D+04 0.12876002D+01  1  2  2  1  6  2        3 0.137329987254D-04 0.100000000000D+01
0.275162409608D-08 0.000000000000D+00 -.182346087357D-09 0.274296175737D-06 0.000000000000D+00  6 22 3 9900012 11 4 21 2 0.55676390D-03 0.94361010D-01 0.20634096D+04 0.20634096D+04 0.20634096D+04 0.12876002D+01  1  2  3  1  6  2        3 0.659707073038D-06 0.100000000000D+01
-.390013104210D-09 0.000000000000D+00 0.000000000000D+00 0.274296175737D-06 0.000000000000D+00  6 22 3 9900012 11 4 21 2 0.55676390D-03 0.94361010D-01 0.20634096D+04 0.20634096D+04 0.20634096D+04 0.12876002D+01  1  2 15  1  6  2        3 -.935063782117D-07 0.100000000000D+01
  </mgrwgt>
  </event>
  <event>
  6     66 0.14626492E-05 0.10868398E+02 0.78161638E-02 0.13397773E+00
       22 -1    0    0    0    0 0.00000000E+00 0.00000000E+00 0.11785914E+03 0.11785914E+03 0.00000000E+00 0.0000E+00 0.9000E+01
        1 -1    0    0  501    0 0.00000000E+00 0.00000000E+00 -.23013121E+02 0.23013121E+02 0.00000000E+00 0.0000E+00 0.9000E+01
      -24  2    1    2    0    0 -.10848162E+02 -.66291333E+00 0.50747398E+02 0.95454087E+02 0.80112810E+02 0.0000E+00 0.0000E+00
  9900012  1    3    3    0    0 -.10016365E+02 0.18061478E+02 0.53993796E+02 0.76432157E+02 0.50000000E+02 0.0000E+00 0.9000E+01
       11  1    3    3    0    0 -.83179774E+00 -.18724392E+02 -.32463981E+01 0.19021930E+02 0.00000000E+00 0.0000E+00 0.9000E+01
        2  1    1    2  501    0 0.10848162E+02 0.66291333E+00 0.44098617E+02 0.45418169E+02 0.00000000E+00 0.0000E+00 0.9000E+01
#aMCatNLO 1  0  0  5  2 0.39601406D+01 0.00000000D+00  -5  6  0 0.00000000D+00 0.00000000D+00 0.00000000D+00 0.00000000D+00 0.00000000D+00
  <mgrwgt>
 0.3057002995D-02    8    2    0
 0.520798089671136D+02 0.000000000000000D+00 0.000000000000000D+00 0.520798089671136D+02
 0.520798089671136D+02 -.000000000000000D+00 -.000000000000000D+00 -.520798089671136D+02
 0.542059780604856D+02 -.100163645003771D+02 0.180614783289036D+02 0.342687908511143D+01
 0.286826144575196D+02 -.831797740025101D+00 -.187243916557734D+02 -.217116936640053D+02
 0.212710254162220D+02 0.108481622404023D+02 0.662913326869740D+00 0.182848145788939D+02
 0.000000000000000D+00 0.000000000000000D+00 0.000000000000000D+00 0.000000000000000D+00
 0.520798089671136D+02 0.000000000000000D+00 0.000000000000000D+00 0.520798089671136D+02
 0.520798089671136D+02 -.000000000000000D+00 -.000000000000000D+00 -.520798089671136D+02
 0.541875762276349D+02 -.958363409281799D+01 0.180879217713739D+02 0.415625564581587D+01
 0.283781390733241D+02 -.603998925850219D+00 -.187104712454389D+02 -.213277337834122D+02
 0.799474942906796D+01 0.163961777080860D+00 0.213231908309827D+00 0.799022322106946D+01
 0.135991532042002D+02 0.100236712415874D+02 0.409317565755094D+00 0.918125491652684D+01
0.165654712519D-07 0.000000000000D+00 0.000000000000D+00 0.804256872138D-06 0.000000000000D+00  6 22 1 9900012 11 2 21 0 0.18132175D-01 0.35404801D-02 0.17517909D+04 0.17517909D+04 0.17517909D+04 0.12966556D+01  1  2  2  2  6  5        2 0.748338684852D-05 0.100000000000D+01
-.536445123866D-09 0.000000000000D+00 -.318078856980D-10 0.804256872138D-06 0.000000000000D+00  6 22 1 9900012 11 2 21 2 0.18132175D-01 0.35404801D-02 0.17517909D+04 0.17517909D+04 0.17517909D+04 0.12966556D+01  1  2  3  2  6  5        2 -.407444964351D-06 0.100000000000D+01
0.937854419933D-09 0.000000000000D+00 0.000000000000D+00 0.804256872138D-06 0.000000000000D+00  6 22 1 9900012 11 2 21 2 0.18132175D-01 0.35404801D-02 0.17517909D+04 0.17517909D+04 0.17517909D+04 0.12966556D+01  1  2 15  2  6  5        2 0.712326468628D-06 0.100000000000D+01
0.931793123728D-09 0.000000000000D+00 0.000000000000D+00 0.804256872138D-06 0.000000000000D+00  6 22 1 9900012 11 2 21 2 0.18132175D-01 0.35404801D-02 0.17242912D+04 0.17242912D+04 0.17242912D+04 0.12975414D+01  1  2 12  2  6  5        2 0.707166489887D-06 0.100000000000D+01
-.268456429330D-07 0.000000000000D+00 0.000000000000D+00 0.804256872138D-06 0.000000000000D+00  6 22 1 9900012 11 2 21 2 0.18132175D-01 0.35404801D-02 0.17517909D+04 0.17517909D+04 0.17517909D+04 0.12966556D+01  1  2  4  2  6  5        2 -.203900110956D-04 0.100000000000D+01
-.913899960992D-08 0.000000000000D+00 0.000000000000D+00 0.804256872138D-06 0.000000000000D+00  6 22 1 9900012 11 2 21 2 0.18132175D-01 0.35404801D-02 0.17517909D+04 0.17517909D+04 0.17517909D+04 0.12966556D+01  1  2  5  2  6  5        2 -.694132392039D-05 0.100000000000D+01
0.182657287259D-07 0.000000000000D+00 -.000000000000D+00 0.804256872138D-06 0.000000000000D+00  6 22 1 9900012 11 2 21 2 0.18132175D-01 0.35404801D-02 0.17517909D+04 0.17517909D+04 0.17517909D+04 0.12966556D+01  1  2  6  2  6  5        2 0.138733280599D-04 0.100000000000D+01
0.403457813857D-05 0.000000000000D+00 0.000000000000D+00 0.804256872138D-06 0.447422388248D-04  6 22 1 9900012 11 2 21 2 0.18132175D-01 0.35404801D-02 0.17242912D+04 0.17242912D+04 0.17242912D+04 0.12975414D+01  1  2 11  2  6  5        2 0.306196556701D-02 0.100000000000D+01
  </mgrwgt>
  </event>
  <event>
  6     66 0.14626492E-05 0.16953567E+02 0.78161638E-02 0.13233090E+00
       22 -1    0    0    0    0 0.00000000E+00 0.00000000E+00 0.20173208E+03 0.20173208E+03 0.00000000E+00 0.0000E+00 0.9000E+01
        1 -1    0    0  501    0 0.00000000E+00 0.00000000E+00 -.12235481E+02 0.12235481E+02 0.00000000E+00 0.0000E+00 0.9000E+01
      -24  2    1    2    0    0 -.12016542E+02 -.14501518E+02 0.16533009E+03 0.18332916E+03 0.76947071E+02 0.0000E+00 0.0000E+00
  9900012  1    3    3    0    0 0.10401627E+01 -.11808900E+02 0.16147108E+03 0.16945041E+03 0.50000000E+02 0.0000E+00 0.9000E+01
       11  1    3    3    0    0 -.13056705E+02 -.26926173E+01 0.38590075E+01 0.13878749E+02 0.00000000E+00 0.0000E+00 0.9000E+01
        2  1    1    2  501    0 0.12016542E+02 0.14501518E+02 0.24166503E+02 0.30638394E+02 0.00000000E+00 0.0000E+00 0.9000E+01
#aMCatNLO 1  0  0  2  5 0.64899754D+01 0.00000000D+00  -5  6  0 0.00000000D+00 0.00000000D+00 0.00000000D+00 0.00000000D+00 0.00000000D+00
  <mgrwgt>
 0.9204813855D-04   11    2    0
 0.496818787273109D+02 0.000000000000000D+00 0.000000000000000D+00 0.496818787273109D+02
 0.496818787273109D+02 0.000000000000000D+00 0.000000000000000D+00 -.496818787273109D+02
 0.569490420065629D+02 0.104016269432720D+01 -.118089004258095D+02 0.245491612436742D+02
 0.225266565953505D+02 -.130567050614174D+02 -.269261730940952D+01 -.181582631969325D+02
 0.198880588527084D+02 0.120165423670902D+02 0.145015177352190D+02 -.639089804674162D+01
 0.000000000000000D+00 -.000000000000000D+00 0.000000000000000D+00 -.000000000000000D+00
 0.514272078222073D+02 0.000000000000000D+00 0.000000000000000D+00 0.514272078222073D+02
 0.543048514668999D+02 0.000000000000000D+00 0.000000000000000D+00 -.543048514668999D+02
 0.576844482695566D+02 0.184711696650954D+01 -.148802692619209D+02 0.245491612436742D+02
 0.225216902038348D+02 -.127395904397061D+02 -.389959520168241D+01 -.181582631969325D+02
 0.193102426770435D+02 0.122924760127075D+02 0.134512797859340D+02 -.639089804674162D+01
 0.621567813867228D+01 -.140000253951091D+01 0.532858467766927D+01 -.287764364469261D+01
0.742435216751D-07 0.000000000000D+00 0.000000000000D+00 0.348770998407D-07 0.000000000000D+00  6 22 1 9900012 11 2 21 0 0.31035704D-01 0.18823818D-02 0.17451846D+04 0.17451846D+04 0.17451846D+04 0.12968669D+01  1  2  2  1  6  2        1 0.347655248839D-04 0.100000000000D+01
0.320995706870D-09 0.000000000000D+00 -.142557336000D-09 0.348770998407D-07 0.000000000000D+00  6 22 1 9900012 11 2 21 2 0.31035704D-01 0.18823818D-02 0.17451846D+04 0.17451846D+04 0.17451846D+04 0.12968669D+01  1  2  3  1  6  2        1 0.252801873412D-06 0.100000000000D+01
0.173769800791D-08 0.000000000000D+00 0.000000000000D+00 0.348770998407D-07 0.000000000000D+00  6 22 1 9900012 11 2 21 2 0.31035704D-01 0.18823818D-02 0.17451846D+04 0.17451846D+04 0.17451846D+04 0.12968669D+01  1  2 15  1  6  2        1 0.136853329320D-05 0.100000000000D+01
0.107071863045D-06 0.000000000000D+00 0.000000000000D+00 0.348770998407D-07 0.000000000000D+00  6 22 1 9900012 11 2 21 2 0.31035704D-01 0.21298218D-02 0.19915894D+04 0.19915894D+04 0.19915894D+04 0.12895422D+01  1  2 12  1  6  2        1 0.720570272574D-04 0.100000000000D+01
-.260118587307D-07 0.000000000000D+00 0.000000000000D+00 0.348770998407D-07 0.000000000000D+00  6 22 1 9900012 11 2 21 2 0.31035704D-01 0.18823818D-02 0.17451846D+04 0.17451846D+04 0.17451846D+04 0.12968669D+01  1  2  4  1  6  2        1 -.204857774647D-04 0.100000000000D+01
-.329510106599D-06 0.000000000000D+00 -.668716089255D-07 0.348770998407D-07 0.000000000000D+00  6 22 1 9900012 11 2 21 2 0.31035704D-01 0.21293993D-02 0.17451846D+04 0.17451846D+04 0.17451846D+04 0.12968669D+01  1  2  5  1  6  2        1 -.220249658028D-03 0.100000000000D+01
0.335705484127D-06 0.000000000000D+00 0.663664715350D-07 0.348770998407D-07 0.000000000000D+00  6 22 1 9900012 11 2 21 2 0.31035704D-01 0.18823818D-02 0.17451846D+04 0.17451846D+04 0.17451846D+04 0.12968669D+01  1  2  6  1  6  2        1 0.264386636599D-03 0.100000000000D+01
0.253038902465D-08 0.000000000000D+00 0.000000000000D+00 0.348770998407D-07 0.126572826915D-07  6 22 1 9900012 11 2 21 2 0.32125991D-01 0.20575402D-02 0.19915894D+04 0.19915894D+04 0.19915894D+04 0.12895422D+01  1  2 11  1  6  2        1 0.169070965802D-05 0.100000000000D+01
0.208115433261D-08 0.000000000000D+00 0.000000000000D+00 0.348770998407D-07 0.000000000000D+00  6 22 21 9900012 11 2 -1 2 0.31035704D-01 0.21298218D-02 0.19915894D+04 0.19915894D+04 0.19915894D+04 0.12895422D+01  1  2 12  3  6  2        1 0.234043382063D-04 0.100000000000D+01
-.607097120013D-08 0.000000000000D+00 -.129803469026D-08 0.348770998407D-07 0.000000000000D+00  6 22 21 9900012 11 2 -1 2 0.31035704D-01 0.21293993D-02 0.17451846D+04 0.17451846D+04 0.17451846D+04 0.12968669D+01  1  2  5  3  6  2        1 -.677207635240D-04 0.100000000000D+01
0.229771491217D-09 0.000000000000D+00 0.000000000000D+00 0.348770998407D-07 0.152369725961D-09  6 22 21 9900012 11 2 -1 2 0.32125991D-01 0.20575402D-02 0.19915894D+04 0.19915894D+04 0.19915894D+04 0.12895422D+01  1  2 11  3  6  2        1 0.257876579680D-05 0.100000000000D+01
  </mgrwgt>
  </event>
  <event>
  6     66 0.14626492E-05 0.14198618E+02 0.78161638E-02 0.13040711E+00
       22 -1    0    0    0    0 0.00000000E+00 0.00000000E+00 0.66634352E+02 0.66634352E+02 0.00000000E+00 0.0000E+00 0.9000E+01
        1 -1    0    0  501    0 0.00000000E+00 0.00000000E+00 -.36200554E+02 0.36200554E+02 0.00000000E+00 0.0000E+00 0.9000E+01
      -24  2    1    2    0    0 0.45702265E+01 -.13442983E+02 0.15169401E+02 0.81987782E+02 0.79311316E+02 0.0000E+00 0.0000E+00
  9900012  1    3    3    0    0 0.55398129E+00 0.14435455E+02 0.61208006E+01 0.52403754E+02 0.50000000E+02 0.0000E+00 0.9000E+01
       11  1    3    3    0    0 0.40162452E+01 -.27878438E+02 0.90485999E+01 0.29584028E+02 0.00000000E+00 0.0000E+00 0.9000E+01
        2  1    1    2  501    0 -.45702265E+01 0.13442983E+02 0.15264397E+02 0.20847124E+02 0.00000000E+00 0.0000E+00 0.9000E+01
#aMCatNLO 1  0  0  2  5 0.96767201D+01 0.00000000D+00  -5  6  0 0.00000000D+00 0.00000000D+00 0.00000000D+00 0.00000000D+00 0.00000000D+00
  <mgrwgt>
 0.6825928652D-04    8    2    0
 0.491141575772606D+02 0.000000000000000D+00 0.000000000000000D+00 0.491141575772606D+02
 0.491141575772606D+02 0.000000000000000D+00 0.000000000000000D+00 -.491141575772606D+02
 0.529649311135493D+02 0.553981290953661D+00 0.144354550220833D+02 -.982825879277241D+01
 0.281679214199046D+02 0.401624523741248D+01 -.278784381357050D+02 0.307015349050868D+00
 0.170954626210674D+02 -.457022652836614D+01 0.134429831136217D+02 0.952124344372153D+01
 0.000000000000000D+00 -.000000000000000D+00 0.000000000000000D+00 0.000000000000000D+00
 0.539480256083968D+02 0.000000000000000D+00 0.000000000000000D+00 0.539480256083968D+02
 0.495780706824149D+02 0.000000000000000D+00 0.000000000000000D+00 -.495780706824149D+02
 0.529270195527145D+02 0.210042257889606D+01 0.141514293562798D+02 -.982825879277241D+01
 0.284472617805488D+02 0.484305082815600D+01 -.280302925968035D+02 0.307015349050868D+00
 0.168973561295180D+02 -.407379693122779D+01 0.133518068446285D+02 0.952124344372153D+01
 0.525445882803042D+01 -.286967647582427D+01 0.527056395895275D+00 0.436995492598191D+01
0.590474239998D-07 0.000000000000D+00 0.000000000000D+00 0.131377280448D-06 0.000000000000D+00  6 22 1 9900012 11 2 21 0 0.10251439D-01 0.55693160D-02 0.22283090D+04 0.22283090D+04 0.22283090D+04 0.12834177D+01  1  2  2  1  6  2        1 0.341931921455D-04 0.100000000000D+01
-.155160546944D-09 0.000000000000D+00 -.113378827852D-09 0.131377280448D-06 0.000000000000D+00  6 22 1 9900012 11 2 21 2 0.10251439D-01 0.55693160D-02 0.22283090D+04 0.22283090D+04 0.22283090D+04 0.12834177D+01  1  2  3  1  6  2        1 -.147998061458D-06 0.100000000000D+01
0.126453625171D-08 0.000000000000D+00 0.000000000000D+00 0.131377280448D-06 0.000000000000D+00  6 22 1 9900012 11 2 21 2 0.10251439D-01 0.55693160D-02 0.22283090D+04 0.22283090D+04 0.22283090D+04 0.12834177D+01  1  2 15  1  6  2        1 0.120616302006D-05 0.100000000000D+01
0.345208455657D-07 0.000000000000D+00 0.000000000000D+00 0.131377280448D-06 0.000000000000D+00  6 22 1 9900012 11 2 21 2 0.10251439D-01 0.61752372D-02 0.23682447D+04 0.23682447D+04 0.23682447D+04 0.12801344D+01  1  2 12  1  6  2        1 0.288498877741D-04 0.100000000000D+01
-.246336285566D-08 0.000000000000D+00 0.000000000000D+00 0.131377280448D-06 0.000000000000D+00  6 22 1 9900012 11 2 21 2 0.10251439D-01 0.55693160D-02 0.22283090D+04 0.22283090D+04 0.22283090D+04 0.12834177D+01  1  2  4  1  6  2        1 -.234964966601D-05 0.100000000000D+01
0.348586500814D-14 0.000000000000D+00 0.000000000000D+00 0.131377280448D-06 0.563000001502D-07  6 22 1 9900012 11 2 21 2 0.11260396D-01 0.56219216D-02 0.23682447D+04 0.23682447D+04 0.23682447D+04 0.12801344D+01  1  2 11  1  6  2        1 0.288680767635D-11 0.100000000000D+01
0.576701474143D-09 0.000000000000D+00 0.000000000000D+00 0.131377280448D-06 0.000000000000D+00  6 22 21 9900012 11 2 -1 2 0.10251439D-01 0.61752372D-02 0.23682447D+04 0.23682447D+04 0.23682447D+04 0.12801344D+01  1  2 12  3  6  2        1 0.650766678485D-05 0.100000000000D+01
0.188816764565D-14 0.000000000000D+00 0.000000000000D+00 0.131377280448D-06 0.533875373093D-09  6 22 21 9900012 11 2 -1 2 0.11260396D-01 0.56219216D-02 0.23682447D+04 0.23682447D+04 0.23682447D+04 0.12801344D+01  1  2 11  3  6  2        1 0.216313879181D-10 0.100000000000D+01
  </mgrwgt>
  </event>
  <event>
  6     66 0.14626492E-05 0.10747567E+02 0.78161638E-02 0.13269444E+00
       22 -1    0    0    0    0 0.00000000E+00 0.00000000E+00 0.58166550E+01 0.58166550E+01 0.00000000E+00 0.0000E+00 0.9000E+01
        1 -1    0    0  501    0 -.00000000E+00 -.00000000E+00 -.65301511E+03 0.65301511E+03 0.00000000E+00 0.0000E+00 0.9000E+01
      -24  2    1    2    0    0 -.82506913E+01 -.68874004E+01 -.64063738E+03 0.64623979E+03 0.84226472E+02 0.0000E+00 0.0000E+00
  9900012  1    3    3    0    0 -.62175017E+01 0.11287800E+02 -.25532494E+03 0.26049356E+03 0.50000000E+02 0.0000E+00 0.9000E+01
       11  1    3    3    0    0 -.20331896E+01 -.18175201E+02 -.38531244E+03 0.38574623E+03 0.00000000E+00 0.0000E+00 0.9000E+01
        2  1    1    2  501    0 0.82506913E+01 0.68874004E+01 -.65610723E+01 0.12591976E+02 0.00000000E+00 0.0000E+00 0.9000E+01
#aMCatNLO 1  0  0  5  5 0.16004337D+02 0.00000000D+00  -5  6  0 0.00000000D+00 0.00000000D+00 0.00000000D+00 0.00000000D+00 0.00000000D+00
  <mgrwgt>
 0.6468617641D-04    4    2    0
 0.616308658962997D+02 0.000000000000000D+00 0.000000000000000D+00 0.616308658962997D+02
 0.616308658962997D+02 -.000000000000000D+00 -.000000000000000D+00 -.616308658962997D+02
 0.517234960467641D+02 -.621750169594126D+01 0.112878002084018D+02 0.304109888293521D+01
 0.386839351611788D+02 -.203318963947528D+01 -.181752006275669D+02 -.340877553029223D+02
 0.328543005846565D+02 0.825069133541654D+01 0.688740041916503D+01 0.310466564199871D+02
 0.000000000000000D+00 0.000000000000000D+00 -.000000000000000D+00 0.000000000000000D+00
 0.616308658962997D+02 0.000000000000000D+00 0.000000000000000D+00 0.616308658962997D+02
 0.616308658962997D+02 -.000000000000000D+00 -.000000000000000D+00 -.616308658962997D+02
 0.532093226906075D+02 -.387235131441336D+01 0.132454530963976D+02 0.118657022026548D+02
 0.327472243550631D+02 -.436770015870580D+00 -.168425630657203D+02 -.280805627488358D+02
 0.138516040629505D+02 0.941697133308344D+01 0.801076606588358D+01 -.624621589975250D+01
 0.234535806839783D+02 -.510785000279950D+01 -.441365609656096D+01 0.224610764459335D+02
0.238397416140D-06 0.000000000000D+00 0.000000000000D+00 0.110643361210D-06 0.000000000000D+00  6 22 1 9900012 11 2 21 0 0.89487001D-03 0.10046386D+00 0.16269184D+04 0.16269184D+04 0.16269184D+04 0.13008111D+01  1  2  2  2  6  5        2 0.930988048652D-04 0.100000000000D+01
-.122306985861D-07 0.000000000000D+00 -.457754424729D-09 0.110643361210D-06 0.000000000000D+00  6 22 1 9900012 11 2 21 2 0.89487001D-03 0.10046386D+00 0.16269184D+04 0.16269184D+04 0.16269184D+04 0.13008111D+01  1  2  3  2  6  5        2 -.808206408534D-05 0.100000000000D+01
0.128727075239D-07 0.000000000000D+00 0.000000000000D+00 0.110643361210D-06 0.000000000000D+00  6 22 1 9900012 11 2 21 2 0.89487001D-03 0.10046386D+00 0.16269184D+04 0.16269184D+04 0.16269184D+04 0.13008111D+01  1  2 15  2  6  5        2 0.850630456044D-05 0.100000000000D+01
-.436392298152D-07 0.000000000000D+00 0.000000000000D+00 0.110643361210D-06 0.000000000000D+00  6 22 1 9900012 11 2 21 2 0.89487001D-03 0.10046386D+00 0.16269184D+04 0.16269184D+04 0.16269184D+04 0.13008111D+01  1  2  4  2  6  5        2 -.288368689260D-04 0.100000000000D+01
  </mgrwgt>
  </event>
  <event>
  7     66 0.14626492E-05 0.22511844E+02 0.78161638E-02 0.12986405E+00
       22 -1    0    0    0    0 0.00000000E+00 0.00000000E+00 0.67030918E+01 0.67030918E+01 0.00000000E+00 0.0000E+00 0.9000E+01
        1 -1    0    0  501    0 -.00000000E+00 -.00000000E+00 -.11440658E+04 0.11440658E+04 0.00000000E+00 0.0000E+00 0.9000E+01
      -24  2    1    2    0    0 0.15258969E+02 0.16439741E+02 -.10933307E+04 0.10966189E+04 0.81840530E+02 0.0000E+00 0.0000E+00
  9900012  1    3    3    0    0 0.29685145E+02 0.45361792E+01 -.98179566E+03 0.98352656E+03 0.50000000E+02 0.0000E+00 0.9000E+01
       11  1    3    3    0    0 -.14426175E+02 0.11903562E+02 -.11153504E+03 0.11309233E+03 0.00000000E+00 0.0000E+00 0.9000E+01
        2  1    1    2  502    0 0.10876503E+00 0.12265965E+00 0.24564572E+01 0.24619214E+01 0.00000000E+00 0.0000E+00 0.9000E+01
       21  1    1    2  501  502 -.15367734E+02 -.16562401E+02 -.46488493E+02 0.51688107E+02 0.00000000E+00 0.0000E+00 0.9000E+01
#aMCatNLO 2  0  0  5  2 0.11035841D+02 0.00000000D+00  -5  6  0 0.00000000D+00 0.00000000D+00 0.00000000D+00 0.00000000D+00 0.00000000D+00
  <mgrwgt>
 0.1358480713D+00    2    2    0
 0.875715604208543D+02 0.000000000000000D+00 0.000000000000000D+00 0.875715604208543D+02
 0.875715604208543D+02 -.000000000000000D+00 -.000000000000000D+00 -.875715604208543D+02
 0.879576956837384D+02 0.301027686181809D+02 0.498611985257494D+01 -.656164473309030D+02
 0.187350051894860D+02 -.143364078284271D+02 0.120002757227445D+02 0.120880627281171D+01
 0.684504199684841D+02 -.157663607897538D+02 -.169863955753195D+02 0.644076410580913D+02
 0.000000000000000D+00 0.000000000000000D+00 -.000000000000000D+00 0.000000000000000D+00
 0.875715604208543D+02 0.000000000000000D+00 0.000000000000000D+00 0.875715604208543D+02
 0.875715604208543D+02 -.000000000000000D+00 -.000000000000000D+00 -.875715604208543D+02
 0.865235447125773D+02 0.296851445881064D+02 0.453617918007592D+01 -.639103986754802D+02
 0.187694319887757D+02 -.144261753826036D+02 0.119035617628520D+02 0.157551844470496D+01
 0.321279273272618D+02 0.108765033221125D+00 0.122659646774513D+00 0.321275090712682D+02
 0.377222168130937D+02 -.153677342387239D+02 -.165624005897025D+02 0.302073711595071D+02
-.164111629135D-06 0.000000000000D+00 0.000000000000D+00 0.336230361059D-07 0.000000000000D+00  6 22 1 9900012 11 2 21 2 0.10312449D-02 0.17601013D+00 0.24892995D+04 0.24892995D+04 0.24892995D+04 0.12774662D+01  1  2 13  2  6  5        2 -.380634212716D-04 0.100000000000D+01
0.585877312218D-03 0.000000000000D+00 0.000000000000D+00 0.336230361059D-07 0.236017658935D-05  6 22 1 9900012 11 2 21 2 0.10312449D-02 0.17601013D+00 0.24892995D+04 0.24892995D+04 0.24892995D+04 0.12774662D+01  1  2  1  2  6  5        2 0.135886134736D+00 0.100000000000D+01
  </mgrwgt>
  </event>
  <event>
  6     66 0.14626492E-05 0.25229357E+02 0.78161638E-02 0.12981027E+00
       22 -1    0    0    0    0 0.00000000E+00 0.00000000E+00 0.38893155E+02 0.38893155E+02 0.00000000E+00 0.0000E+00 0.9000E+01
        3 -1    0    0  501    0 -.00000000E+00 -.00000000E+00 -.78866515E+02 0.78866515E+02 0.00000000E+00 0.0000E+00 0.9000E+01
      -24  2    1    2    0    0 0.15192892E+02 -.20418738E+02 -.23714879E+02 0.87558891E+02 0.80351820E+02 0.0000E+00 0.0000E+00
  9900012  1    3    3    0    0 0.11793335E+02 0.29072777E+01 0.34775159E+01 0.51571583E+02 0.50000000E+02 0.0000E+00 0.9000E+01
       11  1    3    3    0    0 0.33995569E+01 -.23326016E+02 -.27192395E+02 0.35987308E+02 0.00000000E+00 0.0000E+00 0.9000E+01
        4  1    1    2  501    0 -.15192892E+02 0.20418738E+02 -.16258482E+02 0.30200779E+02 0.00000000E+00 0.0000E+00 0.9000E+01
#aMCatNLO 1  0  0  5  2 0.21176074D+01 0.00000000D+00  -5  6  0 0.00000000D+00 0.00000000D+00 0.00000000D+00 0.00000000D+00 0.00000000D+00
  <mgrwgt>
 0.1609047485D-04    8    2    0
 0.553838206599363D+02 0.000000000000000D+00 0.000000000000000D+00 0.553838206599363D+02
 0.553838206599363D+02 -.000000000000000D+00 -.000000000000000D+00 -.553838206599363D+02
 0.560819069765528D+02 0.117933351678907D+02 0.290727768012431D+01 0.223079643229760D+02
 0.284458718703896D+02 0.339955693737091D+01 -.233260161270148D+02 -.159219223317551D+02
 0.262398624729300D+02 -.151928921052616D+02 0.204187384468905D+02 -.638604199122086D+01
 0.000000000000000D+00 -.000000000000000D+00 0.000000000000000D+00 0.000000000000000D+00
 0.553838206599363D+02 0.000000000000000D+00 0.000000000000000D+00 0.553838206599363D+02
 0.553838206599363D+02 -.000000000000000D+00 -.000000000000000D+00 -.553838206599363D+02
 0.560361028023147D+02 0.116426287668984D+02 0.310982203855293D+01 0.222446177660193D+02
 0.283707524002524D+02 0.332318536265911D+01 -.232233752869422D+02 -.159540236643827D+02
 0.560391608876902D+01 -.213652227823442D+01 0.409726696722565D+01 -.317041818753519D+01
 0.207568700285364D+02 -.128292918513231D+02 0.160162862811636D+02 -.312017591410143D+01
0.339296016160D-07 0.000000000000D+00 0.000000000000D+00 0.248940135113D-06 0.000000000000D+00  6 22 3 9900012 11 4 21 0 0.59835623D-02 0.12133310D-01 0.25239348D+04 0.25239348D+04 0.25239348D+04 0.12767296D+01  1  2  2  2  6  5        4 0.951233355208D-05 0.100000000000D+01
-.157781024654D-09 0.000000000000D+00 -.651493020373D-10 0.248940135113D-06 0.000000000000D+00  6 22 3 9900012 11 4 21 2 0.59835623D-02 0.12133310D-01 0.25239348D+04 0.25239348D+04 0.25239348D+04 0.12767296D+01  1  2  3  2  6  5        4 -.721042616801D-07 0.100000000000D+01
0.773095954392D-10 0.000000000000D+00 0.000000000000D+00 0.248940135113D-06 0.000000000000D+00  6 22 3 9900012 11 4 21 2 0.59835623D-02 0.12133310D-01 0.25239348D+04 0.25239348D+04 0.25239348D+04 0.12767296D+01  1  2 15  2  6  5        4 0.353296685210D-07 0.100000000000D+01
0.680136656048D-10 0.000000000000D+00 0.000000000000D+00 0.248940135113D-06 0.000000000000D+00  6 22 3 9900012 11 4 21 2 0.59835623D-02 0.12133310D-01 0.25016769D+04 0.25016769D+04 0.25016769D+04 0.12772016D+01  1  2 12  2  6  5        4 0.310680793231D-07 0.100000000000D+01
-.465173512020D-07 0.000000000000D+00 0.000000000000D+00 0.248940135113D-06 0.000000000000D+00  6 22 3 9900012 11 4 21 2 0.59835623D-02 0.12133310D-01 0.25239348D+04 0.25239348D+04 0.25239348D+04 0.12767296D+01  1  2  4  2  6  5        4 -.212579381525D-04 0.100000000000D+01
-.375314581517D-07 0.000000000000D+00 0.000000000000D+00 0.248940135113D-06 0.000000000000D+00  6 22 3 9900012 11 4 21 2 0.59835623D-02 0.12133310D-01 0.25239348D+04 0.25239348D+04 0.25239348D+04 0.12767296D+01  1  2  5  2  6  5        4 -.171514799434D-04 0.100000000000D+01
0.749869094576D-07 0.000000000000D+00 -.000000000000D+00 0.248940135113D-06 0.000000000000D+00  6 22 3 9900012 11 4 21 2 0.59835623D-02 0.12133310D-01 0.25239348D+04 0.25239348D+04 0.25239348D+04 0.12767296D+01  1  2  6  2  6  5        4 0.342682255611D-04 0.100000000000D+01
0.234790602989D-07 0.000000000000D+00 0.000000000000D+00 0.248940135113D-06 0.327541309022D-07  6 22 3 9900012 11 4 21 2 0.59835623D-02 0.12133310D-01 0.25016769D+04 0.25016769D+04 0.25016769D+04 0.12772016D+01  1  2 11  2  6  5        4 0.107250403476D-04 0.100000000000D+01
  </mgrwgt>
  </event>
  <event>
  6     66 -.14626492E-05 0.12570282E+02 0.78161638E-02 0.13374471E+00
       22 -1    0    0    0    0 0.00000000E+00 0.00000000E+00 0.16966583E+04 0.16966583E+04 0.00000000E+00 0.0000E+00 0.9000E+01
        3 -1    0    0  501    0 0.00000000E+00 0.00000000E+00 -.12521783E+01 0.12521783E+01 0.00000000E+00 0.0000E+00 0.9000E+01
      -24  2    1    2    0    0 -.92108704E+01 0.85540552E+01 0.14998290E+04 0.15019298E+04 0.78409896E+02 0.0000E+00 0.0000E+00
  9900012  1    3    3    0    0 0.95770470E+01 0.91972693E+01 0.13401311E+04 0.13411292E+04 0.50000000E+02 0.0000E+00 0.9000E+01
       11  1    3    3    0    0 -.18787917E+02 -.64321415E+00 0.15969790E+03 0.16080055E+03 0.00000000E+00 0.0000E+00 0.9000E+01
        4  1    1    2  501    0 0.92108704E+01 -.85540552E+01 0.19557719E+03 0.19598074E+03 0.00000000E+00 0.0000E+00 0.9000E+01
#aMCatNLO 1  0  0  2  5 0.83876713D+00 0.00000000D+00  -5  6  0 0.00000000D+00 0.00000000D+00 0.00000000D+00 0.00000000D+00 0.00000000D+00
  <mgrwgt>
 -.4889981360D-04   11    2    0
 0.460925020711924D+02 0.000000000000000D+00 0.000000000000000D+00 0.460925020711924D+02
 0.460925020711924D+02 0.000000000000000D+00 0.000000000000000D+00 -.460925020711924D+02
 0.547913580235415D+02 0.957704698854364D+01 0.919726934337438D+01 0.180494687364630D+02
 0.246477381718802D+02 -.187879173744574D+02 -.643214146226710D+00 -.159408730401510D+02
 0.127459079469631D+02 0.921087038591381D+01 -.855405519714767D+01 -.210859569631195D+01
 0.000000000000000D+00 0.000000000000000D+00 0.000000000000000D+00 -.000000000000000D+00
 0.462515629317093D+02 0.000000000000000D+00 0.000000000000000D+00 0.462515629317093D+02
 0.470512247269947D+02 0.000000000000000D+00 0.000000000000000D+00 -.470512247269947D+02
 0.546986262097343D+02 0.946544110441151D+01 0.874996070063157D+01 0.180494687364630D+02
 0.246921704817279D+02 -.188382107795287D+02 -.844786625458029D+00 -.159408730401510D+02
 0.127974762760982D+02 0.918483337440171D+01 -.865840973339029D+01 -.210859569631195D+01
 0.111451469114358D+01 0.187936300715441D+00 0.753235658216747D+00 -.799661795285384D+00
0.290668174296D-06 0.000000000000D+00 0.000000000000D+00 0.104197058983D-06 0.000000000000D+00  6 22 3 9900012 11 4 21 0 0.26102436D+00 0.19264281D-03 0.17264967D+04 0.17264967D+04 0.17264967D+04 0.12974698D+01  1  2  2  1  6  2        3 0.406220184252D-04 0.100000000000D+01
0.110927696641D-07 0.000000000000D+00 -.558121161992D-09 0.104197058983D-06 0.000000000000D+00  6 22 3 9900012 11 4 21 2 0.26102436D+00 0.19264281D-03 0.17264967D+04 0.17264967D+04 0.17264967D+04 0.12974698D+01  1  2  3  1  6  2        3 0.260974772583D-05 0.100000000000D+01
0.310704978456D-08 0.000000000000D+00 0.000000000000D+00 0.104197058983D-06 0.000000000000D+00  6 22 3 9900012 11 4 21 2 0.26102436D+00 0.19264281D-03 0.17264967D+04 0.17264967D+04 0.17264967D+04 0.12974698D+01  1  2 15  1  6  2        3 0.730982104092D-06 0.100000000000D+01
0.724428226859D-12 0.000000000000D+00 0.000000000000D+00 0.104197058983D-06 0.000000000000D+00  6 22 3 9900012 11 4 21 2 0.26102436D+00 0.19732840D-03 0.17594197D+04 0.17594197D+04 0.17594197D+04 0.12964126D+01  1  2 12  1  6  2        3 0.165325858819D-09 0.100000000000D+01
-.168282450520D-05 0.000000000000D+00 0.000000000000D+00 0.104197058983D-06 0.000000000000D+00  6 22 3 9900012 11 4 21 2 0.26102436D+00 0.19264281D-03 0.17264967D+04 0.17264967D+04 0.17264967D+04 0.12974698D+01  1  2  4  1  6  2        3 -.395910810228D-03 0.100000000000D+01
-.125904765483D-04 0.000000000000D+00 -.125659881341D-05 0.104197058983D-06 0.000000000000D+00  6 22 3 9900012 11 4 21 2 0.26102436D+00 0.19738679D-03 0.17264967D+04 0.17264967D+04 0.17264967D+04 0.12974698D+01  1  2  5  1  6  2        3 -.286780272847D-02 0.100000000000D+01
0.126176842389D-04 0.000000000000D+00 0.125622706166D-05 0.104197058983D-06 0.000000000000D+00  6 22 3 9900012 11 4 21 2 0.26102436D+00 0.19264281D-03 0.17264967D+04 0.17264967D+04 0.17264967D+04 0.12974698D+01  1  2  6  1  6  2        3 0.296850775278D-02 0.100000000000D+01
0.169158319457D-05 0.000000000000D+00 0.000000000000D+00 0.104197058983D-06 0.916064389921D-06  6 22 3 9900012 11 4 21 2 0.26192513D+00 0.19664978D-03 0.17594197D+04 0.17594197D+04 0.17594197D+04 0.12964126D+01  1  2 11  1  6  2        3 0.383996355343D-03 0.100000000000D+01
0.356324037596D-13 0.000000000000D+00 0.000000000000D+00 0.104197058983D-06 0.000000000000D+00  6 22 21 9900012 11 4 -3 2 0.26102436D+00 0.19732840D-03 0.17594197D+04 0.17594197D+04 0.17594197D+04 0.12964126D+01  1  2 12  3  6  2        3 0.179014618375D-09 0.100000000000D+01
-.551203367719D-07 0.000000000000D+00 -.552830792475D-08 0.104197058983D-06 0.000000000000D+00  6 22 21 9900012 11 4 -3 2 0.26102436D+00 0.19738679D-03 0.17264967D+04 0.17264967D+04 0.17264967D+04 0.12974698D+01  1  2  5  3  6  2        3 -.276261327312D-03 0.100000000000D+01
0.189291465931D-07 0.000000000000D+00 0.000000000000D+00 0.104197058983D-06 0.576392988780D-08  6 22 21 9900012 11 4 -3 2 0.26192513D+00 0.19664978D-03 0.17594197D+04 0.17594197D+04 0.17594197D+04 0.12964126D+01  1  2 11  3  6  2        3 0.946078516863D-04 0.100000000000D+01
  </mgrwgt>
  </event>
  <event>
  7     66 0.14626492E-05 0.25264469E+02 0.78161638E-02 0.11987159E+00
       22 -1    0    0    0    0 0.00000000E+00 0.00000000E+00 0.61769513E+02 0.61769513E+02 0.00000000E+00 0.0000E+00 0.9000E+01
       21 -1    0    0  501  502 0.00000000E+00 0.00000000E+00 -.11882158E+03 0.11882158E+03 0.00000000E+00 0.0000E+00 0.9000E+01
      -24  2    1    2    0    0 -.20585751E+02 -.51545895E+02 -.25401258E+02 0.10058724E+03 0.79948833E+02 0.0000E+00 0.0000E+00
  9900012  1    3    3    0    0 0.99250230E+00 -.55900038E+02 -.16237062E+02 0.76742697E+02 0.50000000E+02 0.0000E+00 0.9000E+01
       11  1    3    3    0    0 -.21578253E+02 0.43541439E+01 -.91641958E+01 0.23844540E+02 0.00000000E+00 0.0000E+00 0.9000E+01
        4  1    1    2  501    0 -.96871802E+01 0.26426444E+02 0.20276449E+01 0.28218961E+02 0.00000000E+00 0.0000E+00 0.9000E+01
       -3  1    1    2    0  502 0.30272931E+02 0.25119451E+02 -.33678451E+02 0.51784894E+02 0.00000000E+00 0.0000E+00 0.9000E+01
#aMCatNLO 2  0  0  2  5 0.46669966D+02 0.00000000D+00  -5  6  0 0.00000000D+00 0.00000000D+00 0.00000000D+00 0.00000000D+00 0.00000000D+00
  <mgrwgt>
 0.5210023186D-05    1    2    0
 0.602023120348086D+02 0.000000000000000D+00 0.000000000000000D+00 0.602023120348086D+02
 0.602023120348086D+02 0.000000000000000D+00 0.000000000000000D+00 -.602023120348086D+02
 0.675329865347271D+02 0.184617458633580D+02 -.414046531401768D+02 -.235008687457944D+01
 0.192123920012304D+02 -.164605079344440D+02 0.860067533203855D+01 -.491894996741295D+01
 0.336592455336597D+02 -.200123792891396D+01 0.328039778081382D+02 0.726903684199240D+01
 0.000000000000000D+00 0.000000000000000D+00 0.000000000000000D+00 -.000000000000000D+00
 0.742104859041337D+02 0.000000000000000D+00 0.000000000000000D+00 0.742104859041337D+02
 0.989018057258462D+02 0.000000000000000D+00 0.000000000000000D+00 -.989018057258462D+02
 0.750421366337947D+02 0.992502295748213D+00 -.559000384744052D+02 -.235008687457944D+01
 0.225560558881281D+02 -.215782533966574D+02 0.435414386488172D+01 -.491894996741295D+01
 0.290695250712629D+02 -.968718024508411D+01 0.264264437667612D+02 0.726903684199240D+01
 0.464445740367943D+02 0.302729313459933D+02 0.251194508427623D+02 -.246913198217125D+02
0.244110456566D-08 0.000000000000D+00 0.000000000000D+00 0.141365054682D-06 0.900227249910D-10  6 22 21 9900012 11 4 -3 2 0.95030021D-02 0.18280243D-01 0.67652266D+04 0.67652266D+04 0.67652266D+04 0.12273348D+01  1  2  1  3  6  2        3 0.521002318625D-05 0.100000000000D+01
  </mgrwgt>
  </event>
  <event>
  6     66 0.14626492E-05 0.26604384E+02 0.78161638E-02 0.12717447E+00
       22 -1    0    0    0    0 0.00000000E+00 0.00000000E+00 0.40503569E+01 0.40503569E+01 0.00000000E+00 0.0000E+00 0.9000E+01
        1 -1    0    0  501    0 -.00000000E+00 -.00000000E+00 -.18587429E+04 0.18587429E+04 0.00000000E+00 0.0000E+00 0.9000E+01
      -24  2    1    2    0    0 0.10092000E+02 0.24615946E+02 -.17996415E+04 0.18016507E+04 0.80795811E+02 0.0000E+00 0.0000E+00
  9900012  1    3    3    0    0 0.30076657E+02 0.96652852E+01 -.13810056E+04 0.13822715E+04 0.50000000E+02 0.0000E+00 0.9000E+01
       11  1    3    3    0    0 -.19984658E+02 0.14950661E+02 -.41863589E+03 0.41937921E+03 0.00000000E+00 0.0000E+00 0.9000E+01
        2  1    1    2  501    0 -.10092000E+02 -.24615946E+02 -.55051018E+02 0.61142521E+02 0.00000000E+00 0.0000E+00 0.9000E+01
#aMCatNLO 1  0  0  5  2 0.35709136D+01 0.00000000D+00  -5  6  0 0.00000000D+00 0.00000000D+00 0.00000000D+00 0.00000000D+00 0.00000000D+00
  <mgrwgt>
 0.5069601001D-04    6    2    0
 0.867673446043533D+02 0.000000000000000D+00 0.000000000000000D+00 0.867673446043533D+02
 0.867673446043533D+02 -.000000000000000D+00 -.000000000000000D+00 -.867673446043533D+02
 0.780549119293925D+02 0.300766572494393D+02 0.966528518351753D+01 -.509366884212769D+02
 0.275212457411516D+02 -.199846575139495D+02 0.149506608182034D+02 -.115978520551883D+02
 0.679585315381625D+02 -.100919997354899D+02 -.246159460017209D+02 0.625345404764652D+02
 0.000000000000000D+00 -.000000000000000D+00 0.000000000000000D+00 0.000000000000000D+00
 0.867673446043533D+02 0.000000000000000D+00 0.000000000000000D+00 0.867673446043533D+02
 0.867673446043533D+02 -.000000000000000D+00 -.000000000000000D+00 -.867673446043533D+02
 0.774135605023389D+02 0.299405127367180D+02 0.933320769031340D+01 -.500930761774637D+02
 0.273684212581111D+02 -.200327246676956D+02 0.148334176065424D+02 -.113000064893631D+02
 0.334321668483712D+01 0.277115912308728D+01 -.109747825915428D+01 0.151436996370949D+01
 0.654094907634195D+02 -.126789471921097D+02 -.230691470377015D+02 0.598787127031173D+02
0.358971431989D-06 0.000000000000D+00 0.000000000000D+00 0.192708171812D-06 0.000000000000D+00  6 22 1 9900012 11 2 21 0 0.62313183D-03 0.28596044D+00 0.30639885D+04 0.30639885D+04 0.30639885D+04 0.12665249D+01  1  2  2  2  6  5        2 0.349135967312D-04 0.100000000000D+01
-.219436712644D-07 0.000000000000D+00 -.689272409093D-09 0.192708171812D-06 0.000000000000D+00  6 22 1 9900012 11 2 21 2 0.62313183D-03 0.28596044D+00 0.30639885D+04 0.30639885D+04 0.30639885D+04 0.12665249D+01  1  2  3  2  6  5        2 -.342350870086D-05 0.100000000000D+01
0.357872590023D-07 0.000000000000D+00 0.000000000000D+00 0.192708171812D-06 0.000000000000D+00  6 22 1 9900012 11 2 21 2 0.62313183D-03 0.28596044D+00 0.30639885D+04 0.30639885D+04 0.30639885D+04 0.12665249D+01  1  2 15  2  6  5        2 0.558329511493D-05 0.100000000000D+01
0.371655543133D-08 0.000000000000D+00 0.000000000000D+00 0.192708171812D-06 0.000000000000D+00  6 22 1 9900012 11 2 21 2 0.62313183D-03 0.28596044D+00 0.32065374D+04 0.32065374D+04 0.32065374D+04 0.12641683D+01  1  2 12  2  6  5        2 0.579306557765D-06 0.100000000000D+01
-.572141401535D-07 0.000000000000D+00 0.000000000000D+00 0.192708171812D-06 0.000000000000D+00  6 22 1 9900012 11 2 21 2 0.62313183D-03 0.28596044D+00 0.30639885D+04 0.30639885D+04 0.30639885D+04 0.12665249D+01  1  2  5  2  6  5        2 -.892617758749D-05 0.100000000000D+01
0.140945852663D-06 0.000000000000D+00 0.000000000000D+00 0.192708171812D-06 0.613449931873D-08  6 22 1 9900012 11 2 21 2 0.62313183D-03 0.28596044D+00 0.32065374D+04 0.32065374D+04 0.32065374D+04 0.12641683D+01  1  2 11  2  6  5        2 0.219694978982D-04 0.100000000000D+01
  </mgrwgt>
  </event>
  <event>
  7     66 0.14626492E-05 0.33580435E+02 0.78161638E-02 0.12336789E+00
       22 -1    0    0    0    0 0.00000000E+00 0.00000000E+00 0.27252844E+02 0.27252844E+02 0.00000000E+00 0.0000E+00 0.9000E+01
        1 -1    0    0  501    0 -.00000000E+00 -.00000000E+00 -.41709372E+03 0.41709372E+03 0.00000000E+00 0.0000E+00 0.9000E+01
      -24  2    1    2    0    0 -.18781625E+01 0.23235350E+02 -.36493280E+03 0.37382175E+03 0.77610199E+02 0.0000E+00 0.0000E+00
  9900012  1    3    3    0    0 -.16252202E+02 0.17388565E+02 -.18215191E+03 0.19038334E+03 0.50000000E+02 0.0000E+00 0.9000E+01
       11  1    3    3    0    0 0.14374039E+02 0.58467850E+01 -.18278089E+03 0.18343842E+03 0.00000000E+00 0.0000E+00 0.9000E+01
        2  1    1    2  502    0 -.80373190E+01 0.19999869E+02 -.66550739E+01 0.22558441E+02 0.00000000E+00 0.0000E+00 0.9000E+01
       21  1    1    2  501  502 0.99154816E+01 -.43235219E+02 -.18253002E+02 0.47966374E+02 0.00000000E+00 0.0000E+00 0.9000E+01
#aMCatNLO 2  0  0  5  2 0.29311929D+02 0.00000000D+00  -5  6  0 0.00000000D+00 0.00000000D+00 0.00000000D+00 0.00000000D+00 0.00000000D+00
  <mgrwgt>
 0.1544495488D-04    1    2    0
 0.106616088500967D+03 0.000000000000000D+00 0.000000000000000D+00 0.106616088500967D+03
 0.106616088500967D+03 -.000000000000000D+00 -.000000000000000D+00 -.106616088500967D+03
 0.677381387689500D+02 -.164106395430078D+02 0.193486479549812D+02 -.380102114698827D+02
 0.530018570175798D+02 0.142521922825252D+02 0.735419384641129D+01 -.505172019744097D+02
 0.924921812154042D+02 0.215844726048256D+01 -.267028418013925D+02 0.885274134442924D+02
 0.000000000000000D+00 0.000000000000000D+00 0.000000000000000D+00 0.000000000000000D+00
 0.106616088500967D+03 0.000000000000000D+00 0.000000000000000D+00 0.106616088500967D+03
 0.106616088500967D+03 -.000000000000000D+00 -.000000000000000D+00 -.106616088500967D+03
 0.637142169070564D+02 -.162522018487630D+02 0.173885645365663D+02 -.315119849343733D+02
 0.480920232656261D+02 0.143740393290232D+02 0.584678504093712D+01 -.455197188022321D+02
 0.348415807440226D+02 -.803731904213477D+01 0.199998692221939D+02 0.273741206699380D+02
 0.665843560852289D+02 0.991548156187458D+01 -.432352187996973D+02 0.496575830666674D+02
0.100053053755D-06 0.000000000000D+00 0.000000000000D+00 0.278098244781D-06 0.395767685149D-09  6 22 1 9900012 11 2 21 2 0.41927453D-02 0.64168265D-01 0.46789493D+04 0.46789493D+04 0.46789493D+04 0.12451051D+01  1  2  1  2  6  5        2 0.154449548810D-04 0.100000000000D+01
  </mgrwgt>
  </event>
  <event>
  7     66 0.14626492E-05 0.14236662E+02 0.78161638E-02 0.13071242E+00
       22 -1    0    0    0    0 0.00000000E+00 0.00000000E+00 0.52110716E+03 0.52110716E+03 0.00000000E+00 0.0000E+00 0.9000E+01
        3 -1    0    0  502    0 0.00000000E+00 0.00000000E+00 -.90780853E+01 0.90780853E+01 0.00000000E+00 0.0000E+00 0.9000E+01
      -24  2    1    2    0    0 0.14749198E+02 -.50902255E+01 0.25675313E+03 0.26949057E+03 0.80371332E+02 0.0000E+00 0.0000E+00
  9900012  1    3    3    0    0 -.75458789E+01 -.19092522E+02 0.14694496E+03 0.15657038E+03 0.50000000E+02 0.0000E+00 0.9000E+01
       11  1    3    3    0    0 0.22295077E+02 0.14002297E+02 0.10980817E+03 0.11292019E+03 0.00000000E+00 0.0000E+00 0.9000E+01
        4  1    1    2  501    0 -.88282092E+00 0.23146054E+00 0.23805782E+03 0.23805957E+03 0.00000000E+00 0.0000E+00 0.9000E+01
       21  1    1    2  502  501 -.13866377E+02 0.48587650E+01 0.17218129E+02 0.22635105E+02 0.00000000E+00 0.0000E+00 0.9000E+01
#aMCatNLO 2  0  0  2  5 0.29579308D+02 0.00000000D+00  -5  6  0 0.00000000D+00 0.00000000D+00 0.00000000D+00 0.00000000D+00 0.00000000D+00
  <mgrwgt>
 0.9147303692D-03    1    2    0
 0.560209538028655D+02 0.000000000000000D+00 0.000000000000000D+00 0.560209538028655D+02
 0.560209538028655D+02 0.000000000000000D+00 0.000000000000000D+00 -.560209538028655D+02
 0.604168136486887D+02 -.149531542236549D+02 -.164970199796287D+02 -.255820812682569D+02
 0.244306353861248D+02 0.191657186781450D+02 0.150988205699387D+02 -.124771403645707D+01
 0.271944585709174D+02 -.421256445449012D+01 0.139819940968998D+01 0.268297953047140D+02
 0.000000000000000D+00 -.000000000000000D+00 0.000000000000000D+00 -.000000000000000D+00
 0.587470319177093D+02 0.000000000000000D+00 0.000000000000000D+00 0.587470319177093D+02
 0.805258602859204D+02 0.000000000000000D+00 0.000000000000000D+00 -.805258602859204D+02
 0.597988926861107D+02 -.754587889490630D+01 -.190925219961295D+02 -.255820812682569D+02
 0.263570019772441D+02 0.222950769352051D+02 0.140022965032513D+02 -.124771403645707D+01
 0.268453136104785D+02 -.882820917188494D+00 0.231460537171658D+00 0.268297953047140D+02
 0.262716839297963D+02 -.138663771231103D+02 0.485876495570657D+01 -.217788283682112D+02
0.416523966756D-05 0.000000000000D+00 0.000000000000D+00 0.174656988907D-05 0.144341845498D-05  6 22 3 9900012 11 4 21 2 0.80170333D-01 0.13966285D-02 0.23032167D+04 0.23032167D+04 0.23032167D+04 0.12816321D+01  1  2  1  1  6  2        3 0.914730369196D-03 0.100000000000D+01
  </mgrwgt>
  </event>
  <event>
  6     66 0.14626492E-05 0.12064687E+02 0.78161638E-02 0.13147964E+00
       22 -1    0    0    0    0 0.00000000E+00 0.00000000E+00 0.45934463E+02 0.45934463E+02 0.00000000E+00 0.0000E+00 0.9000E+01
        3 -1    0    0  501    0 -.00000000E+00 -.00000000E+00 -.58075388E+02 0.58075388E+02 0.00000000E+00 0.0000E+00 0.9000E+01
      -24  2    1    2    0    0 -.12002947E+02 0.12189873E+01 -.26045800E+02 0.85600554E+02 0.80644371E+02 0.0000E+00 0.0000E+00
  9900012  1    3    3    0    0 -.30961533E+02 0.94466817E+01 -.12416930E+02 0.60844363E+02 0.50000000E+02 0.0000E+00 0.9000E+01
       11  1    3    3    0    0 0.18958586E+02 -.82276944E+01 -.13628870E+02 0.24756192E+02 0.00000000E+00 0.0000E+00 0.9000E+01
        4  1    1    2  501    0 0.12002947E+02 -.12189873E+01 0.13904875E+02 0.18409297E+02 0.00000000E+00 0.0000E+00 0.9000E+01
#aMCatNLO 1  0  0  5  2 0.28542384D+01 0.00000000D+00  -5  6  0 0.00000000D+00 0.00000000D+00 0.00000000D+00 0.00000000D+00 0.00000000D+00
  <mgrwgt>
 0.3086520514D-03    8    2    0
 0.516494119942392D+02 0.000000000000000D+00 0.000000000000000D+00 0.516494119942392D+02
 0.516494119942392D+02 -.000000000000000D+00 -.000000000000000D+00 -.516494119942392D+02
 0.598037791654375D+02 -.309615325906097D+02 0.944668173766241D+01 -.535123408723083D+01
 0.233247642912588D+02 0.189585857758550D+02 -.822769444634101D+01 -.108130337426635D+02
 0.201702805317822D+02 0.120029468147548D+02 -.121898729132140D+01 0.161642678298944D+02
 0.000000000000000D+00 0.000000000000000D+00 0.000000000000000D+00 0.000000000000000D+00
 0.516494119942392D+02 0.000000000000000D+00 0.000000000000000D+00 0.516494119942392D+02
 0.516494119942392D+02 -.000000000000000D+00 -.000000000000000D+00 -.516494119942392D+02
 0.595021825979675D+02 -.304938295498651D+02 0.939918306324696D+01 -.472138232398227D+01
 0.233678143038473D+02 0.191416299478842D+02 -.824628392464977D+01 -.105665296910297D+02
 0.383604887051068D+01 -.569710318148734D+00 -.156540050863612D+00 0.379027654701035D+01
 0.165927782161530D+02 0.119219099201296D+02 -.996359087733572D+00 0.114976354680016D+02
0.400745727082D-07 0.000000000000D+00 0.000000000000D+00 0.300905077074D-06 0.000000000000D+00  6 22 3 9900012 11 4 21 0 0.70668404D-02 0.89346751D-02 0.21296159D+04 0.21296159D+04 0.21296159D+04 0.12858769D+01  1  2  2  2  6  5        4 0.141783081691D-04 0.100000000000D+01
-.916764816726D-09 0.000000000000D+00 -.769484555383D-10 0.300905077074D-06 0.000000000000D+00  6 22 3 9900012 11 4 21 2 0.70668404D-02 0.89346751D-02 0.21296159D+04 0.21296159D+04 0.21296159D+04 0.12858769D+01  1  2  3  2  6  5        4 -.536305492320D-06 0.100000000000D+01
0.284068812887D-08 0.000000000000D+00 0.000000000000D+00 0.300905077074D-06 0.000000000000D+00  6 22 3 9900012 11 4 21 2 0.70668404D-02 0.89346751D-02 0.21296159D+04 0.21296159D+04 0.21296159D+04 0.12858769D+01  1  2 15  2  6  5        4 0.166179658915D-05 0.100000000000D+01
0.144888109319D-09 0.000000000000D+00 0.000000000000D+00 0.300905077074D-06 0.000000000000D+00  6 22 3 9900012 11 4 21 2 0.70668404D-02 0.89346751D-02 0.21488421D+04 0.21488421D+04 0.21488421D+04 0.12853878D+01  1  2 12  2  6  5        4 0.848003333423D-07 0.100000000000D+01
-.464299748967D-07 0.000000000000D+00 0.000000000000D+00 0.300905077074D-06 0.000000000000D+00  6 22 3 9900012 11 4 21 2 0.70668404D-02 0.89346751D-02 0.21296159D+04 0.21296159D+04 0.21296159D+04 0.12858769D+01  1  2  4  2  6  5        4 -.271614377985D-04 0.100000000000D+01
-.115613870334D-07 0.000000000000D+00 0.000000000000D+00 0.300905077074D-06 0.000000000000D+00  6 22 3 9900012 11 4 21 2 0.70668404D-02 0.89346751D-02 0.21296159D+04 0.21296159D+04 0.21296159D+04 0.12858769D+01  1  2  5  2  6  5        4 -.676338713236D-05 0.100000000000D+01
0.269748347302D-07 0.000000000000D+00 -.000000000000D+00 0.300905077074D-06 0.000000000000D+00  6 22 3 9900012 11 4 21 2 0.70668404D-02 0.89346751D-02 0.21296159D+04 0.21296159D+04 0.21296159D+04 0.12858769D+01  1  2  6  2  6  5        4 0.157802216624D-04 0.100000000000D+01
0.532065412308D-06 0.000000000000D+00 0.000000000000D+00 0.300905077074D-06 0.135477768620D-05  6 22 3 9900012 11 4 21 2 0.70668404D-02 0.89346751D-02 0.21488421D+04 0.21488421D+04 0.21488421D+04 0.12853878D+01  1  2 11  2  6  5        4 0.311408055055D-03 0.100000000000D+01
  </mgrwgt>
  </event>
  <event>
  7     66 0.14626492E-05 0.39788953E+02 0.78161638E-02 0.12409631E+00
       22 -1    0    0    0    0 0.00000000E+00 0.00000000E+00 0.70485511E+03 0.70485511E+03 0.00000000E+00 0.0000E+00 0.9000E+01
       21 -1    0    0  501  502 0.00000000E+00 0.00000000E+00 -.30650521E+02 0.30650521E+02 0.00000000E+00 0.0000E+00 0.9000E+01
      -24  2    1    2    0    0 -.38553230E+02 -.16223040E+02 0.27644105E+03 0.29061714E+03 0.79304039E+02 0.0000E+00 0.0000E+00
  9900012  1    3    3    0    0 -.15507901E+02 0.11455294E+02 0.17023203E+03 0.17846754E+03 0.50000000E+02 0.0000E+00 0.9000E+01
       11  1    3    3    0    0 -.23045329E+02 -.27678334E+02 0.10620902E+03 0.11214961E+03 0.00000000E+00 0.0000E+00 0.9000E+01
        2  1    1    2  501    0 0.73726161E+00 0.14461117E+01 0.40383344E+03 0.40383670E+03 0.00000000E+00 0.0000E+00 0.9000E+01
       -1  1    1    2    0  502 0.37815969E+02 0.14776928E+02 -.60699061E+01 0.41051783E+02 0.00000000E+00 0.0000E+00 0.9000E+01
#aMCatNLO 2  0  0  2  5 0.41250683D+02 0.00000000D+00  -5  6  0 0.00000000D+00 0.00000000D+00 0.00000000D+00 0.00000000D+00 0.00000000D+00
  <mgrwgt>
 0.8697232462D-03    1    2    0
 0.667913825851410D+02 0.000000000000000D+00 0.000000000000000D+00 0.667913825851410D+02
 0.667913825851410D+02 0.000000000000000D+00 0.000000000000000D+00 -.667913825851410D+02
 0.577603673814418D+02 0.550439080776092D+00 0.177302340430428D+02 -.228384731896947D+02
 0.325712175231570D+02 -.129537180582066D+02 -.237349464987902D+02 -.181586815079969D+02
 0.432511802656833D+02 0.124032789774305D+02 0.600471245574738D+01 0.409971546976916D+02
 0.000000000000000D+00 0.000000000000000D+00 0.000000000000000D+00 -.000000000000000D+00
 0.715846055599279D+02 0.000000000000000D+00 0.000000000000000D+00 0.715846055599279D+02
 0.301799199938584D+03 0.000000000000000D+00 0.000000000000000D+00 -.301799199938584D+03
 0.582521639373123D+02 -.155079007292705D+02 0.114552940038306D+02 -.228384731896947D+02
 0.403350356257332D+02 -.230453294904700D+02 -.276783340086786D+02 -.181586815079969D+02
 0.410292759760571D+02 0.737261605936066D+00 0.144611173061280D+01 0.409971546976916D+02
 0.233767329959409D+03 0.378159686138044D+02 0.147769282742352D+02 -.230214594378656D+03
0.214782656266D-05 0.000000000000D+00 0.000000000000D+00 0.710065414289D-06 0.415452400584D-07  6 22 21 9900012 11 2 -1 2 0.10843925D+00 0.47154648D-02 0.43446903D+04 0.43446903D+04 0.43446903D+04 0.12487755D+01  1  2  1  3  6  2        1 0.869723246159D-03 0.100000000000D+01
  </mgrwgt>
  </event>
  <event>
  7     66 -.14626492E-05 0.15279351E+02 0.78161638E-02 0.12742404E+00
       22 -1    0    0    0    0 0.00000000E+00 0.00000000E+00 0.23358978E+03 0.23358978E+03 0.00000000E+00 0.0000E+00 0.9000E+01
        3 -1    0    0  502    0 0.00000000E+00 0.00000000E+00 -.14697624E+02 0.14697624E+02 0.00000000E+00 0.0000E+00 0.9000E+01
      -24  2    1    2    0    0 -.17128984E+01 0.18781245E+02 0.18155508E+03 0.19949130E+03 0.80491389E+02 0.0000E+00 0.0000E+00
  9900012  1    3    3    0    0 -.16725293E+02 0.32055129E+02 0.14889202E+03 0.16117103E+03 0.50000000E+02 0.0000E+00 0.9000E+01
       11  1    3    3    0    0 0.15012395E+02 -.13273884E+02 0.32663064E+02 0.38320278E+02 0.00000000E+00 0.0000E+00 0.9000E+01
        4  1    1    2  501    0 0.11416579E+02 -.16713053E+02 0.18107424E+02 0.27157747E+02 0.00000000E+00 0.0000E+00 0.9000E+01
       21  1    1    2  502  501 -.97036805E+01 -.20681920E+01 0.19229648E+02 0.21638350E+02 0.00000000E+00 0.0000E+00 0.9000E+01
#aMCatNLO 2  0  0  2  5 0.14266342D+02 0.00000000D+00  -5  6  0 0.00000000D+00 0.00000000D+00 0.00000000D+00 0.00000000D+00 0.00000000D+00
  <mgrwgt>
 -.1906777309D-04    2    2    0
 0.533999944381907D+02 0.000000000000000D+00 0.000000000000000D+00 0.533999944381907D+02
 0.533999944381907D+02 0.000000000000000D+00 0.000000000000000D+00 -.533999944381907D+02
 0.645796663868177D+02 -.225271709475061D+02 0.308185473487072D+02 0.146040069518610D+02
 0.191520902564277D+02 0.132297613888675D+02 -.136538251745625D+02 -.231279763197487D+01
 0.230682322331360D+02 0.929740955863859D+01 -.171647221741447D+02 -.122912093198862D+02
 0.000000000000000D+00 -.000000000000000D+00 -.000000000000000D+00 0.000000000000000D+00
 0.587711151499777D+02 0.000000000000000D+00 0.000000000000000D+00 0.587711151499777D+02
 0.584167022832669D+02 0.000000000000000D+00 0.000000000000000D+00 -.584167022832669D+02
 0.634077579536914D+02 -.167252930655526D+02 0.320551294106776D+02 0.146040069518610D+02
 0.201721843709883D+02 0.150123946464731D+02 -.132738839978818D+02 -.231279763197487D+01
 0.236799125002595D+02 0.114165789094449D+02 -.167130534457084D+02 -.122912093198862D+02
 0.992796260830545D+01 -.970368049036531D+01 -.206819196708735D+01 0.354412866710860D+00
-.483628384475D-07 0.000000000000D+00 0.000000000000D+00 0.192281034271D-06 0.000000000000D+00  6 22 3 9900012 11 4 21 2 0.32652599D-01 0.24886080D-02 0.31306273D+04 0.31306273D+04 0.31306273D+04 0.12654081D+01  1  2 13  1  6  2        3 -.212179457707D-04 0.100000000000D+01
0.495966829826D-08 0.000000000000D+00 0.000000000000D+00 0.192281034271D-06 0.300976653377D-08  6 22 3 9900012 11 4 21 2 0.35936889D-01 0.22611729D-02 0.31306273D+04 0.31306273D+04 0.31306273D+04 0.12654081D+01  1  2  1  1  6  2        3 0.215017267999D-05 0.100000000000D+01
  </mgrwgt>
  </event>
  <event>
  6     66 0.14626492E-05 0.33424494E+02 0.78161638E-02 0.12488630E+00
       22 -1    0    0    0    0 0.00000000E+00 0.00000000E+00 0.16647176E+04 0.16647176E+04 0.00000000E+00 0.0000E+00 0.9000E+01
        1 -1    0    0  501    0 0.00000000E+00 0.00000000E+00 -.22949564E+01 0.22949564E+01 0.00000000E+00 0.0000E+00 0.9000E+01
      -24  2    1    2    0    0 -.30227685E+02 -.14264777E+02 0.13612776E+04 0.13640182E+04 0.79699158E+02 0.0000E+00 0.0000E+00
  9900012  1    3    3    0    0 -.10269203E+02 0.67958052E+01 0.10849905E+04 0.10862117E+04 0.50000000E+02 0.0000E+00 0.9000E+01
       11  1    3    3    0    0 -.19958483E+02 -.21060582E+02 0.27628708E+03 0.27780648E+03 0.00000000E+00 0.0000E+00 0.9000E+01
        2  1    1    2  501    0 0.30227685E+02 0.14264777E+02 0.30114509E+03 0.30299433E+03 0.00000000E+00 0.0000E+00 0.9000E+01
#aMCatNLO 1  0  0  2  2 0.50469444D+02 0.00000000D+00  -5  6  0 0.00000000D+00 0.00000000D+00 0.00000000D+00 0.00000000D+00 0.00000000D+00
  <mgrwgt>
 0.2927155434D-04    4    2    0
 0.618098230831305D+02 0.000000000000000D+00 0.000000000000000D+00 0.618098230831305D+02
 0.618098230831305D+02 0.000000000000000D+00 0.000000000000000D+00 -.618098230831305D+02
 0.567538896336949D+02 -.102692025132097D+02 0.679580517165984D+01 0.238613599856578D+02
 0.307474639013362D+02 -.199584829246039D+02 -.210605816867193D+02 -.101743498430756D+02
 0.361182926312298D+02 0.302276854378136D+02 0.142647765150594D+02 -.136870101425822D+02
 0.000000000000000D+00 0.000000000000000D+00 -.000000000000000D+00 0.000000000000000D+00
 0.915529519345083D+02 0.000000000000000D+00 0.000000000000000D+00 0.915529519345083D+02
 0.633548243424760D+02 0.000000000000000D+00 0.000000000000000D+00 -.633548243424760D+02
 0.582246177174836D+02 -.153133781634974D+02 0.928666017487853D+01 0.238613599856578D+02
 0.317357277438627D+02 -.226996577851048D+02 -.197069672233556D+02 -.101743498430756D+02
 0.342525978606376D+02 0.271404725274566D+02 0.157892673847074D+02 -.136870101425822D+02
 0.306948329550004D+02 0.108725634211456D+02 -.536896033623027D+01 0.281981275920323D+02
0.392929029910D-06 0.000000000000D+00 0.000000000000D+00 0.282979258132D-06 0.000000000000D+00  6 22 1 9900012 11 2 21 0 0.25611040D+00 0.35307021D-03 0.32452330D+04 0.32452330D+04 0.32452330D+04 0.12635491D+01  1  2  2  1  6  2        1 0.300911297245D-04 0.100000000000D+01
-.267722557911D-08 0.000000000000D+00 -.754475467723D-09 0.282979258132D-06 0.000000000000D+00  6 22 1 9900012 11 2 21 2 0.25611040D+00 0.35307021D-03 0.32452330D+04 0.32452330D+04 0.32452330D+04 0.12635491D+01  1  2  3  1  6  2        1 -.327335854291D-06 0.100000000000D+01
0.526334607134D-09 0.000000000000D+00 0.000000000000D+00 0.282979258132D-06 0.000000000000D+00  6 22 1 9900012 11 2 21 2 0.25611040D+00 0.35307021D-03 0.32452330D+04 0.32452330D+04 0.32452330D+04 0.12635491D+01  1  2 15  1  6  2        1 0.643532579450D-07 0.100000000000D+01
-.455227996345D-08 0.000000000000D+00 0.000000000000D+00 0.282979258132D-06 0.000000000000D+00  6 22 1 9900012 11 2 21 2 0.25611040D+00 0.35307021D-03 0.32452330D+04 0.32452330D+04 0.32452330D+04 0.12635491D+01  1  2  4  1  6  2        1 -.556592788609D-06 0.100000000000D+01
  </mgrwgt>
  </event>
  <event>
  7     66 0.14626492E-05 0.11272023E+02 0.78161638E-02 0.12877091E+00
       22 -1    0    0    0    0 0.00000000E+00 0.00000000E+00 0.11759166E+02 0.11759166E+02 0.00000000E+00 0.0000E+00 0.9000E+01
        1 -1    0    0  502    0 0.00000000E+00 0.00000000E+00 -.11103421E+04 0.11103421E+04 0.00000000E+00 0.0000E+00 0.9000E+01
      -24  2    1    2    0    0 0.73451403E+01 -.18735396E+01 -.90914871E+03 0.91264756E+03 0.79477862E+02 0.0000E+00 0.0000E+00
  9900012  1    3    3    0    0 -.17057819E+02 -.12972805E+01 -.50365170E+03 0.50641651E+03 0.50000000E+02 0.0000E+00 0.9000E+01
       11  1    3    3    0    0 0.24402959E+02 -.57625915E+00 -.40549701E+03 0.40623105E+03 0.00000000E+00 0.0000E+00 0.9000E+01
        2  1    1    2  501    0 0.87118432E+01 0.66719393E+01 0.65333311E+01 0.12770881E+02 0.00000000E+00 0.0000E+00 0.9000E+01
       21  1    1    2  502  501 -.16056983E+02 -.47983996E+01 -.19596750E+03 0.19668277E+03 0.00000000E+00 0.0000E+00 0.9000E+01
#aMCatNLO 2  0  0  2  5 0.14952189D+01 0.00000000D+00  -5  6  0 0.00000000D+00 0.00000000D+00 0.00000000D+00 0.00000000D+00 0.00000000D+00
  <mgrwgt>
 0.6488045849D-04    1    2    0
 0.101739762697250D+03 0.000000000000000D+00 0.000000000000000D+00 0.101739762697250D+03
 0.101739762697250D+03 0.000000000000000D+00 0.000000000000000D+00 -.101739762697250D+03
 0.703929989891291D+02 -.225398861834776D+02 -.293551787532495D+01 -.440285199878790D+02
 0.468685479540248D+02 0.206418846965610D+02 -.170020235061711D+01 -.420438187544799D+02
 0.862179784513469D+02 0.189800148691659D+01 0.463572022594206D+01 0.860723387423589D+02
 0.000000000000000D+00 -.000000000000000D+00 -.000000000000000D+00 -.000000000000000D+00
 0.105286349800075D+03 0.000000000000000D+00 0.000000000000000D+00 0.105286349800075D+03
 0.124011299227462D+03 0.000000000000000D+00 0.000000000000000D+00 -.124011299227462D+03
 0.687834477593685D+02 -.170578186392554D+02 -.129728046812723D+01 -.440285199878790D+02
 0.486160382564673D+02 0.244029589535001D+02 -.576259150490025D+00 -.420438187544799D+02
 0.867689949310061D+02 0.871184315702569D+01 0.667193926568375D+01 0.860723387423589D+02
 0.251291680806948D+02 -.160569834712704D+02 -.479839964706650D+01 -.187249494273868D+02
0.556778024765D-06 0.000000000000D+00 0.000000000000D+00 0.279114834089D-04 0.127381834548D-06  6 22 1 9900012 11 2 21 2 0.18091025D-02 0.17082185D+00 0.27555742D+04 0.27555742D+04 0.27555742D+04 0.12720782D+01  1  2  1  1  6  2        1 0.648804584917D-04 0.100000000000D+01
  </mgrwgt>
  </event>
  <event>
  6     66 0.14626492E-05 0.29656771E+02 0.78161638E-02 0.12584894E+00
       22 -1    0    0    0    0 0.00000000E+00 0.00000000E+00 0.19932082E+03 0.19932082E+03 0.00000000E+00 0.0000E+00 0.9000E+01
        1 -1    0    0  501    0 0.00000000E+00 0.00000000E+00 -.62311552E+02 0.62311552E+02 0.00000000E+00 0.0000E+00 0.9000E+01
      -24  2    1    2    0    0 0.33144854E+00 -.33067108E+02 -.27982466E+02 0.93359334E+02 0.82700685E+02 0.0000E+00 0.0000E+00
  9900012  1    3    3    0    0 -.32241133E+01 -.48944193E+02 -.12993990E+02 0.71237439E+02 0.50000000E+02 0.0000E+00 0.9000E+01
       11  1    3    3    0    0 0.35555618E+01 0.15877084E+02 -.14988476E+02 0.22121895E+02 0.00000000E+00 0.0000E+00 0.9000E+01
        2  1    1    2  501    0 -.33144854E+00 0.33067108E+02 0.16499174E+03 0.16827304E+03 0.00000000E+00 0.0000E+00 0.9000E+01
#aMCatNLO 1  0  0  5  2 0.52028194D+01 0.00000000D+00  -5  6  0 0.00000000D+00 0.00000000D+00 0.00000000D+00 0.00000000D+00 0.00000000D+00
  <mgrwgt>
 0.1028730837D-04    6    2    0
 0.111445008631367D+03 0.000000000000000D+00 0.000000000000000D+00 0.111445008631367D+03
 0.111445008631367D+03 -.000000000000000D+00 -.000000000000000D+00 -.111445008631367D+03
 0.916071416274378D+02 -.322411325726754D+01 -.489441925374544D+02 -.590418453955358D+02
 0.351804187795530D+02 0.355556179361941D+01 0.158770841541839D+02 -.311919548056457D+02
 0.961024568557429D+02 -.331448536351873D+00 0.330671083832705D+02 0.902338002011814D+02
 0.000000000000000D+00 0.000000000000000D+00 0.000000000000000D+00 0.000000000000000D+00
 0.111445008631367D+03 0.000000000000000D+00 0.000000000000000D+00 0.111445008631367D+03
 0.111445008631367D+03 -.000000000000000D+00 -.000000000000000D+00 -.111445008631367D+03
 0.913183328694488D+02 -.322537713314992D+01 -.488181014065486D+02 -.586977668694844D+02
 0.350851972234138D+02 0.355507631166196D+01 0.159255184742805D+02 -.310597868303930D+02
 0.189968002913655D+02 -.472466522488047D+01 0.839245024167101D+01 0.163744538462785D+02
 0.774896868785056D+02 0.439496604636843D+01 0.245001326905970D+02 0.733830998535988D+02
0.127165799353D-06 0.000000000000D+00 0.000000000000D+00 0.661906528615D-07 0.000000000000D+00  6 22 1 9900012 11 2 21 0 0.30664742D-01 0.95863927D-02 0.35629821D+04 0.35629821D+04 0.35629821D+04 0.12587600D+01  1  2  2  2  6  5        2 0.773774030374D-05 0.100000000000D+01
-.664413798869D-08 0.000000000000D+00 -.244175076520D-09 0.661906528615D-07 0.000000000000D+00  6 22 1 9900012 11 2 21 2 0.30664742D-01 0.95863927D-02 0.35629821D+04 0.35629821D+04 0.35629821D+04 0.12587600D+01  1  2  3  2  6  5        2 -.640572570320D-06 0.100000000000D+01
0.115071498018D-07 0.000000000000D+00 0.000000000000D+00 0.661906528615D-07 0.000000000000D+00  6 22 1 9900012 11 2 21 2 0.30664742D-01 0.95863927D-02 0.35629821D+04 0.35629821D+04 0.35629821D+04 0.12587600D+01  1  2 15  2  6  5        2 0.110942375642D-05 0.100000000000D+01
0.133295229012D-06 0.000000000000D+00 0.000000000000D+00 0.661906528615D-07 0.000000000000D+00  6 22 1 9900012 11 2 21 2 0.30664742D-01 0.95863927D-02 0.36477990D+04 0.36477990D+04 0.36477990D+04 0.12575629D+01  1  2 12  2  6  5        2 0.128560098135D-04 0.100000000000D+01
-.271674615156D-06 0.000000000000D+00 0.000000000000D+00 0.661906528615D-07 0.000000000000D+00  6 22 1 9900012 11 2 21 2 0.30664742D-01 0.95863927D-02 0.35629821D+04 0.35629821D+04 0.35629821D+04 0.12587600D+01  1  2  5  2  6  5        2 -.261926087052D-04 0.100000000000D+01
0.159851669837D-06 0.000000000000D+00 0.000000000000D+00 0.661906528615D-07 0.232753031322D-08  6 22 1 9900012 11 2 21 2 0.30664742D-01 0.95863927D-02 0.36477990D+04 0.36477990D+04 0.36477990D+04 0.12575629D+01  1  2 11  2  6  5        2 0.154173157687D-04 0.100000000000D+01
  </mgrwgt>
  </event>
  <event>
  7     66 -.14626492E-05 0.11190809E+02 0.78161638E-02 0.12640338E+00
       22 -1    0    0    0    0 0.00000000E+00 0.00000000E+00 0.23694200E+03 0.23694200E+03 0.00000000E+00 0.0000E+00 0.9000E+01
        3 -1    0    0  501    0 0.00000000E+00 0.00000000E+00 -.27917846E+02 0.27917846E+02 0.00000000E+00 0.0000E+00 0.9000E+01
      -24  2    1    2    0    0 -.78623239E+01 0.29657941E+02 0.45441772E+02 0.96659403E+02 0.79603241E+02 0.0000E+00 0.0000E+00
  9900012  1    3    3    0    0 0.17480013E+02 0.14288424E+02 0.35729578E+02 0.65469937E+02 0.50000000E+02 0.0000E+00 0.9000E+01
       11  1    3    3    0    0 -.25342337E+02 0.15369517E+02 0.97121944E+01 0.31189466E+02 0.00000000E+00 0.0000E+00 0.9000E+01
        4  1    1    2  502    0 0.10371953E+02 -.15295737E+02 0.43873217E+02 0.47606682E+02 0.00000000E+00 0.0000E+00 0.9000E+01
       21  1    1    2  501  502 -.25096291E+01 -.14362204E+02 0.11970917E+03 0.12059376E+03 0.00000000E+00 0.0000E+00 0.9000E+01
#aMCatNLO 2  0  0  5  2 0.11446515D+02 0.00000000D+00  -5  6  0 0.00000000D+00 0.00000000D+00 0.00000000D+00 0.00000000D+00 0.00000000D+00
  <mgrwgt>
 -.2098380365D-05    2    2    0
 0.813320990040399D+02 0.000000000000000D+00 0.000000000000000D+00 0.813320990040399D+02
 0.813320990040399D+02 -.000000000000000D+00 -.000000000000000D+00 -.813320990040399D+02
 0.615299473631696D+02 0.172343453098598D+02 0.152151206260188D+02 -.275211167758620D+02
 0.392799347259122D+02 -.254982850670420D+02 0.159577798055864D+02 -.252606412109472D+02
 0.618543159189980D+02 0.826393975718220D+01 -.311729004316052D+02 0.527817579868093D+02
 0.000000000000000D+00 0.000000000000000D+00 0.000000000000000D+00 0.000000000000000D+00
 0.813320990040399D+02 0.000000000000000D+00 0.000000000000000D+00 0.813320990040399D+02
 0.813320990040399D+02 -.000000000000000D+00 -.000000000000000D+00 -.813320990040399D+02
 0.606895235862227D+02 0.174800127161273D+02 0.142884239389801D+02 -.259520398024256D+02
 0.383043970424598D+02 -.253423365802381D+02 0.153695172099674D+02 -.242645987020772D+02
 0.211388639245478D+02 0.103719529498779D+02 -.152957369446873D+02 0.102622897710500D+02
 0.425314134548496D+02 -.250962908576715D+01 -.143622042042602D+02 0.399543487334529D+02
-.125779203091D-06 0.000000000000D+00 0.000000000000D+00 0.404301998499D-06 0.000000000000D+00  6 22 3 9900012 11 4 21 2 0.36452616D-01 0.42950533D-02 0.34550956D+04 0.34550956D+04 0.34550956D+04 0.12603300D+01  1  2 13  2  6  5        4 -.210277339432D-04 0.100000000000D+01
0.113227560065D-06 0.000000000000D+00 0.000000000000D+00 0.404301998499D-06 0.424831846930D-08  6 22 3 9900012 11 4 21 2 0.36452616D-01 0.42950533D-02 0.34550956D+04 0.34550956D+04 0.34550956D+04 0.12603300D+01  1  2  1  2  6  5        4 0.189293535781D-04 0.100000000000D+01
  </mgrwgt>
  </event>
  <event>
  6     66 0.14626492E-05 0.19737780E+02 0.78161638E-02 0.12137666E+00
       22 -1    0    0    0    0 0.00000000E+00 0.00000000E+00 0.22551187E+03 0.22551187E+03 0.00000000E+00 0.0000E+00 0.9000E+01
        3 -1    0    0  501    0 0.00000000E+00 0.00000000E+00 -.35858816E+02 0.35858816E+02 0.00000000E+00 0.0000E+00 0.9000E+01
      -24  2    1    2    0    0 -.12700673E+02 -.15108702E+02 0.12301450E+02 0.82924135E+02 0.79595895E+02 0.0000E+00 0.0000E+00
  9900012  1    3    3    0    0 0.13362012E+02 -.18967736E+01 0.14019797E+02 0.53653479E+02 0.50000000E+02 0.0000E+00 0.9000E+01
       11  1    3    3    0    0 -.26062685E+02 -.13211928E+02 -.17183463E+01 0.29270656E+02 0.00000000E+00 0.0000E+00 0.9000E+01
        4  1    1    2  501    0 0.12700673E+02 0.15108702E+02 0.17735160E+03 0.17844655E+03 0.00000000E+00 0.0000E+00 0.9000E+01
#aMCatNLO 1  0  0  5  2 0.12469879D+02 0.00000000D+00  -5  6  0 0.00000000D+00 0.00000000D+00 0.00000000D+00 0.00000000D+00 0.00000000D+00
  <mgrwgt>
 0.4959461073D-04    3    2    0
 0.899254610094535D+02 0.000000000000000D+00 0.000000000000000D+00 0.899254610094535D+02
 0.899254610094535D+02 -.000000000000000D+00 -.000000000000000D+00 -.899254610094535D+02
 0.631887186223759D+02 0.133620117388609D+02 -.189677357860922D+01 -.362032188267815D+02
 0.443499590390740D+02 -.260626848307243D+02 -.132119281934788D+02 -.333631575183200D+02
 0.723122443574571D+02 0.127006730918635D+02 0.151087017720881D+02 0.695663763451015D+02
 0.000000000000000D+00 0.000000000000000D+00 -.000000000000000D+00 0.000000000000000D+00
 0.899254610094535D+02 0.000000000000000D+00 0.000000000000000D+00 0.899254610094535D+02
 0.899254610094535D+02 -.000000000000000D+00 -.000000000000000D+00 -.899254610094535D+02
 0.559867605678599D+02 0.165157532712921D+02 0.185491264582222D+01 -.189289870791082D+02
 0.342512360223430D+02 -.239826608606237D+02 -.107375347801740D+02 -.219700817919987D+02
 0.372151039344075D+02 -.205425620138610D+02 0.309312345268225D+02 0.249516280072683D+01
 0.523978214942965D+02 0.280094696031926D+02 -.220486123924707D+02 0.384039060703801D+02
0.668426046565D-06 0.000000000000D+00 0.000000000000D+00 0.148383070115D-05 0.000000000000D+00  6 22 3 9900012 11 4 21 0 0.34694134D-01 0.55167409D-02 0.25375069D+04 0.25375069D+04 0.25375069D+04 0.12764441D+01  1  2  2  2  6  5        4 0.503836997986D-04 0.100000000000D+01
-.368223349631D-07 0.000000000000D+00 -.128346600971D-08 0.148383070115D-05 0.000000000000D+00  6 22 3 9900012 11 4 21 2 0.34694134D-01 0.55167409D-02 0.25375069D+04 0.25375069D+04 0.25375069D+04 0.12764441D+01  1  2  3  2  6  5        4 -.452221895258D-05 0.100000000000D+01
0.303971480615D-07 0.000000000000D+00 0.000000000000D+00 0.148383070115D-05 0.000000000000D+00  6 22 3 9900012 11 4 21 2 0.34694134D-01 0.55167409D-02 0.25375069D+04 0.25375069D+04 0.25375069D+04 0.12764441D+01  1  2 15  2  6  5        4 0.373312988451D-05 0.100000000000D+01
  </mgrwgt>
  </event>
  <event>
  6     66 0.14626492E-05 0.42034304E+02 0.78161638E-02 0.11591145E+00
       22 -1    0    0    0    0 0.00000000E+00 0.00000000E+00 0.52962197E+01 0.52962197E+01 0.00000000E+00 0.0000E+00 0.9000E+01
        3 -1    0    0  501    0 0.00000000E+00 0.00000000E+00 -.82981695E+03 0.82981695E+03 0.00000000E+00 0.0000E+00 0.9000E+01
      -24  2    1    2    0    0 0.16370120E+01 0.42002416E+02 -.55139787E+03 0.55877465E+03 0.80141198E+02 0.0000E+00 0.0000E+00
  9900012  1    3    3    0    0 -.12544715E+02 0.14743539E+02 -.24273214E+03 0.24858325E+03 0.50000000E+02 0.0000E+00 0.9000E+01
       11  1    3    3    0    0 0.14181727E+02 0.27258877E+02 -.30866573E+03 0.31019140E+03 0.00000000E+00 0.0000E+00 0.9000E+01
        4  1    1    2  501    0 -.16370120E+01 -.42002416E+02 -.27312286E+03 0.27633853E+03 0.00000000E+00 0.0000E+00 0.9000E+01
#aMCatNLO 1  0  0  2  5 0.62167983D+01 0.00000000D+00  -5  6  0 0.00000000D+00 0.00000000D+00 0.00000000D+00 0.00000000D+00 0.00000000D+00
  <mgrwgt>
 0.5459737656D-05    3    2    0
 0.662939886804207D+02 0.000000000000000D+00 0.000000000000000D+00 0.662939886804207D+02
 0.662939886804207D+02 0.000000000000000D+00 0.000000000000000D+00 -.662939886804207D+02
 0.562454234069480D+02 -.125447148884953D+02 0.147435388543071D+02 0.169942885889571D+02
 0.342687540294442D+02 0.141817268834854D+02 0.272588767487564D+02 -.151716763651510D+02
 0.420737999244492D+02 -.163701199499013D+01 -.420024156030635D+02 -.182261222380607D+01
 0.000000000000000D+00 -.000000000000000D+00 -.000000000000000D+00 0.000000000000000D+00
 0.111743844865755D+03 0.000000000000000D+00 0.000000000000000D+00 0.111743844865755D+03
 0.100084619453998D+03 0.000000000000000D+00 0.000000000000000D+00 -.100084619453998D+03
 0.566514036406363D+02 0.131422284461405D+02 0.157434913941920D+02 0.169942885889571D+02
 0.453320681766344D+02 0.322929693592031D+02 0.279639190995776D+02 -.151716763651510D+02
 0.451047221599039D+02 0.181983528716790D+02 -.412302558634022D+02 -.182261222380607D+01
 0.647402703425781D+02 -.636335506770226D+02 -.247715463036743D+01 0.116592254117563D+02
0.121561658303D-06 0.000000000000D+00 0.000000000000D+00 0.254352758392D-06 0.000000000000D+00  6 22 3 9900012 11 4 21 0 0.81480304D-03 0.12766415D+00 0.39928646D+04 0.39928646D+04 0.39928646D+04 0.12529965D+01  1  2  2  1  6  2        3 0.563852555812D-05 0.100000000000D+01
-.353832625156D-08 0.000000000000D+00 -.233414387902D-09 0.254352758392D-06 0.000000000000D+00  6 22 3 9900012 11 4 21 2 0.81480304D-03 0.12766415D+00 0.39928646D+04 0.39928646D+04 0.39928646D+04 0.12529965D+01  1  2  3  1  6  2        3 -.257671581647D-06 0.100000000000D+01
0.108322459557D-08 0.000000000000D+00 0.000000000000D+00 0.254352758392D-06 0.000000000000D+00  6 22 3 9900012 11 4 21 2 0.81480304D-03 0.12766415D+00 0.39928646D+04 0.39928646D+04 0.39928646D+04 0.12529965D+01  1  2 15  1  6  2        3 0.788836797331D-07 0.100000000000D+01
  </mgrwgt>
  </event>
  <event>
  7     66 0.14626492E-05 0.15960826E+02 0.78161638E-02 0.13105737E+00
       22 -1    0    0    0    0 0.00000000E+00 0.00000000E+00 0.54727899E+03 0.54727899E+03 0.00000000E+00 0.0000E+00 0.9000E+01
        1 -1    0    0  502    0 0.00000000E+00 0.00000000E+00 -.70857564E+02 0.70857564E+02 0.00000000E+00 0.0000E+00 0.9000E+01
      -24  2    1    2    0    0 0.11221144E+02 -.10970755E+02 0.17711654E+03 0.19494342E+03 0.79914948E+02 0.0000E+00 0.0000E+00
  9900012  1    3    3    0    0 0.90470176E+01 -.29440922E+02 0.15661730E+03 0.16726505E+03 0.50000000E+02 0.0000E+00 0.9000E+01
       11  1    3    3    0    0 0.21741262E+01 0.18470167E+02 0.20499232E+02 0.27678374E+02 0.00000000E+00 0.0000E+00 0.9000E+01
        2  1    1    2  501    0 0.15584831E+00 -.79144899E+00 0.36016779E+03 0.36016870E+03 0.00000000E+00 0.0000E+00 0.9000E+01
       21  1    1    2  502  501 -.11376992E+02 0.11762204E+02 -.60862908E+02 0.63024432E+02 0.00000000E+00 0.0000E+00 0.9000E+01
#aMCatNLO 2  0  0  2  5 0.10562387D+02 0.00000000D+00  -5  6  0 0.00000000D+00 0.00000000D+00 0.00000000D+00 0.00000000D+00 0.00000000D+00
  <mgrwgt>
 0.8413664468D-02    1    2    0
 0.692950726352037D+02 0.000000000000000D+00 0.000000000000000D+00 0.692950726352037D+02
 0.692950726352037D+02 0.000000000000000D+00 0.000000000000000D+00 -.692950726352037D+02
 0.595541196984242D+02 0.406022584014073D+01 -.242852828339231D+02 -.209864903415900D+02
 0.327815484293687D+02 -.441949096962918D+00 0.211748191606141D+02 -.250212236299112D+02
 0.462544771426147D+02 -.361827674317781D+01 0.311046367330900D+01 0.460077139715012D+02
 0.000000000000000D+00 -.000000000000000D+00 0.000000000000000D+00 -.000000000000000D+00
 0.699145199178670D+02 0.000000000000000D+00 0.000000000000000D+00 0.699145199178670D+02
 0.554660980427218D+03 0.000000000000000D+00 0.000000000000000D+00 -.554660980427218D+03
 0.623622415816056D+02 0.904701758387604D+01 -.294409217087700D+02 -.209864903415900D+02
 0.311758802391912D+02 0.217412616878698D+01 0.184701665437147D+02 -.250212236299112D+02
 0.460147848531977D+02 0.155848313461634D+00 -.791448991279151D+00 0.460077139715012D+02
 0.485022593671091D+03 -.113769920661247D+02 0.117622041563345D+02 -.484746460509351D+03
0.555881858487D-03 0.000000000000D+00 0.000000000000D+00 0.944607292680D-05 0.544381597026D-04  6 22 1 9900012 11 2 21 2 0.84196767D-01 0.10901164D-01 0.22322508D+04 0.22322508D+04 0.22322508D+04 0.12833220D+01  1  2  1  1  6  2        1 0.841366446822D-02 0.100000000000D+01
  </mgrwgt>
  </event>
  <event>
  6     66 0.14626492E-05 0.19868263E+02 0.78161638E-02 0.13314753E+00
       22 -1    0    0    0    0 0.00000000E+00 0.00000000E+00 0.12441245E+04 0.12441245E+04 0.00000000E+00 0.0000E+00 0.9000E+01
        3 -1    0    0  501    0 0.00000000E+00 0.00000000E+00 -.27285742E+01 0.27285742E+01 0.00000000E+00 0.0000E+00 0.9000E+01
      -24  2    1    2    0    0 -.18558918E+02 -.70932677E+01 0.62729847E+03 0.63243430E+03 0.77942430E+02 0.0000E+00 0.0000E+00
  9900012  1    3    3    0    0 -.24148088E+00 0.57947506E+01 0.53878546E+03 0.54113160E+03 0.50000000E+02 0.0000E+00 0.9000E+01
       11  1    3    3    0    0 -.18317437E+02 -.12888018E+02 0.88513013E+02 0.91302699E+02 0.00000000E+00 0.0000E+00 0.9000E+01
        4  1    1    2  501    0 0.18558918E+02 0.70932677E+01 0.61409742E+03 0.61441874E+03 0.00000000E+00 0.0000E+00 0.9000E+01
#aMCatNLO 1  0  0  5  2 0.96824012D+01 0.00000000D+00  -5  6  0 0.00000000D+00 0.00000000D+00 0.00000000D+00 0.00000000D+00 0.00000000D+00
  <mgrwgt>
 0.3116584183D-04    6    2    0
 0.582639329742241D+02 0.000000000000000D+00 0.000000000000000D+00 0.582639329742241D+02
 0.582639329742241D+02 -.000000000000000D+00 -.000000000000000D+00 -.582639329742241D+02
 0.503358135722624D+02 -.241480875839903D+00 0.579475055133712D+01 0.238077751871163D+00
 0.339949417059875D+02 -.183174367806719D+02 -.128880182519321D+02 -.255739429286420D+02
 0.321971106701983D+02 0.185589176565118D+02 0.709326770059502D+01 0.253358651767708D+02
 0.000000000000000D+00 0.000000000000000D+00 0.000000000000000D+00 -.000000000000000D+00
 0.582639329742241D+02 0.000000000000000D+00 0.000000000000000D+00 0.582639329742241D+02
 0.582639329742241D+02 -.000000000000000D+00 -.000000000000000D+00 -.582639329742241D+02
 0.507209147758751D+02 0.267096922670081D+01 0.690789672851723D+01 0.421403392009917D+01
 0.308048394519549D+02 -.164499101709848D+02 -.121742446135299D+02 -.230244730041143D+02
 0.289286967751616D+02 0.139065152093617D+02 0.496983616705982D+01 0.248752700550893D+02
 0.607341494545649D+01 -.127574265077665D+00 0.296511717952893D+00 -.606483097107420D+01
0.161054808321D-06 0.000000000000D+00 0.000000000000D+00 0.103264085674D-06 0.000000000000D+00  6 22 3 9900012 11 4 21 0 0.19140376D+00 0.41978064D-03 0.21437178D+04 0.21437178D+04 0.21437178D+04 0.12855177D+01  1  2  2  2  6  5        4 0.185030854968D-04 0.100000000000D+01
-.817744243496D-08 0.000000000000D+00 -.309246435328D-09 0.103264085674D-06 0.000000000000D+00  6 22 3 9900012 11 4 21 2 0.19140376D+00 0.41978064D-03 0.21437178D+04 0.21437178D+04 0.21437178D+04 0.12855177D+01  1  2  3  2  6  5        4 -.155254456198D-05 0.100000000000D+01
0.804625417006D-08 0.000000000000D+00 0.000000000000D+00 0.103264085674D-06 0.000000000000D+00  6 22 3 9900012 11 4 21 2 0.19140376D+00 0.41978064D-03 0.21437178D+04 0.21437178D+04 0.21437178D+04 0.12855177D+01  1  2 15  2  6  5        4 0.152763755359D-05 0.100000000000D+01
0.825812583294D-07 0.000000000000D+00 0.000000000000D+00 0.103264085674D-06 0.000000000000D+00  6 22 3 9900012 11 4 21 2 0.19140376D+00 0.41978064D-03 0.18533508D+04 0.18533508D+04 0.18533508D+04 0.12935151D+01  1  2 12  2  6  5        4 0.155164375627D-04 0.100000000000D+01
-.148995138544D-07 0.000000000000D+00 0.000000000000D+00 0.103264085674D-06 0.000000000000D+00  6 22 3 9900012 11 4 21 2 0.19140376D+00 0.41978064D-03 0.21437178D+04 0.21437178D+04 0.21437178D+04 0.12855177D+01  1  2  4  2  6  5        4 -.282877677156D-05 0.100000000000D+01
0.135912722913D-13 0.000000000000D+00 0.000000000000D+00 0.103264085674D-06 0.120832023387D-04  6 22 3 9900012 11 4 21 2 0.19140376D+00 0.41978064D-03 0.18533508D+04 0.18533508D+04 0.18533508D+04 0.12935151D+01  1  2 11  2  6  5        4 0.255370446238D-11 0.100000000000D+01
  </mgrwgt>
  </event>
  <event>
  7     66 0.14626492E-05 0.19106136E+02 0.78161638E-02 0.12241122E+00
       22 -1    0    0    0    0 0.00000000E+00 0.00000000E+00 0.16127490E+03 0.16127490E+03 0.00000000E+00 0.0000E+00 0.9000E+01
       21 -1    0    0  501  502 0.00000000E+00 0.00000000E+00 -.15970209E+03 0.15970209E+03 0.00000000E+00 0.0000E+00 0.9000E+01
      -24  2    1    2    0    0 0.41481356E+02 -.36975058E+02 0.10269151E+03 0.14093765E+03 0.78930458E+02 0.0000E+00 0.0000E+00
  9900012  1    3    3    0    0 0.32940489E+02 -.42539778E+02 0.10707190E+03 0.12984260E+03 0.50000000E+02 0.0000E+00 0.9000E+01
       11  1    3    3    0    0 0.85408668E+01 0.55647199E+01 -.43803842E+01 0.11095057E+02 0.00000000E+00 0.0000E+00 0.9000E+01
        4  1    1    2  501    0 -.15373509E+02 0.28934535E+02 0.31011968E+02 0.45114235E+02 0.00000000E+00 0.0000E+00 0.9000E+01
       -3  1    1    2    0  502 -.26107847E+02 0.80405231E+01 -.13213067E+03 0.13492510E+03 0.00000000E+00 0.0000E+00 0.9000E+01
#aMCatNLO 2  0  0  2  2 0.53826373D+02 0.00000000D+00  -5  6  0 0.00000000D+00 0.00000000D+00 0.00000000D+00 0.00000000D+00 0.00000000D+00
  <mgrwgt>
 0.5103637370D-04    1    2    0
 0.632305589507470D+02 0.000000000000000D+00 0.000000000000000D+00 0.632305589507470D+02
 0.632305589507470D+02 0.000000000000000D+00 0.000000000000000D+00 -.632305589507470D+02
 0.683176574605081D+02 0.182062038754658D+02 -.380020092970799D+02 0.197910017614304D+02
 0.195450464256570D+02 0.445618582702127D+01 0.682269309054881D+01 -.177651936845146D+02
 0.385984140153290D+02 -.226623897024871D+02 0.311793162065311D+02 -.202580807691570D+01
 0.000000000000000D+00 -.000000000000000D+00 0.000000000000000D+00 -.000000000000000D+00
 0.652543691033933D+02 0.000000000000000D+00 0.000000000000000D+00 0.652543691033933D+02
 0.394700602460335D+03 0.000000000000000D+00 0.000000000000000D+00 -.394700602460335D+03
 0.760683393120114D+02 0.329404889989628D+02 -.425397776143173D+02 0.197910017614304D+02
 0.204820560584293D+02 0.854086684769634D+01 0.556471986916180D+01 -.177651936845146D+02
 0.328276708448072D+02 -.153735090415570D+02 0.289345346338882D+02 -.202580807691570D+01
 0.330576905348480D+03 -.261078468051022D+02 0.804052311126732D+01 -.329446233356941D+03
0.163069986350D-06 0.000000000000D+00 0.000000000000D+00 0.130754011934D-06 0.171338649779D-08  6 22 21 9900012 11 4 -3 2 0.24811523D-01 0.24569552D-01 0.51642526D+04 0.51642526D+04 0.51642526D+04 0.12402680D+01  1  2  1  3  6  2        3 0.510363737004D-04 0.100000000000D+01
  </mgrwgt>
  </event>
  <event>
  7     66 -.14626492E-05 0.96495259E+01 0.78161638E-02 0.13349000E+00
       22 -1    0    0    0    0 0.00000000E+00 0.00000000E+00 0.36552954E+01 0.36552954E+01 0.00000000E+00 0.0000E+00 0.9000E+01
        1 -1    0    0  502    0 0.00000000E+00 0.00000000E+00 -.60662790E+03 0.60662790E+03 0.00000000E+00 0.0000E+00 0.9000E+01
      -24  2    1    2    0    0 0.11824224E+02 0.86016835E+01 -.50030176E+03 0.50620852E+03 0.75706084E+02 0.0000E+00 0.0000E+00
  9900012  1    3    3    0    0 -.47371494E+01 0.10600849E+02 -.24277996E+03 0.24814699E+03 0.50000000E+02 0.0000E+00 0.9000E+01
       11  1    3    3    0    0 0.16561373E+02 -.19991651E+01 -.25752180E+03 0.25806153E+03 0.00000000E+00 0.0000E+00 0.9000E+01
        2  1    1    2  501    0 -.11406332E+02 -.38450824E+01 -.65314658E+02 0.66414559E+02 0.00000000E+00 0.0000E+00 0.9000E+01
       21  1    1    2  502  501 -.41789234E+00 -.47566010E+01 -.37356184E+02 0.37660116E+02 0.00000000E+00 0.0000E+00 0.9000E+01
#aMCatNLO 2  0  0  2  5 0.61749742D+01 0.00000000D+00  -5  6  0 0.00000000D+00 0.00000000D+00 0.00000000D+00 0.00000000D+00 0.00000000D+00
  <mgrwgt>
 -.1695742375D-03    2    2    0
 0.445882706278661D+02 0.000000000000000D+00 0.000000000000000D+00 0.445882706278661D+02
 0.445882706278661D+02 0.000000000000000D+00 0.000000000000000D+00 -.445882706278661D+02
 0.529950565441194D+02 -.498640569101872D+01 0.776372371191241D+01 0.149444427973770D+02
 0.237284093550399D+02 0.164504061370874D+02 -.326223546283226D+01 -.167862851229884D+02
 0.124530753565729D+02 -.114640004460686D+02 -.450148824908015D+01 0.184184232561141D+01
 0.000000000000000D+00 -.000000000000000D+00 -.000000000000000D+00 -.000000000000000D+00
 0.465890481631532D+02 0.000000000000000D+00 0.000000000000000D+00 0.465890481631532D+02
 0.475949667375182D+02 0.000000000000000D+00 0.000000000000000D+00 -.475949667375182D+02
 0.534617147613092D+02 -.473714939967588D+01 0.106008485632362D+02 0.149444427973770D+02
 0.236654837518197D+02 0.165613734892178D+02 -.199916510774252D+01 -.167862851229884D+02
 0.121770869259016D+02 -.114063317526599D+02 -.384508241742797D+01 0.184184232561141D+01
 0.487972946164080D+01 -.417892336882031D+00 -.475660103806572D+01 -.100591857436503D+01
-.149132794228D-06 0.000000000000D+00 0.000000000000D+00 0.200211279265D-07 0.000000000000D+00  6 22 1 9900012 11 2 21 2 0.53820276D-03 0.97515182D-01 0.17987775D+04 0.17987775D+04 0.17987775D+04 0.12951775D+01  1  2 13  1  6  2        1 -.198772068858D-03 0.100000000000D+01
0.218527339877D-07 0.000000000000D+00 0.000000000000D+00 0.200211279265D-07 0.802991796961D-08  6 22 1 9900012 11 2 21 2 0.56235314D-03 0.93327369D-01 0.17987775D+04 0.17987775D+04 0.17987775D+04 0.12951775D+01  1  2  1  1  6  2        1 0.291978314007D-04 0.100000000000D+01
  </mgrwgt>
  </event>
  <event>
  6     66 0.14626492E-05 0.38815505E+02 0.78161638E-02 0.12550313E+00
       22 -1    0    0    0    0 0.00000000E+00 0.00000000E+00 0.55214017E+02 0.55214017E+02 0.00000000E+00 0.0000E+00 0.9000E+01
        3 -1    0    0  501    0 -.00000000E+00 -.00000000E+00 -.72725980E+02 0.72725980E+02 0.00000000E+00 0.0000E+00 0.9000E+01
      -24  2    1    2    0    0 0.33815760E+02 -.19056175E+02 -.12021881E+02 0.88738155E+02 0.78887838E+02 0.0000E+00 0.0000E+00
  9900012  1    3    3    0    0 0.27558850E+02 0.74627689E+01 0.29414534E+01 0.57652713E+02 0.50000000E+02 0.0000E+00 0.9000E+01
       11  1    3    3    0    0 0.62569099E+01 -.26518944E+02 -.14963334E+02 0.31085442E+02 0.00000000E+00 0.0000E+00 0.9000E+01
        4  1    1    2  501    0 -.33815760E+02 0.19056175E+02 -.54900819E+01 0.39201842E+02 0.00000000E+00 0.0000E+00 0.9000E+01
#aMCatNLO 1  0  0  5  2 0.20918023D+01 0.00000000D+00  -5  6  0 0.00000000D+00 0.00000000D+00 0.00000000D+00 0.00000000D+00 0.00000000D+00
  <mgrwgt>
 0.1654170881D-04    6    2    0
 0.633679215056775D+02 0.000000000000000D+00 0.000000000000000D+00 0.633679215056775D+02
 0.633679215056775D+02 -.000000000000000D+00 -.000000000000000D+00 -.633679215056775D+02
 0.586069284866552D+02 0.275588499347136D+02 0.746276885945224D+01 0.109356727212479D+02
 0.293132067630510D+02 0.625690989927707D+01 -.265189441448307D+02 -.108102160334128D+02
 0.388157077616489D+02 -.338157598339907D+02 0.190561752853785D+02 -.125456687835114D+00
 0.000000000000000D+00 0.000000000000000D+00 0.000000000000000D+00 0.000000000000000D+00
 0.633679215056775D+02 0.000000000000000D+00 0.000000000000000D+00 0.633679215056775D+02
 0.633679215056775D+02 -.000000000000000D+00 -.000000000000000D+00 -.633679215056775D+02
 0.583242236233342D+02 0.268376742143131D+02 0.786917258975366D+01 0.109329971546579D+02
 0.290551100249189D+02 0.589692188796822D+01 -.263160803121736D+02 -.108115515912645D+02
 0.380573313625299D+02 -.333013914370901D+02 0.183924724518515D+02 0.104630583434827D+01
 0.129917800057203D+01 0.566795334808799D+00 0.544352705684558D-01 -.116775139774160D+01
0.860034555618D-07 0.000000000000D+00 0.000000000000D+00 0.102569541244D-06 0.000000000000D+00  6 22 3 9900012 11 4 21 0 0.84944641D-02 0.11188612D-01 0.38217255D+04 0.38217255D+04 0.38217255D+04 0.12552033D+01  1  2  2  2  6  5        4 0.178553944671D-04 0.100000000000D+01
-.233035176576D-08 0.000000000000D+00 -.165137957294D-09 0.102569541244D-06 0.000000000000D+00  6 22 3 9900012 11 4 21 2 0.84944641D-02 0.11188612D-01 0.38217255D+04 0.38217255D+04 0.38217255D+04 0.12552033D+01  1  2  3  2  6  5        4 -.762260063317D-06 0.100000000000D+01
-.447178847999D-09 0.000000000000D+00 0.000000000000D+00 0.102569541244D-06 0.000000000000D+00  6 22 3 9900012 11 4 21 2 0.84944641D-02 0.11188612D-01 0.38217255D+04 0.38217255D+04 0.38217255D+04 0.12552033D+01  1  2 15  2  6  5        4 -.146272585109D-06 0.100000000000D+01
0.359021478768D-10 0.000000000000D+00 0.000000000000D+00 0.102569541244D-06 0.000000000000D+00  6 22 3 9900012 11 4 21 2 0.84944641D-02 0.11188612D-01 0.37743443D+04 0.37743443D+04 0.37743443D+04 0.12558339D+01  1  2 12  2  6  5        4 0.117374380975D-07 0.100000000000D+01
-.145767504394D-06 0.000000000000D+00 0.000000000000D+00 0.102569541244D-06 0.000000000000D+00  6 22 3 9900012 11 4 21 2 0.84944641D-02 0.11188612D-01 0.38217255D+04 0.38217255D+04 0.38217255D+04 0.12552033D+01  1  2  4  2  6  5        4 -.476806758368D-04 0.100000000000D+01
0.144569146879D-06 0.000000000000D+00 0.000000000000D+00 0.102569541244D-06 0.184559738415D-05  6 22 3 9900012 11 4 21 2 0.84944641D-02 0.11188612D-01 0.37743443D+04 0.37743443D+04 0.37743443D+04 0.12558339D+01  1  2 11  2  6  5        4 0.472637853901D-04 0.100000000000D+01
  </mgrwgt>
  </event>
</LesHouchesEvents>
