<LesHouchesEvents version="3.0">
  <!--
  <scalesfunctionalform>
    muR  H_T/2 := sum_i mT(i)/2, i=final state
    muF1 H_T/2 := sum_i mT(i)/2, i=final state
    muF2 H_T/2 := sum_i mT(i)/2, i=final state
    QES  H_T/2 := sum_i mT(i)/2, i=final state
  </scalesfunctionalform>
PYTHIA8   
  -->
  <header>
       11
  </header>
  <init>
   2212   2212 0.65000000D+04 0.65000000D+04 -1 -1  82200  82200 -4   1
 0.33487821D-05 0.65190025D-07 0.46271530D-06     66
  </init>
  <event>
  7     66 0.46271530E-06 0.16855683E+02 0.78161638E-02 0.12365532E+00
       21 -1    0    0  501  502 0.00000000E+00 0.00000000E+00 0.10812509E+03 0.10812509E+03 0.00000000E+00 0.0000E+00 0.9000E+01
       22 -1    0    0    0    0 0.00000000E+00 0.00000000E+00 -.76941318E+02 0.76941318E+02 0.00000000E+00 0.0000E+00 0.9000E+01
       24  2    1    2    0    0 0.31337878E+02 -.43310856E+01 -.41720752E+02 0.95750943E+02 0.80167331E+02 0.0000E+00 0.0000E+00
  9900012  1    3    3    0    0 0.10212465E+02 -.22909161E+02 -.37397990E+02 0.67288437E+02 0.50000000E+02 0.0000E+00 0.9000E+01
      -13  1    3    3    0    0 0.21125413E+02 0.18578076E+02 -.43227625E+01 0.28462506E+02 0.00000000E+00 0.0000E+00 0.9000E+01
        3  1    1    2  501    0 -.13925155E+02 -.17788604E+02 0.24542568E+02 0.33356889E+02 0.00000000E+00 0.0000E+00 0.9000E+01
       -4  1    1    2    0  502 -.17412723E+02 0.22119689E+02 0.48361957E+02 0.55958578E+02 0.00000000E+00 0.0000E+00 0.9000E+01
#aMCatNLO 2  0  0  1  5 0.32498293D-01 0.00000000D+00  -5  6  0 0.00000000D+00 0.00000000D+00 0.00000000D+00 0.00000000D+00 0.00000000D+00
  <mgrwgt>
 0.2165549841D-05    1    2    0
 0.624124559368841D+02 0.000000000000000D+00 0.000000000000000D+00 0.624124559368841D+02
 0.624124559368841D+02 0.000000000000000D+00 0.000000000000000D+00 -.624124559368841D+02
 0.589663087361877D+02 0.181984040889476D+01 -.122478618073291D+02 -.287002374207275D+02
 0.291894099600189D+02 0.171765288241589D+02 0.235944129088740D+02 -.540546808750047D+00
 0.366691931775617D+02 -.189963692330536D+02 -.113465511015449D+02 0.292407842294775D+02
 0.000000000000000D+00 -.000000000000000D+00 0.000000000000000D+00 0.000000000000000D+00
 0.123610489334620D+03 0.000000000000000D+00 0.000000000000000D+00 0.123610489334620D+03
 0.673024363967071D+02 0.000000000000000D+00 0.000000000000000D+00 -.673024363967071D+02
 0.628715178281899D+02 0.102124652699634D+02 -.229091614670654D+02 -.287002374207275D+02
 0.281375222447360D+02 0.211254127627295D+02 0.185780758644395D+02 -.540546808750047D+00
 0.369508841248970D+02 -.139251552392949D+02 -.177886038467959D+02 0.292407842294775D+02
 0.629530015335043D+02 -.174127227933980D+02 0.221196894494219D+02 0.563080529379130D+02
0.117601637284D-08 0.000000000000D+00 0.000000000000D+00 0.154259412256D-06 0.547961598540D-09  6 21 22 9900012 -13 3 -4 2 0.16634629D-01 0.11837126D-01 0.45436222D+04 0.45436222D+04 0.45436222D+04 0.12465547D+01  1  2  1  3  6  1        4 0.216554984105D-05 0.100000000000D+01
  </mgrwgt>
  </event>
  <event>
  6     66 0.46271530E-06 0.21220179E+02 0.78161638E-02 0.12925172E+00
        2 -1    0    0  501    0 0.00000000E+00 0.00000000E+00 0.16736635E+04 0.16736635E+04 0.00000000E+00 0.0000E+00 0.9000E+01
       22 -1    0    0    0    0 0.00000000E+00 0.00000000E+00 -.16426868E+01 0.16426868E+01 0.00000000E+00 0.0000E+00 0.9000E+01
       24  2    1    2    0    0 -.56638300E+01 -.20450355E+02 0.13188106E+04 0.13214591E+04 0.80885699E+02 0.0000E+00 0.0000E+00
  9900012  1    3    3    0    0 0.17908941E+02 -.24457544E+02 0.82463405E+03 0.82670443E+03 0.50000000E+02 0.0000E+00 0.9000E+01
      -13  1    3    3    0    0 -.23572771E+02 0.40071888E+01 0.49417650E+03 0.49475463E+03 0.00000000E+00 0.0000E+00 0.9000E+01
        1  1    1    2  501    0 0.56638300E+01 0.20450355E+02 0.35321026E+03 0.35384712E+03 0.00000000E+00 0.0000E+00 0.9000E+01
#aMCatNLO 1  0  0  5  1 0.16660069D+01 0.00000000D+00  -5  6  0 0.00000000D+00 0.00000000D+00 0.00000000D+00 0.00000000D+00 0.00000000D+00
  <mgrwgt>
 0.2879098057D-05    8    2    0
 0.524338153293577D+02 0.000000000000000D+00 0.000000000000000D+00 0.524338153293577D+02
 0.524338153293577D+02 -.000000000000000D+00 -.000000000000000D+00 -.524338153293577D+02
 0.589100267082251D+02 0.179089412769714D+02 -.244575438153809D+02 -.717562677544671D+01
 0.247178580235816D+02 -.235727712482843D+02 0.400718876809211D+01 0.626413594415665D+01
 0.212397459269088D+02 0.566382997131297D+01 0.204503550472887D+02 0.911490831290056D+00
 0.000000000000000D+00 0.000000000000000D+00 0.000000000000000D+00 0.000000000000000D+00
 0.524338153293577D+02 0.000000000000000D+00 0.000000000000000D+00 0.524338153293577D+02
 0.524338153293577D+02 -.000000000000000D+00 -.000000000000000D+00 -.524338153293577D+02
 0.587154986035908D+02 0.180714239158037D+02 -.238708687792354D+02 -.714947813816599D+01
 0.246968172866860D+02 -.235045120263155D+02 0.425365190903805D+01 0.627512102938885D+01
 0.200455453889224D+02 0.566736715977071D+01 0.191052290943768D+02 0.216680886722328D+01
 0.140976937951632D+01 -.234279049258873D+00 0.511987775820551D+00 -.129245175844613D+01
0.282158443484D-08 0.000000000000D+00 0.000000000000D+00 0.255608594104D-07 0.000000000000D+00  6 2 22 9900012 -13 1 21 0 0.25748669D+00 0.25272105D-03 0.26833692D+04 0.26833692D+04 0.26833692D+04 0.12734795D+01  1  2  2  2  6  5        1 0.271255496416D-05 0.100000000000D+01
0.175398755465D-10 0.000000000000D+00 -.541781358502D-11 0.255608594104D-07 0.000000000000D+00  6 2 22 9900012 -13 1 21 2 0.25748669D+00 0.25272105D-03 0.26833692D+04 0.26833692D+04 0.26833692D+04 0.12734795D+01  1  2  3  2  6  5        1 0.273461342077D-07 0.100000000000D+01
-.231858109405D-09 0.000000000000D+00 0.000000000000D+00 0.255608594104D-07 0.000000000000D+00  6 2 22 9900012 -13 1 21 2 0.25748669D+00 0.25272105D-03 0.26833692D+04 0.26833692D+04 0.26833692D+04 0.12734795D+01  1  2 15  2  6  5        1 -.361486200978D-06 0.100000000000D+01
0.431137742292D-12 0.000000000000D+00 0.000000000000D+00 0.255608594104D-07 0.000000000000D+00  6 2 22 9900012 -13 1 21 2 0.25748669D+00 0.25272105D-03 0.26345655D+04 0.26345655D+04 0.26345655D+04 0.12744508D+01  1  2 12  2  6  5        1 0.672035930716D-09 0.100000000000D+01
-.468394395119D-08 0.000000000000D+00 0.000000000000D+00 0.255608594104D-07 0.000000000000D+00  6 2 22 9900012 -13 1 21 2 0.25748669D+00 0.25272105D-03 0.26833692D+04 0.26833692D+04 0.26833692D+04 0.12734795D+01  1  2  4  2  6  5        1 -.730266070425D-05 0.100000000000D+01
-.934137199022D-08 0.000000000000D+00 0.000000000000D+00 0.255608594104D-07 0.000000000000D+00  6 2 22 9900012 -13 1 21 2 0.25748669D+00 0.25272105D-03 0.26833692D+04 0.26833692D+04 0.26833692D+04 0.12734795D+01  1  2  5  2  6  5        1 -.145639808818D-04 0.100000000000D+01
0.101214107502D-07 0.000000000000D+00 -.000000000000D+00 0.255608594104D-07 0.000000000000D+00  6 2 22 9900012 -13 1 21 2 0.25748669D+00 0.25272105D-03 0.26833692D+04 0.26833692D+04 0.26833692D+04 0.12734795D+01  1  2  6  2  6  5        1 0.157801266042D-04 0.100000000000D+01
0.422551810844D-08 0.000000000000D+00 0.000000000000D+00 0.255608594104D-07 0.328800015630D-07  6 2 22 9900012 -13 1 21 2 0.25748669D+00 0.25272105D-03 0.26345655D+04 0.26345655D+04 0.26345655D+04 0.12744508D+01  1  2 11  2  6  5        1 0.658652610570D-05 0.100000000000D+01
  </mgrwgt>
  </event>
  <event>
  7     66 -.46271530E-06 0.16966360E+02 0.78161638E-02 0.12888224E+00
        4 -1    0    0  502    0 0.00000000E+00 0.00000000E+00 0.16299161E+03 0.16299161E+03 0.00000000E+00 0.0000E+00 0.9000E+01
       22 -1    0    0    0    0 0.00000000E+00 0.00000000E+00 -.60068063E+02 0.60068063E+02 0.00000000E+00 0.0000E+00 0.9000E+01
       24  2    1    2    0    0 0.25308249E+01 -.13200723E+02 0.71982824E+01 0.81401466E+02 0.79960736E+02 0.0000E+00 0.0000E+00
  9900012  1    3    3    0    0 0.13069423E+02 -.26622688E+02 -.78343244E+01 0.58659645E+02 0.50000000E+02 0.0000E+00 0.9000E+01
      -13  1    3    3    0    0 -.10538598E+02 0.13421964E+02 0.15032607E+02 0.22741821E+02 0.00000000E+00 0.0000E+00 0.9000E+01
        3  1    1    2  501    0 -.75663118E+01 0.19652035E+02 -.17961102E+02 0.27677658E+02 0.00000000E+00 0.0000E+00 0.9000E+01
       21  1    1    2  502  501 0.50354870E+01 -.64513122E+01 0.11368636E+03 0.11398055E+03 0.00000000E+00 0.0000E+00 0.9000E+01
#aMCatNLO 2  0  0  1  5 0.81981942D+01 0.00000000D+00  -5  6  0 0.00000000D+00 0.00000000D+00 0.00000000D+00 0.00000000D+00 0.00000000D+00
  <mgrwgt>
 -.8766000986D-06    2    2    0
 0.541189465772228D+02 0.000000000000000D+00 0.000000000000000D+00 0.541189465772228D+02
 0.541189465772228D+02 0.000000000000000D+00 0.000000000000000D+00 -.541189465772228D+02
 0.605313469645709D+02 0.158266354140621D+02 -.301551439458857D+02 -.205642175113368D+01
 0.231230936451804D+02 -.943603286884140D+01 0.120093913010645D+02 0.173612575581333D+02
 0.245834525446942D+02 -.639060254522073D+01 0.181457526448212D+02 -.153048358069996D+02
 0.000000000000000D+00 0.000000000000000D+00 -.000000000000000D+00 0.000000000000000D+00
 0.179952089073583D+03 0.000000000000000D+00 0.000000000000000D+00 0.179952089073583D+03
 0.544066491545875D+02 0.000000000000000D+00 0.000000000000000D+00 -.544066491545875D+02
 0.581704923618812D+02 0.130694230041395D+02 -.266226875717688D+02 -.205642175113368D+01
 0.243438788951673D+02 -.105385981407220D+02 0.134219642709664D+02 0.173612575581333D+02
 0.260324714990873D+02 -.756631182407531D+01 0.196520354836956D+02 -.153048358069996D+02
 0.125811895472035D+03 0.503548696065785D+01 -.645131218289315D+01 0.125545439918996D+03
-.978958750171D-07 0.000000000000D+00 0.000000000000D+00 0.355743454427D-07 0.000000000000D+00  6 4 22 9900012 -13 3 21 2 0.25208937D-01 0.91923727D-02 0.27269907D+04 0.27269907D+04 0.27269907D+04 0.12726280D+01  1  2 13  1  6  1        4 -.526105417931D-05 0.100000000000D+01
0.814004652331D-07 0.000000000000D+00 0.000000000000D+00 0.355743454427D-07 0.692844371788D-08  6 4 22 9900012 -13 3 21 2 0.25075632D-01 0.92412404D-02 0.27269907D+04 0.27269907D+04 0.27269907D+04 0.12726280D+01  1  2  1  1  6  1        4 0.438445408072D-05 0.100000000000D+01
  </mgrwgt>
  </event>
  <event>
  6     66 0.46271530E-06 0.66614017E+02 0.78161638E-02 0.11680458E+00
        4 -1    0    0  501    0 0.00000000E+00 0.00000000E+00 0.13962355E+03 0.13962355E+03 0.00000000E+00 0.0000E+00 0.9000E+01
       22 -1    0    0    0    0 0.00000000E+00 0.00000000E+00 -.12728367E+03 0.12728367E+03 0.00000000E+00 0.0000E+00 0.9000E+01
       24  2    1    2    0    0 0.84465836E+02 0.98464728E+01 -.80128237E+02 0.14128166E+03 0.79426328E+02 0.0000E+00 0.0000E+00
  9900012  1    3    3    0    0 0.35828913E+02 0.65403145E+01 -.66153139E+02 0.90568894E+02 0.50000000E+02 0.0000E+00 0.9000E+01
      -13  1    3    3    0    0 0.48636923E+02 0.33061583E+01 -.13975098E+02 0.50712763E+02 0.00000000E+00 0.0000E+00 0.9000E+01
        3  1    1    2  501    0 -.84465836E+02 -.98464728E+01 0.92468116E+02 0.12562557E+03 0.00000000E+00 0.0000E+00 0.9000E+01
#aMCatNLO 1  0  0  5  1 0.58569809D+01 0.00000000D+00  -5  6  0 0.00000000D+00 0.00000000D+00 0.00000000D+00 0.00000000D+00 0.00000000D+00
  <mgrwgt>
 0.3421059895D-05    8    2    0
 0.133310908451223D+03 0.000000000000000D+00 0.000000000000000D+00 0.133310908451223D+03
 0.133310908451223D+03 -.000000000000000D+00 -.000000000000000D+00 -.133310908451223D+03
 0.937275652239470D+02 0.358289133594965D+02 0.654031453232457D+01 -.704156923995297D+02
 0.514138485318350D+02 0.486369227738357D+02 0.330615828507138D+01 -.163371625853593D+02
 0.121480403146663D+03 -.844658361333322D+02 -.984647281739593D+01 0.867528549848890D+02
 0.000000000000000D+00 0.000000000000000D+00 -.000000000000000D+00 0.000000000000000D+00
 0.133310908451223D+03 0.000000000000000D+00 0.000000000000000D+00 0.133310908451223D+03
 0.133310908451223D+03 -.000000000000000D+00 -.000000000000000D+00 -.133310908451223D+03
 0.929180268487125D+02 0.351306290164060D+02 0.645891312652778D+01 -.696985011287451D+02
 0.509244515845497D+02 0.482540515156602D+02 0.326152566662152D+01 -.159439246058530D+02
 0.116363268706632D+03 -.787796200822099D+02 -.525585968487213D+01 0.854784048913377D+02
 0.641606976255088D+01 -.460506044985634D+01 -.446457910827716D+01 0.164020843260355D+00
0.462820944821D-07 0.000000000000D+00 0.000000000000D+00 0.877503594611D-06 0.000000000000D+00  6 4 22 9900012 -13 3 21 0 0.21480546D-01 0.19582103D-01 0.95692987D+04 0.95692987D+04 0.95692987D+04 0.12113168D+01  1  2  2  2  6  5        3 0.801825605330D-06 0.100000000000D+01
-.215291214006D-09 0.000000000000D+00 -.888677145834D-10 0.877503594611D-06 0.000000000000D+00  6 4 22 9900012 -13 3 21 2 0.21480546D-01 0.19582103D-01 0.95692987D+04 0.95692987D+04 0.95692987D+04 0.12113168D+01  1  2  3  2  6  5        3 -.547278874167D-08 0.100000000000D+01
-.416419002771D-08 0.000000000000D+00 0.000000000000D+00 0.877503594611D-06 0.000000000000D+00  6 4 22 9900012 -13 3 21 2 0.21480546D-01 0.19582103D-01 0.95692987D+04 0.95692987D+04 0.95692987D+04 0.12113168D+01  1  2 15  2  6  5        3 -.105855375506D-06 0.100000000000D+01
0.116046350965D-06 0.000000000000D+00 0.000000000000D+00 0.877503594611D-06 0.000000000000D+00  6 4 22 9900012 -13 3 21 2 0.21480546D-01 0.19582103D-01 0.95239108D+04 0.95239108D+04 0.95239108D+04 0.12115320D+01  1  2 12  2  6  5        3 0.294953042439D-05 0.100000000000D+01
-.476569617931D-07 0.000000000000D+00 0.000000000000D+00 0.877503594611D-06 0.000000000000D+00  6 4 22 9900012 -13 3 21 2 0.21480546D-01 0.19582103D-01 0.95692987D+04 0.95692987D+04 0.95692987D+04 0.12113168D+01  1  2  4  2  6  5        3 -.121145902385D-05 0.100000000000D+01
-.336594488241D-06 0.000000000000D+00 0.000000000000D+00 0.877503594611D-06 0.000000000000D+00  6 4 22 9900012 -13 3 21 2 0.21480546D-01 0.19582103D-01 0.95692987D+04 0.95692987D+04 0.95692987D+04 0.12113168D+01  1  2  5  2  6  5        3 -.855636647441D-05 0.100000000000D+01
0.354840728260D-06 0.000000000000D+00 -.000000000000D+00 0.877503594611D-06 0.000000000000D+00  6 4 22 9900012 -13 3 21 2 0.21480546D-01 0.19582103D-01 0.95692987D+04 0.95692987D+04 0.95692987D+04 0.12113168D+01  1  2  6  2  6  5        3 0.902019319122D-05 0.100000000000D+01
0.207997743152D-07 0.000000000000D+00 0.000000000000D+00 0.877503594611D-06 0.523713659816D-07  6 4 22 9900012 -13 3 21 2 0.21480546D-01 0.19582103D-01 0.95239108D+04 0.95239108D+04 0.95239108D+04 0.12115320D+01  1  2 11  2  6  5        3 0.528664336731D-06 0.100000000000D+01
  </mgrwgt>
  </event>
  <event>
  6     66 0.46271530E-06 0.92885766E+02 0.78161638E-02 0.11134135E+00
        2 -1    0    0  501    0 0.00000000E+00 0.00000000E+00 0.75457766E+03 0.75457766E+03 0.00000000E+00 0.0000E+00 0.9000E+01
       22 -1    0    0    0    0 0.00000000E+00 0.00000000E+00 -.51426650E+02 0.51426650E+02 0.00000000E+00 0.0000E+00 0.9000E+01
       24  2    1    2    0    0 0.22285713E+02 0.12487821E+03 0.84783261E+02 0.17475959E+03 0.85214404E+02 0.0000E+00 0.0000E+00
  9900012  1    3    3    0    0 -.29002663E+01 0.67038375E+02 0.23759296E+02 0.86988846E+02 0.50000000E+02 0.0000E+00 0.9000E+01
      -13  1    3    3    0    0 0.25185980E+02 0.57839832E+02 0.61023965E+02 0.87770747E+02 0.00000000E+00 0.0000E+00 0.9000E+01
        1  1    1    2  501    0 -.22285713E+02 -.12487821E+03 0.61836775E+03 0.63124471E+03 0.00000000E+00 0.0000E+00 0.9000E+01
#aMCatNLO 1  0  0  5  1 0.51619005D+02 0.00000000D+00  -5  6  0 0.00000000D+00 0.00000000D+00 0.00000000D+00 0.00000000D+00 0.00000000D+00
  <mgrwgt>
 0.1330947011D-04    7    2    0
 0.196990865272757D+03 0.000000000000000D+00 0.000000000000000D+00 0.196990865272757D+03
 0.196990865272757D+03 -.000000000000000D+00 -.000000000000000D+00 -.196990865272757D+03
 0.135557077040714D+03 -.290026631310725D+01 0.670383746323526D+02 -.106645046381853D+03
 0.706493102278461D+02 0.251859797864851D+02 0.578398315641919D+02 -.318048006202068D+02
 0.187775343276954D+03 -.222857134733779D+02 -.124878206196544D+03 0.138449847002060D+03
 0.000000000000000D+00 -.000000000000000D+00 0.000000000000000D+00 0.000000000000000D+00
 0.196990865272757D+03 0.000000000000000D+00 0.000000000000000D+00 0.196990865272757D+03
 0.196990865272757D+03 -.000000000000000D+00 -.000000000000000D+00 -.196990865272757D+03
 0.126263062821049D+03 -.412708876909512D+01 0.601638633985785D+02 -.990234200187071D+02
 0.657368319929871D+02 0.245469090792034D+02 0.542587928124624D+02 -.278345780939073D+02
 0.123091971226741D+03 0.234069318424624D+02 -.511713120633944D+02 0.109477147130887D+03
 0.788898645047378D+02 -.438267521525706D+02 -.632513441476465D+02 0.173808509817276D+02
0.219451620313D-06 0.000000000000D+00 0.000000000000D+00 0.827996536247D-07 0.000000000000D+00  6 2 22 9900012 -13 1 21 0 0.11608887D+00 0.79117923D-02 0.18716694D+05 0.18716694D+05 0.18716694D+05 0.11820870D+01  1  2  2  2  6  5        1 0.761507416438D-05 0.100000000000D+01
-.126641581074D-08 0.000000000000D+00 -.421376002471D-09 0.827996536247D-07 0.000000000000D+00  6 2 22 9900012 -13 1 21 2 0.11608887D+00 0.79117923D-02 0.18716694D+05 0.18716694D+05 0.18716694D+05 0.11820870D+01  1  2  3  2  6  5        1 -.614059667763D-07 0.100000000000D+01
-.189377558950D-07 0.000000000000D+00 0.000000000000D+00 0.827996536247D-07 0.000000000000D+00  6 2 22 9900012 -13 1 21 2 0.11608887D+00 0.79117923D-02 0.18716694D+05 0.18716694D+05 0.18716694D+05 0.11820870D+01  1  2 15  2  6  5        1 -.918253862152D-06 0.100000000000D+01
0.110114253018D-06 0.000000000000D+00 0.000000000000D+00 0.827996536247D-07 0.000000000000D+00  6 2 22 9900012 -13 1 21 2 0.11608887D+00 0.79117923D-02 0.18375478D+05 0.18375478D+05 0.18375478D+05 0.11828595D+01  1  2 12  2  6  5        1 0.534089533104D-05 0.100000000000D+01
-.289990420879D-07 0.000000000000D+00 0.000000000000D+00 0.827996536247D-07 0.000000000000D+00  6 2 22 9900012 -13 1 21 2 0.11608887D+00 0.79117923D-02 0.18716694D+05 0.18716694D+05 0.18716694D+05 0.11820870D+01  1  2  4  2  6  5        1 -.140610548280D-05 0.100000000000D+01
-.113732219867D-06 0.000000000000D+00 0.000000000000D+00 0.827996536247D-07 0.000000000000D+00  6 2 22 9900012 -13 1 21 2 0.11608887D+00 0.79117923D-02 0.18716694D+05 0.18716694D+05 0.18716694D+05 0.11820870D+01  1  2  5  2  6  5        1 -.551464760256D-05 0.100000000000D+01
0.170225910414D-06 0.000000000000D+00 -.000000000000D+00 0.827996536247D-07 0.000000000000D+00  6 2 22 9900012 -13 1 21 2 0.11608887D+00 0.79117923D-02 0.18716694D+05 0.18716694D+05 0.18716694D+05 0.11820870D+01  1  2  6  2  6  5        1 0.825391353353D-05 0.100000000000D+01
  </mgrwgt>
  </event>
  <event>
  6     66 0.46271530E-06 0.30344783E+02 0.78161638E-02 0.12806640E+00
        2 -1    0    0  501    0 0.00000000E+00 0.00000000E+00 0.17687092E+03 0.17687092E+03 0.00000000E+00 0.0000E+00 0.9000E+01
       22 -1    0    0    0    0 0.00000000E+00 0.00000000E+00 -.18196035E+02 0.18196035E+02 0.00000000E+00 0.0000E+00 0.9000E+01
       24  2    1    2    0    0 0.13280008E+02 0.27284561E+02 0.10844623E+03 0.13638371E+03 0.76935849E+02 0.0000E+00 0.0000E+00
  9900012  1    3    3    0    0 0.22985981E+02 0.62018572E+01 0.93835009E+02 0.10895791E+03 0.50000000E+02 0.0000E+00 0.9000E+01
      -13  1    3    3    0    0 -.97059724E+01 0.21082704E+02 0.14611222E+02 0.27425793E+02 0.00000000E+00 0.0000E+00 0.9000E+01
        1  1    1    2  501    0 -.13280008E+02 -.27284561E+02 0.50228654E+02 0.58683247E+02 0.00000000E+00 0.0000E+00 0.9000E+01
#aMCatNLO 1  0  0  5  1 0.78335795D+01 0.00000000D+00  -5  6  0 0.00000000D+00 0.00000000D+00 0.00000000D+00 0.00000000D+00 0.00000000D+00
  <mgrwgt>
 0.4838098138D-05    8    2    0
 0.567304986289003D+02 0.000000000000000D+00 0.000000000000000D+00 0.567304986289003D+02
 0.567304986289003D+02 -.000000000000000D+00 -.000000000000000D+00 -.567304986289003D+02
 0.560970697753912D+02 0.229859807519571D+02 0.620185718497115D+01 0.894778708469262D+01
 0.267178320095180D+02 -.970597242102919D+01 0.210827036010982D+02 -.132346611410828D+02
 0.306460954728914D+02 -.132800083309279D+02 -.272845607860693D+02 0.428687405639015D+01
 0.000000000000000D+00 -.000000000000000D+00 0.000000000000000D+00 0.000000000000000D+00
 0.567304986289003D+02 0.000000000000000D+00 0.000000000000000D+00 0.567304986289003D+02
 0.567304986289003D+02 -.000000000000000D+00 -.000000000000000D+00 -.567304986289003D+02
 0.553959135276167D+02 0.216513070781424D+02 0.345969136132841D+01 0.937862852721625D+01
 0.258509868189334D+02 -.103352695882167D+02 0.197897754354855D+02 -.130315198754637D+02
 0.713691788808092D+01 0.499983585146234D+01 -.422297904219160D+01 0.284669745650148D+01
 0.250771790231696D+02 -.163158733413881D+02 -.190264877546223D+02 0.806193891746016D+00
0.732210128606D-08 0.000000000000D+00 0.000000000000D+00 0.105664612009D-07 0.000000000000D+00  6 2 22 9900012 -13 1 21 0 0.27210911D-01 0.27993900D-02 0.29666139D+04 0.29666139D+04 0.29666139D+04 0.12682073D+01  1  2  2  2  6  5        1 0.435460253382D-05 0.100000000000D+01
-.101478756032D-09 0.000000000000D+00 -.140593984460D-10 0.105664612009D-07 0.000000000000D+00  6 2 22 9900012 -13 1 21 2 0.27210911D-01 0.27993900D-02 0.29666139D+04 0.29666139D+04 0.29666139D+04 0.12682073D+01  1  2  3  2  6  5        1 -.970662844666D-07 0.100000000000D+01
-.492548154259D-09 0.000000000000D+00 0.000000000000D+00 0.105664612009D-07 0.000000000000D+00  6 2 22 9900012 -13 1 21 2 0.27210911D-01 0.27993900D-02 0.29666139D+04 0.29666139D+04 0.29666139D+04 0.12682073D+01  1  2 15  2  6  5        1 -.471131309884D-06 0.100000000000D+01
0.112806709567D-08 0.000000000000D+00 0.000000000000D+00 0.105664612009D-07 0.000000000000D+00  6 2 22 9900012 -13 1 21 2 0.27210911D-01 0.27993900D-02 0.29447510D+04 0.29447510D+04 0.29447510D+04 0.12685936D+01  1  2 12  2  6  5        1 0.107877675875D-05 0.100000000000D+01
-.850696208482D-09 0.000000000000D+00 0.000000000000D+00 0.105664612009D-07 0.000000000000D+00  6 2 22 9900012 -13 1 21 2 0.27210911D-01 0.27993900D-02 0.29666139D+04 0.29666139D+04 0.29666139D+04 0.12682073D+01  1  2  4  2  6  5        1 -.813706468190D-06 0.100000000000D+01
-.873351847225D-09 0.000000000000D+00 0.000000000000D+00 0.105664612009D-07 0.000000000000D+00  6 2 22 9900012 -13 1 21 2 0.27210911D-01 0.27993900D-02 0.29666139D+04 0.29666139D+04 0.29666139D+04 0.12682073D+01  1  2  5  2  6  5        1 -.835377000634D-06 0.100000000000D+01
0.169086938305D-08 0.000000000000D+00 -.000000000000D+00 0.105664612009D-07 0.000000000000D+00  6 2 22 9900012 -13 1 21 2 0.27210911D-01 0.27993900D-02 0.29666139D+04 0.29666139D+04 0.29666139D+04 0.12682073D+01  1  2  6  2  6  5        1 0.161734746216D-05 0.100000000000D+01
0.486502103143D-11 0.000000000000D+00 0.000000000000D+00 0.105664612009D-07 0.968245470064D-10  6 2 22 9900012 -13 1 21 2 0.27210911D-01 0.27993900D-02 0.29447510D+04 0.29447510D+04 0.29447510D+04 0.12685936D+01  1  2 11  2  6  5        1 0.465244633029D-08 0.100000000000D+01
  </mgrwgt>
  </event>
  <event>
  7     66 -.46271530E-06 0.17362283E+02 0.78161638E-02 0.12858007E+00
       21 -1    0    0  501  502 0.00000000E+00 0.00000000E+00 0.28743215E+02 0.28743215E+02 0.00000000E+00 0.0000E+00 0.9000E+01
       22 -1    0    0    0    0 0.00000000E+00 0.00000000E+00 -.20594478E+03 0.20594478E+03 0.00000000E+00 0.0000E+00 0.9000E+01
       24  2    1    2    0    0 -.83993679E+01 -.11455082E+02 -.18806496E+03 0.20449083E+03 0.79033566E+02 0.0000E+00 0.0000E+00
  9900012  1    3    3    0    0 -.22395624E+02 -.23617540E+02 -.16086515E+03 0.17157199E+03 0.50000000E+02 0.0000E+00 0.9000E+01
      -13  1    3    3    0    0 0.13996256E+02 0.12162457E+02 -.27199805E+02 0.32918838E+02 0.00000000E+00 0.0000E+00 0.9000E+01
        1  1    1    2  501    0 0.14182230E+02 0.15239718E+02 0.10398189E+02 0.23270303E+02 0.00000000E+00 0.0000E+00 0.9000E+01
       -2  1    1    2    0  502 -.57828626E+01 -.37846359E+01 0.46520288E+00 0.69268595E+01 0.00000000E+00 0.0000E+00 0.9000E+01
#aMCatNLO 2  0  0  1  5 0.73206786D+01 0.00000000D+00  -5  6  0 0.00000000D+00 0.00000000D+00 0.00000000D+00 0.00000000D+00 0.00000000D+00
  <mgrwgt>
 -.2164201373D-05    2    2    0
 0.711721319124132D+02 0.000000000000000D+00 0.000000000000000D+00 0.711721319124132D+02
 0.711721319124132D+02 0.000000000000000D+00 0.000000000000000D+00 -.711721319124132D+02
 0.752818198896857D+02 -.254192343955625D+02 -.255963635325064D+02 -.431976978849371D+02
 0.178311487029324D+02 0.132546149574972D+02 0.116770853248869D+02 -.243119820456739D+01
 0.492312952322084D+02 0.121646194380653D+02 0.139192782076195D+02 0.456288960895045D+02
 0.000000000000000D+00 -.000000000000000D+00 -.000000000000000D+00 0.000000000000000D+00
 0.817706992250343D+02 0.000000000000000D+00 0.000000000000000D+00 0.817706992250343D+02
 0.723916407296663D+02 0.000000000000000D+00 0.000000000000000D+00 -.723916407296663D+02
 0.736572688129630D+02 -.223956236770148D+02 -.236175398071927D+02 -.431976978849371D+02
 0.187011035208349D+02 0.139962557877093D+02 0.121624574865487D+02 -.243119820456739D+01
 0.501535724731905D+02 0.141822304888180D+02 0.152397182335769D+02 0.456288960895045D+02
 0.116503951477122D+02 -.578286259951254D+01 -.378463591293291D+01 0.937905849536799D+01
-.744429136123D-09 0.000000000000D+00 0.000000000000D+00 0.282949861750D-06 0.000000000000D+00  6 21 22 9900012 -13 1 -2 2 0.44978030D-02 0.31150067D-01 0.28053875D+04 0.28053875D+04 0.28053875D+04 0.12711353D+01  1  2 13  3  6  1        2 -.273128760392D-05 0.100000000000D+01
0.154556373603D-09 0.000000000000D+00 0.000000000000D+00 0.282949861750D-06 0.304864369450D-09  6 21 22 9900012 -13 1 -2 2 0.44220331D-02 0.31683812D-01 0.28053875D+04 0.28053875D+04 0.28053875D+04 0.12711353D+01  1  2  1  3  6  1        2 0.567086231175D-06 0.100000000000D+01
  </mgrwgt>
  </event>
  <event>
  7     66 -.46271530E-06 0.13035123E+03 0.78161638E-02 0.11058604E+00
        2 -1    0    0  502    0 0.00000000E+00 0.00000000E+00 0.11561380E+04 0.11561380E+04 0.00000000E+00 0.0000E+00 0.9000E+01
       22 -1    0    0    0    0 0.00000000E+00 0.00000000E+00 -.36627305E+02 0.36627305E+02 0.00000000E+00 0.0000E+00 0.9000E+01
       24  2    1    2    0    0 -.12436334E+03 0.27207478E+02 0.15558997E+03 0.21658405E+03 0.80584874E+02 0.0000E+00 0.0000E+00
  9900012  1    3    3    0    0 -.69778158E+02 0.28254388E+02 0.66913354E+02 0.11244865E+03 0.50000000E+02 0.0000E+00 0.9000E+01
      -13  1    3    3    0    0 -.54585187E+02 -.10469096E+01 0.88676618E+02 0.10413540E+03 0.00000000E+00 0.0000E+00 0.9000E+01
        1  1    1    2  501    0 0.13029573E+03 -.28603834E+02 0.95930639E+03 0.96853699E+03 0.00000000E+00 0.0000E+00 0.9000E+01
       21  1    1    2  502  501 -.59323841E+01 0.13963561E+01 0.46143790E+01 0.76443107E+01 0.00000000E+00 0.0000E+00 0.9000E+01
#aMCatNLO 2  0  0  1  5 0.18081048D+02 0.00000000D+00  -5  6  0 0.00000000D+00 0.00000000D+00 0.00000000D+00 0.00000000D+00 0.00000000D+00
  <mgrwgt>
 -.4217659777D-05    3    2    0
 0.200923392966196D+03 0.000000000000000D+00 0.000000000000000D+00 0.200923392966196D+03
 0.200923392966196D+03 0.000000000000000D+00 0.000000000000000D+00 -.200923392966196D+03
 0.147113802957529D+03 -.719413927587546D+02 0.287635667742501D+02 -.114627938370105D+03
 0.618896868216030D+02 -.554928270050146D+02 -.833270606412119D+00 -.273895079540344D+02
 0.192843296153259D+03 0.127434219763769D+03 -.279302961678379D+02 0.142017446324140D+03
 0.000000000000000D+00 -.000000000000000D+00 0.000000000000000D+00 -.000000000000000D+00
 0.202017508947370D+03 0.000000000000000D+00 0.000000000000000D+00 0.202017508947370D+03
 0.209616587496729D+03 0.000000000000000D+00 0.000000000000000D+00 -.209616587496729D+03
 0.145968715708831D+03 -.697781577045116D+02 0.282543875897057D+02 -.114627938370105D+03
 0.610804701151738D+02 -.545851872204178D+02 -.104690956556013D+01 -.273895079540344D+02
 0.194843812815961D+03 0.130295729034321D+03 -.286038341424041D+02 0.142017446324140D+03
 0.974109780413298D+01 -.593238410939112D+01 0.139635611825859D+01 -.759907854935912D+01
-.100589517196D-06 0.000000000000D+00 0.000000000000D+00 0.167475326952D-05 0.000000000000D+00  6 2 22 9900012 -13 1 21 2 0.18556304D+00 0.54012772D-02 0.20229564D+05 0.20229564D+05 0.20229564D+05 0.11788406D+01  1  2 13  1  6  1        2 -.448555785405D-05 0.100000000000D+01
-.917781718642D-08 0.000000000000D+00 0.000000000000D+00 0.167475326952D-05 0.000000000000D+00  6 2 22 9900012 -13 1 21 2 0.17690407D+00 0.54012772D-02 0.19344555D+05 0.19344555D+05 0.19344555D+05 0.11807056D+01  1  2  8  1  6  1        2 -.439833390996D-06 0.100000000000D+01
0.158083222142D-07 0.000000000000D+00 0.000000000000D+00 0.167475326952D-05 0.488546540818D-08  6 2 22 9900012 -13 1 21 2 0.17786739D+00 0.56349700D-02 0.20229564D+05 0.20229564D+05 0.20229564D+05 0.11788406D+01  1  2  1  1  6  1        2 0.707731467817D-06 0.100000000000D+01
  </mgrwgt>
  </event>
  <event>
  6     66 0.46271530E-06 0.23110526E+02 0.78161638E-02 0.12934581E+00
        2 -1    0    0  501    0 0.00000000E+00 0.00000000E+00 0.23083663E+03 0.23083663E+03 0.00000000E+00 0.0000E+00 0.9000E+01
       22 -1    0    0    0    0 0.00000000E+00 0.00000000E+00 -.17748033E+02 0.17748033E+02 0.00000000E+00 0.0000E+00 0.9000E+01
       24  2    1    2    0    0 0.55420058E+01 0.22436189E+02 0.84323905E+02 0.11776249E+03 0.78888438E+02 0.0000E+00 0.0000E+00
  9900012  1    3    3    0    0 -.13720192E+02 0.28328098E+02 0.47577878E+02 0.75857625E+02 0.50000000E+02 0.0000E+00 0.9000E+01
      -13  1    3    3    0    0 0.19262198E+02 -.58919083E+01 0.36746027E+02 0.41904861E+02 0.00000000E+00 0.0000E+00 0.9000E+01
        1  1    1    2  501    0 -.55420058E+01 -.22436189E+02 0.12876469E+03 0.13082218E+03 0.00000000E+00 0.0000E+00 0.9000E+01
#aMCatNLO 1  0  0  5  1 0.16610589D+01 0.00000000D+00  -5  6  0 0.00000000D+00 0.00000000D+00 0.00000000D+00 0.00000000D+00 0.00000000D+00
  <mgrwgt>
 0.5998208505D-05    8    2    0
 0.640070010690272D+02 0.000000000000000D+00 0.000000000000000D+00 0.640070010690272D+02
 0.640070010690272D+02 -.000000000000000D+00 -.000000000000000D+00 -.640070010690272D+02
 0.681076967213245D+02 -.137201921456050D+02 0.283280975280844D+02 -.338811683772996D+02
 0.202067455585520D+02 0.192621979469884D+02 -.589190830172054D+01 0.160178428111079D+01
 0.396995598581781D+02 -.554200580138336D+01 -.224361892263639D+02 0.322793840961888D+02
 0.000000000000000D+00 0.000000000000000D+00 -.000000000000000D+00 0.000000000000000D+00
 0.640070010690272D+02 0.000000000000000D+00 0.000000000000000D+00 0.640070010690272D+02
 0.640070010690272D+02 -.000000000000000D+00 -.000000000000000D+00 -.640070010690272D+02
 0.680213487003434D+02 -.137399278434776D+02 0.282481997676251D+02 -.337662179072232D+02
 0.202108253684388D+02 0.192563382939945D+02 -.591563044999736D+01 0.163591379963501D+01
 0.336145642660444D+02 -.464941158527140D+01 -.176221385298284D+02 0.282450373754809D+02
 0.616726380322785D+01 -.866998865245521D+00 -.471043078779930D+01 0.388526673210732D+01
0.249340349183D-08 0.000000000000D+00 0.000000000000D+00 0.109141183548D-06 0.000000000000D+00  6 2 22 9900012 -13 1 21 0 0.35513327D-01 0.27304667D-02 0.26181663D+04 0.26181663D+04 0.26181663D+04 0.12747818D+01  1  2  2  2  6  5        1 0.113668041282D-05 0.100000000000D+01
0.112360013884D-09 0.000000000000D+00 -.478766296841D-11 0.109141183548D-06 0.000000000000D+00  6 2 22 9900012 -13 1 21 2 0.35513327D-01 0.27304667D-02 0.26181663D+04 0.26181663D+04 0.26181663D+04 0.12747818D+01  1  2  3  2  6  5        1 0.832394660257D-07 0.100000000000D+01
-.253262466943D-09 0.000000000000D+00 0.000000000000D+00 0.109141183548D-06 0.000000000000D+00  6 2 22 9900012 -13 1 21 2 0.35513327D-01 0.27304667D-02 0.26181663D+04 0.26181663D+04 0.26181663D+04 0.12747818D+01  1  2 15  2  6  5        1 -.187623975682D-06 0.100000000000D+01
0.191260768506D-10 0.000000000000D+00 0.000000000000D+00 0.109141183548D-06 0.000000000000D+00  6 2 22 9900012 -13 1 21 2 0.35513327D-01 0.27304667D-02 0.26116143D+04 0.26116143D+04 0.26116143D+04 0.12749146D+01  1  2 12  2  6  5        1 0.141682382432D-07 0.100000000000D+01
-.265787963614D-07 0.000000000000D+00 0.000000000000D+00 0.109141183548D-06 0.000000000000D+00  6 2 22 9900012 -13 1 21 2 0.35513327D-01 0.27304667D-02 0.26181663D+04 0.26181663D+04 0.26181663D+04 0.12747818D+01  1  2  4  2  6  5        1 -.196903216744D-04 0.100000000000D+01
-.508435184627D-07 0.000000000000D+00 0.000000000000D+00 0.109141183548D-06 0.000000000000D+00  6 2 22 9900012 -13 1 21 2 0.35513327D-01 0.27304667D-02 0.26181663D+04 0.26181663D+04 0.26181663D+04 0.12747818D+01  1  2  5  2  6  5        1 -.376663118968D-04 0.100000000000D+01
0.593468442236D-07 0.000000000000D+00 -.000000000000D+00 0.109141183548D-06 0.000000000000D+00  6 2 22 9900012 -13 1 21 2 0.35513327D-01 0.27304667D-02 0.26181663D+04 0.26181663D+04 0.26181663D+04 0.12747818D+01  1  2  6  2  6  5        1 0.439658153528D-04 0.100000000000D+01
0.247611068899D-07 0.000000000000D+00 0.000000000000D+00 0.109141183548D-06 0.122721998174D-06  6 2 22 9900012 -13 1 21 2 0.35513327D-01 0.27304667D-02 0.26116143D+04 0.26116143D+04 0.26116143D+04 0.12749146D+01  1  2 11  2  6  5        1 0.183425625820D-04 0.100000000000D+01
  </mgrwgt>
  </event>
  <event>
  7     66 0.46271530E-06 0.69780140E+02 0.78161638E-02 0.11584750E+00
       21 -1    0    0  501  502 0.00000000E+00 0.00000000E+00 0.67076212E+02 0.67076212E+02 0.00000000E+00 0.0000E+00 0.9000E+01
       22 -1    0    0    0    0 0.00000000E+00 0.00000000E+00 -.30353386E+03 0.30353386E+03 0.00000000E+00 0.0000E+00 0.9000E+01
       24  2    1    2    0    0 0.86486702E+02 -.10198134E+02 -.72162271E+01 0.12099623E+03 0.83690277E+02 0.0000E+00 0.0000E+00
  9900012  1    3    3    0    0 0.55651566E+02 0.17200880E+02 0.76587256E+01 0.77146764E+02 0.50000000E+02 0.0000E+00 0.9000E+01
      -13  1    3    3    0    0 0.30835136E+02 -.27399014E+02 -.14874953E+02 0.43849468E+02 0.00000000E+00 0.0000E+00 0.9000E+01
        1  1    1    2  501    0 -.75834875E+02 0.40058896E+01 -.22344578E+03 0.23599787E+03 0.00000000E+00 0.0000E+00 0.9000E+01
       -2  1    1    2    0  502 -.10651827E+02 0.61922445E+01 -.57956374E+01 0.13615973E+02 0.00000000E+00 0.0000E+00 0.9000E+01
#aMCatNLO 2  0  0  1  5 0.15332141D+02 0.00000000D+00  -5  6  0 0.00000000D+00 0.00000000D+00 0.00000000D+00 0.00000000D+00 0.00000000D+00
  <mgrwgt>
 0.4606319085D-06    2    2    0
 0.136095571682967D+03 0.000000000000000D+00 0.000000000000000D+00 0.136095571682967D+03
 0.136095571682967D+03 0.000000000000000D+00 0.000000000000000D+00 -.136095571682967D+03
 0.105886023343703D+03 0.514771974833738D+02 0.196275728450561D+02 0.753439212081040D+02
 0.430756217874733D+02 0.291154024194451D+02 -.263992785559587D+02 0.176318072260365D+02
 0.123229498234757D+03 -.805925999028189D+02 0.677170571090262D+01 -.929757284341404D+02
 0.000000000000000D+00 -.000000000000000D+00 0.000000000000000D+00 0.000000000000000D+00
 0.144668280702013D+03 0.000000000000000D+00 0.000000000000000D+00 0.144668280702013D+03
 0.140735077155230D+03 0.000000000000000D+00 0.000000000000000D+00 -.140735077155230D+03
 0.107562417065187D+03 0.556515662670465D+02 0.172008800332065D+02 0.753439212081040D+02
 0.448596947250647D+02 0.308351359510143D+02 -.273990141365041D+02 0.176318072260365D+02
 0.120047746799669D+03 -.758348751075279D+02 0.400588956963355D+01 -.929757284341404D+02
 0.129334992673214D+02 -.106518271105329D+02 0.619224453366413D+01 0.393320354678300D+01
-.801762464734D-09 0.000000000000D+00 0.000000000000D+00 0.713485438018D-08 0.000000000000D+00  6 21 22 9900012 -13 1 -2 2 0.10671207D-01 0.45158076D-01 0.10637507D+05 0.10637507D+05 0.10637507D+05 0.12065582D+01  1  2 13  3  6  1        2 -.414440572515D-06 0.100000000000D+01
0.169089659471D-08 0.000000000000D+00 0.000000000000D+00 0.713485438018D-08 0.776213679601D-11  6 21 22 9900012 -13 1 -2 2 0.10319417D-01 0.46697517D-01 0.10637507D+05 0.10637507D+05 0.10637507D+05 0.12065582D+01  1  2  1  3  6  1        2 0.875072480976D-06 0.100000000000D+01
  </mgrwgt>
  </event>
  <event>
  6     66 0.46271530E-06 0.29738233E+02 0.78161638E-02 0.12932327E+00
        2 -1    0    0  501    0 0.00000000E+00 0.00000000E+00 0.18260192E+02 0.18260192E+02 0.00000000E+00 0.0000E+00 0.9000E+01
       22 -1    0    0    0    0 0.00000000E+00 0.00000000E+00 -.33009700E+03 0.33009700E+03 0.00000000E+00 0.0000E+00 0.9000E+01
       24  2    1    2    0    0 -.25941993E+02 0.14538758E+02 -.16947325E+03 0.20292080E+03 0.10757000E+03 0.0000E+00 0.0000E+00
  9900012  1    3    3    0    0 -.12990616E+02 -.18440983E+01 -.25866341E+02 0.57803325E+02 0.50000000E+02 0.0000E+00 0.9000E+01
      -13  1    3    3    0    0 -.12951377E+02 0.16382857E+02 -.14360691E+03 0.14511747E+03 0.00000000E+00 0.0000E+00 0.9000E+01
        1  1    1    2  501    0 0.25941993E+02 -.14538758E+02 -.14236356E+03 0.14543640E+03 0.00000000E+00 0.0000E+00 0.9000E+01
#aMCatNLO 1  0  0  1  5 0.15332141D+02 0.00000000D+00  -5  6  0 0.00000000D+00 0.00000000D+00 0.00000000D+00 0.00000000D+00 0.00000000D+00
  <mgrwgt>
 0.2096701795D-05    1    2    0
 0.776378425446449D+02 0.000000000000000D+00 0.000000000000000D+00 0.776378425446449D+02
 0.776378425446449D+02 0.000000000000000D+00 0.000000000000000D+00 -.776378425446449D+02
 0.777335279061917D+02 -.129906161463025D+02 -.184409826603669D+01 0.580546686707220D+02
 0.371648314389308D+02 -.129513773517119D+02 0.163828566973450D+02 -.307422921561155D+02
 0.403773257441672D+02 0.259419934980144D+02 -.145387584313083D+02 -.273123765146065D+02
 0.000000000000000D+00 -.000000000000000D+00 -.000000000000000D+00 -.000000000000000D+00
 0.218794779409170D+03 0.000000000000000D+00 0.000000000000000D+00 0.218794779409170D+03
 0.324243001566733D+03 0.000000000000000D+00 0.000000000000000D+00 -.324243001566733D+03
 0.129960346463062D+03 0.406494692704569D+02 0.967830963875514D+02 0.580546686707220D+02
 0.803815734192943D+02 0.174067601531926D+02 0.722018941532607D+02 -.307422921561155D+02
 0.731385792439578D+02 0.552591934309228D+02 0.393663232257334D+02 -.273123765146065D+02
 0.259557281849588D+03 -.113315422854572D+03 -.208351313766546D+03 -.105448222157563D+03
0.917677532217D-08 0.000000000000D+00 0.000000000000D+00 0.129234104827D-08 0.000000000000D+00  6 2 22 9900012 -13 1 21 2 0.28092603D-02 0.50784154D-01 0.26170906D+04 0.26170906D+04 0.26170906D+04 0.12748036D+01  1  2 14  1  6  1        2 0.209670179510D-05 0.100000000000D+01
  </mgrwgt>
  </event>
</LesHouchesEvents>
