<LesHouchesEvents version="3.0">
  <!--
  <scalesfunctionalform>
    muR  H_T/2 := sum_i mT(i)/2, i=final state
    muF1 H_T/2 := sum_i mT(i)/2, i=final state
    muF2 H_T/2 := sum_i mT(i)/2, i=final state
    QES  H_T/2 := sum_i mT(i)/2, i=final state
  </scalesfunctionalform>
PYTHIA8   
  -->
  <header>
       98
  </header>
  <init>
   2212   2212 0.65000000D+04 0.65000000D+04 -1 -1  82200  82200 -4   1
 0.31592332D-04 0.95163279D-07 0.61978431D-06     66
  </init>
  <event>
  6     66 -.61978431E-06 0.22035896E+02 0.78161638E-02 0.12946395E+00
       -1 -1    0    0    0  501 0.00000000E+00 0.00000000E+00 0.67253883E+01 0.67253883E+01 0.00000000E+00 0.0000E+00 0.9000E+01
       22 -1    0    0    0    0 0.00000000E+00 0.00000000E+00 -.46643052E+03 0.46643052E+03 0.00000000E+00 0.0000E+00 0.9000E+01
       24  2    1    2    0    0 0.20942405E+02 -.68553913E+01 -.42178427E+03 0.42929735E+03 0.76867878E+02 0.0000E+00 0.0000E+00
  9900012  1    3    3    0    0 -.87747445E+00 -.20314132E+02 -.26651788E+03 0.27192870E+03 0.50000000E+02 0.0000E+00 0.9000E+01
      -11  1    3    3    0    0 0.21819879E+02 0.13458741E+02 -.15526638E+03 0.15736866E+03 0.00000000E+00 0.0000E+00 0.9000E+01
       -2  1    1    2    0  501 -.20942405E+02 0.68553913E+01 -.37920867E+02 0.43858556E+02 0.00000000E+00 0.0000E+00 0.9000E+01
#aMCatNLO 1  0  0  0  0 0.00000000D+00 0.00000000D+00  -5  6  0 0.00000000D+00 0.00000000D+00 0.00000000D+00 0.00000000D+00 0.00000000D+00
  <mgrwgt>
 -.3275179438D-04    1    2    0
 0.560082705915578D+02 0.000000000000000D+00 0.000000000000000D+00 0.560082705915578D+02
 0.560082705915578D+02 0.000000000000000D+00 0.000000000000000D+00 -.560082705915578D+02
 0.548582446634563D+02 -.877474454263659D+00 -.203141323478044D+02 -.979760547754540D+01
 0.275241250415630D+02 0.218198794251122D+02 0.134587410190984D+02 -.100166167620608D+02
 0.296341714780964D+02 -.209424049708485D+02 0.685539132870603D+01 0.198142222396062D+02
 0.000000000000000D+00 0.000000000000000D+00 0.000000000000000D+00 0.000000000000000D+00
 0.142157803693814D+03 0.000000000000000D+00 0.000000000000000D+00 0.142157803693814D+03
 0.705893482845720D+02 0.000000000000000D+00 0.000000000000000D+00 -.705893482845720D+02
 0.702117252004820D+02 -.330048341058689D+01 -.481954364207942D+02 -.979760547754540D+01
 0.232188446294027D+02 0.208368243390916D+02 0.214683162548606D+01 -.100166167620608D+02
 0.303948536221556D+02 -.221053609195506D+02 -.652661798852690D+01 0.198142222396062D+02
 0.889217285263460D+02 0.456901999104596D+01 0.525752227838351D+02 0.715684554092424D+02
-.744796944264D-07 0.000000000000D+00 0.000000000000D+00 0.204235192846D-07 0.000000000000D+00  6 -1 22 9900012 -11 -2 21 2 0.10346751D-02 0.71758542D-01 0.25831256D+04 0.25831256D+04 0.25831256D+04 0.12754967D+01  1  2 14  1  6  1       -1 -.327517943807D-04 0.100000000000D+01
  </mgrwgt>
  </event>
  <event>
  6     66 0.61978431E-06 0.93484423E+02 0.78161638E-02 0.95223126E-01
       -1 -1    0    0    0  501 0.00000000E+00 0.00000000E+00 0.28078252E+02 0.28078252E+02 0.00000000E+00 0.0000E+00 0.9000E+01
       22 -1    0    0    0    0 0.00000000E+00 0.00000000E+00 -.19518193E+04 0.19518193E+04 0.00000000E+00 0.0000E+00 0.9000E+01
       24  2    1    2    0    0 -.81525956E+02 0.45747741E+02 -.11221647E+03 0.16596242E+03 0.78814045E+02 0.0000E+00 0.0000E+00
  9900012  1    3    3    0    0 -.53629724E+02 0.20491014E+02 -.10141646E+03 0.12681217E+03 0.50000000E+02 0.0000E+00 0.9000E+01
      -11  1    3    3    0    0 -.27896232E+02 0.25256728E+02 -.10800007E+02 0.39150252E+02 0.00000000E+00 0.0000E+00 0.9000E+01
       -2  1    1    2    0  501 0.81525956E+02 -.45747741E+02 -.18115245E+04 0.18139351E+04 0.00000000E+00 0.0000E+00 0.9000E+01
#aMCatNLO 1  0  0  1  5 0.22806025D+02 0.00000000D+00  -5  6  0 0.00000000D+00 0.00000000D+00 0.00000000D+00 0.00000000D+00 0.00000000D+00
  <mgrwgt>
 0.3399190840D-04    3    2    0
 0.234101844117687D+03 0.000000000000000D+00 0.000000000000000D+00 0.234101844117687D+03
 0.234101844117687D+03 0.000000000000000D+00 0.000000000000000D+00 -.234101844117687D+03
 0.119555024742243D+03 -.536297239257403D+02 0.204910135673857D+02 0.921812074977787D+02
 0.121180314466478D+03 -.278962320643940D+02 0.252567277504462D+02 0.115189264057654D+03
 0.227468349026652D+03 0.815259559901343D+02 -.457477413178319D+02 -.207370471555432D+03
 0.000000000000000D+00 -.000000000000000D+00 0.000000000000000D+00 -.000000000000000D+00
 0.428818710733622D+03 0.000000000000000D+00 0.000000000000000D+00 0.428818710733622D+03
 0.747405519485315D+03 0.000000000000000D+00 0.000000000000000D+00 -.747405519485315D+03
 0.111654948682466D+03 0.195262871788197D+02 -.329875227706758D+02 0.921812074977787D+02
 0.130505342394564D+03 0.517383893814693D+02 -.329578048964127D+02 0.115189264057654D+03
 0.395992086740132D+03 0.278792007651443D+03 -.189953248872872D+03 -.207370471555432D+03
 0.538071852401776D+03 -.350056684211732D+03 0.255898576539961D+03 -.318586808751693D+03
0.248350314785D-04 0.000000000000D+00 0.000000000000D+00 0.481787522028D-06 0.000000000000D+00  6 -1 22 9900012 -11 -2 21 0 0.43197311D-02 0.30027989D+00 0.10737851D+05 0.10737851D+05 0.10737851D+05 0.12061388D+01  1  2  2  1  6  1       -1 0.407438290576D-04 0.100000000000D+01
-.855292733275D-06 0.000000000000D+00 -.476865300456D-07 0.481787522028D-06 0.000000000000D+00  6 -1 22 9900012 -11 -2 21 2 0.43197311D-02 0.30027989D+00 0.10737851D+05 0.10737851D+05 0.10737851D+05 0.12061388D+01  1  2  3  1  6  1       -1 -.204129840509D-05 0.100000000000D+01
-.197372465056D-05 0.000000000000D+00 0.000000000000D+00 0.481787522028D-06 0.000000000000D+00  6 -1 22 9900012 -11 -2 21 2 0.43197311D-02 0.30027989D+00 0.10737851D+05 0.10737851D+05 0.10737851D+05 0.12061388D+01  1  2 15  1  6  1       -1 -.471062225191D-05 0.100000000000D+01
  </mgrwgt>
  </event>
  <event>
  6     66 0.61978431E-06 0.58366323E+02 0.78161638E-02 0.11915678E+00
       -3 -1    0    0    0  501 0.00000000E+00 0.00000000E+00 0.54782217E+02 0.54782217E+02 0.00000000E+00 0.0000E+00 0.9000E+01
       22 -1    0    0    0    0 0.00000000E+00 0.00000000E+00 -.35323592E+03 0.35323592E+03 0.00000000E+00 0.0000E+00 0.9000E+01
       24  2    1    2    0    0 -.20358166E+02 0.58516348E+02 -.32515539E+03 0.34055260E+03 0.80071371E+02 0.0000E+00 0.0000E+00
  9900012  1    3    3    0    0 -.48775510E+00 0.30795944E+02 -.13291463E+03 0.14530976E+03 0.50000000E+02 0.0000E+00 0.9000E+01
      -11  1    3    3    0    0 -.19870411E+02 0.27720404E+02 -.19224076E+03 0.19524283E+03 0.00000000E+00 0.0000E+00 0.9000E+01
       -4  1    1    2    0  501 0.20358166E+02 -.58516348E+02 0.26701694E+02 0.67465535E+02 0.00000000E+00 0.0000E+00 0.9000E+01
#aMCatNLO 1  0  0  1  5 0.15848795D+02 0.00000000D+00  -5  6  0 0.00000000D+00 0.00000000D+00 0.00000000D+00 0.00000000D+00 0.00000000D+00
  <mgrwgt>
 0.6157707373D-04    9    4    0
 0.139108039265376D+03 0.000000000000000D+00 0.000000000000000D+00 0.139108039265376D+03
 0.139108039265376D+03 0.000000000000000D+00 0.000000000000000D+00 -.139108039265376D+03
 0.705212837527139D+02 -.487755096976901D+00 0.307959442707221D+02 -.390464258744734D+02
 0.801091384331389D+02 -.198704109612188D+02 0.277204039210711D+02 -.724859988907151D+02
 0.127585656344899D+03 0.203581660581957D+02 -.585163481917932D+02 0.111532424765188D+03
 0.000000000000000D+00 0.000000000000000D+00 0.000000000000000D+00 0.000000000000000D+00
 0.159077735545679D+03 0.000000000000000D+00 0.000000000000000D+00 0.159077735545679D+03
 0.142051180481333D+03 0.000000000000000D+00 0.000000000000000D+00 -.142051180481333D+03
 0.696635904540671D+02 -.346020745799478D+01 0.285730541897235D+02 -.390464258744734D+02
 0.801850513370608D+02 -.232692572742459D+02 0.251786435029229D+02 -.724859988907151D+02
 0.128757792053010D+03 0.149227102521872D+02 -.625811469940674D+02 0.111532424765188D+03
 0.225224821828735D+02 0.118067544800535D+02 0.882944930142094D+01 0.170265550643467D+02
 0.139108039265376D+03 0.000000000000000D+00 0.000000000000000D+00 0.139108039265376D+03
 0.139108039265376D+03 0.000000000000000D+00 0.000000000000000D+00 -.139108039265376D+03
 0.705212837527139D+02 -.487755096976901D+00 0.307959442707221D+02 -.390464258744734D+02
 0.801091384331389D+02 -.198704109612188D+02 0.277204039210711D+02 -.724859988907151D+02
 0.000000000000000D+00 0.000000000000000D+00 0.000000000000000D+00 0.000000000000000D+00
 0.127585656344899D+03 0.203581660581957D+02 -.585163481917932D+02 0.111532424765188D+03
 0.159077735545679D+03 0.000000000000000D+00 0.000000000000000D+00 0.159077735545679D+03
 0.142051180481333D+03 0.000000000000000D+00 0.000000000000000D+00 -.142051180481333D+03
 0.696635904540671D+02 -.346020745799478D+01 0.285730541897235D+02 -.390464258744734D+02
 0.801850513370608D+02 -.232692572742459D+02 0.251786435029229D+02 -.724859988907151D+02
 0.225224821828735D+02 0.118067544800535D+02 0.882944930142094D+01 0.170265550643467D+02
 0.128757792053010D+03 0.149227102521872D+02 -.625811469940674D+02 0.111532424765188D+03
0.622607293462D-06 0.000000000000D+00 0.000000000000D+00 0.516146831615D-05 0.000000000000D+00  6 -3 22 9900012 -11 -4 21 0 0.84280334D-02 0.54343987D-01 0.59898399D+04 0.59898399D+04 0.59898399D+04 0.12331122D+01  1  2  2  1  6  1       -3 0.130731646367D-04 0.100000000000D+01
0.788873731145D-08 0.000000000000D+00 -.119548797158D-08 0.516146831615D-05 0.000000000000D+00  6 -3 22 9900012 -11 -4 21 2 0.84280334D-02 0.54343987D-01 0.59898399D+04 0.59898399D+04 0.59898399D+04 0.12331122D+01  1  2  3  1  6  1       -3 0.251871597723D-06 0.100000000000D+01
-.890056532235D-07 0.000000000000D+00 0.000000000000D+00 0.516146831615D-05 0.000000000000D+00  6 -3 22 9900012 -11 -4 21 2 0.84280334D-02 0.54343987D-01 0.59898399D+04 0.59898399D+04 0.59898399D+04 0.12331122D+01  1  2 15  1  6  1       -3 -.284177241537D-05 0.100000000000D+01
0.194457405855D-05 0.000000000000D+00 0.000000000000D+00 0.516146831615D-05 0.000000000000D+00  6 -3 22 9900012 -11 -4 21 2 0.98418340D-02 0.54343987D-01 0.73149945D+04 0.73149945D+04 0.73149945D+04 0.12236700D+01  1  2 12  1  6  1       -3 0.487621511054D-04 0.100000000000D+01
-.350602924537D-06 0.000000000000D+00 0.000000000000D+00 0.516146831615D-05 0.000000000000D+00  6 -3 22 9900012 -11 -4 21 2 0.84280334D-02 0.54343987D-01 0.59898399D+04 0.59898399D+04 0.59898399D+04 0.12331122D+01  1  2  4  1  6  1       -3 -.111940498565D-04 0.100000000000D+01
-.294735130335D-05 0.000000000000D+00 -.528352966209D-06 0.516146831615D-05 0.000000000000D+00  6 -3 22 9900012 -11 -4 21 2 0.98286921D-02 0.54343987D-01 0.59898399D+04 0.59898399D+04 0.59898399D+04 0.12331122D+01  1  2  5  1  6  1       -3 -.738147196626D-04 0.100000000000D+01
0.299924882857D-05 0.000000000000D+00 0.522169609946D-06 0.516146831615D-05 0.000000000000D+00  6 -3 22 9900012 -11 -4 21 2 0.84280334D-02 0.54343987D-01 0.59898399D+04 0.59898399D+04 0.59898399D+04 0.12331122D+01  1  2  6  1  6  1       -3 0.957600138775D-04 0.100000000000D+01
0.455657891662D-07 0.000000000000D+00 0.000000000000D+00 0.516146831615D-05 0.000000000000D+00  6 21 22 9900012 -11 3 -4 2 0.98418340D-02 0.54343987D-01 0.73149945D+04 0.73149945D+04 0.73149945D+04 0.12236700D+01  3  4 12  3  5  1       -3 0.198365938093D-04 0.100000000000D+01
-.647507973109D-07 0.000000000000D+00 -.122945380548D-07 0.516146831615D-05 0.000000000000D+00  6 21 22 9900012 -11 3 -4 2 0.98286921D-02 0.54343987D-01 0.59898399D+04 0.59898399D+04 0.59898399D+04 0.12331122D+01  3  4  5  3  5  1       -3 -.282561793631D-04 0.100000000000D+01
  </mgrwgt>
  </event>
  <event>
  6     66 0.61978431E-06 0.12676443E+03 0.78161638E-02 0.10109664E+00
       -1 -1    0    0    0  501 0.00000000E+00 0.00000000E+00 0.37357614E+02 0.37357614E+02 0.00000000E+00 0.0000E+00 0.9000E+01
       22 -1    0    0    0    0 0.00000000E+00 0.00000000E+00 -.18505039E+04 0.18505039E+04 0.00000000E+00 0.0000E+00 0.9000E+01
       24  2    1    2    0    0 0.96443717E+01 -.12639702E+03 -.17295295E+04 0.17360031E+04 0.79781783E+02 0.0000E+00 0.0000E+00
  9900012  1    3    3    0    0 0.18700076E+02 -.60581003E+02 -.11062335E+04 0.11091764E+04 0.50000000E+02 0.0000E+00 0.9000E+01
      -11  1    3    3    0    0 -.90557039E+01 -.65816014E+02 -.62329605E+03 0.62682671E+03 0.00000000E+00 0.0000E+00 0.9000E+01
       -2  1    1    2    0  501 -.96443717E+01 0.12639702E+03 -.83616774E+02 0.15185844E+03 0.00000000E+00 0.0000E+00 0.9000E+01
#aMCatNLO 1  0  0  1  5 0.34037822D+01 0.00000000D+00  -5  6  0 0.00000000D+00 0.00000000D+00 0.00000000D+00 0.00000000D+00 0.00000000D+00
  <mgrwgt>
 0.5525525196D-04    5    4    0
 0.262926628540082D+03 0.000000000000000D+00 0.000000000000000D+00 0.262926628540082D+03
 0.262926628540082D+03 0.000000000000000D+00 0.000000000000000D+00 -.262926628540082D+03
 0.167743172723046D+03 0.187000755795927D+02 -.605810033243867D+02 -.147030681167986D+03
 0.101235650756610D+03 -.905570387972423D+01 -.658160142071586D+02 -.763865399480839D+02
 0.256874433600508D+03 -.964437169986848D+01 0.126397017531545D+03 0.223417221116070D+03
 0.000000000000000D+00 -.000000000000000D+00 -.000000000000000D+00 0.000000000000000D+00
 0.403760358559052D+03 0.000000000000000D+00 0.000000000000000D+00 0.403760358559052D+03
 0.387655025209644D+03 0.000000000000000D+00 0.000000000000000D+00 -.387655025209644D+03
 0.159637245978713D+03 0.368573006782248D+02 0.275108808678809D+01 -.147030681167986D+03
 0.821956479932824D+02 0.111779212453859D+01 -.303310336876555D+02 -.763865399480839D+02
 0.328411628940307D+03 0.228168574316359D+02 0.239621231006236D+03 0.223417221116070D+03
 0.221170860856393D+03 -.607919502343994D+02 -.212041285405368D+03 0.161053333494081D+02
 0.262926628540082D+03 0.000000000000000D+00 0.000000000000000D+00 0.262926628540082D+03
 0.262926628540082D+03 0.000000000000000D+00 0.000000000000000D+00 -.262926628540082D+03
 0.167743172723046D+03 0.187000755795927D+02 -.605810033243867D+02 -.147030681167986D+03
 0.101235650756610D+03 -.905570387972423D+01 -.658160142071586D+02 -.763865399480839D+02
 0.000000000000000D+00 -.000000000000000D+00 -.000000000000000D+00 0.000000000000000D+00
 0.256874433600508D+03 -.964437169986848D+01 0.126397017531545D+03 0.223417221116070D+03
 0.403760358559052D+03 0.000000000000000D+00 0.000000000000000D+00 0.403760358559052D+03
 0.387655025209644D+03 0.000000000000000D+00 0.000000000000000D+00 -.387655025209644D+03
 0.159637245978713D+03 0.368573006782248D+02 0.275108808678809D+01 -.147030681167986D+03
 0.821956479932824D+02 0.111779212453859D+01 -.303310336876555D+02 -.763865399480839D+02
 0.221170860856393D+03 -.607919502343994D+02 -.212041285405368D+03 0.161053333494081D+02
 0.328411628940307D+03 0.228168574316359D+02 0.239621231006236D+03 0.223417221116070D+03
0.352041360403D-04 0.000000000000D+00 0.000000000000D+00 0.114268104077D-04 0.000000000000D+00  6 -1 22 9900012 -11 -2 21 0 0.57473253D-02 0.28469291D+00 0.18761532D+05 0.18761532D+05 0.18761532D+05 0.11819867D+01  1  2  2  1  6  1       -1 0.469270226546D-04 0.100000000000D+01
0.146832943873D-06 0.000000000000D+00 -.675965759284D-07 0.114268104077D-04 0.000000000000D+00  6 -1 22 9900012 -11 -2 21 2 0.57473253D-02 0.28469291D+00 0.18761532D+05 0.18761532D+05 0.18761532D+05 0.11819867D+01  1  2  3  1  6  1       -1 0.273450033619D-06 0.100000000000D+01
-.471552445616D-05 0.000000000000D+00 0.000000000000D+00 0.114268104077D-04 0.000000000000D+00  6 -1 22 9900012 -11 -2 21 2 0.57473253D-02 0.28469291D+00 0.18761532D+05 0.18761532D+05 0.18761532D+05 0.11819867D+01  1  2 15  1  6  1       -1 -.878181889606D-05 0.100000000000D+01
0.116558267484D-04 0.000000000000D+00 -.101949734654D-04 0.114268104077D-04 0.000000000000D+00  6 -1 22 9900012 -11 -2 21 2 0.14350249D-01 0.28469291D+00 0.18761532D+05 0.18761532D+05 0.18761532D+05 0.11819867D+01  1  2  5  1  6  1       -1 0.553274896035D-05 0.100000000000D+01
0.180426396621D-05 0.000000000000D+00 -.102666944798D-05 0.114268104077D-04 0.000000000000D+00  6 21 22 9900012 -11 1 -2 2 0.14350249D-01 0.28469291D+00 0.18761532D+05 0.18761532D+05 0.18761532D+05 0.11819867D+01  3  4  5  3  5  1       -1 0.113038492029D-04 0.100000000000D+01
  </mgrwgt>
  </event>
  <event>
  6     66 0.61978431E-06 0.11698918E+03 0.78161638E-02 0.10604080E+00
       -1 -1    0    0    0  501 0.00000000E+00 0.00000000E+00 0.51964872E+03 0.51964872E+03 0.00000000E+00 0.0000E+00 0.9000E+01
       22 -1    0    0    0    0 0.00000000E+00 0.00000000E+00 -.14755940E+03 0.14755940E+03 0.00000000E+00 0.0000E+00 0.9000E+01
       24  2    1    2    0    0 -.12409678E+03 0.14278893E+03 -.44139714E+02 0.21000433E+03 0.79779790E+02 0.0000E+00 0.0000E+00
  9900012  1    3    3    0    0 -.11544569E+03 0.10904187E+03 -.51750635E+02 0.17434439E+03 0.50000000E+02 0.0000E+00 0.9000E+01
      -11  1    3    3    0    0 -.86510868E+01 0.33747059E+02 0.76109208E+01 0.35659941E+02 0.00000000E+00 0.0000E+00 0.9000E+01
       -2  1    1    2    0  501 0.12409678E+03 -.14278893E+03 0.41622904E+03 0.45720379E+03 0.00000000E+00 0.0000E+00 0.9000E+01
#aMCatNLO 1  0  0  5  1 0.24053772D+02 0.00000000D+00  -5  6  0 0.00000000D+00 0.00000000D+00 0.00000000D+00 0.00000000D+00 0.00000000D+00
  <mgrwgt>
 0.4214459996D-04    7    2    0
 0.276909825718745D+03 0.000000000000000D+00 0.000000000000000D+00 0.276909825718745D+03
 0.276909825718745D+03 -.000000000000000D+00 -.000000000000000D+00 -.276909825718745D+03
 0.244808666982660D+03 -.115445691693865D+03 0.109041873886065D+03 -.179481044789046D+03
 0.378474471271971D+02 -.865108676000429D+01 0.337470591735922D+02 -.147893187487093D+02
 0.271163537327634D+03 0.124096778453869D+03 -.142788933059657D+03 0.194270363537755D+03
 0.000000000000000D+00 0.000000000000000D+00 -.000000000000000D+00 0.000000000000000D+00
 0.276909825718745D+03 0.000000000000000D+00 0.000000000000000D+00 0.276909825718745D+03
 0.276909825718745D+03 -.000000000000000D+00 -.000000000000000D+00 -.276909825718745D+03
 0.238421331282258D+03 -.112447451566944D+03 0.105592021971184D+03 -.174787375809985D+03
 0.369846977552362D+02 -.818678458427925D+01 0.332128211932429D+02 -.140624654524893D+02
 0.256653643982731D+03 0.119880802320542D+03 -.117685286184118D+03 0.194035717383064D+03
 0.217599784172647D+02 0.753433830682112D+00 -.211195569803089D+02 -.518587612058901D+01
0.400950226072D-05 0.000000000000D+00 0.000000000000D+00 0.330911928029D-05 0.000000000000D+00  6 -1 22 9900012 -11 -2 21 0 0.79945957D-01 0.22701446D-01 0.38123346D+05 0.38123346D+05 0.38123346D+05 0.11533535D+01  1  2  2  2  6  5       -2 0.113040918498D-04 0.100000000000D+01
-.346005181651D-07 0.000000000000D+00 -.769877220367D-08 0.330911928029D-05 0.000000000000D+00  6 -1 22 9900012 -11 -2 21 2 0.79945957D-01 0.22701446D-01 0.38123346D+05 0.38123346D+05 0.38123346D+05 0.11533535D+01  1  2  3  2  6  5       -2 -.129763546541D-06 0.100000000000D+01
-.480258977807D-06 0.000000000000D+00 0.000000000000D+00 0.330911928029D-05 0.000000000000D+00  6 -1 22 9900012 -11 -2 21 2 0.79945957D-01 0.22701446D-01 0.38123346D+05 0.38123346D+05 0.38123346D+05 0.11533535D+01  1  2 15  2  6  5       -2 -.180113222354D-05 0.100000000000D+01
0.945415670954D-05 0.000000000000D+00 0.000000000000D+00 0.330911928029D-05 0.000000000000D+00  6 -1 22 9900012 -11 -2 21 2 0.79945957D-01 0.22701446D-01 0.37149916D+05 0.37149916D+05 0.37149916D+05 0.11543604D+01  1  2 12  2  6  5       -2 0.354867900136D-04 0.100000000000D+01
-.154657072054D-05 0.000000000000D+00 0.000000000000D+00 0.330911928029D-05 0.000000000000D+00  6 -1 22 9900012 -11 -2 21 2 0.79945957D-01 0.22701446D-01 0.38123346D+05 0.38123346D+05 0.38123346D+05 0.11533535D+01  1  2  4  2  6  5       -2 -.580015885067D-05 0.100000000000D+01
-.985597285619D-05 0.000000000000D+00 0.000000000000D+00 0.330911928029D-05 0.000000000000D+00  6 -1 22 9900012 -11 -2 21 2 0.79945957D-01 0.22701446D-01 0.38123346D+05 0.38123346D+05 0.38123346D+05 0.11533535D+01  1  2  5  2  6  5       -2 -.369632034505D-04 0.100000000000D+01
0.106785053567D-04 0.000000000000D+00 -.000000000000D+00 0.330911928029D-05 0.000000000000D+00  6 -1 22 9900012 -11 -2 21 2 0.79945957D-01 0.22701446D-01 0.38123346D+05 0.38123346D+05 0.38123346D+05 0.11533535D+01  1  2  6  2  6  5       -2 0.400479761669D-04 0.100000000000D+01
  </mgrwgt>
  </event>
  <event>
  6     66 0.61978431E-06 0.54131028E+02 0.78161638E-02 0.11997405E+00
       -3 -1    0    0    0  501 0.00000000E+00 0.00000000E+00 0.45281541E+02 0.45281541E+02 0.00000000E+00 0.0000E+00 0.9000E+01
       22 -1    0    0    0    0 -.00000000E+00 -.00000000E+00 -.11313751E+04 0.11313751E+04 0.00000000E+00 0.0000E+00 0.9000E+01
       24  2    1    2    0    0 -.22820406E+02 0.49085612E+02 -.11123033E+04 0.11165141E+04 0.80342919E+02 0.0000E+00 0.0000E+00
  9900012  1    3    3    0    0 -.93380170E+01 0.19310527E+02 -.42998806E+03 0.43341646E+03 0.50000000E+02 0.0000E+00 0.9000E+01
      -11  1    3    3    0    0 -.13482389E+02 0.29775085E+02 -.68231522E+03 0.68309764E+03 0.00000000E+00 0.0000E+00 0.9000E+01
       -4  1    1    2    0  501 0.22820406E+02 -.49085612E+02 0.26209763E+02 0.60142497E+02 0.00000000E+00 0.0000E+00 0.9000E+01
#aMCatNLO 1  0  0  5  1 0.68384067D+02 0.00000000D+00  -5  6  0 0.00000000D+00 0.00000000D+00 0.00000000D+00 0.00000000D+00 0.00000000D+00
  <mgrwgt>
 0.1792654562D-03    3    2    0
 0.226341347810443D+03 0.000000000000000D+00 0.000000000000000D+00 0.226341347810443D+03
 0.226341347810443D+03 -.000000000000000D+00 -.000000000000000D+00 -.226341347810443D+03
 0.949342490734068D+02 -.933801701687725D+01 0.193105267775080D+02 -.777972791355797D+02
 0.138536799905953D+03 -.134823890177685D+02 0.297750852639531D+02 -.134625831147220D+03
 0.219211646641526D+03 0.228204060346458D+02 -.490856120414611D+02 0.212423110282800D+03
 0.000000000000000D+00 -.000000000000000D+00 0.000000000000000D+00 0.000000000000000D+00
 0.226341347810443D+03 0.000000000000000D+00 0.000000000000000D+00 0.226341347810443D+03
 0.226341347810443D+03 -.000000000000000D+00 -.000000000000000D+00 -.226341347810443D+03
 0.820239258436708D+02 -.770553935426251D+01 0.157991446797572D+02 -.626014065453486D+02
 0.115983769473986D+03 -.111343813917663D+02 0.247246321201589D+02 -.112769467937648D+03
 0.450686240235661D+02 0.344576506460810D+02 0.548049976338583D+01 -.285274482853571D+02
 0.209606376279663D+03 -.156177299000522D+02 -.460042765633019D+02 0.203898322768354D+03
0.754058274593D-04 0.000000000000D+00 0.000000000000D+00 0.492960619068D-04 0.000000000000D+00  6 -3 22 9900012 -11 -4 21 0 0.69663909D-02 0.17405770D+00 0.49859917D+04 0.49859917D+04 0.49859917D+04 0.12419828D+01  1  2  2  2  6  5       -4 0.218061250778D-03 0.100000000000D+01
0.221336316220D-05 0.000000000000D+00 -.144789116127D-06 0.492960619068D-04 0.000000000000D+00  6 -3 22 9900012 -11 -4 21 2 0.69663909D-02 0.17405770D+00 0.49859917D+04 0.49859917D+04 0.49859917D+04 0.12419828D+01  1  2  3  2  6  5       -4 0.987318859831D-05 0.100000000000D+01
-.109105719447D-04 0.000000000000D+00 0.000000000000D+00 0.492960619068D-04 0.000000000000D+00  6 -3 22 9900012 -11 -4 21 2 0.69663909D-02 0.17405770D+00 0.49859917D+04 0.49859917D+04 0.49859917D+04 0.12419828D+01  1  2 15  2  6  5       -4 -.486689831858D-04 0.100000000000D+01
  </mgrwgt>
  </event>
  <event>
  6     66 -.61978431E-06 0.43291183E+02 0.78161638E-02 0.12384495E+00
       -1 -1    0    0    0  501 0.00000000E+00 0.00000000E+00 0.46710940E+03 0.46710940E+03 0.00000000E+00 0.0000E+00 0.9000E+01
       22 -1    0    0    0    0 0.00000000E+00 0.00000000E+00 -.13926711E+02 0.13926711E+02 0.00000000E+00 0.0000E+00 0.9000E+01
       24  2    1    2    0    0 -.39429645E+02 0.26969209E+02 0.17102811E+03 0.19486616E+03 0.80250671E+02 0.0000E+00 0.0000E+00
  9900012  1    3    3    0    0 -.10898429E+02 0.87946829E+01 0.13859352E+03 0.14800096E+03 0.50000000E+02 0.0000E+00 0.9000E+01
      -11  1    3    3    0    0 -.28531216E+02 0.18174526E+02 0.32434593E+02 0.46865195E+02 0.00000000E+00 0.0000E+00 0.9000E+01
       -2  1    1    2    0  501 0.39429645E+02 -.26969209E+02 0.28215458E+03 0.28616995E+03 0.00000000E+00 0.0000E+00 0.9000E+01
#aMCatNLO 1  0  0  5  1 0.11451912D+00 0.00000000D+00  -5  6  0 0.00000000D+00 0.00000000D+00 0.00000000D+00 0.00000000D+00 0.00000000D+00
  <mgrwgt>
 -.1460545773D-03    7    2    0
 0.806554247254771D+02 0.000000000000000D+00 0.000000000000000D+00 0.806554247254771D+02
 0.806554247254771D+02 -.000000000000000D+00 -.000000000000000D+00 -.806554247254771D+02
 0.519842595411813D+02 -.108984285281093D+02 0.879468293846293D+01 -.249820889328659D+01
 0.486331521846439D+02 -.285312159832020D+02 0.181745260702922D+02 -.349405181423356D+02
 0.606934377251292D+02 0.394296445113113D+02 -.269692090087551D+02 0.374387270356222D+02
 0.000000000000000D+00 0.000000000000000D+00 0.000000000000000D+00 0.000000000000000D+00
 0.806554247254771D+02 0.000000000000000D+00 0.000000000000000D+00 0.806554247254771D+02
 0.806554247254771D+02 -.000000000000000D+00 -.000000000000000D+00 -.806554247254771D+02
 0.519837376825415D+02 -.108970217682710D+02 0.879372073856042D+01 -.249687316484561D+01
 0.486311459336957D+02 -.285298999291089D+02 0.181736259115831D+02 -.349392685396429D+02
 0.597038001224451D+02 0.388190735855160D+02 -.265992960057850D+02 0.367437168373015D+02
 0.992165712271983D+00 0.607848111863891D+00 -.368050644358536D+00 0.692424867187004D+00
0.920137328296D-07 0.000000000000D+00 0.000000000000D+00 0.522739746309D-06 0.000000000000D+00  6 -1 22 9900012 -11 -2 21 0 0.71862984D-01 0.21425709D-02 0.44570977D+04 0.44570977D+04 0.44570977D+04 0.12475070D+01  1  2  2  2  6  5       -2 0.787378101305D-05 0.100000000000D+01
-.371437766960D-09 0.000000000000D+00 -.176678480919D-09 0.522739746309D-06 0.000000000000D+00  6 -1 22 9900012 -11 -2 21 2 0.71862984D-01 0.21425709D-02 0.44570977D+04 0.44570977D+04 0.44570977D+04 0.12475070D+01  1  2  3  2  6  5       -2 -.494655365810D-07 0.100000000000D+01
-.108619195777D-07 0.000000000000D+00 0.000000000000D+00 0.522739746309D-06 0.000000000000D+00  6 -1 22 9900012 -11 -2 21 2 0.71862984D-01 0.21425709D-02 0.44570977D+04 0.44570977D+04 0.44570977D+04 0.12475070D+01  1  2 15  2  6  5       -2 -.144651601965D-05 0.100000000000D+01
-.159640764798D-03 0.000000000000D+00 0.000000000000D+00 0.522739746309D-06 0.000000000000D+00  6 -1 22 9900012 -11 -2 21 2 0.71862984D-01 0.21425709D-02 0.44570977D+04 0.44570977D+04 0.44570977D+04 0.12475070D+01  1  2  4  2  6  5       -2 -.212598631409D-01 0.100000000000D+01
-.123592031172D-03 0.000000000000D+00 0.000000000000D+00 0.522739746309D-06 0.000000000000D+00  6 -1 22 9900012 -11 -2 21 2 0.71862984D-01 0.21425709D-02 0.44570977D+04 0.44570977D+04 0.44570977D+04 0.12475070D+01  1  2  5  2  6  5       -2 -.164591398152D-01 0.100000000000D+01
0.125628922140D-03 0.000000000000D+00 -.000000000000D+00 0.522739746309D-06 0.000000000000D+00  6 -1 22 9900012 -11 -2 21 2 0.71862984D-01 0.21425709D-02 0.44570977D+04 0.44570977D+04 0.44570977D+04 0.12475070D+01  1  2  6  2  6  5       -2 0.167303989969D-01 0.100000000000D+01
0.156459292416D-03 0.000000000000D+00 0.000000000000D+00 0.522739746309D-06 0.406147951549D-03  6 -1 22 9900012 -11 -2 21 2 0.71862984D-01 0.21425709D-02 0.44568145D+04 0.44568145D+04 0.44568145D+04 0.12475102D+01  1  2 11  2  6  5       -2 0.208361715825D-01 0.100000000000D+01
  </mgrwgt>
  </event>
  <event>
  6     66 0.61978431E-06 0.55307219E+02 0.78161638E-02 0.10898301E+00
       -1 -1    0    0    0  501 0.00000000E+00 0.00000000E+00 0.28070943E+03 0.28070943E+03 0.00000000E+00 0.0000E+00 0.9000E+01
       22 -1    0    0    0    0 0.00000000E+00 0.00000000E+00 -.18246145E+03 0.18246145E+03 0.00000000E+00 0.0000E+00 0.9000E+01
       24  2    1    2    0    0 0.37780907E+02 0.40391725E+02 -.16597702E+03 0.19321952E+03 0.82015370E+02 0.0000E+00 0.0000E+00
  9900012  1    3    3    0    0 0.21554268E+02 -.76182874E+00 -.98099760E+02 0.11219951E+03 0.50000000E+02 0.0000E+00 0.9000E+01
      -11  1    3    3    0    0 0.16226640E+02 0.41153554E+02 -.67877263E+02 0.81020008E+02 0.00000000E+00 0.0000E+00 0.9000E+01
       -2  1    1    2    0  501 -.37780907E+02 -.40391725E+02 0.26422500E+03 0.26995137E+03 0.00000000E+00 0.0000E+00 0.9000E+01
#aMCatNLO 1  0  0  5  1 0.28334260D+01 0.00000000D+00  -5  6  0 0.00000000D+00 0.00000000D+00 0.00000000D+00 0.00000000D+00 0.00000000D+00
  <mgrwgt>
 0.1777556696D-03    3    2    0
 0.226315379076107D+03 0.000000000000000D+00 0.000000000000000D+00 0.226315379076107D+03
 0.226315379076107D+03 -.000000000000000D+00 -.000000000000000D+00 -.226315379076107D+03
 0.136105750845948D+03 0.215542675857143D+02 -.761828744032080D+00 -.124738160076007D+03
 0.976401009320807D+02 0.162266397661041D+02 0.411535540115586D+02 -.870440719644119D+02
 0.218884906374185D+03 -.377809073518185D+02 -.403917252675265D+02 0.211782232040419D+03
 0.000000000000000D+00 0.000000000000000D+00 0.000000000000000D+00 -.000000000000000D+00
 0.226315379076107D+03 0.000000000000000D+00 0.000000000000000D+00 0.226315379076107D+03
 0.226315379076107D+03 -.000000000000000D+00 -.000000000000000D+00 -.226315379076107D+03
 0.574506898054882D+02 0.265827835094527D+01 -.209636094668075D+02 -.188160142819485D+02
 0.321243754470537D+02 0.355835479215552D+01 0.276098378293733D+02 -.160315459040021D+02
 0.192726999006535D+03 0.113567862544087D+03 0.838350379395187D+00 0.155709132397152D+03
 0.170328693893137D+03 -.119784495687188D+03 -.748457874196094D+01 -.120861572211201D+03
0.359919730626D-04 0.000000000000D+00 0.000000000000D+00 0.814092233412D-05 0.000000000000D+00  6 -1 22 9900012 -11 -2 21 0 0.43186067D-01 0.28070993D-01 0.59288182D+04 0.59288182D+04 0.59288182D+04 0.12336020D+01  1  2  2  2  6  5       -2 0.207758966069D-03 0.100000000000D+01
0.136211264491D-05 0.000000000000D+00 -.691093267322D-07 0.814092233412D-05 0.000000000000D+00  6 -1 22 9900012 -11 -2 21 2 0.43186067D-01 0.28070993D-01 0.59288182D+04 0.59288182D+04 0.59288182D+04 0.12336020D+01  1  2  3  2  6  5       -2 0.119651265667D-04 0.100000000000D+01
-.477769452846D-05 0.000000000000D+00 0.000000000000D+00 0.814092233412D-05 0.000000000000D+00  6 -1 22 9900012 -11 -2 21 2 0.43186067D-01 0.28070993D-01 0.59288182D+04 0.59288182D+04 0.59288182D+04 0.12336020D+01  1  2 15  2  6  5       -2 -.419684230549D-04 0.100000000000D+01
  </mgrwgt>
  </event>
  <event>
  6     66 0.61978431E-06 0.50910738E+02 0.78161638E-02 0.12015688E+00
       -1 -1    0    0    0  501 0.00000000E+00 0.00000000E+00 0.10000735E+02 0.10000735E+02 0.00000000E+00 0.0000E+00 0.9000E+01
       22 -1    0    0    0    0 0.00000000E+00 0.00000000E+00 -.10426348E+04 0.10426348E+04 0.00000000E+00 0.0000E+00 0.9000E+01
       24  2    1    2    0    0 -.10528509E+02 -.54798457E+02 -.93548560E+03 0.94060186E+03 0.80528488E+02 0.0000E+00 0.0000E+00
  9900012  1    3    3    0    0 -.73233784E+01 -.19098098E+02 -.36328348E+03 0.36727818E+03 0.50000000E+02 0.0000E+00 0.9000E+01
      -11  1    3    3    0    0 -.32051310E+01 -.35700360E+02 -.57220211E+03 0.57332368E+03 0.00000000E+00 0.0000E+00 0.9000E+01
       -2  1    1    2    0  501 0.10528509E+02 0.54798457E+02 -.97148498E+02 0.11203371E+03 0.00000000E+00 0.0000E+00 0.9000E+01
#aMCatNLO 1  0  0  1  5 0.15674193D+02 0.00000000D+00  -5  6  0 0.00000000D+00 0.00000000D+00 0.00000000D+00 0.00000000D+00 0.00000000D+00
  <mgrwgt>
 0.6951642947D-04    9    4    0
 0.102113246017520D+03 0.000000000000000D+00 0.000000000000000D+00 0.102113246017520D+03
 0.102113246017520D+03 0.000000000000000D+00 0.000000000000000D+00 -.102113246017520D+03
 0.561688117293355D+02 -.732337840157381D+01 -.190980975066645D+02 -.153807090700927D+02
 0.618210166814743D+02 -.320513104573759D+01 -.357003598087868D+02 -.503691328894386D+02
 0.862366636242313D+02 0.105285094473114D+02 0.547984573154513D+02 0.657498419595314D+02
 0.000000000000000D+00 -.000000000000000D+00 -.000000000000000D+00 0.000000000000000D+00
 0.196483960273569D+03 0.000000000000000D+00 0.000000000000000D+00 0.196483960273569D+03
 0.103054154535323D+03 0.000000000000000D+00 0.000000000000000D+00 -.103054154535323D+03
 0.547839334940987D+02 -.630539537668590D+01 -.149985048165031D+02 -.153807090700927D+02
 0.592995711175375D+02 -.209385883615374D+01 -.312250755301603D+02 -.503691328894386D+02
 0.907358616152669D+02 0.121522189481675D+02 0.613374146830245D+02 0.657498419595314D+02
 0.947187485819890D+02 -.375296473532786D+01 -.151138343363612D+02 0.934298057382464D+02
 0.102113246017520D+03 0.000000000000000D+00 0.000000000000000D+00 0.102113246017520D+03
 0.102113246017520D+03 0.000000000000000D+00 0.000000000000000D+00 -.102113246017520D+03
 0.561688117293355D+02 -.732337840157381D+01 -.190980975066645D+02 -.153807090700927D+02
 0.618210166814743D+02 -.320513104573759D+01 -.357003598087868D+02 -.503691328894386D+02
 0.000000000000000D+00 -.000000000000000D+00 -.000000000000000D+00 0.000000000000000D+00
 0.862366636242313D+02 0.105285094473114D+02 0.547984573154513D+02 0.657498419595314D+02
 0.196483960273569D+03 0.000000000000000D+00 0.000000000000000D+00 0.196483960273569D+03
 0.103054154535323D+03 0.000000000000000D+00 0.000000000000000D+00 -.103054154535323D+03
 0.547839334940987D+02 -.630539537668590D+01 -.149985048165031D+02 -.153807090700927D+02
 0.592995711175375D+02 -.209385883615374D+01 -.312250755301603D+02 -.503691328894386D+02
 0.947187485819890D+02 -.375296473532786D+01 -.151138343363612D+02 0.934298057382464D+02
 0.907358616152669D+02 0.121522189481675D+02 0.613374146830245D+02 0.657498419595314D+02
0.265032559331D-06 0.000000000000D+00 0.000000000000D+00 0.118021996068D-05 0.000000000000D+00  6 -1 22 9900012 -11 -2 21 0 0.15385747D-02 0.16040536D+00 0.53046896D+04 0.53046896D+04 0.53046896D+04 0.12389635D+01  1  2  2  1  6  1       -1 0.925799480973D-05 0.100000000000D+01
0.106190159390D-08 0.000000000000D+00 -.508897406253D-09 0.118021996068D-05 0.000000000000D+00  6 -1 22 9900012 -11 -2 21 2 0.15385747D-02 0.16040536D+00 0.53046896D+04 0.53046896D+04 0.53046896D+04 0.12389635D+01  1  2  3  1  6  1       -1 0.569402011320D-07 0.100000000000D+01
-.334779449061D-07 0.000000000000D+00 0.000000000000D+00 0.118021996068D-05 0.000000000000D+00  6 -1 22 9900012 -11 -2 21 2 0.15385747D-02 0.16040536D+00 0.53046896D+04 0.53046896D+04 0.53046896D+04 0.12389635D+01  1  2 15  1  6  1       -1 -.179512011979D-05 0.100000000000D+01
0.310587098468D-05 0.000000000000D+00 0.000000000000D+00 0.118021996068D-05 0.000000000000D+00  6 -1 22 9900012 -11 -2 21 2 0.29877690D-02 0.16040536D+00 0.65592337D+04 0.65592337D+04 0.65592337D+04 0.12287945D+01  1  2 12  1  6  1       -1 0.659352964335D-04 0.100000000000D+01
-.147432282202D-05 0.000000000000D+00 0.000000000000D+00 0.118021996068D-05 0.000000000000D+00  6 -1 22 9900012 -11 -2 21 2 0.15385747D-02 0.16040536D+00 0.53046896D+04 0.53046896D+04 0.53046896D+04 0.12389635D+01  1  2  4  1  6  1       -1 -.790546303932D-04 0.100000000000D+01
-.307239830630D-05 0.000000000000D+00 -.808253209677D-07 0.118021996068D-05 0.000000000000D+00  6 -1 22 9900012 -11 -2 21 2 0.29844125D-02 0.16040536D+00 0.53046896D+04 0.53046896D+04 0.53046896D+04 0.12389635D+01  1  2  5  1  6  1       -1 -.650259122428D-04 0.100000000000D+01
0.255853366630D-05 0.000000000000D+00 0.658384389998D-07 0.118021996068D-05 0.000000000000D+00  6 -1 22 9900012 -11 -2 21 2 0.15385747D-02 0.16040536D+00 0.53046896D+04 0.53046896D+04 0.53046896D+04 0.12389635D+01  1  2  6  1  6  1       -1 0.137191075331D-03 0.100000000000D+01
0.223460094757D-06 0.000000000000D+00 0.000000000000D+00 0.118021996068D-05 0.000000000000D+00  6 21 22 9900012 -11 1 -2 2 0.29877690D-02 0.16040536D+00 0.65592337D+04 0.65592337D+04 0.65592337D+04 0.12287945D+01  3  4 12  3  5  1       -1 0.813054344841D-04 0.100000000000D+01
-.215981177046D-06 0.000000000000D+00 -.580591885071D-08 0.118021996068D-05 0.000000000000D+00  6 21 22 9900012 -11 1 -2 2 0.29844125D-02 0.16040536D+00 0.53046896D+04 0.53046896D+04 0.53046896D+04 0.12389635D+01  3  4  5  3  5  1       -1 -.783546490311D-04 0.100000000000D+01
  </mgrwgt>
  </event>
  <event>
  7     66 -.61978431E-06 0.44621376E+02 0.78161638E-02 0.12065956E+00
       -3 -1    0    0    0  501 0.00000000E+00 0.00000000E+00 0.36247139E+03 0.36247139E+03 0.00000000E+00 0.0000E+00 0.9000E+01
       22 -1    0    0    0    0 0.00000000E+00 0.00000000E+00 -.22674022E+02 0.22674022E+02 0.00000000E+00 0.0000E+00 0.9000E+01
       24  2    1    2    0    0 0.57567152E+02 -.31574751E+00 0.12189613E+03 0.15709359E+03 0.80657632E+02 0.0000E+00 0.0000E+00
  9900012  1    3    3    0    0 0.13541459E+02 0.94514965E+01 0.78380466E+02 0.94425629E+02 0.50000000E+02 0.0000E+00 0.9000E+01
      -11  1    3    3    0    0 0.44025693E+02 -.97672441E+01 0.43515662E+02 0.62667963E+02 0.00000000E+00 0.0000E+00 0.9000E+01
       -4  1    1    2    0  502 -.49381321E+02 -.57469379E+01 0.20795467E+03 0.21381461E+03 0.00000000E+00 0.0000E+00 0.9000E+01
       21  1    1    2  502  501 -.81858312E+01 0.60626855E+01 0.99465748E+01 0.14237217E+02 0.00000000E+00 0.0000E+00 0.9000E+01
#aMCatNLO 2  0  0  5  1 0.12520014D+02 0.00000000D+00  -5  6  0 0.00000000D+00 0.00000000D+00 0.00000000D+00 0.00000000D+00 0.00000000D+00
  <mgrwgt>
 -.2976809532D-04    2    2    0
 0.906569593242424D+02 0.000000000000000D+00 0.000000000000000D+00 0.906569593242424D+02
 0.906569593242424D+02 -.000000000000000D+00 -.000000000000000D+00 -.906569593242424D+02
 0.545569733803949D+02 0.157371887727810D+02 0.943945328452380D+01 -.118195158804523D+02
 0.540402899791893D+02 0.461679406800761D+02 -.977899397328738D+01 -.263295550905489D+02
 0.727166552889006D+02 -.619051294528570D+02 0.339540688763591D+00 0.381490709710012D+02
 0.000000000000000D+00 0.000000000000000D+00 0.000000000000000D+00 0.000000000000000D+00
 0.906569593242424D+02 0.000000000000000D+00 0.000000000000000D+00 0.906569593242424D+02
 0.906569593242424D+02 -.000000000000000D+00 -.000000000000000D+00 -.906569593242424D+02
 0.536865658979368D+02 0.135414592600103D+02 0.945149654358317D+01 -.104663963287098D+02
 0.515667570563368D+02 0.440256926394220D+02 -.976724405237364D+01 -.250093935261888D+02
 0.644587355132140D+02 -.493813207352104D+02 -.574693794684063D+01 0.410290927348378D+02
 0.116018601809972D+02 -.818583116422191D+01 0.606268545563111D+01 -.555330287993921D+01
-.624852665191D-06 0.000000000000D+00 0.000000000000D+00 0.458810669598D-06 0.000000000000D+00  6 -3 22 9900012 -11 -4 21 2 0.55764830D-01 0.34883110D-02 0.62136681D+04 0.62136681D+04 0.62136681D+04 0.12313622D+01  1  2 13  2  6  5       -4 -.393043529520D-04 0.100000000000D+01
0.151605497791D-06 0.000000000000D+00 0.000000000000D+00 0.458810669598D-06 0.496364910470D-08  6 -3 22 9900012 -11 -4 21 2 0.55764830D-01 0.34883110D-02 0.62136681D+04 0.62136681D+04 0.62136681D+04 0.12313622D+01  1  2  1  2  6  5       -4 0.953625762774D-05 0.100000000000D+01
  </mgrwgt>
  </event>
  <event>
  6     66 0.61978431E-06 0.78484001E+02 0.78161638E-02 0.11202314E+00
       -1 -1    0    0    0  501 0.00000000E+00 0.00000000E+00 0.43487777E+03 0.43487777E+03 0.00000000E+00 0.0000E+00 0.9000E+01
       22 -1    0    0    0    0 0.00000000E+00 0.00000000E+00 -.23598200E+02 0.23598200E+02 0.00000000E+00 0.0000E+00 0.9000E+01
       24  2    1    2    0    0 -.10339571E+02 -.77799947E+02 0.16309570E+03 0.19817812E+03 0.80713200E+02 0.0000E+00 0.0000E+00
  9900012  1    3    3    0    0 -.19041233E+02 -.29158062E+02 0.70186970E+02 0.92946070E+02 0.50000000E+02 0.0000E+00 0.9000E+01
      -11  1    3    3    0    0 0.87016616E+01 -.48641885E+02 0.92908731E+02 0.10523205E+03 0.00000000E+00 0.0000E+00 0.9000E+01
       -2  1    1    2    0  501 0.10339571E+02 0.77799947E+02 0.24818386E+03 0.26029785E+03 0.00000000E+00 0.0000E+00 0.9000E+01
#aMCatNLO 1  0  0  1  5 0.82806032D+02 0.00000000D+00  -5  6  0 0.00000000D+00 0.00000000D+00 0.00000000D+00 0.00000000D+00 0.00000000D+00
  <mgrwgt>
 0.9885648273D-04    7    4    0
 0.101303171500629D+03 0.000000000000000D+00 0.000000000000000D+00 0.101303171500629D+03
 0.101303171500629D+03 0.000000000000000D+00 0.000000000000000D+00 -.101303171500629D+03
 0.678511458348557D+02 -.190412327190741D+02 -.291580617764399D+02 -.298499058806260D+02
 0.495290659494576D+02 0.870166159622929D+01 -.486418851479946D+02 -.337290209459753D+01
 0.852261312169440D+02 0.103395711228448D+02 0.777999469244345D+02 0.332228079752235D+02
 0.000000000000000D+00 -.000000000000000D+00 0.000000000000000D+00 0.000000000000000D+00
 0.143051688109807D+03 0.000000000000000D+00 0.000000000000000D+00 0.143051688109807D+03
 0.132191653059466D+03 0.000000000000000D+00 0.000000000000000D+00 -.132191653059466D+03
 0.755244523207987D+02 -.768009339706465D+01 -.474757009709887D+02 -.298499058806260D+02
 0.659470134737627D+02 0.178520319769850D+02 -.633950871271710D+02 -.337290209459753D+01
 0.705051186803915D+02 0.226797771944072D+02 0.579037520096027D+02 0.332228079752235D+02
 0.632667566943205D+02 -.328517157743275D+02 0.529670360885570D+02 0.108600350503416D+02
 0.101303171500629D+03 0.000000000000000D+00 0.000000000000000D+00 0.101303171500629D+03
 0.101303171500629D+03 0.000000000000000D+00 0.000000000000000D+00 -.101303171500629D+03
 0.678511458348557D+02 -.190412327190741D+02 -.291580617764399D+02 -.298499058806260D+02
 0.495290659494576D+02 0.870166159622929D+01 -.486418851479946D+02 -.337290209459753D+01
 0.000000000000000D+00 -.000000000000000D+00 0.000000000000000D+00 0.000000000000000D+00
 0.852261312169440D+02 0.103395711228448D+02 0.777999469244345D+02 0.332228079752235D+02
 0.143051688109807D+03 0.000000000000000D+00 0.000000000000000D+00 0.143051688109807D+03
 0.132191653059466D+03 0.000000000000000D+00 0.000000000000000D+00 -.132191653059466D+03
 0.755244523207987D+02 -.768009339706465D+01 -.474757009709887D+02 -.298499058806260D+02
 0.659470134737627D+02 0.178520319769850D+02 -.633950871271710D+02 -.337290209459753D+01
 0.632667566943205D+02 -.328517157743275D+02 0.529670360885570D+02 0.108600350503416D+02
 0.705051186803915D+02 0.226797771944072D+02 0.579037520096027D+02 0.332228079752235D+02
0.153998348209D-05 0.000000000000D+00 0.000000000000D+00 0.371483139591D-06 0.000000000000D+00  6 -1 22 9900012 -11 -2 21 0 0.66904272D-01 0.36304923D-02 0.89142411D+04 0.89142411D+04 0.89142411D+04 0.12145391D+01  1  2  2  1  6  1       -1 0.780015602957D-04 0.100000000000D+01
-.332697785052D-07 0.000000000000D+00 -.295697102910D-08 0.371483139591D-06 0.000000000000D+00  6 -1 22 9900012 -11 -2 21 2 0.66904272D-01 0.36304923D-02 0.89142411D+04 0.89142411D+04 0.89142411D+04 0.12145391D+01  1  2  3  1  6  1       -1 -.248576529252D-05 0.100000000000D+01
-.154534383676D-06 0.000000000000D+00 0.000000000000D+00 0.371483139591D-06 0.000000000000D+00  6 -1 22 9900012 -11 -2 21 2 0.66904272D-01 0.36304923D-02 0.89142411D+04 0.89142411D+04 0.89142411D+04 0.12145391D+01  1  2 15  1  6  1       -1 -.115461005363D-04 0.100000000000D+01
-.120037312191D-06 0.000000000000D+00 0.000000000000D+00 0.371483139591D-06 0.000000000000D+00  6 -1 22 9900012 -11 -2 21 2 0.66904272D-01 0.36304923D-02 0.89142411D+04 0.89142411D+04 0.89142411D+04 0.12145391D+01  1  2  4  1  6  1       -1 -.896863754003D-05 0.100000000000D+01
-.614593532433D-06 0.000000000000D+00 -.468648929754D-06 0.371483139591D-06 0.000000000000D+00  6 -1 22 9900012 -11 -2 21 2 0.11721563D+00 0.36304923D-02 0.89142411D+04 0.89142411D+04 0.89142411D+04 0.12145391D+01  1  2  5  1  6  1       -1 -.143527863577D-04 0.100000000000D+01
0.811541962663D-06 0.000000000000D+00 0.403525953644D-06 0.371483139591D-06 0.000000000000D+00  6 -1 22 9900012 -11 -2 21 2 0.66904272D-01 0.36304923D-02 0.89142411D+04 0.89142411D+04 0.89142411D+04 0.12145391D+01  1  2  6  1  6  1       -1 0.606346941532D-04 0.100000000000D+01
-.142092400427D-07 0.000000000000D+00 -.290182831131D-07 0.371483139591D-06 0.000000000000D+00  6 21 22 9900012 -11 1 -2 2 0.11721563D+00 0.36304923D-02 0.89142411D+04 0.89142411D+04 0.89142411D+04 0.12145391D+01  3  4  5  3  5  1       -1 -.242648199721D-05 0.100000000000D+01
  </mgrwgt>
  </event>
  <event>
  6     66 0.61978431E-06 0.62767785E+02 0.78161638E-02 0.11524830E+00
       -3 -1    0    0    0  501 0.00000000E+00 0.00000000E+00 0.23588670E+03 0.23588670E+03 0.00000000E+00 0.0000E+00 0.9000E+01
       22 -1    0    0    0    0 0.00000000E+00 0.00000000E+00 -.62042947E+02 0.62042947E+02 0.00000000E+00 0.0000E+00 0.9000E+01
       24  2    1    2    0    0 0.19842953E+02 -.59548737E+02 -.11177271E+02 0.10255162E+03 0.80325015E+02 0.0000E+00 0.0000E+00
  9900012  1    3    3    0    0 -.87657774E+01 -.24772158E+02 -.10857789E+02 0.57518608E+02 0.50000000E+02 0.0000E+00 0.9000E+01
      -11  1    3    3    0    0 0.28608730E+02 -.34776579E+02 -.31948208E+00 0.45033010E+02 0.00000000E+00 0.0000E+00 0.9000E+01
       -4  1    1    2    0  501 -.19842953E+02 0.59548737E+02 0.18502103E+03 0.19537803E+03 0.00000000E+00 0.0000E+00 0.9000E+01
#aMCatNLO 1  0  0  5  5 0.64565462D+02 0.00000000D+00  -5  6  0 0.00000000D+00 0.00000000D+00 0.00000000D+00 0.00000000D+00 0.00000000D+00
  <mgrwgt>
 0.2954536787D-04    3    2    0
 0.120975642572000D+03 0.000000000000000D+00 0.000000000000000D+00 0.120975642572000D+03
 0.120975642572000D+03 -.000000000000000D+00 -.000000000000000D+00 -.120975642572000D+03
 0.786276356536915D+02 -.876577744228164D+01 -.247721578634592D+02 -.546974078829143D+02
 0.556814926530080D+02 0.286087302072180D+02 -.347765789250179D+02 -.327499425689511D+02
 0.107642156837301D+03 -.198429527649364D+02 0.595487367884771D+02 0.874473504518655D+02
 0.000000000000000D+00 0.000000000000000D+00 0.000000000000000D+00 -.000000000000000D+00
 0.120975642572000D+03 0.000000000000000D+00 0.000000000000000D+00 0.120975642572000D+03
 0.120975642572000D+03 -.000000000000000D+00 -.000000000000000D+00 -.120975642572000D+03
 0.610223604001610D+02 -.141831543058039D+02 -.851460019291321D+01 -.308231761228420D+02
 0.383302779479841D+02 0.249617756397708D+02 -.238320617360136D+02 -.166779134753211D+02
 0.627934969964178D+02 0.299660980375523D+02 -.360355417936831D+02 0.417910990652155D+02
 0.798051497994380D+02 -.407447193715193D+02 0.683822037226100D+02 0.570999053294761D+01
0.149485240571D-05 0.000000000000D+00 0.000000000000D+00 0.209194786671D-05 0.000000000000D+00  6 -3 22 9900012 -11 -4 21 0 0.36290262D-01 0.95450687D-02 0.67473214D+04 0.67473214D+04 0.67473214D+04 0.12274597D+01  1  2  2  2  6  5       -4 0.364966295082D-04 0.100000000000D+01
0.177776277648D-07 0.000000000000D+00 -.287031342080D-08 0.209194786671D-05 0.000000000000D+00  6 -3 22 9900012 -11 -4 21 2 0.36290262D-01 0.95450687D-02 0.67473214D+04 0.67473214D+04 0.67473214D+04 0.12274597D+01  1  2  3  2  6  5       -4 0.653947322793D-06 0.100000000000D+01
-.206748417234D-06 0.000000000000D+00 0.000000000000D+00 0.209194786671D-05 0.000000000000D+00  6 -3 22 9900012 -11 -4 21 2 0.36290262D-01 0.95450687D-02 0.67473214D+04 0.67473214D+04 0.67473214D+04 0.12274597D+01  1  2 15  2  6  5       -4 -.760520895870D-05 0.100000000000D+01
  </mgrwgt>
  </event>
  <event>
  6     66 0.61978431E-06 0.12794914E+03 0.78161638E-02 0.10608971E+00
       -1 -1    0    0    0  501 0.00000000E+00 0.00000000E+00 0.35038294E+03 0.35038294E+03 0.00000000E+00 0.0000E+00 0.9000E+01
       22 -1    0    0    0    0 0.00000000E+00 0.00000000E+00 -.18896741E+03 0.18896741E+03 0.00000000E+00 0.0000E+00 0.9000E+01
       24  2    1    2    0    0 0.12786173E+03 -.47287014E+01 -.14395945E+03 0.20825390E+03 0.79210987E+02 0.0000E+00 0.0000E+00
  9900012  1    3    3    0    0 0.64459185E+02 0.16336984E+02 -.88014332E+02 0.12111320E+03 0.50000000E+02 0.0000E+00 0.9000E+01
      -11  1    3    3    0    0 0.63402546E+02 -.21065686E+02 -.55945114E+02 0.87140701E+02 0.00000000E+00 0.0000E+00 0.9000E+01
       -2  1    1    2    0  501 -.12786173E+03 0.47287014E+01 0.30537498E+03 0.33109646E+03 0.00000000E+00 0.0000E+00 0.9000E+01
#aMCatNLO 1  0  0  5  1 0.12111083D+03 0.00000000D+00  -5  6  0 0.00000000D+00 0.00000000D+00 0.00000000D+00 0.00000000D+00 0.00000000D+00
  <mgrwgt>
 0.5869368791D-04    3    2    0
 0.257314898400878D+03 0.000000000000000D+00 0.000000000000000D+00 0.257314898400878D+03
 0.257314898400878D+03 -.000000000000000D+00 -.000000000000000D+00 -.257314898400878D+03
 0.154536962574053D+03 0.644591852428796D+02 0.163369843655195D+02 -.130229755360590D+03
 0.108873949475728D+03 0.634025461118646D+02 -.210656857834453D+02 -.859644746592998D+02
 0.251218884751974D+03 -.127861731354744D+03 0.472870141792577D+01 0.216194230019890D+03
 0.000000000000000D+00 0.000000000000000D+00 0.000000000000000D+00 -.000000000000000D+00
 0.257314898400878D+03 0.000000000000000D+00 0.000000000000000D+00 0.257314898400878D+03
 0.257314898400878D+03 -.000000000000000D+00 -.000000000000000D+00 -.257314898400878D+03
 0.121831962351408D+03 0.463110738668825D+02 0.170081546921457D+02 -.995441317288928D+02
 0.845754519111598D+02 0.506994490363302D+02 -.205958880377346D+02 -.644855203074810D+02
 0.154267864992180D+03 -.229931024465288D+02 0.119492409067444D+03 0.948232860872658D+02
 0.153954517547007D+03 -.740174204566839D+02 -.115904675721855D+03 0.692063659491081D+02
0.181398574694D-04 0.000000000000D+00 0.000000000000D+00 0.702736488159D-05 0.000000000000D+00  6 -1 22 9900012 -11 -2 21 0 0.53905068D-01 0.29071909D-01 0.19315096D+05 0.19315096D+05 0.19315096D+05 0.11807693D+01  1  2  2  2  6  5       -2 0.717919060295D-04 0.100000000000D+01
0.745814210350D-07 0.000000000000D+00 -.348309145084D-07 0.702736488159D-05 0.000000000000D+00  6 -1 22 9900012 -11 -2 21 2 0.53905068D-01 0.29071909D-01 0.19315096D+05 0.19315096D+05 0.19315096D+05 0.11807693D+01  1  2  3  2  6  5       -2 0.411530823167D-06 0.100000000000D+01
-.244836162350D-05 0.000000000000D+00 0.000000000000D+00 0.702736488159D-05 0.000000000000D+00  6 -1 22 9900012 -11 -2 21 2 0.53905068D-01 0.29071909D-01 0.19315096D+05 0.19315096D+05 0.19315096D+05 0.11807693D+01  1  2 15  2  6  5       -2 -.135097489475D-04 0.100000000000D+01
  </mgrwgt>
  </event>
  <event>
  7     66 0.61978431E-06 0.30308415E+02 0.78161638E-02 0.12726769E+00
       -3 -1    0    0    0  501 0.00000000E+00 0.00000000E+00 0.23903821E+03 0.23903821E+03 0.00000000E+00 0.0000E+00 0.9000E+01
       22 -1    0    0    0    0 0.00000000E+00 0.00000000E+00 -.32908886E+02 0.32908886E+02 0.00000000E+00 0.0000E+00 0.9000E+01
       24  2    1    2    0    0 0.26955767E+02 0.14734061E+02 0.21019841E+03 0.22700383E+03 0.80022871E+02 0.0000E+00 0.0000E+00
  9900012  1    3    3    0    0 0.10222227E+02 -.95776630E+01 0.16538319E+03 0.17334308E+03 0.50000000E+02 0.0000E+00 0.9000E+01
      -11  1    3    3    0    0 0.16733540E+02 0.24311724E+02 0.44815221E+02 0.53660742E+02 0.00000000E+00 0.0000E+00 0.9000E+01
       -4  1    1    2    0  502 -.39180034E+00 0.53838774E+00 -.13007728E+02 0.13024759E+02 0.00000000E+00 0.0000E+00 0.9000E+01
       21  1    1    2  502  501 -.26563967E+02 -.15272449E+02 0.89386436E+01 0.31918511E+02 0.00000000E+00 0.0000E+00 0.9000E+01
#aMCatNLO 2  0  0  5  1 0.16257999D+02 0.00000000D+00  -5  6  0 0.00000000D+00 0.00000000D+00 0.00000000D+00 0.00000000D+00 0.00000000D+00
  <mgrwgt>
 0.7562363862D-02    2    2    0
 0.886931860411402D+02 0.000000000000000D+00 0.000000000000000D+00 0.886931860411402D+02
 0.886931860411402D+02 -.000000000000000D+00 -.000000000000000D+00 -.886931860411402D+02
 0.757436402478853D+02 0.115538870138102D+02 -.884977585033439D+01 0.550026199400721D+02
 0.309995791751745D+02 0.172792645091856D+02 0.246100179422232D+02 0.753312312012486D+01
 0.706431526592206D+02 -.288331515229958D+02 -.157602420918888D+02 -.625357430601969D+02
 0.000000000000000D+00 0.000000000000000D+00 -.000000000000000D+00 0.000000000000000D+00
 0.886931860411402D+02 0.000000000000000D+00 0.000000000000000D+00 0.886931860411402D+02
 0.886931860411402D+02 -.000000000000000D+00 -.000000000000000D+00 -.886931860411402D+02
 0.735672263300317D+02 0.102222272532042D+02 -.957766299074769D+01 0.521144052207605D+02
 0.301891959967377D+02 0.167335397969478D+02 0.243117240296229D+02 0.634950986304190D+01
 0.350834149885557D+02 -.391800344634934D+00 0.538387737114529D+00 -.350770956379470D+02
 0.385465347669553D+02 -.265639667055172D+02 -.152724487759897D+02 -.233868194458553D+02
-.309238169620D-06 0.000000000000D+00 0.000000000000D+00 0.280457723705D-06 0.000000000000D+00  6 -3 22 9900012 -11 -4 21 2 0.36775110D-01 0.50629055D-02 0.31779328D+04 0.31779328D+04 0.31779328D+04 0.12646316D+01  1  2 13  2  6  5       -4 -.263342970598D-04 0.100000000000D+01
0.891125031079D-04 0.000000000000D+00 0.000000000000D+00 0.280457723705D-06 0.736425835742D-06  6 -3 22 9900012 -11 -4 21 2 0.36775110D-01 0.50629055D-02 0.31779328D+04 0.31779328D+04 0.31779328D+04 0.12646316D+01  1  2  1  2  6  5       -4 0.758869815932D-02 0.100000000000D+01
  </mgrwgt>
  </event>
  <event>
  6     66 0.61978431E-06 0.68474835E+02 0.78161638E-02 0.10984249E+00
       -3 -1    0    0    0  501 0.00000000E+00 0.00000000E+00 0.40529769E+03 0.40529769E+03 0.00000000E+00 0.0000E+00 0.9000E+01
       22 -1    0    0    0    0 0.00000000E+00 0.00000000E+00 -.41129695E+02 0.41129695E+02 0.00000000E+00 0.0000E+00 0.9000E+01
       24  2    1    2    0    0 -.41496981E+02 0.10789472E+03 0.17473405E+03 0.22450738E+03 0.80674055E+02 0.0000E+00 0.0000E+00
  9900012  1    3    3    0    0 -.17628592E+02 0.37872362E+02 0.63957616E+02 0.91299834E+02 0.50000000E+02 0.0000E+00 0.9000E+01
      -11  1    3    3    0    0 -.23868389E+02 0.70022362E+02 0.11077643E+03 0.13320754E+03 0.00000000E+00 0.0000E+00 0.9000E+01
       -4  1    1    2    0  501 0.41496981E+02 -.10789472E+03 0.18943394E+03 0.22192001E+03 0.00000000E+00 0.0000E+00 0.9000E+01
#aMCatNLO 1  0  0  1  5 0.40769751D+02 0.00000000D+00  -5  6  0 0.00000000D+00 0.00000000D+00 0.00000000D+00 0.00000000D+00 0.00000000D+00
  <mgrwgt>
 0.3255418291D-05    7    4    0
 0.129111465245180D+03 0.000000000000000D+00 0.000000000000000D+00 0.129111465245180D+03
 0.129111465245180D+03 0.000000000000000D+00 0.000000000000000D+00 -.129111465245180D+03
 0.676447646369668D+02 -.176285920236527D+02 0.378723616507790D+02 -.181860152052848D+02
 0.740688022244076D+02 -.238683891872412D+02 0.700223615562929D+02 0.365463303829423D+01
 0.116509363628985D+03 0.414969812108939D+02 -.107894723207072D+03 0.145313821669906D+02
 0.000000000000000D+00 -.000000000000000D+00 0.000000000000000D+00 0.000000000000000D+00
 0.561632333462846D+03 0.000000000000000D+00 0.000000000000000D+00 0.561632333462846D+03
 0.131651156005556D+03 0.000000000000000D+00 0.000000000000000D+00 -.131651156005556D+03
 0.649301557930355D+02 -.736927552010064D+01 0.364813344132292D+02 -.181860152052848D+02
 0.697825688014999D+02 -.127364440196490D+02 0.685130174465103D+02 0.365463303829423D+01
 0.126679095013679D+03 0.603161316138041D+02 -.110446350383106D+03 0.145313821669906D+02
 0.431891669860188D+03 -.402104120740545D+02 0.545199852336602D+01 0.429981177457290D+03
 0.129111465245180D+03 0.000000000000000D+00 0.000000000000000D+00 0.129111465245180D+03
 0.129111465245180D+03 0.000000000000000D+00 0.000000000000000D+00 -.129111465245180D+03
 0.676447646369668D+02 -.176285920236527D+02 0.378723616507790D+02 -.181860152052848D+02
 0.740688022244076D+02 -.238683891872412D+02 0.700223615562929D+02 0.365463303829423D+01
 0.000000000000000D+00 -.000000000000000D+00 0.000000000000000D+00 0.000000000000000D+00
 0.116509363628985D+03 0.414969812108939D+02 -.107894723207072D+03 0.145313821669906D+02
 0.561632333462846D+03 0.000000000000000D+00 0.000000000000000D+00 0.561632333462846D+03
 0.131651156005556D+03 0.000000000000000D+00 0.000000000000000D+00 -.131651156005556D+03
 0.649301557930355D+02 -.736927552010064D+01 0.364813344132292D+02 -.181860152052848D+02
 0.697825688014999D+02 -.127364440196490D+02 0.685130174465103D+02 0.365463303829423D+01
 0.431891669860188D+03 -.402104120740545D+02 0.545199852336602D+01 0.429981177457290D+03
 0.126679095013679D+03 0.603161316138041D+02 -.110446350383106D+03 0.145313821669906D+02
0.333239890669D-06 0.000000000000D+00 0.000000000000D+00 0.376906383300D-06 0.000000000000D+00  6 -3 22 9900012 -11 -4 21 0 0.62353491D-01 0.63276454D-02 0.16222162D+05 0.16222162D+05 0.16222162D+05 0.11881350D+01  1  2  2  1  6  1       -3 0.521459164826D-05 0.100000000000D+01
-.126622987539D-07 0.000000000000D+00 -.639864462124D-09 0.376906383300D-06 0.000000000000D+00  6 -3 22 9900012 -11 -4 21 2 0.62353491D-01 0.63276454D-02 0.16222162D+05 0.16222162D+05 0.16222162D+05 0.11881350D+01  1  2  3  1  6  1       -3 -.279709674194D-06 0.100000000000D+01
-.358679575597D-07 0.000000000000D+00 0.000000000000D+00 0.376906383300D-06 0.000000000000D+00  6 -3 22 9900012 -11 -4 21 2 0.62353491D-01 0.63276454D-02 0.16222162D+05 0.16222162D+05 0.16222162D+05 0.11881350D+01  1  2 15  1  6  1       -3 -.792321751212D-06 0.100000000000D+01
0.550106081766D-05 0.000000000000D+00 0.000000000000D+00 0.376906383300D-06 0.000000000000D+00  6 -3 22 9900012 -11 -4 21 2 0.27657182D+00 0.63276454D-02 0.22266512D+05 0.22266512D+05 0.22266512D+05 0.11748708D+01  1  2 12  1  6  1       -3 0.146531955583D-05 0.100000000000D+01
-.573733177450D-05 0.000000000000D+00 -.112196975850D-06 0.376906383300D-06 0.000000000000D+00  6 -3 22 9900012 -11 -4 21 2 0.27207543D+00 0.63276454D-02 0.16222162D+05 0.16222162D+05 0.16222162D+05 0.11881350D+01  1  2  5  1  6  1       -3 -.167269768660D-05 0.100000000000D+01
0.989490080645D-06 0.000000000000D+00 0.000000000000D+00 0.376906383300D-06 0.000000000000D+00  6 21 22 9900012 -11 3 -4 2 0.27657182D+00 0.63276454D-02 0.22266512D+05 0.22266512D+05 0.22266512D+05 0.11748708D+01  3  4 12  3  5  1       -3 0.522781850137D-05 0.100000000000D+01
-.101933049788D-05 0.000000000000D+00 -.199265362980D-07 0.376906383300D-06 0.000000000000D+00  6 21 22 9900012 -11 3 -4 2 0.27207543D+00 0.63276454D-02 0.16222162D+05 0.16222162D+05 0.16222162D+05 0.11881350D+01  3  4  5  3  5  1       -3 -.590758230228D-05 0.100000000000D+01
  </mgrwgt>
  </event>
  <event>
  6     66 0.61978431E-06 0.63709861E+02 0.78161638E-02 0.11306366E+00
       -3 -1    0    0    0  501 0.00000000E+00 0.00000000E+00 0.21877866E+03 0.21877866E+03 0.00000000E+00 0.0000E+00 0.9000E+01
       22 -1    0    0    0    0 -.00000000E+00 -.00000000E+00 -.74315373E+03 0.74315373E+03 0.00000000E+00 0.0000E+00 0.9000E+01
       24  2    1    2    0    0 -.94325988E+02 0.38546617E+02 -.72532466E+03 0.73662378E+03 0.78329469E+02 0.0000E+00 0.0000E+00
  9900012  1    3    3    0    0 -.65982055E+02 0.80994926E+01 -.39306413E+03 0.40176940E+03 0.50000000E+02 0.0000E+00 0.9000E+01
      -11  1    3    3    0    0 -.28343934E+02 0.30447125E+02 -.33226052E+03 0.33485439E+03 0.00000000E+00 0.0000E+00 0.9000E+01
       -4  1    1    2    0  501 0.94325988E+02 -.38546617E+02 0.20094958E+03 0.22530861E+03 0.00000000E+00 0.0000E+00 0.9000E+01
#aMCatNLO 1  0  0  5  1 0.15052850D+02 0.00000000D+00  -5  6  0 0.00000000D+00 0.00000000D+00 0.00000000D+00 0.00000000D+00 0.00000000D+00
  <mgrwgt>
 0.1617481735D-03    7    2    0
 0.403219760215134D+03 0.000000000000000D+00 0.000000000000000D+00 0.403219760215134D+03
 0.403219760215134D+03 -.000000000000000D+00 -.000000000000000D+00 -.403219760215134D+03
 0.223652182538256D+03 -.659820545873516D+02 0.809949256079284D+01 -.207607960942770D+03
 0.183371648287342D+03 -.283439335516845D+02 0.304471247993631D+02 -.178591028380169D+03
 0.399415689604671D+03 0.943259881390361D+02 -.385466173601560D+02 0.386198989322939D+03
 0.000000000000000D+00 0.000000000000000D+00 0.000000000000000D+00 0.000000000000000D+00
 0.403219760215134D+03 0.000000000000000D+00 0.000000000000000D+00 0.403219760215134D+03
 0.403219760215134D+03 -.000000000000000D+00 -.000000000000000D+00 -.403219760215134D+03
 0.221867074913828D+03 -.655476577395098D+02 0.792197489671564D+01 -.205829409486152D+03
 0.181872436577672D+03 -.279878078028996D+02 0.303015928707681D+02 -.177132942364151D+03
 0.384666980450108D+03 0.103097609328330D+03 -.314475239237325D+02 0.369256851037936D+03
 0.180330284886608D+02 -.956214378592084D+01 -.677604384375118D+01 0.137055008123668D+02
0.500638362690D-04 0.000000000000D+00 0.000000000000D+00 0.389388029176D-04 0.000000000000D+00  6 -3 22 9900012 -11 -4 21 0 0.33658255D-01 0.11433134D+00 0.12845755D+05 0.12845755D+05 0.12845755D+05 0.11982177D+01  1  2  2  2  6  5       -4 0.268928088047D-04 0.100000000000D+01
0.704790122884D-06 0.000000000000D+00 -.961291566919D-07 0.389388029176D-04 0.000000000000D+00  6 -3 22 9900012 -11 -4 21 2 0.33658255D-01 0.11433134D+00 0.12845755D+05 0.12845755D+05 0.12845755D+05 0.11982177D+01  1  2  3  2  6  5       -4 0.543554786230D-06 0.100000000000D+01
-.695187262781D-05 0.000000000000D+00 0.000000000000D+00 0.389388029176D-04 0.000000000000D+00  6 -3 22 9900012 -11 -4 21 2 0.33658255D-01 0.11433134D+00 0.12845755D+05 0.12845755D+05 0.12845755D+05 0.11982177D+01  1  2 15  2  6  5       -4 -.536148779249D-05 0.100000000000D+01
0.170021351333D-03 0.000000000000D+00 0.000000000000D+00 0.389388029176D-04 0.000000000000D+00  6 -3 22 9900012 -11 -4 21 2 0.33658255D-01 0.11433134D+00 0.14832394D+05 0.14832394D+05 0.14832394D+05 0.11919731D+01  1  2 12  2  6  5       -4 0.130773588686D-03 0.100000000000D+01
-.815268621785D-05 0.000000000000D+00 0.000000000000D+00 0.389388029176D-04 0.000000000000D+00  6 -3 22 9900012 -11 -4 21 2 0.33658255D-01 0.11433134D+00 0.12845755D+05 0.12845755D+05 0.12845755D+05 0.11982177D+01  1  2  4  2  6  5       -4 -.628759040523D-05 0.100000000000D+01
-.426548930771D-03 0.000000000000D+00 0.000000000000D+00 0.389388029176D-04 0.000000000000D+00  6 -3 22 9900012 -11 -4 21 2 0.33658255D-01 0.11433134D+00 0.12845755D+05 0.12845755D+05 0.12845755D+05 0.11982177D+01  1  2  5  2  6  5       -4 -.328967029126D-03 0.100000000000D+01
0.446241257843D-03 0.000000000000D+00 -.000000000000D+00 0.389388029176D-04 0.000000000000D+00  6 -3 22 9900012 -11 -4 21 2 0.33658255D-01 0.11433134D+00 0.12845755D+05 0.12845755D+05 0.12845755D+05 0.11982177D+01  1  2  6  2  6  5       -4 0.344154328556D-03 0.100000000000D+01
  </mgrwgt>
  </event>
  <event>
  7     66 0.61978431E-06 0.29079328E+03 0.78161638E-02 0.10002196E+00
       -1 -1    0    0    0  501 0.00000000E+00 0.00000000E+00 0.54208008E+03 0.54208008E+03 0.00000000E+00 0.0000E+00 0.9000E+01
       22 -1    0    0    0    0 0.00000000E+00 0.00000000E+00 -.25549916E+03 0.25549916E+03 0.00000000E+00 0.0000E+00 0.9000E+01
       24  2    1    2    0    0 -.91280488E+02 0.28121599E+03 -.88540565E+02 0.31928538E+03 0.81787305E+02 0.0000E+00 0.0000E+00
  9900012  1    3    3    0    0 -.57311587E+02 0.24594204E+03 -.79982288E+02 0.26957239E+03 0.50000000E+02 0.0000E+00 0.9000E+01
      -11  1    3    3    0    0 -.33968901E+02 0.35273945E+02 -.85582768E+01 0.49712992E+02 0.00000000E+00 0.0000E+00 0.9000E+01
       -2  1    1    2    0  502 0.78217452E+02 -.24490791E+03 0.31159861E+03 0.40396974E+03 0.00000000E+00 0.0000E+00 0.9000E+01
       21  1    1    2  502  501 0.13063036E+02 -.36308077E+02 0.63522870E+02 0.74324118E+02 0.00000000E+00 0.0000E+00 0.9000E+01
#aMCatNLO 2  0  0  5  1 0.89912285D+01 0.00000000D+00  -5  6  0 0.00000000D+00 0.00000000D+00 0.00000000D+00 0.00000000D+00 0.00000000D+00
  <mgrwgt>
 0.1275314895D-04    2    2    0
 0.372157230446431D+03 0.000000000000000D+00 0.000000000000000D+00 0.372157230446431D+03
 0.372157230446431D+03 -.000000000000000D+00 -.000000000000000D+00 -.372157230446431D+03
 0.320024380749074D+03 -.574037826384929D+02 0.246226078563499D+03 -.189718550088975D+03
 0.566263558225485D+02 -.339852150360018D+02 0.353242057645214D+02 -.283504818266698D+02
 0.367663724321239D+03 0.913889976744948D+02 -.281550284328020D+03 0.218069031915645D+03
 0.000000000000000D+00 0.000000000000000D+00 0.000000000000000D+00 0.000000000000000D+00
 0.372157230446431D+03 0.000000000000000D+00 0.000000000000000D+00 0.372157230446431D+03
 0.372157230446431D+03 -.000000000000000D+00 -.000000000000000D+00 -.372157230446431D+03
 0.319658894299326D+03 -.573115867080292D+02 0.245942042288931D+03 -.189498555584009D+03
 0.565657275916625D+02 -.339689009476732D+02 0.352739454889481D+02 -.283115537550316D+02
 0.312904923884651D+03 0.782174517932321D+02 -.244907910512815D+03 0.178358170529078D+03
 0.551849151172225D+02 0.130630358624703D+02 -.363080772650642D+02 0.394519388099621D+02
-.224576522178D-04 0.000000000000D+00 0.000000000000D+00 0.401700490562D-06 0.000000000000D+00  6 -1 22 9900012 -11 -2 21 2 0.83396935D-01 0.39307563D-01 0.90626895D+05 0.90626895D+05 0.90626895D+05 0.11211213D+01  1  2 13  2  6  5       -2 -.315677579455D-04 0.100000000000D+01
0.315303834631D-04 0.000000000000D+00 0.000000000000D+00 0.401700490562D-06 0.346331652582D-07  6 -1 22 9900012 -11 -2 21 2 0.83396935D-01 0.39307563D-01 0.90626895D+05 0.90626895D+05 0.90626895D+05 0.11211213D+01  1  2  1  2  6  5       -2 0.443209068980D-04 0.100000000000D+01
  </mgrwgt>
  </event>
  <event>
  6     66 0.61978431E-06 0.10968356E+03 0.78161638E-02 0.10882910E+00
       -3 -1    0    0    0  501 0.00000000E+00 0.00000000E+00 0.91576697E+02 0.91576697E+02 0.00000000E+00 0.0000E+00 0.9000E+01
       22 -1    0    0    0    0 0.00000000E+00 0.00000000E+00 -.16459023E+03 0.16459023E+03 0.00000000E+00 0.0000E+00 0.9000E+01
       24  2    1    2    0    0 -.35905358E+02 0.10364019E+03 -.42034765E+02 0.14219251E+03 0.80133056E+02 0.0000E+00 0.0000E+00
  9900012  1    3    3    0    0 -.26146657E+01 0.46647889E+02 -.11199108E+02 0.69341777E+02 0.50000000E+02 0.0000E+00 0.9000E+01
      -11  1    3    3    0    0 -.33290693E+02 0.56992297E+02 -.30835657E+02 0.72850737E+02 0.00000000E+00 0.0000E+00 0.9000E+01
       -4  1    1    2    0  501 0.35905358E+02 -.10364019E+03 -.30978768E+02 0.11397441E+03 0.00000000E+00 0.0000E+00 0.9000E+01
#aMCatNLO 1  0  0  1  1 0.18222334D+03 0.00000000D+00  -5  6  0 0.00000000D+00 0.00000000D+00 0.00000000D+00 0.00000000D+00 0.00000000D+00
  <mgrwgt>
 0.2467454850D-04    3    2    0
 0.122770638740130D+03 0.000000000000000D+00 0.000000000000000D+00 0.122770638740130D+03
 0.122770638740130D+03 0.000000000000000D+00 0.000000000000000D+00 -.122770638740130D+03
 0.690123618043597D+02 -.261466566164541D+01 0.466478886008612D+02 0.893555227030234D+01
 0.668340960629084D+02 -.332906927019542D+02 0.569922974887414D+02 -.105073404306188D+02
 0.109694819612992D+03 0.359053583635997D+02 -.103640186089603D+03 0.157178816031641D+01
 0.000000000000000D+00 -.000000000000000D+00 0.000000000000000D+00 -.000000000000000D+00
 0.136913144331178D+03 0.000000000000000D+00 0.000000000000000D+00 0.136913144331178D+03
 0.239403720119888D+03 0.000000000000000D+00 0.000000000000000D+00 -.239403720119888D+03
 0.682202128369087D+02 0.151769724787395D+02 0.429396419584212D+02 0.893555227030234D+01
 0.572991211045209D+02 -.171973323112604D+02 0.536380167213677D+02 -.105073404306188D+02
 0.128788406917614D+03 0.668237265431327D+02 -.110084389489357D+03 0.157178816031641D+01
 0.122009123592023D+03 -.648033667106118D+02 0.135067308095686D+02 -.102490575788710D+03
0.941130223121D-06 0.000000000000D+00 0.000000000000D+00 0.396873599852D-06 0.000000000000D+00  6 -3 22 9900012 -11 -4 21 0 0.14088723D-01 0.25321574D-01 0.14898396D+05 0.14898396D+05 0.14898396D+05 0.11917819D+01  1  2  2  1  6  1       -3 0.316876059639D-04 0.100000000000D+01
-.403264622397D-07 0.000000000000D+00 -.180709393103D-08 0.396873599852D-06 0.000000000000D+00  6 -3 22 9900012 -11 -4 21 2 0.14088723D-01 0.25321574D-01 0.14898396D+05 0.14898396D+05 0.14898396D+05 0.11917819D+01  1  2  3  1  6  1       -3 -.192851660925D-05 0.100000000000D+01
-.106320860203D-06 0.000000000000D+00 0.000000000000D+00 0.396873599852D-06 0.000000000000D+00  6 -3 22 9900012 -11 -4 21 2 0.14088723D-01 0.25321574D-01 0.14898396D+05 0.14898396D+05 0.14898396D+05 0.11917819D+01  1  2 15  1  6  1       -3 -.508454085540D-05 0.100000000000D+01
  </mgrwgt>
  </event>
  <event>
  7     66 -.61978431E-06 0.44423206E+02 0.78161638E-02 0.12040967E+00
       -1 -1    0    0    0  501 0.00000000E+00 0.00000000E+00 0.26770113E+02 0.26770113E+02 0.00000000E+00 0.0000E+00 0.9000E+01
       22 -1    0    0    0    0 -.00000000E+00 -.00000000E+00 -.35878578E+03 0.35878578E+03 0.00000000E+00 0.0000E+00 0.9000E+01
       24  2    1    2    0    0 0.28092134E+02 -.42711482E+02 -.26071351E+03 0.27765791E+03 0.80678036E+02 0.0000E+00 0.0000E+00
  9900012  1    3    3    0    0 0.20489358E+02 -.22472236E+02 -.24227548E+03 0.24924330E+03 0.50000000E+02 0.0000E+00 0.9000E+01
      -11  1    3    3    0    0 0.76027755E+01 -.20239246E+02 -.18438024E+02 0.28414609E+02 0.00000000E+00 0.0000E+00 0.9000E+01
       -2  1    1    2    0  502 -.84195591E+01 0.55528170E+02 -.40862201E+02 0.69454921E+02 0.00000000E+00 0.0000E+00 0.9000E+01
       21  1    1    2  502  501 -.19672574E+02 -.12816687E+02 -.30439965E+02 0.38443063E+02 0.00000000E+00 0.0000E+00 0.9000E+01
#aMCatNLO 2  0  0  5  1 0.27651930D+02 0.00000000D+00  -5  6  0 0.00000000D+00 0.00000000D+00 0.00000000D+00 0.00000000D+00 0.00000000D+00
  <mgrwgt>
 -.3903435112D-04    2    2    0
 0.980037542564063D+02 0.000000000000000D+00 0.000000000000000D+00 0.980037542564063D+02
 0.980037542564063D+02 -.000000000000000D+00 -.000000000000000D+00 -.980037542564063D+02
 0.885377448351208D+02 0.253309945032864D+02 -.298334951065832D+02 -.617028001608428D+02
 0.260698261654703D+02 0.906112994461931D+01 -.224565386277639D+02 0.965586004891892D+01
 0.813999375122216D+02 -.343921244479057D+02 0.522900337343471D+02 0.520469401119239D+02
 0.000000000000000D+00 0.000000000000000D+00 -.000000000000000D+00 0.000000000000000D+00
 0.980037542564063D+02 0.000000000000000D+00 0.000000000000000D+00 0.980037542564063D+02
 0.980037542564063D+02 -.000000000000000D+00 -.000000000000000D+00 -.980037542564063D+02
 0.798845343704910D+02 0.204893580578592D+02 -.224722361810314D+02 -.543757633416851D+02
 0.246608263683112D+02 0.760277551926441D+01 -.202392460550428D+02 0.118628445448426D+02
 0.674048836218456D+02 -.841955914032472D+01 0.555281696811375D+02 0.372713258661392D+02
 0.240572641521648D+02 -.196725744367989D+02 -.128166874450633D+02 0.524159293070331D+01
-.479687630013D-06 0.000000000000D+00 0.000000000000D+00 0.658098417492D-06 0.000000000000D+00  6 -1 22 9900012 -11 -2 21 2 0.41184789D-02 0.55197813D-01 0.63827472D+04 0.63827472D+04 0.63827472D+04 0.12300864D+01  1  2 13  2  6  5       -2 -.500220118702D-04 0.100000000000D+01
0.105366512617D-06 0.000000000000D+00 0.000000000000D+00 0.658098417492D-06 0.142874613112D-08  6 -1 22 9900012 -11 -2 21 2 0.41184789D-02 0.55197813D-01 0.63827472D+04 0.63827472D+04 0.63827472D+04 0.12300864D+01  1  2  1  2  6  5       -2 0.109876607507D-04 0.100000000000D+01
  </mgrwgt>
  </event>
  <event>
  6     66 0.61978431E-06 0.10885030E+03 0.78161638E-02 0.11367495E+00
       -1 -1    0    0    0  501 0.00000000E+00 0.00000000E+00 0.59907145E+03 0.59907145E+03 0.00000000E+00 0.0000E+00 0.9000E+01
       22 -1    0    0    0    0 0.00000000E+00 0.00000000E+00 -.10048961E+03 0.10048961E+03 0.00000000E+00 0.0000E+00 0.9000E+01
       24  2    1    2    0    0 0.59784592E+02 0.90962577E+02 -.47394835E+02 0.14283948E+03 0.79425798E+02 0.0000E+00 0.0000E+00
  9900012  1    3    3    0    0 0.18162253E+02 0.70451636E+02 -.33182561E+02 0.94310036E+02 0.50000000E+02 0.0000E+00 0.9000E+01
      -11  1    3    3    0    0 0.41622338E+02 0.20510941E+02 -.14212274E+02 0.48529440E+02 0.00000000E+00 0.0000E+00 0.9000E+01
       -2  1    1    2    0  501 -.59784592E+02 -.90962577E+02 0.54597668E+03 0.55672158E+03 0.00000000E+00 0.0000E+00 0.9000E+01
#aMCatNLO 1  0  0  5  1 0.64381451D+02 0.00000000D+00  -5  6  0 0.00000000D+00 0.00000000D+00 0.00000000D+00 0.00000000D+00 0.00000000D+00
  <mgrwgt>
 0.4460060746D-04    6    2    0
 0.245357810541076D+03 0.000000000000000D+00 0.000000000000000D+00 0.245357810541076D+03
 0.245357810541076D+03 -.000000000000000D+00 -.000000000000000D+00 -.245357810541076D+03
 0.168162266002238D+03 0.181622534751100D+02 0.704516361376943D+02 -.143126682422374D+03
 0.836233584497378D+02 0.416223384921768D+02 0.205109412624494D+02 -.695682995723220D+02
 0.238929996630176D+03 -.597845919672868D+02 -.909625774001438D+02 0.212694981994696D+03
 0.000000000000000D+00 0.000000000000000D+00 -.000000000000000D+00 0.000000000000000D+00
 0.245357810541076D+03 0.000000000000000D+00 0.000000000000000D+00 0.245357810541076D+03
 0.245357810541076D+03 -.000000000000000D+00 -.000000000000000D+00 -.245357810541076D+03
 0.152618287166639D+03 0.140171104001776D+02 0.641447787120464D+02 -.128379552724297D+03
 0.757697633541604D+02 0.395626522409050D+02 0.173771175816951D+02 -.622405765635460D+02
 0.200318000904495D+03 -.422804142203833D+02 -.206877717296382D+02 0.194709229777606D+03
 0.620095696568569D+02 -.112993484206993D+02 -.608341245641034D+02 -.408910048976321D+01
0.125484516092D-04 0.000000000000D+00 0.000000000000D+00 0.104822182332D-04 0.000000000000D+00  6 -1 22 9900012 -11 -2 21 0 0.92164839D-01 0.15459940D-01 0.14826919D+05 0.14826919D+05 0.14826919D+05 0.11919890D+01  1  2  2  2  6  5       -2 0.452407264839D-04 0.100000000000D+01
0.106996660629D-06 0.000000000000D+00 -.240946791313D-07 0.104822182332D-04 0.000000000000D+00  6 -1 22 9900012 -11 -2 21 2 0.92164839D-01 0.15459940D-01 0.14826919D+05 0.14826919D+05 0.14826919D+05 0.11919890D+01  1  2  3  2  6  5       -2 0.548092860904D-06 0.100000000000D+01
-.162341810471D-05 0.000000000000D+00 0.000000000000D+00 0.104822182332D-04 0.000000000000D+00  6 -1 22 9900012 -11 -2 21 2 0.92164839D-01 0.15459940D-01 0.14826919D+05 0.14826919D+05 0.14826919D+05 0.11919890D+01  1  2 15  2  6  5       -2 -.831599666961D-05 0.100000000000D+01
-.423877584023D-06 0.000000000000D+00 0.000000000000D+00 0.104822182332D-04 0.000000000000D+00  6 -1 22 9900012 -11 -2 21 2 0.92164839D-01 0.15459940D-01 0.14826919D+05 0.14826919D+05 0.14826919D+05 0.11919890D+01  1  2  4  2  6  5       -2 -.217132269674D-05 0.100000000000D+01
-.622238183318D-05 0.000000000000D+00 0.000000000000D+00 0.104822182332D-04 0.000000000000D+00  6 -1 22 9900012 -11 -2 21 2 0.92164839D-01 0.15459940D-01 0.14826919D+05 0.14826919D+05 0.14826919D+05 0.11919890D+01  1  2  5  2  6  5       -2 -.318742943987D-04 0.100000000000D+01
0.803771919277D-05 0.000000000000D+00 -.000000000000D+00 0.104822182332D-04 0.000000000000D+00  6 -1 22 9900012 -11 -2 21 2 0.92164839D-01 0.15459940D-01 0.14826919D+05 0.14826919D+05 0.14826919D+05 0.11919890D+01  1  2  6  2  6  5       -2 0.411734018761D-04 0.100000000000D+01
  </mgrwgt>
  </event>
  <event>
  6     66 0.61978431E-06 0.36597363E+02 0.78161638E-02 0.12128162E+00
       -1 -1    0    0    0  501 0.00000000E+00 0.00000000E+00 0.58287277E+01 0.58287277E+01 0.00000000E+00 0.0000E+00 0.9000E+01
       22 -1    0    0    0    0 0.00000000E+00 0.00000000E+00 -.10212878E+04 0.10212878E+04 0.00000000E+00 0.0000E+00 0.9000E+01
       24  2    1    2    0    0 0.48108019E+02 -.30782936E+01 -.82181201E+03 0.82755941E+03 0.84591649E+02 0.0000E+00 0.0000E+00
  9900012  1    3    3    0    0 0.14937542E+01 0.24323310E+01 -.38943874E+03 0.39264574E+03 0.50000000E+02 0.0000E+00 0.9000E+01
      -11  1    3    3    0    0 0.46614264E+02 -.55106246E+01 -.43237327E+03 0.43491367E+03 0.00000000E+00 0.0000E+00 0.9000E+01
       -2  1    1    2    0  501 -.48108019E+02 0.30782936E+01 -.19364712E+03 0.19955717E+03 0.00000000E+00 0.0000E+00 0.9000E+01
#aMCatNLO 1  0  0  1  5 0.75159809D+01 0.00000000D+00  -5  6  0 0.00000000D+00 0.00000000D+00 0.00000000D+00 0.00000000D+00 0.00000000D+00
  <mgrwgt>
 0.6708166829D-04   11    4    0
 0.771544473496410D+02 0.000000000000000D+00 0.000000000000000D+00 0.771544473496410D+02
 0.771544473496410D+02 0.000000000000000D+00 0.000000000000000D+00 -.771544473496410D+02
 0.507672029804411D+02 0.149375423680037D+01 0.243233096732695D+01 -.831633109025404D+01
 0.495736820659989D+02 0.466142644387853D+02 -.551062461111840D+01 -.159465770874841D+02
 0.539680096528421D+02 -.481080186755857D+02 0.307829364379145D+01 0.242629081777382D+02
 0.000000000000000D+00 0.000000000000000D+00 0.000000000000000D+00 0.000000000000000D+00
 0.865939111408194D+02 0.000000000000000D+00 0.000000000000000D+00 0.865939111408194D+02
 0.785411486409856D+02 0.000000000000000D+00 0.000000000000000D+00 -.785411486409856D+02
 0.507233579714095D+02 -.713155219958996D+00 0.178580254375043D+01 -.831633109025404D+01
 0.476665648383710D+02 0.444997779440985D+02 -.613007712916193D+01 -.159465770874841D+02
 0.560775053547285D+02 -.505009553730129D+02 0.237726733482007D+01 0.242629081777382D+02
 0.106676316172961D+02 0.671433264887337D+01 0.196700725059143D+01 0.805276249983377D+01
 0.771544473496410D+02 0.000000000000000D+00 0.000000000000000D+00 0.771544473496410D+02
 0.771544473496410D+02 0.000000000000000D+00 0.000000000000000D+00 -.771544473496410D+02
 0.507672029804411D+02 0.149375423680037D+01 0.243233096732695D+01 -.831633109025404D+01
 0.495736820659989D+02 0.466142644387853D+02 -.551062461111840D+01 -.159465770874841D+02
 0.000000000000000D+00 0.000000000000000D+00 0.000000000000000D+00 0.000000000000000D+00
 0.539680096528421D+02 -.481080186755857D+02 0.307829364379145D+01 0.242629081777382D+02
 0.865939111408194D+02 0.000000000000000D+00 0.000000000000000D+00 0.865939111408194D+02
 0.785411486409856D+02 0.000000000000000D+00 0.000000000000000D+00 -.785411486409856D+02
 0.507233579714095D+02 -.713155219958996D+00 0.178580254375043D+01 -.831633109025404D+01
 0.476665648383710D+02 0.444997779440985D+02 -.613007712916193D+01 -.159465770874841D+02
 0.106676316172961D+02 0.671433264887337D+01 0.196700725059143D+01 0.805276249983377D+01
 0.560775053547285D+02 -.505009553730129D+02 0.237726733482007D+01 0.242629081777382D+02
0.230370412543D-06 0.000000000000D+00 0.000000000000D+00 0.216490677089D-07 0.000000000000D+00  6 -1 22 9900012 -11 -2 21 0 0.89672733D-03 0.15712121D+00 0.52726967D+04 0.52726967D+04 0.52726967D+04 0.12392572D+01  1  2  2  1  6  1       -1 0.177809364862D-04 0.100000000000D+01
-.173412293465D-08 0.000000000000D+00 -.442341521044D-09 0.216490677089D-07 0.000000000000D+00  6 -1 22 9900012 -11 -2 21 2 0.89672733D-03 0.15712121D+00 0.52726967D+04 0.52726967D+04 0.52726967D+04 0.12392572D+01  1  2  3  1  6  1       -1 -.205556273330D-06 0.100000000000D+01
-.233476729853D-07 0.000000000000D+00 0.000000000000D+00 0.216490677089D-07 0.000000000000D+00  6 -1 22 9900012 -11 -2 21 2 0.89672733D-03 0.15712121D+00 0.52726967D+04 0.52726967D+04 0.52726967D+04 0.12392572D+01  1  2 15  1  6  1       -1 -.276754349642D-05 0.100000000000D+01
0.825202847909D-06 0.000000000000D+00 0.000000000000D+00 0.216490677089D-07 0.000000000000D+00  6 -1 22 9900012 -11 -2 21 2 0.10245262D-02 0.15712121D+00 0.58148545D+04 0.58148545D+04 0.58148545D+04 0.12345322D+01  1  2 12  1  6  1       -1 0.817517104936D-04 0.100000000000D+01
-.314741652264D-06 0.000000000000D+00 0.000000000000D+00 0.216490677089D-07 0.000000000000D+00  6 -1 22 9900012 -11 -2 21 2 0.89672733D-03 0.15712121D+00 0.52726967D+04 0.52726967D+04 0.52726967D+04 0.12392572D+01  1  2  4  1  6  1       -1 -.373082667949D-04 0.100000000000D+01
-.155413193179D-05 0.000000000000D+00 -.223720223893D-06 0.216490677089D-07 0.000000000000D+00  6 -1 22 9900012 -11 -2 21 2 0.10249660D-02 0.15712121D+00 0.52726967D+04 0.52726967D+04 0.52726967D+04 0.12392572D+01  1  2  5  1  6  1       -1 -.153238368596D-03 0.100000000000D+01
0.157195570458D-05 0.000000000000D+00 0.221736526264D-06 0.216490677089D-07 0.000000000000D+00  6 -1 22 9900012 -11 -2 21 2 0.89672733D-03 0.15712121D+00 0.52726967D+04 0.52726967D+04 0.52726967D+04 0.12392572D+01  1  2  6  1  6  1       -1 0.186333592628D-03 0.100000000000D+01
0.472027764899D-08 0.000000000000D+00 0.000000000000D+00 0.216490677089D-07 0.133881625111D-08  6 -1 22 9900012 -11 -2 21 2 0.10064375D-02 0.15994516D+00 0.58148545D+04 0.58148545D+04 0.58148545D+04 0.12345322D+01  1  2 11  1  6  1       -1 0.460502272588D-06 0.100000000000D+01
0.170841223454D-07 0.000000000000D+00 0.000000000000D+00 0.216490677089D-07 0.000000000000D+00  6 21 22 9900012 -11 1 -2 2 0.10245262D-02 0.15712121D+00 0.58148545D+04 0.58148545D+04 0.58148545D+04 0.12345322D+01  3  4 12  3  5  1       -1 0.324151166901D-04 0.100000000000D+01
-.310002547502D-07 0.000000000000D+00 -.464398971281D-08 0.216490677089D-07 0.000000000000D+00  6 21 22 9900012 -11 1 -2 2 0.10249660D-02 0.15712121D+00 0.52726967D+04 0.52726967D+04 0.52726967D+04 0.12392572D+01  3  4  5  3  5  1       -1 -.584931404001D-04 0.100000000000D+01
0.188455360416D-09 0.000000000000D+00 0.000000000000D+00 0.216490677089D-07 0.467531681068D-10  6 21 22 9900012 -11 1 -2 2 0.10064375D-02 0.15994516D+00 0.58148545D+04 0.58148545D+04 0.58148545D+04 0.12345322D+01  3  4 11  3  5  1       -1 0.352685277127D-06 0.100000000000D+01
  </mgrwgt>
  </event>
  <event>
  6     66 0.61978431E-06 0.16331069E+02 0.78161638E-02 0.12583333E+00
       -3 -1    0    0    0  501 0.00000000E+00 0.00000000E+00 0.32545709E+03 0.32545709E+03 0.00000000E+00 0.0000E+00 0.9000E+01
       22 -1    0    0    0    0 0.00000000E+00 0.00000000E+00 -.12995082E+02 0.12995082E+02 0.00000000E+00 0.0000E+00 0.9000E+01
       24  2    1    2    0    0 0.21170477E+02 -.16753330E+02 0.12751887E+03 0.15154891E+03 0.77312018E+02 0.0000E+00 0.0000E+00
  9900012  1    3    3    0    0 -.73938793E+01 -.58110692E+01 0.86943867E+02 0.10073566E+03 0.50000000E+02 0.0000E+00 0.9000E+01
      -11  1    3    3    0    0 0.28564357E+02 -.10942261E+02 0.40574999E+02 0.50813248E+02 0.00000000E+00 0.0000E+00 0.9000E+01
       -4  1    1    2    0  501 -.21170477E+02 0.16753330E+02 0.18494314E+03 0.18690326E+03 0.00000000E+00 0.0000E+00 0.9000E+01
#aMCatNLO 1  0  0  1  5 0.23778329D+02 0.00000000D+00  -5  6  0 0.00000000D+00 0.00000000D+00 0.00000000D+00 0.00000000D+00 0.00000000D+00
  <mgrwgt>
 0.3454308854D-04    6    4    0
 0.650333881254175D+02 0.000000000000000D+00 0.000000000000000D+00 0.650333881254175D+02
 0.650333881254175D+02 0.000000000000000D+00 0.000000000000000D+00 -.650333881254175D+02
 0.532614799468127D+02 -.739387933121274D+01 -.581106920468424D+01 -.157590377009056D+02
 0.347491366571052D+02 0.285643565447622D+02 -.109422609906548D+02 -.164877820828111D+02
 0.420561596469171D+02 -.211704772135494D+02 0.167533301953390D+02 0.322468197837167D+02
 0.000000000000000D+00 -.000000000000000D+00 -.000000000000000D+00 -.000000000000000D+00
 0.681596400468397D+02 0.000000000000000D+00 0.000000000000000D+00 0.681596400468397D+02
 0.763507350765168D+02 0.000000000000000D+00 0.000000000000000D+00 -.763507350765168D+02
 0.528861864300871D+02 -.686010679618903D+01 -.124112070494543D+01 -.157590377009056D+02
 0.342238126114743D+02 0.289111928647283D+02 -.797278613745068D+01 -.164877820828111D+02
 0.434464427799438D+02 -.207405201320017D+02 0.204344520044326D+02 0.322468197837167D+02
 0.139539333018513D+02 -.131056593653750D+01 -.112205451620365D+02 -.819109502967713D+01
 0.650333881254175D+02 0.000000000000000D+00 0.000000000000000D+00 0.650333881254175D+02
 0.650333881254175D+02 0.000000000000000D+00 0.000000000000000D+00 -.650333881254175D+02
 0.532614799468127D+02 -.739387933121274D+01 -.581106920468424D+01 -.157590377009056D+02
 0.347491366571052D+02 0.285643565447622D+02 -.109422609906548D+02 -.164877820828111D+02
 0.000000000000000D+00 -.000000000000000D+00 -.000000000000000D+00 -.000000000000000D+00
 0.420561596469171D+02 -.211704772135494D+02 0.167533301953390D+02 0.322468197837167D+02
 0.681596400468397D+02 0.000000000000000D+00 0.000000000000000D+00 0.681596400468397D+02
 0.763507350765168D+02 0.000000000000000D+00 0.000000000000000D+00 -.763507350765168D+02
 0.528861864300871D+02 -.686010679618903D+01 -.124112070494543D+01 -.157590377009056D+02
 0.342238126114743D+02 0.289111928647283D+02 -.797278613745068D+01 -.164877820828111D+02
 0.139539333018513D+02 -.131056593653750D+01 -.112205451620365D+02 -.819109502967713D+01
 0.434464427799438D+02 -.207405201320017D+02 0.204344520044326D+02 0.322468197837167D+02
0.246563652222D-06 0.000000000000D+00 0.000000000000D+00 0.501194188245D-07 0.000000000000D+00  6 -3 22 9900012 -11 -4 21 0 0.50070322D-01 0.19992434D-02 0.29410365D+04 0.29410365D+04 0.29410365D+04 0.12686596D+01  1  2  2  1  6  1       -3 0.248712335018D-04 0.100000000000D+01
0.841371486975D-08 0.000000000000D+00 -.473434673116D-09 0.501194188245D-07 0.000000000000D+00  6 -3 22 9900012 -11 -4 21 2 0.50070322D-01 0.19992434D-02 0.29410365D+04 0.29410365D+04 0.29410365D+04 0.12686596D+01  1  2  3  1  6  1       -3 0.136598612861D-05 0.100000000000D+01
-.283175069770D-07 0.000000000000D+00 0.000000000000D+00 0.501194188245D-07 0.000000000000D+00  6 -3 22 9900012 -11 -4 21 2 0.50070322D-01 0.19992434D-02 0.29410365D+04 0.29410365D+04 0.29410365D+04 0.12686596D+01  1  2 15  1  6  1       -3 -.459741295328D-05 0.100000000000D+01
0.868259147967D-07 0.000000000000D+00 0.000000000000D+00 0.501194188245D-07 0.000000000000D+00  6 -3 22 9900012 -11 -4 21 2 0.61609563D-01 0.19992434D-02 0.36534032D+04 0.36534032D+04 0.36534032D+04 0.12574849D+01  1  2 12  1  6  1       -3 0.926473732841D-05 0.100000000000D+01
-.525740598720D-08 0.000000000000D+00 0.000000000000D+00 0.501194188245D-07 0.000000000000D+00  6 -3 22 9900012 -11 -4 21 2 0.50070322D-01 0.19992434D-02 0.29410365D+04 0.29410365D+04 0.29410365D+04 0.12686596D+01  1  2  4  1  6  1       -3 -.853552059010D-06 0.100000000000D+01
0.255454363033D-08 0.000000000000D+00 0.000000000000D+00 0.501194188245D-07 0.000000000000D+00  6 21 22 9900012 -11 3 -4 2 0.61609563D-01 0.19992434D-02 0.36534032D+04 0.36534032D+04 0.36534032D+04 0.12574849D+01  3  4 12  3  5  1       -3 0.449209659539D-05 0.100000000000D+01
  </mgrwgt>
  </event>
  <event>
  6     66 0.61978431E-06 0.40548932E+02 0.78161638E-02 0.11943395E+00
       -1 -1    0    0    0  501 0.00000000E+00 0.00000000E+00 0.12353198E+03 0.12353198E+03 0.00000000E+00 0.0000E+00 0.9000E+01
       22 -1    0    0    0    0 -.00000000E+00 -.00000000E+00 -.29914493E+03 0.29914493E+03 0.00000000E+00 0.0000E+00 0.9000E+01
       24  2    1    2    0    0 -.17142768E+01 0.40512679E+02 -.28886722E+03 0.30238250E+03 0.79666129E+02 0.0000E+00 0.0000E+00
  9900012  1    3    3    0    0 -.17307886E+02 0.83565512E+01 -.16665789E+03 0.17505498E+03 0.50000000E+02 0.0000E+00 0.9000E+01
      -11  1    3    3    0    0 0.15593609E+02 0.32156128E+02 -.12220933E+03 0.12732752E+03 0.00000000E+00 0.0000E+00 0.9000E+01
       -2  1    1    2    0  501 0.17142768E+01 -.40512679E+02 0.11325427E+03 0.12029441E+03 0.00000000E+00 0.0000E+00 0.9000E+01
#aMCatNLO 1  0  0  5  5 0.39349900D+02 0.00000000D+00  -5  6  0 0.00000000D+00 0.00000000D+00 0.00000000D+00 0.00000000D+00 0.00000000D+00
  <mgrwgt>
 0.1299948562D-03    3    2    0
 0.192234141940501D+03 0.000000000000000D+00 0.000000000000000D+00 0.192234141940501D+03
 0.192234141940501D+03 -.000000000000000D+00 -.000000000000000D+00 -.192234141940501D+03
 0.116327970309731D+03 -.173078861419589D+02 0.835655121244477D+01 -.103260843525087D+03
 0.841600280981536D+02 0.155936093366803D+02 0.321561278584603D+02 -.761953615286873D+02
 0.183980285473117D+03 0.171427680527865D+01 -.405126790709050D+02 0.179456205053774D+03
 0.000000000000000D+00 0.000000000000000D+00 0.000000000000000D+00 -.000000000000000D+00
 0.192234141940501D+03 0.000000000000000D+00 0.000000000000000D+00 0.192234141940501D+03
 0.192234141940501D+03 -.000000000000000D+00 -.000000000000000D+00 -.192234141940501D+03
 0.634031355115689D+02 -.166511980103083D+02 -.716264349713369D+01 -.345165429273102D+02
 0.394387326871967D+02 0.160452052856596D+02 0.214837780405183D+02 -.289207936339746D+02
 0.169971141937221D+03 0.402626511970626D+02 0.106056190396731D+02 0.164792684469948D+03
 0.111655273745015D+03 -.396566584724138D+02 -.249267535830577D+02 -.101355347908663D+03
0.158535154027D-04 0.000000000000D+00 0.000000000000D+00 0.275808218880D-04 0.000000000000D+00  6 -1 22 9900012 -11 -2 21 0 0.19004920D-01 0.46022297D-01 0.42154687D+04 0.42154687D+04 0.42154687D+04 0.12502798D+01  1  2  2  2  6  5       -2 0.150773209671D-03 0.100000000000D+01
0.895978804561D-06 0.000000000000D+00 -.304408367365D-07 0.275808218880D-04 0.000000000000D+00  6 -1 22 9900012 -11 -2 21 2 0.19004920D-01 0.46022297D-01 0.42154687D+04 0.42154687D+04 0.42154687D+04 0.12502798D+01  1  2  3  2  6  5       -2 0.133202009357D-04 0.100000000000D+01
-.229362771460D-05 0.000000000000D+00 0.000000000000D+00 0.275808218880D-04 0.000000000000D+00  6 -1 22 9900012 -11 -2 21 2 0.19004920D-01 0.46022297D-01 0.42154687D+04 0.42154687D+04 0.42154687D+04 0.12502798D+01  1  2 15  2  6  5       -2 -.340985544239D-04 0.100000000000D+01
  </mgrwgt>
  </event>
  <event>
  7     66 -.61978431E-06 0.14522399E+03 0.78161638E-02 0.10811050E+00
       -3 -1    0    0    0  502 0.00000000E+00 0.00000000E+00 0.16931277E+03 0.16931277E+03 0.00000000E+00 0.0000E+00 0.9000E+01
       22 -1    0    0    0    0 0.00000000E+00 0.00000000E+00 -.20458092E+03 0.20458092E+03 0.00000000E+00 0.0000E+00 0.9000E+01
       24  2    1    2    0    0 -.12652753E+03 -.66764156E+02 -.72080019E+02 0.17690711E+03 0.75059498E+02 0.0000E+00 0.0000E+00
  9900012  1    3    3    0    0 -.99786679E+02 -.33286185E+02 -.65300820E+02 0.13352733E+03 0.50000000E+02 0.0000E+00 0.9000E+01
      -11  1    3    3    0    0 -.26740852E+02 -.33477970E+02 -.67791994E+01 0.43379779E+02 0.00000000E+00 0.0000E+00 0.9000E+01
       -4  1    1    2    0  501 0.12879630E+03 0.86654361E+02 0.17121986E+00 0.15523368E+03 0.00000000E+00 0.0000E+00 0.9000E+01
       21  1    1    2  501  502 -.22687687E+01 -.19890206E+02 0.36640649E+02 0.41752901E+02 0.00000000E+00 0.0000E+00 0.9000E+01
#aMCatNLO 2  0  0  1  5 0.20552304D+02 0.00000000D+00  -5  6  0 0.00000000D+00 0.00000000D+00 0.00000000D+00 0.00000000D+00 0.00000000D+00
  <mgrwgt>
 -.3344982373D-05    2    2    0
 0.161822325500605D+03 0.000000000000000D+00 0.000000000000000D+00 0.161822325500605D+03
 0.161822325500605D+03 0.000000000000000D+00 0.000000000000000D+00 -.161822325500605D+03
 0.125268969498417D+03 -.100653552807711D+03 -.408860316287066D+02 -.372761243162029D+02
 0.452572358047332D+02 -.270496564670200D+02 -.361852500735850D+02 0.267603341039383D+01
 0.153118445698061D+03 0.127703209274731D+03 0.770712817022916D+02 0.346000909058091D+02
 0.000000000000000D+00 -.000000000000000D+00 -.000000000000000D+00 0.000000000000000D+00
 0.210972916558974D+03 0.000000000000000D+00 0.000000000000000D+00 0.210972916558974D+03
 0.164182979723027D+03 0.000000000000000D+00 0.000000000000000D+00 -.164182979723027D+03
 0.122290068814128D+03 -.997866792399681D+02 -.332861853144337D+02 -.372761243162029D+02
 0.429302783933250D+02 -.267408516437975D+02 -.334779703906801D+02 0.267603341039383D+01
 0.159042860247042D+03 0.128796299580948D+03 0.866543612239141D+02 0.346000909058091D+02
 0.508926888275058D+02 -.226876869718235D+01 -.198902055188003D+02 0.467899368359470D+02
-.101906695421D-05 0.000000000000D+00 0.000000000000D+00 0.173282668262D-07 0.000000000000D+00  6 -3 22 9900012 -11 -4 21 2 0.26428107D-01 0.31021449D-01 0.27984262D+05 0.27984262D+05 0.27984262D+05 0.11655714D+01  1  2 13  1  6  1       -3 -.119264827356D-04 0.100000000000D+01
0.730524662976D-06 0.000000000000D+00 0.000000000000D+00 0.173282668262D-07 0.228389046519D-09  6 -3 22 9900012 -11 -4 21 2 0.26048118D-01 0.31473988D-01 0.27984262D+05 0.27984262D+05 0.27984262D+05 0.11655714D+01  1  2  1  1  6  1       -3 0.858150036224D-05 0.100000000000D+01
  </mgrwgt>
  </event>
  <event>
  6     66 -.61978431E-06 0.24227356E+02 0.78161638E-02 0.12802365E+00
       -1 -1    0    0    0  501 0.00000000E+00 0.00000000E+00 0.36516823E+01 0.36516823E+01 0.00000000E+00 0.0000E+00 0.9000E+01
       22 -1    0    0    0    0 -.00000000E+00 -.00000000E+00 -.16052758E+04 0.16052758E+04 0.00000000E+00 0.0000E+00 0.9000E+01
       24  2    1    2    0    0 0.17238065E+02 0.24292265E+02 -.15137439E+04 0.15161363E+04 0.79759130E+02 0.0000E+00 0.0000E+00
  9900012  1    3    3    0    0 -.63952185E+01 0.10046230E+02 -.12247253E+04 0.12258034E+04 0.50000000E+02 0.0000E+00 0.9000E+01
      -11  1    3    3    0    0 0.23633283E+02 0.14246035E+02 -.28901855E+03 0.29033292E+03 0.00000000E+00 0.0000E+00 0.9000E+01
       -2  1    1    2    0  501 -.17238065E+02 -.24292265E+02 -.87880236E+02 0.92791168E+02 0.00000000E+00 0.0000E+00 0.9000E+01
#aMCatNLO 1  0  0  5  1 0.13736474D+01 0.00000000D+00  -5  6  0 0.00000000D+00 0.00000000D+00 0.00000000D+00 0.00000000D+00 0.00000000D+00
  <mgrwgt>
 -.2387206435D-03    8    2    0
 0.765634203392859D+02 0.000000000000000D+00 0.000000000000000D+00 0.765634203392859D+02
 0.765634203392859D+02 -.000000000000000D+00 -.000000000000000D+00 -.765634203392859D+02
 0.697404958780690D+02 -.639521854226846D+01 0.100462299170970D+02 -.471371531763259D+02
 0.275949808664533D+02 0.236332830552683D+02 0.142460353702213D+02 -.371117217917068D-01
 0.557913639340495D+02 -.172380645129998D+02 -.242922652873184D+02 0.471742648981176D+02
 0.000000000000000D+00 0.000000000000000D+00 0.000000000000000D+00 0.000000000000000D+00
 0.765634203392859D+02 0.000000000000000D+00 0.000000000000000D+00 0.765634203392859D+02
 0.765634203392859D+02 -.000000000000000D+00 -.000000000000000D+00 -.765634203392859D+02
 0.697217493647796D+02 -.640478055834389D+01 0.100327549106071D+02 -.471109854427638D+02
 0.275889759596441D+02 0.236294994514596D+02 0.142407034312792D+02 -.267573848411290D-01
 0.297378158896050D+02 -.974400128267010D+01 -.139511245352335D+02 0.243876660853344D+02
 0.260782994645432D+02 -.748071761044555D+01 -.103223338066528D+02 0.227500767422705D+02
0.183047691173D-06 0.000000000000D+00 0.000000000000D+00 0.856764559582D-06 0.000000000000D+00  6 -1 22 9900012 -11 -2 21 0 0.56179728D-03 0.24696551D+00 0.29583070D+04 0.29583070D+04 0.29583070D+04 0.12683537D+01  1  2  2  2  6  5       -2 0.809826764132D-05 0.100000000000D+01
0.629184950949D-08 0.000000000000D+00 -.351475665834D-09 0.856764559582D-06 0.000000000000D+00  6 -1 22 9900012 -11 -2 21 2 0.56179728D-03 0.24696551D+00 0.29583070D+04 0.29583070D+04 0.29583070D+04 0.12683537D+01  1  2  3  2  6  5       -2 0.447802954347D-06 0.100000000000D+01
-.197914796362D-07 0.000000000000D+00 0.000000000000D+00 0.856764559582D-06 0.000000000000D+00  6 -1 22 9900012 -11 -2 21 2 0.56179728D-03 0.24696551D+00 0.29583070D+04 0.29583070D+04 0.29583070D+04 0.12683537D+01  1  2 15  2  6  5       -2 -.140859743047D-05 0.100000000000D+01
0.832108696148D-09 0.000000000000D+00 0.000000000000D+00 0.856764559582D-06 0.000000000000D+00  6 -1 22 9900012 -11 -2 21 2 0.56179728D-03 0.24696551D+00 0.29567089D+04 0.29567089D+04 0.29567089D+04 0.12683819D+01  1  2 12  2  6  5       -2 0.592211144455D-07 0.100000000000D+01
-.178153683857D-04 0.000000000000D+00 0.000000000000D+00 0.856764559582D-06 0.000000000000D+00  6 -1 22 9900012 -11 -2 21 2 0.56179728D-03 0.24696551D+00 0.29583070D+04 0.29583070D+04 0.29583070D+04 0.12683537D+01  1  2  4  2  6  5       -2 -.126795381610D-02 0.100000000000D+01
-.790229804222D-05 0.000000000000D+00 0.000000000000D+00 0.856764559582D-06 0.000000000000D+00  6 -1 22 9900012 -11 -2 21 2 0.56179728D-03 0.24696551D+00 0.29583070D+04 0.29583070D+04 0.29583070D+04 0.12683537D+01  1  2  5  2  6  5       -2 -.562421654252D-03 0.100000000000D+01
0.123123685018D-04 0.000000000000D+00 -.000000000000D+00 0.856764559582D-06 0.000000000000D+00  6 -1 22 9900012 -11 -2 21 2 0.56179728D-03 0.24696551D+00 0.29583070D+04 0.29583070D+04 0.29583070D+04 0.12683537D+01  1  2  6  2  6  5       -2 0.876294797232D-03 0.100000000000D+01
0.995031713159D-05 0.000000000000D+00 0.000000000000D+00 0.856764559582D-06 0.167854518429D-05  6 -1 22 9900012 -11 -2 21 2 0.56179728D-03 0.24696551D+00 0.29567089D+04 0.29567089D+04 0.29567089D+04 0.12683819D+01  1  2 11  2  6  5       -2 0.708163335327D-03 0.100000000000D+01
  </mgrwgt>
  </event>
  <event>
  6     66 0.61978431E-06 0.33719129E+02 0.78161638E-02 0.12730475E+00
       -3 -1    0    0    0  501 0.00000000E+00 0.00000000E+00 0.90594665E+03 0.90594665E+03 0.00000000E+00 0.0000E+00 0.9000E+01
       22 -1    0    0    0    0 0.00000000E+00 0.00000000E+00 -.45087415E+01 0.45087415E+01 0.00000000E+00 0.0000E+00 0.9000E+01
       24  2    1    2    0    0 0.32659709E+02 0.83858833E+01 0.47629632E+03 0.48397872E+03 0.78995183E+02 0.0000E+00 0.0000E+00
  9900012  1    3    3    0    0 0.27261194E+02 -.11605418E+02 0.24683959E+03 0.25358952E+03 0.50000000E+02 0.0000E+00 0.9000E+01
      -11  1    3    3    0    0 0.53985152E+01 0.19991301E+02 0.22945672E+03 0.23038920E+03 0.00000000E+00 0.0000E+00 0.9000E+01
       -4  1    1    2    0  501 -.32659709E+02 -.83858833E+01 0.42514159E+03 0.42647667E+03 0.00000000E+00 0.0000E+00 0.9000E+01
#aMCatNLO 1  0  0  1  1 0.43290439D+02 0.00000000D+00  -5  6  0 0.00000000D+00 0.00000000D+00 0.00000000D+00 0.00000000D+00 0.00000000D+00
  <mgrwgt>
 0.6396585732D-04    7    4    0
 0.639114957140479D+02 0.000000000000000D+00 0.000000000000000D+00 0.639114957140479D+02
 0.639114957140479D+02 0.000000000000000D+00 0.000000000000000D+00 -.639114957140479D+02
 0.654919464236738D+02 0.272611942659856D+02 -.116054182031097D+02 -.301883520895806D+02
 0.228292382622495D+02 0.539851516954680D+01 0.199913014579102D+02 0.961134848071203D+01
 0.395018067421724D+02 -.326597094355324D+02 -.838588325480050D+01 0.205770036088686D+02
 0.000000000000000D+00 -.000000000000000D+00 0.000000000000000D+00 0.000000000000000D+00
 0.870761958641935D+02 0.000000000000000D+00 0.000000000000000D+00 0.870761958641935D+02
 0.792343384056611D+02 0.000000000000000D+00 0.000000000000000D+00 -.792343384056611D+02
 0.750562912001980D+02 0.410157381469017D+02 -.232340153892785D+02 -.301883520895806D+02
 0.213025821961894D+02 0.971741002943659D+01 0.163399489267110D+02 0.961134848071203D+01
 0.357326276358339D+02 -.252970036022689D+02 -.146105855114903D+02 0.205770036088686D+02
 0.342190332376332D+02 -.254361445740694D+02 0.215046519740577D+02 0.784185745853238D+01
 0.639114957140479D+02 0.000000000000000D+00 0.000000000000000D+00 0.639114957140479D+02
 0.639114957140479D+02 0.000000000000000D+00 0.000000000000000D+00 -.639114957140479D+02
 0.654919464236738D+02 0.272611942659856D+02 -.116054182031097D+02 -.301883520895806D+02
 0.228292382622495D+02 0.539851516954680D+01 0.199913014579102D+02 0.961134848071203D+01
 0.000000000000000D+00 -.000000000000000D+00 0.000000000000000D+00 0.000000000000000D+00
 0.395018067421724D+02 -.326597094355324D+02 -.838588325480050D+01 0.205770036088686D+02
 0.870761958641935D+02 0.000000000000000D+00 0.000000000000000D+00 0.870761958641935D+02
 0.792343384056611D+02 0.000000000000000D+00 0.000000000000000D+00 -.792343384056611D+02
 0.750562912001980D+02 0.410157381469017D+02 -.232340153892785D+02 -.301883520895806D+02
 0.213025821961894D+02 0.971741002943659D+01 0.163399489267110D+02 0.961134848071203D+01
 0.342190332376332D+02 -.254361445740694D+02 0.215046519740577D+02 0.784185745853238D+01
 0.357326276358339D+02 -.252970036022689D+02 -.146105855114903D+02 0.205770036088686D+02
0.115147133342D-05 0.000000000000D+00 0.000000000000D+00 0.198393562509D-06 0.000000000000D+00  6 -3 22 9900012 -11 -4 21 0 0.13937641D+00 0.69365254D-03 0.31666431D+04 0.31666431D+04 0.31666431D+04 0.12648157D+01  1  2  2  1  6  1       -3 0.439851136391D-04 0.100000000000D+01
-.133289263686D-08 0.000000000000D+00 -.221097655485D-08 0.198393562509D-06 0.000000000000D+00  6 -3 22 9900012 -11 -4 21 2 0.13937641D+00 0.69365254D-03 0.31666431D+04 0.31666431D+04 0.31666431D+04 0.12648157D+01  1  2  3  1  6  1       -3 -.814520925216D-07 0.100000000000D+01
-.124197491602D-06 0.000000000000D+00 0.000000000000D+00 0.198393562509D-06 0.000000000000D+00  6 -3 22 9900012 -11 -4 21 2 0.13937641D+00 0.69365254D-03 0.31666431D+04 0.31666431D+04 0.31666431D+04 0.12648157D+01  1  2 15  1  6  1       -3 -.758961772100D-05 0.100000000000D+01
-.702727637949D-07 0.000000000000D+00 0.000000000000D+00 0.198393562509D-06 0.000000000000D+00  6 -3 22 9900012 -11 -4 21 2 0.13937641D+00 0.69365254D-03 0.31666431D+04 0.31666431D+04 0.31666431D+04 0.12648157D+01  1  2  4  1  6  1       -3 -.429431711157D-05 0.100000000000D+01
-.646923114741D-06 0.000000000000D+00 -.364558738640D-06 0.198393562509D-06 0.000000000000D+00  6 -3 22 9900012 -11 -4 21 2 0.21814332D+00 0.69365254D-03 0.31666431D+04 0.31666431D+04 0.31666431D+04 0.12648157D+01  1  2  5  1  6  1       -3 -.955077412871D-05 0.100000000000D+01
0.765848760661D-06 0.000000000000D+00 0.330806649332D-06 0.198393562509D-06 0.000000000000D+00  6 -3 22 9900012 -11 -4 21 2 0.13937641D+00 0.69365254D-03 0.31666431D+04 0.31666431D+04 0.31666431D+04 0.12648157D+01  1  2  6  1  6  1       -3 0.468004566802D-04 0.100000000000D+01
-.190769750048D-07 0.000000000000D+00 -.188796949493D-07 0.198393562509D-06 0.000000000000D+00  6 21 22 9900012 -11 3 -4 2 0.21814332D+00 0.69365254D-03 0.31666431D+04 0.31666431D+04 0.31666431D+04 0.12648157D+01  3  4  5  3  5  1       -3 -.530355194608D-05 0.100000000000D+01
  </mgrwgt>
  </event>
  <event>
  5     66 0.61978431E-06 0.13853689E+03 0.78161638E-02 0.10864440E+00
       -1 -1    0    0    0  501 0.00000000E+00 0.00000000E+00 0.12301250E+04 0.12301250E+04 0.00000000E+00 0.0000E+00 0.9000E+01
       22 -1    0    0    0    0 0.00000000E+00 0.00000000E+00 -.94055367E+02 0.94055367E+02 0.00000000E+00 0.0000E+00 0.9000E+01
  9900012  1    1    2    0    0 -.43328716E+01 -.40995206E+02 0.21339939E+02 0.68225902E+02 0.50000000E+02 0.0000E+00 0.9000E+01
      -11  1    1    2    0    0 0.99689281E+02 -.61887270E+02 -.14334582E+02 0.11820942E+03 0.00000000E+00 0.0000E+00 0.9000E+01
       -2  1    1    2    0  501 -.95356410E+02 0.10288248E+03 0.11290643E+04 0.11377451E+04 0.00000000E+00 0.0000E+00 0.9000E+01
#aMCatNLO 1  0  0  5  1 0.18470400D+01 0.00000000D+00  -5  6  0 0.00000000D+00 0.00000000D+00 0.00000000D+00 0.00000000D+00 0.00000000D+00
  <mgrwgt>
 0.1575372153D-03    8    2    0
 0.340146824841851D+03 0.000000000000000D+00 0.000000000000000D+00 0.340146824841851D+03
 0.340146824841851D+03 -.000000000000000D+00 -.000000000000000D+00 -.340146824841851D+03
 0.971635487097150D+02 -.433287160734531D+01 -.409952059279506D+02 -.723973377440383D+02
 0.254031009599968D+03 0.996892811569794D+02 -.618872695178143D+02 -.225308159933042D+03
 0.329099091374018D+03 -.953564095496342D+02 0.102882475445765D+03 0.297705497677080D+03
 0.000000000000000D+00 -.000000000000000D+00 0.000000000000000D+00 0.000000000000000D+00
 0.340146824841851D+03 0.000000000000000D+00 0.000000000000000D+00 0.340146824841851D+03
 0.340146824841851D+03 -.000000000000000D+00 -.000000000000000D+00 -.340146824841851D+03
 0.971306454225949D+02 -.434489501864641D+01 -.409822335611868D+02 -.723598003025377D+02
 0.253923372100336D+03 0.996578476677769D+02 -.618533551202785D+02 -.225210023661018D+03
 0.323256890476375D+03 -.921631948623392D+02 0.102089513050214D+03 0.292538363430152D+03
 0.598274168439534D+01 -.314975778679132D+01 0.746075631251426D+00 0.503146053340397D+01
0.589475778768D-04 0.000000000000D+00 0.000000000000D+00 0.308638529721D-07 0.000000000000D+00  6 -1 22 9900012 -11 -2 21 0 0.18925001D+00 0.14470056D-01 0.25988138D+05 0.25988138D+05 0.25988138D+05 0.11685575D+01  1  2  2  2  6  5       -2 0.354142229359D-04 0.100000000000D+01
0.671616318275D-06 0.000000000000D+00 -.113187110150D-06 0.308638529721D-07 0.000000000000D+00  6 -1 22 9900012 -11 -2 21 2 0.18925001D+00 0.14470056D-01 0.25988138D+05 0.25988138D+05 0.25988138D+05 0.11685575D+01  1  2  3  2  6  5       -2 0.550976654281D-06 0.100000000000D+01
-.750594788902D-05 0.000000000000D+00 0.000000000000D+00 0.308638529721D-07 0.000000000000D+00  6 -1 22 9900012 -11 -2 21 2 0.18925001D+00 0.14470056D-01 0.25988138D+05 0.25988138D+05 0.25988138D+05 0.11685575D+01  1  2 15  2  6  5       -2 -.615768548585D-05 0.100000000000D+01
0.321202071168D-06 0.000000000000D+00 0.000000000000D+00 0.308638529721D-07 0.000000000000D+00  6 -1 22 9900012 -11 -2 21 2 0.18925001D+00 0.14470056D-01 0.26059845D+05 0.26059845D+05 0.26059845D+05 0.11684459D+01  1  2 12  2  6  5       -2 0.263462361184D-06 0.100000000000D+01
-.513720758662D-02 0.000000000000D+00 0.000000000000D+00 0.308638529721D-07 0.000000000000D+00  6 -1 22 9900012 -11 -2 21 2 0.18925001D+00 0.14470056D-01 0.25988138D+05 0.25988138D+05 0.25988138D+05 0.11685575D+01  1  2  4  2  6  5       -2 -.421443221584D-02 0.100000000000D+01
-.989330876973D-02 0.000000000000D+00 0.000000000000D+00 0.308638529721D-07 0.000000000000D+00  6 -1 22 9900012 -11 -2 21 2 0.18925001D+00 0.14470056D-01 0.25988138D+05 0.25988138D+05 0.25988138D+05 0.11685575D+01  1  2  5  2  6  5       -2 -.811621459663D-02 0.100000000000D+01
0.100747952146D-01 0.000000000000D+00 -.000000000000D+00 0.308638529721D-07 0.000000000000D+00  6 -1 22 9900012 -11 -2 21 2 0.18925001D+00 0.14470056D-01 0.25988138D+05 0.25988138D+05 0.25988138D+05 0.11685575D+01  1  2  6  2  6  5       -2 0.826510138133D-02 0.100000000000D+01
0.511194094962D-02 0.000000000000D+00 0.000000000000D+00 0.308638529721D-07 0.380695617066D-07  6 -1 22 9900012 -11 -2 21 2 0.18925001D+00 0.14470056D-01 0.26059845D+05 0.26059845D+05 0.26059845D+05 0.11684459D+01  1  2 11  2  6  5       -2 0.419301166996D-02 0.100000000000D+01
  </mgrwgt>
  </event>
  <event>
  6     66 0.61978431E-06 0.41638056E+02 0.78161638E-02 0.12298755E+00
       -3 -1    0    0    0  501 0.00000000E+00 0.00000000E+00 0.11638158E+02 0.11638158E+02 0.00000000E+00 0.0000E+00 0.9000E+01
       22 -1    0    0    0    0 0.00000000E+00 0.00000000E+00 -.54050921E+03 0.54050921E+03 0.00000000E+00 0.0000E+00 0.9000E+01
       24  2    1    2    0    0 0.32460963E+02 -.32225424E+02 -.46577095E+03 0.47421269E+03 0.76438859E+02 0.0000E+00 0.0000E+00
  9900012  1    3    3    0    0 0.19287016E+02 -.12266106E+01 -.33004623E+03 0.33437106E+03 0.50000000E+02 0.0000E+00 0.9000E+01
      -11  1    3    3    0    0 0.13173947E+02 -.30998813E+02 -.13572472E+03 0.13984163E+03 0.00000000E+00 0.0000E+00 0.9000E+01
       -4  1    1    2    0  501 -.32460963E+02 0.32225424E+02 -.63100099E+02 0.77934681E+02 0.00000000E+00 0.0000E+00 0.9000E+01
#aMCatNLO 1  0  0  1  5 0.60088870D+01 0.00000000D+00  -5  6  0 0.00000000D+00 0.00000000D+00 0.00000000D+00 0.00000000D+00 0.00000000D+00
  <mgrwgt>
 0.7924020710D-04   11    4    0
 0.793128704301491D+02 0.000000000000000D+00 0.000000000000000D+00 0.793128704301491D+02
 0.793128704301491D+02 0.000000000000000D+00 0.000000000000000D+00 -.793128704301491D+02
 0.634840535729208D+02 0.192870159645850D+02 -.122661058582001D+01 -.340107556473253D+02
 0.342460645691160D+02 0.131739465498100D+02 -.309988132251990D+02 -.618980204885716D+01
 0.608956227182615D+02 -.324609625143950D+02 0.322254238110190D+02 0.402005576961825D+02
 0.000000000000000D+00 0.000000000000000D+00 -.000000000000000D+00 0.000000000000000D+00
 0.131132826414550D+03 0.000000000000000D+00 0.000000000000000D+00 0.131132826414550D+03
 0.795428688230901D+02 0.000000000000000D+00 0.000000000000000D+00 -.795428688230901D+02
 0.628234109740349D+02 0.170242640645065D+02 -.473180486032946D+00 -.340107556473253D+02
 0.334283599122336D+02 0.119615840569745D+02 -.305951320288984D+02 -.618980204885716D+01
 0.624871155040374D+02 -.346713190151036D+02 0.329614077776378D+02 0.402005576961825D+02
 0.519368088473340D+02 0.568547089362265D+01 -.189309526270647D+01 0.515899575914596D+02
 0.793128704301491D+02 0.000000000000000D+00 0.000000000000000D+00 0.793128704301491D+02
 0.793128704301491D+02 0.000000000000000D+00 0.000000000000000D+00 -.793128704301491D+02
 0.634840535729208D+02 0.192870159645850D+02 -.122661058582001D+01 -.340107556473253D+02
 0.342460645691160D+02 0.131739465498100D+02 -.309988132251990D+02 -.618980204885716D+01
 0.000000000000000D+00 0.000000000000000D+00 -.000000000000000D+00 0.000000000000000D+00
 0.608956227182615D+02 -.324609625143950D+02 0.322254238110190D+02 0.402005576961825D+02
 0.131132826414550D+03 0.000000000000000D+00 0.000000000000000D+00 0.131132826414550D+03
 0.795428688230901D+02 0.000000000000000D+00 0.000000000000000D+00 -.795428688230901D+02
 0.628234109740349D+02 0.170242640645065D+02 -.473180486032946D+00 -.340107556473253D+02
 0.334283599122336D+02 0.119615840569745D+02 -.305951320288984D+02 -.618980204885716D+01
 0.519368088473340D+02 0.568547089362265D+01 -.189309526270647D+01 0.515899575914596D+02
 0.624871155040374D+02 -.346713190151036D+02 0.329614077776378D+02 0.402005576961825D+02
0.821010223426D-07 0.000000000000D+00 0.000000000000D+00 0.498092225594D-07 0.000000000000D+00  6 -3 22 9900012 -11 -4 21 0 0.17904858D-02 0.83155263D-01 0.44240786D+04 0.44240786D+04 0.44240786D+04 0.12478759D+01  1  2  2  1  6  1       -3 0.790262117161D-05 0.100000000000D+01
0.308494670750D-09 0.000000000000D+00 -.157644771746D-09 0.498092225594D-07 0.000000000000D+00  6 -3 22 9900012 -11 -4 21 2 0.17904858D-02 0.83155263D-01 0.44240786D+04 0.44240786D+04 0.44240786D+04 0.12478759D+01  1  2  3  1  6  1       -3 0.462394902117D-07 0.100000000000D+01
-.844599644822D-08 0.000000000000D+00 0.000000000000D+00 0.498092225594D-07 0.000000000000D+00  6 -3 22 9900012 -11 -4 21 2 0.17904858D-02 0.83155263D-01 0.44240786D+04 0.44240786D+04 0.44240786D+04 0.12478759D+01  1  2 15  1  6  1       -3 -.126594916258D-05 0.100000000000D+01
0.201058177082D-05 0.000000000000D+00 0.000000000000D+00 0.498092225594D-07 0.000000000000D+00  6 -3 22 9900012 -11 -4 21 2 0.29689044D-02 0.83155263D-01 0.48652307D+04 0.48652307D+04 0.48652307D+04 0.12431843D+01  1  2 12  1  6  1       -3 0.145855375630D-03 0.100000000000D+01
-.171629230286D-05 0.000000000000D+00 0.000000000000D+00 0.498092225594D-07 0.000000000000D+00  6 -3 22 9900012 -11 -4 21 2 0.17904858D-02 0.83155263D-01 0.44240786D+04 0.44240786D+04 0.44240786D+04 0.12478759D+01  1  2  4  1  6  1       -3 -.257250736116D-03 0.100000000000D+01
-.256872419003D-05 0.000000000000D+00 -.281625890560D-07 0.498092225594D-07 0.000000000000D+00  6 -3 22 9900012 -11 -4 21 2 0.29664415D-02 0.83155263D-01 0.44240786D+04 0.44240786D+04 0.44240786D+04 0.12478759D+01  1  2  5  1  6  1       -3 -.185907419282D-03 0.100000000000D+01
0.228829572587D-05 0.000000000000D+00 0.249186694366D-07 0.498092225594D-07 0.000000000000D+00  6 -3 22 9900012 -11 -4 21 2 0.17904858D-02 0.83155263D-01 0.44240786D+04 0.44240786D+04 0.44240786D+04 0.12478759D+01  1  2  6  1  6  1       -3 0.342986890375D-03 0.100000000000D+01
0.403067180142D-06 0.000000000000D+00 0.000000000000D+00 0.498092225594D-07 0.940798048002D-08  6 -3 22 9900012 -11 -4 21 2 0.29603198D-02 0.83396404D-01 0.48652307D+04 0.48652307D+04 0.48652307D+04 0.12431843D+01  1  2 11  1  6  1       -3 0.292081442372D-04 0.100000000000D+01
0.114388587202D-06 0.000000000000D+00 0.000000000000D+00 0.498092225594D-07 0.000000000000D+00  6 21 22 9900012 -11 3 -4 2 0.29689044D-02 0.83155263D-01 0.48652307D+04 0.48652307D+04 0.48652307D+04 0.12431843D+01  3  4 12  3  5  1       -3 0.157291401833D-03 0.100000000000D+01
-.144667904012D-06 0.000000000000D+00 -.160016711025D-08 0.498092225594D-07 0.000000000000D+00  6 21 22 9900012 -11 3 -4 2 0.29664415D-02 0.83155263D-01 0.44240786D+04 0.44240786D+04 0.44240786D+04 0.12478759D+01  3  4  5  3  5  1       -3 -.198577500067D-03 0.100000000000D+01
0.283519771738D-07 0.000000000000D+00 0.000000000000D+00 0.498092225594D-07 0.659311388474D-09  6 21 22 9900012 -11 3 -4 2 0.29603198D-02 0.83396404D-01 0.48652307D+04 0.48652307D+04 0.48652307D+04 0.12431843D+01  3  4 11  3  5  1       -3 0.389511389939D-04 0.100000000000D+01
  </mgrwgt>
  </event>
  <event>
  6     66 0.61978431E-06 0.67664850E+02 0.78161638E-02 0.11553958E+00
       -3 -1    0    0    0  501 0.00000000E+00 0.00000000E+00 0.33449568E+02 0.33449568E+02 0.00000000E+00 0.0000E+00 0.9000E+01
       22 -1    0    0    0    0 -.00000000E+00 -.00000000E+00 -.61270403E+03 0.61270403E+03 0.00000000E+00 0.0000E+00 0.9000E+01
       24  2    1    2    0    0 0.77575285E+02 -.27268357E+02 -.54503793E+03 0.55709037E+03 0.80757934E+02 0.0000E+00 0.0000E+00
  9900012  1    3    3    0    0 0.26234465E+02 -.24186345E+02 -.35191717E+03 0.35723791E+03 0.50000000E+02 0.0000E+00 0.9000E+01
      -11  1    3    3    0    0 0.51340820E+02 -.30820117E+01 -.19312076E+03 0.19985246E+03 0.00000000E+00 0.0000E+00 0.9000E+01
       -4  1    1    2    0  501 -.77575285E+02 0.27268357E+02 -.34216532E+02 0.89063232E+02 0.00000000E+00 0.0000E+00 0.9000E+01
#aMCatNLO 1  0  0  5  1 0.20912909D+02 0.00000000D+00  -5  6  0 0.00000000D+00 0.00000000D+00 0.00000000D+00 0.00000000D+00 0.00000000D+00
  <mgrwgt>
 0.9547747026D-04    4    2    0
 0.143159650008837D+03 0.000000000000000D+00 0.000000000000000D+00 0.143159650008837D+03
 0.143159650008837D+03 -.000000000000000D+00 -.000000000000000D+00 -.143159650008837D+03
 0.942338404692833D+02 0.262344654356856D+02 -.241863451853979D+02 -.714618095171605D+02
 0.603149194530187D+02 0.513408198508370D+02 -.308201171499817D+01 -.315041414651574D+02
 0.131770540095371D+03 -.775752852865226D+02 0.272683569003961D+02 0.102965950982318D+03
 0.000000000000000D+00 0.000000000000000D+00 0.000000000000000D+00 -.000000000000000D+00
 0.143159650008837D+03 0.000000000000000D+00 0.000000000000000D+00 0.143159650008837D+03
 0.143159650008837D+03 -.000000000000000D+00 -.000000000000000D+00 -.143159650008837D+03
 0.896388004236974D+02 0.228467367263969D+02 -.229955304151344D+02 -.669652651998094D+02
 0.569571728595690D+02 0.491801610818310D+02 -.232252221733646D+01 -.286362914266139D+02
 0.150364778723138D+02 0.129451900617668D+02 0.213634355980014D+01 0.734532213478881D+01
 0.124686848862093D+03 -.849720878699948D+02 0.231817090726707D+02 0.882562344916344D+02
0.529150059421D-05 0.000000000000D+00 0.000000000000D+00 0.173583425896D-05 0.000000000000D+00  6 -3 22 9900012 -11 -4 21 0 0.51460875D-02 0.94262158D-01 0.95148424D+04 0.95148424D+04 0.95148424D+04 0.12115751D+01  1  2  2  2  6  5       -4 0.930718672831D-04 0.100000000000D+01
0.150326996823D-07 0.000000000000D+00 -.101603777829D-07 0.173583425896D-05 0.000000000000D+00  6 -3 22 9900012 -11 -4 21 2 0.51460875D-02 0.94262158D-01 0.95148424D+04 0.95148424D+04 0.95148424D+04 0.12115751D+01  1  2  3  2  6  5       -4 0.388130017455D-06 0.100000000000D+01
-.668675508086D-06 0.000000000000D+00 0.000000000000D+00 0.173583425896D-05 0.000000000000D+00  6 -3 22 9900012 -11 -4 21 2 0.51460875D-02 0.94262158D-01 0.95148424D+04 0.95148424D+04 0.95148424D+04 0.12115751D+01  1  2 15  2  6  5       -4 -.172645660533D-04 0.100000000000D+01
0.744498665986D-06 0.000000000000D+00 0.000000000000D+00 0.173583425896D-05 0.000000000000D+00  6 -3 22 9900012 -11 -4 21 2 0.51460875D-02 0.94262158D-01 0.11027214D+05 0.11027214D+05 0.11027214D+05 0.12049536D+01  1  2 12  2  6  5       -4 0.192820390081D-04 0.100000000000D+01
  </mgrwgt>
  </event>
  <event>
  6     66 0.61978431E-06 0.25459111E+02 0.78161638E-02 0.12797095E+00
       -1 -1    0    0    0  501 0.00000000E+00 0.00000000E+00 0.53302194E+02 0.53302194E+02 0.00000000E+00 0.0000E+00 0.9000E+01
       22 -1    0    0    0    0 -.00000000E+00 -.00000000E+00 -.38183457E+03 0.38183457E+03 0.00000000E+00 0.0000E+00 0.9000E+01
       24  2    1    2    0    0 0.16094975E+02 -.19726078E+02 -.37383360E+03 0.38317171E+03 0.80130104E+02 0.0000E+00 0.0000E+00
  9900012  1    3    3    0    0 0.27350608E+02 0.41762549E+01 -.23513690E+03 0.24198111E+03 0.50000000E+02 0.0000E+00 0.9000E+01
      -11  1    3    3    0    0 -.11255633E+02 -.23902333E+02 -.13869670E+03 0.14119060E+03 0.00000000E+00 0.0000E+00 0.9000E+01
       -2  1    1    2    0  501 -.16094975E+02 0.19726078E+02 0.45301222E+02 0.51965056E+02 0.00000000E+00 0.0000E+00 0.9000E+01
#aMCatNLO 1  0  0  5  1 0.56872073D+01 0.00000000D+00  -5  6  0 0.00000000D+00 0.00000000D+00 0.00000000D+00 0.00000000D+00 0.00000000D+00
  <mgrwgt>
 0.1846547099D-03    7    2    0
 0.142662611474385D+03 0.000000000000000D+00 0.000000000000000D+00 0.142662611474385D+03
 0.142662611474385D+03 -.000000000000000D+00 -.000000000000000D+00 -.142662611474385D+03
 0.982906227711941D+02 0.273506077494095D+02 0.417625489439320D+01 -.799721806351694D+02
 0.556237693406855D+02 -.112556329365087D+02 -.239023325554033D+02 -.489488808991102D+02
 0.131410830836890D+03 -.160949748129009D+02 0.197260776610101D+02 0.128921061534280D+03
 0.000000000000000D+00 -.000000000000000D+00 0.000000000000000D+00 0.000000000000000D+00
 0.142662611474385D+03 0.000000000000000D+00 0.000000000000000D+00 0.142662611474385D+03
 0.142662611474385D+03 -.000000000000000D+00 -.000000000000000D+00 -.142662611474385D+03
 0.981408567063676D+02 0.273283904963259D+02 0.420348446541375D+01 -.797942200055187D+02
 0.555310912760183D+02 -.112682050337935D+02 -.238869241331917D+02 -.488481781551473D+02
 0.825912209424309D+02 -.480586202614907D+01 0.144344407855158D+02 0.811779550503490D+02
 0.490620540239526D+02 -.112543234363834D+02 0.524899888226214D+01 0.474644431103170D+02
0.483590329223D-06 0.000000000000D+00 0.000000000000D+00 0.105177131825D-04 0.000000000000D+00  6 -1 22 9900012 -11 -2 21 0 0.82003376D-02 0.58743781D-01 0.29715326D+04 0.29715326D+04 0.29715326D+04 0.12681208D+01  1  2  2  2  6  5       -2 0.103030810232D-04 0.100000000000D+01
0.478959495439D-07 0.000000000000D+00 -.928557098237D-09 0.105177131825D-04 0.000000000000D+00  6 -1 22 9900012 -11 -2 21 2 0.82003376D-02 0.58743781D-01 0.29715326D+04 0.29715326D+04 0.29715326D+04 0.12681208D+01  1  2  3  2  6  5       -2 0.164100364912D-05 0.100000000000D+01
-.663266655585D-07 0.000000000000D+00 0.000000000000D+00 0.105177131825D-04 0.000000000000D+00  6 -1 22 9900012 -11 -2 21 2 0.82003376D-02 0.58743781D-01 0.29715326D+04 0.29715326D+04 0.29715326D+04 0.12681208D+01  1  2 15  2  6  5       -2 -.227247400358D-05 0.100000000000D+01
0.551291222158D-05 0.000000000000D+00 0.000000000000D+00 0.105177131825D-04 0.000000000000D+00  6 -1 22 9900012 -11 -2 21 2 0.82003376D-02 0.58743781D-01 0.30901854D+04 0.30901854D+04 0.30901854D+04 0.12660826D+01  1  2 12  2  6  5       -2 0.188997682596D-03 0.100000000000D+01
-.394920119558D-05 0.000000000000D+00 0.000000000000D+00 0.105177131825D-04 0.000000000000D+00  6 -1 22 9900012 -11 -2 21 2 0.82003376D-02 0.58743781D-01 0.29715326D+04 0.29715326D+04 0.29715326D+04 0.12681208D+01  1  2  4  2  6  5       -2 -.135306923336D-03 0.100000000000D+01
-.811836603165D-05 0.000000000000D+00 0.000000000000D+00 0.105177131825D-04 0.000000000000D+00  6 -1 22 9900012 -11 -2 21 2 0.82003376D-02 0.58743781D-01 0.29715326D+04 0.29715326D+04 0.29715326D+04 0.12681208D+01  1  2  5  2  6  5       -2 -.278150207057D-03 0.100000000000D+01
0.116585237862D-04 0.000000000000D+00 -.000000000000D+00 0.105177131825D-04 0.000000000000D+00  6 -1 22 9900012 -11 -2 21 2 0.82003376D-02 0.58743781D-01 0.29715326D+04 0.29715326D+04 0.29715326D+04 0.12681208D+01  1  2  6  2  6  5       -2 0.399442546993D-03 0.100000000000D+01
  </mgrwgt>
  </event>
  <event>
  7     66 -.61978431E-06 0.59291054E+02 0.78161638E-02 0.11894580E+00
       -3 -1    0    0    0  502 0.00000000E+00 0.00000000E+00 0.13450897E+04 0.13450897E+04 0.00000000E+00 0.0000E+00 0.9000E+01
       22 -1    0    0    0    0 0.00000000E+00 0.00000000E+00 -.83964117E+02 0.83964117E+02 0.00000000E+00 0.0000E+00 0.9000E+01
       24  2    1    2    0    0 -.57882604E+02 0.14201126E+02 -.52031220E+02 0.11326008E+03 0.81046472E+02 0.0000E+00 0.0000E+00
  9900012  1    3    3    0    0 -.17678618E+02 0.37373517E+01 -.98754284E+01 0.54074259E+02 0.50000000E+02 0.0000E+00 0.9000E+01
      -11  1    3    3    0    0 -.40203985E+02 0.10463774E+02 -.42155791E+02 0.59185824E+02 0.00000000E+00 0.0000E+00 0.9000E+01
       -4  1    1    2    0  501 0.59951812E+02 -.26735039E+02 0.12212789E+04 0.12230418E+04 0.00000000E+00 0.0000E+00 0.9000E+01
       21  1    1    2  501  502 -.20692078E+01 0.12533914E+02 0.91877844E+02 0.92751921E+02 0.00000000E+00 0.0000E+00 0.9000E+01
#aMCatNLO 2  0  0  1  5 0.13176491D+02 0.00000000D+00  -5  6  0 0.00000000D+00 0.00000000D+00 0.00000000D+00 0.00000000D+00 0.00000000D+00
  <mgrwgt>
 -.2276927754D-03    3    2    0
 0.323419654515341D+03 0.000000000000000D+00 0.000000000000000D+00 0.323419654515341D+03
 0.323419654515341D+03 0.000000000000000D+00 0.000000000000000D+00 -.323419654515341D+03
 0.129691838228528D+03 -.180932101704377D+02 0.624867846448613D+01 -.118125199116322D+03
 0.198805221569943D+03 -.408393012446902D+02 0.143121036841769D+02 -.194038221197404D+03
 0.318342249232210D+03 0.589325114151279D+02 -.205607821486631D+02 0.312163420313726D+03
 0.000000000000000D+00 -.000000000000000D+00 0.000000000000000D+00 0.000000000000000D+00
 0.347318871386977D+03 0.000000000000000D+00 0.000000000000000D+00 0.347318871386977D+03
 0.325174575097444D+03 0.000000000000000D+00 0.000000000000000D+00 -.325174575097444D+03
 0.129537886404932D+03 -.176786184423156D+02 0.373735173049769D+01 -.118125199116322D+03
 0.198435587261223D+03 -.402039853925177D+02 0.104637739277825D+02 -.194038221197404D+03
 0.318990568855399D+03 0.599518116316194D+02 -.267350391586364D+02 0.312163420313726D+03
 0.255294039628684D+02 -.206920779678611D+01 0.125339135003562D+02 0.221442962895330D+02
-.735438921894D-03 0.000000000000D+00 0.000000000000D+00 0.957560638092D-04 0.000000000000D+00  6 -3 22 9900012 -11 -4 21 2 0.20805974D+00 0.12847842D-01 0.74869751D+04 0.74869751D+04 0.74869751D+04 0.12225862D+01  1  2 13  1  6  1       -3 -.241271545372D-03 0.100000000000D+01
-.550719148755D-05 0.000000000000D+00 0.000000000000D+00 0.957560638092D-04 0.000000000000D+00  6 -3 22 9900012 -11 -4 21 2 0.19269742D+00 0.12847842D-01 0.63385190D+04 0.63385190D+04 0.63385190D+04 0.12304164D+01  1  2  8  1  6  1       -3 -.237840025028D-05 0.100000000000D+01
0.480806725068D-04 0.000000000000D+00 0.000000000000D+00 0.957560638092D-04 0.403803216266D-06  6 -3 22 9900012 -11 -4 21 2 0.20693687D+00 0.12917556D-01 0.74869751D+04 0.74869751D+04 0.74869751D+04 0.12225862D+01  1  2  1  1  6  1       -3 0.159571702392D-04 0.100000000000D+01
  </mgrwgt>
  </event>
  <event>
  6     66 0.61978431E-06 0.22904855E+02 0.78161638E-02 0.12688208E+00
       -1 -1    0    0    0  501 0.00000000E+00 0.00000000E+00 0.66616347E+02 0.66616347E+02 0.00000000E+00 0.0000E+00 0.9000E+01
       22 -1    0    0    0    0 0.00000000E+00 0.00000000E+00 -.43592783E+02 0.43592783E+02 0.00000000E+00 0.0000E+00 0.9000E+01
       24  2    1    2    0    0 0.23614432E+02 -.58458067E+01 0.16168472E+02 0.84934496E+02 0.79753585E+02 0.0000E+00 0.0000E+00
  9900012  1    3    3    0    0 0.12911959E+02 0.16243433E+02 0.23934572E+02 0.59189793E+02 0.50000000E+02 0.0000E+00 0.9000E+01
      -11  1    3    3    0    0 0.10702473E+02 -.22089240E+02 -.77661000E+01 0.25744704E+02 0.00000000E+00 0.0000E+00 0.9000E+01
       -2  1    1    2    0  501 -.23614432E+02 0.58458067E+01 0.68550919E+01 0.25274635E+02 0.00000000E+00 0.0000E+00 0.9000E+01
#aMCatNLO 1  0  0  1  5 0.12048648D+02 0.00000000D+00  -5  6  0 0.00000000D+00 0.00000000D+00 0.00000000D+00 0.00000000D+00 0.00000000D+00
  <mgrwgt>
 0.1840265250D-03    9    4    0
 0.538887000280548D+02 0.000000000000000D+00 0.000000000000000D+00 0.538887000280548D+02
 0.538887000280548D+02 0.000000000000000D+00 0.000000000000000D+00 -.538887000280548D+02
 0.554123259344274D+02 0.129119587598582D+02 0.162434330239837D+02 0.118303875694035D+02
 0.279845746179721D+02 0.107024734587140D+02 -.220892397407191D+02 -.134409436458683D+02
 0.243804995037101D+02 -.236144322185722D+02 0.584580671673542D+01 0.161055607646480D+01
 0.000000000000000D+00 -.000000000000000D+00 -.000000000000000D+00 0.000000000000000D+00
 0.751730977424954D+02 0.000000000000000D+00 0.000000000000000D+00 0.751730977424954D+02
 0.557649634658579D+02 0.000000000000000D+00 0.000000000000000D+00 -.557649634658579D+02
 0.577029137287626D+02 0.141502415925714D+02 0.221232648046934D+02 0.118303875694035D+02
 0.260750076411059D+02 0.112942686302080D+02 -.192791740876269D+02 -.134409436458683D+02
 0.246094638480607D+02 -.230781346270684D+02 0.839234902446733D+01 0.161055607646480D+01
 0.225506759904241D+02 -.236637559571098D+01 -.112364397415338D+02 0.194081342766375D+02
 0.538887000280548D+02 0.000000000000000D+00 0.000000000000000D+00 0.538887000280548D+02
 0.538887000280548D+02 0.000000000000000D+00 0.000000000000000D+00 -.538887000280548D+02
 0.554123259344274D+02 0.129119587598582D+02 0.162434330239837D+02 0.118303875694035D+02
 0.279845746179721D+02 0.107024734587140D+02 -.220892397407191D+02 -.134409436458683D+02
 0.000000000000000D+00 -.000000000000000D+00 -.000000000000000D+00 0.000000000000000D+00
 0.243804995037101D+02 -.236144322185722D+02 0.584580671673542D+01 0.161055607646480D+01
 0.751730977424954D+02 0.000000000000000D+00 0.000000000000000D+00 0.751730977424954D+02
 0.557649634658579D+02 0.000000000000000D+00 0.000000000000000D+00 -.557649634658579D+02
 0.577029137287626D+02 0.141502415925714D+02 0.221232648046934D+02 0.118303875694035D+02
 0.260750076411059D+02 0.112942686302080D+02 -.192791740876269D+02 -.134409436458683D+02
 0.225506759904241D+02 -.236637559571098D+01 -.112364397415338D+02 0.194081342766375D+02
 0.246094638480607D+02 -.230781346270684D+02 0.839234902446733D+01 0.161055607646480D+01
0.228218277841D-06 0.000000000000D+00 0.000000000000D+00 0.848600531633D-07 0.000000000000D+00  6 -1 22 9900012 -11 -2 21 0 0.10248669D-01 0.67065820D-02 0.26526301D+04 0.26526301D+04 0.26526301D+04 0.12740890D+01  1  2  2  1  6  1       -1 0.884694195878D-04 0.100000000000D+01
-.122396825551D-08 0.000000000000D+00 -.438209139082D-09 0.848600531633D-07 0.000000000000D+00  6 -1 22 9900012 -11 -2 21 2 0.10248669D-01 0.67065820D-02 0.26526301D+04 0.26526301D+04 0.26526301D+04 0.12740890D+01  1  2  3  1  6  1       -1 -.770215804151D-06 0.100000000000D+01
-.250369284043D-07 0.000000000000D+00 0.000000000000D+00 0.848600531633D-07 0.000000000000D+00  6 -1 22 9900012 -11 -2 21 2 0.10248669D-01 0.67065820D-02 0.26526301D+04 0.26526301D+04 0.26526301D+04 0.12740890D+01  1  2 15  1  6  1       -1 -.157551781736D-04 0.100000000000D+01
0.519459921997D-06 0.000000000000D+00 0.000000000000D+00 0.848600531633D-07 0.000000000000D+00  6 -1 22 9900012 -11 -2 21 2 0.14794351D-01 0.67065820D-02 0.32982396D+04 0.32982396D+04 0.32982396D+04 0.12627142D+01  1  2 12  1  6  1       -1 0.191844328335D-03 0.100000000000D+01
-.370606692443D-06 0.000000000000D+00 0.000000000000D+00 0.848600531633D-07 0.000000000000D+00  6 -1 22 9900012 -11 -2 21 2 0.10248669D-01 0.67065820D-02 0.26526301D+04 0.26526301D+04 0.26526301D+04 0.12740890D+01  1  2  4  1  6  1       -1 -.233214489313D-03 0.100000000000D+01
-.631682010028D-06 0.000000000000D+00 -.953932309057D-07 0.848600531633D-07 0.000000000000D+00  6 -1 22 9900012 -11 -2 21 2 0.14734043D-01 0.67065820D-02 0.26526301D+04 0.26526301D+04 0.26526301D+04 0.12740890D+01  1  2  5  1  6  1       -1 -.233135654096D-03 0.100000000000D+01
0.630281988373D-06 0.000000000000D+00 0.894354090624D-07 0.848600531633D-07 0.000000000000D+00  6 -1 22 9900012 -11 -2 21 2 0.10248669D-01 0.67065820D-02 0.26526301D+04 0.26526301D+04 0.26526301D+04 0.12740890D+01  1  2  6  1  6  1       -1 0.396622335859D-03 0.100000000000D+01
0.232270802186D-07 0.000000000000D+00 0.000000000000D+00 0.848600531633D-07 0.000000000000D+00  6 21 22 9900012 -11 1 -2 2 0.14794351D-01 0.67065820D-02 0.32982396D+04 0.32982396D+04 0.32982396D+04 0.12627142D+01  3  4 12  3  5  1       -1 0.115221665347D-03 0.100000000000D+01
-.251732488140D-07 0.000000000000D+00 -.423099159166D-08 0.848600531633D-07 0.000000000000D+00  6 21 22 9900012 -11 1 -2 2 0.14734043D-01 0.67065820D-02 0.26526301D+04 0.26526301D+04 0.26526301D+04 0.12740890D+01  3  4  5  3  5  1       -1 -.125255686745D-03 0.100000000000D+01
  </mgrwgt>
  </event>
  <event>
  6     66 0.61978431E-06 0.90724225E+02 0.78161638E-02 0.11329874E+00
       -1 -1    0    0    0  501 0.00000000E+00 0.00000000E+00 0.24186055E+03 0.24186055E+03 0.00000000E+00 0.0000E+00 0.9000E+01
       22 -1    0    0    0    0 0.00000000E+00 0.00000000E+00 -.19454692E+03 0.19454692E+03 0.00000000E+00 0.0000E+00 0.9000E+01
       24  2    1    2    0    0 -.29764291E+02 -.10554524E+03 -.15522702E+03 0.20608503E+03 0.79686255E+02 0.0000E+00 0.0000E+00
  9900012  1    3    3    0    0 -.86864773E+00 -.70002567E+02 -.12290695E+03 0.15002410E+03 0.50000000E+02 0.0000E+00 0.9000E+01
      -11  1    3    3    0    0 -.28895643E+02 -.35542677E+02 -.32320072E+02 0.56060923E+02 0.00000000E+00 0.0000E+00 0.9000E+01
       -2  1    1    2    0  501 0.29764291E+02 0.10554524E+03 0.20254065E+03 0.23032244E+03 0.00000000E+00 0.0000E+00 0.9000E+01
#aMCatNLO 1  0  0  5  1 0.25021464D+02 0.00000000D+00  -5  6  0 0.00000000D+00 0.00000000D+00 0.00000000D+00 0.00000000D+00 0.00000000D+00
  <mgrwgt>
 0.5673163084D-04    5    2    0
 0.216917551414870D+03 0.000000000000000D+00 0.000000000000000D+00 0.216917551414870D+03
 0.216917551414870D+03 -.000000000000000D+00 -.000000000000000D+00 -.216917551414870D+03
 0.164317760755465D+03 -.868647726924589D+00 -.700025668694366D+02 -.139997187766422D+03
 0.599181234196659D+02 -.288956432369823D+02 -.355426766488232D+02 -.386256579580536D+02
 0.209599218654610D+03 0.297642909639069D+02 0.105545243518260D+03 0.178622845724476D+03
 0.000000000000000D+00 0.000000000000000D+00 0.000000000000000D+00 -.000000000000000D+00
 0.216917551414870D+03 0.000000000000000D+00 0.000000000000000D+00 0.216917551414870D+03
 0.216917551414870D+03 -.000000000000000D+00 -.000000000000000D+00 -.216917551414870D+03
 0.157039031022585D+03 0.232659429288937D+00 -.660972921853558D+02 -.133387972095935D+03
 0.573357011502775D+02 -.284938080201885D+02 -.341177545546890D+02 -.362141457865373D+02
 0.202015373314116D+03 0.130722352537736D+02 0.961744372961645D+02 0.177171683210038D+03
 0.174449973427620D+02 0.151889133371260D+02 0.404060944388031D+01 -.756956532756508D+01
0.304466758326D-05 0.000000000000D+00 0.000000000000D+00 0.724660292435D-05 0.000000000000D+00  6 -1 22 9900012 -11 -2 21 0 0.37209315D-01 0.29930295D-01 0.14580331D+05 0.14580331D+05 0.14580331D+05 0.11927122D+01  1  2  2  2  6  5       -2 0.214852024218D-04 0.100000000000D+01
0.117749859370D-07 0.000000000000D+00 -.584616259955D-08 0.724660292435D-05 0.000000000000D+00  6 -1 22 9900012 -11 -2 21 2 0.37209315D-01 0.29930295D-01 0.14580331D+05 0.14580331D+05 0.14580331D+05 0.11927122D+01  1  2  3  2  6  5       -2 0.118203761934D-06 0.100000000000D+01
-.415522836987D-06 0.000000000000D+00 0.000000000000D+00 0.724660292435D-05 0.000000000000D+00  6 -1 22 9900012 -11 -2 21 2 0.37209315D-01 0.29930295D-01 0.14580331D+05 0.14580331D+05 0.14580331D+05 0.11927122D+01  1  2 15  2  6  5       -2 -.417124595852D-05 0.100000000000D+01
0.416859905740D-05 0.000000000000D+00 0.000000000000D+00 0.724660292435D-05 0.000000000000D+00  6 -1 22 9900012 -11 -2 21 2 0.37209315D-01 0.29930295D-01 0.14412737D+05 0.14412737D+05 0.14412737D+05 0.11932116D+01  1  2 12  2  6  5       -2 0.418547460752D-04 0.100000000000D+01
-.254546320341D-06 0.000000000000D+00 0.000000000000D+00 0.724660292435D-05 0.000000000000D+00  6 -1 22 9900012 -11 -2 21 2 0.37209315D-01 0.29930295D-01 0.14580331D+05 0.14580331D+05 0.14580331D+05 0.11927122D+01  1  2  4  2  6  5       -2 -.255527546375D-05 0.100000000000D+01
  </mgrwgt>
  </event>
  <event>
  7     66 -.61978431E-06 0.74108234E+02 0.78161638E-02 0.11537096E+00
       -1 -1    0    0    0  501 0.00000000E+00 0.00000000E+00 0.24734160E+03 0.24734160E+03 0.00000000E+00 0.0000E+00 0.9000E+01
       22 -1    0    0    0    0 0.00000000E+00 0.00000000E+00 -.12037546E+03 0.12037546E+03 0.00000000E+00 0.0000E+00 0.9000E+01
       24  2    1    2    0    0 -.31112444E+02 -.84702930E+02 -.64857360E+02 0.14027641E+03 0.85606218E+02 0.0000E+00 0.0000E+00
  9900012  1    3    3    0    0 -.49874772E+01 -.67476729E+02 -.68873196E+02 0.10872673E+03 0.50000000E+02 0.0000E+00 0.9000E+01
      -11  1    3    3    0    0 -.26124966E+02 -.17226202E+02 0.40158353E+01 0.31549688E+02 0.00000000E+00 0.0000E+00 0.9000E+01
       -2  1    1    2    0  502 0.16856483E+02 0.79874643E+02 0.19557524E+03 0.21192870E+03 0.00000000E+00 0.0000E+00 0.9000E+01
       21  1    1    2  502  501 0.14255960E+02 0.48282876E+01 -.37517452E+01 0.15511942E+02 0.00000000E+00 0.0000E+00 0.9000E+01
#aMCatNLO 2  0  0  5  1 0.25182378D+02 0.00000000D+00  -5  6  0 0.00000000D+00 0.00000000D+00 0.00000000D+00 0.00000000D+00 0.00000000D+00
  <mgrwgt>
 -.2934181211D-04    2    2    0
 0.172551031950195D+03 0.000000000000000D+00 0.000000000000000D+00 0.172551031950195D+03
 0.172551031950195D+03 -.000000000000000D+00 -.000000000000000D+00 -.172551031950195D+03
 0.149645942203261D+03 -.687672820943041D+01 -.726201721036940D+02 -.120718388121550D+03
 0.335228538405869D+02 -.265515049785816D+02 -.183874434859726D+02 -.898338661306946D+01
 0.161933267856542D+03 0.334282331880120D+02 0.910076155896666D+02 0.129701774734620D+03
 0.000000000000000D+00 0.000000000000000D+00 0.000000000000000D+00 -.000000000000000D+00
 0.172551031950195D+03 0.000000000000000D+00 0.000000000000000D+00 0.172551031950195D+03
 0.172551031950195D+03 -.000000000000000D+00 -.000000000000000D+00 -.172551031950195D+03
 0.141190795574742D+03 -.498747717357323D+01 -.674767285044873D+02 -.113388081105571D+03
 0.321397192199921D+02 -.261249664156768D+02 -.172262018089543D+02 -.732841405468293D+01
 0.153862788051462D+03 0.168564832782691D+02 0.798746426970032D+02 0.130421079479065D+03
 0.179087610541944D+02 0.142559603109809D+02 0.482828761643828D+01 -.970458431881129D+01
-.158680461237D-05 0.000000000000D+00 0.000000000000D+00 0.126625276819D-06 0.000000000000D+00  6 -1 22 9900012 -11 -2 21 2 0.38052553D-01 0.18519302D-01 0.11247574D+05 0.11247574D+05 0.11247574D+05 0.12040740D+01  1  2 13  2  6  5       -2 -.318775556153D-04 0.100000000000D+01
0.126224530326D-06 0.000000000000D+00 0.000000000000D+00 0.126625276819D-06 0.145430711641D-09  6 -1 22 9900012 -11 -2 21 2 0.38052553D-01 0.18519302D-01 0.11247574D+05 0.11247574D+05 0.11247574D+05 0.12040740D+01  1  2  1  2  6  5       -2 0.253574350245D-05 0.100000000000D+01
  </mgrwgt>
  </event>
  <event>
  7     66 -.61978431E-06 0.95955367E+02 0.78161638E-02 0.11374038E+00
       -1 -1    0    0    0  501 0.00000000E+00 0.00000000E+00 0.47687422E+02 0.47687422E+02 0.00000000E+00 0.0000E+00 0.9000E+01
       22 -1    0    0    0    0 -.00000000E+00 -.00000000E+00 -.16937223E+04 0.16937223E+04 0.00000000E+00 0.0000E+00 0.9000E+01
       24  2    1    2    0    0 -.84012654E+02 -.26525348E+02 -.16120053E+04 0.16163268E+04 0.78673160E+02 0.0000E+00 0.0000E+00
  9900012  1    3    3    0    0 -.45464576E+02 -.16425297E+01 -.11687169E+04 0.11706703E+04 0.50000000E+02 0.0000E+00 0.9000E+01
      -11  1    3    3    0    0 -.38548078E+02 -.24882819E+02 -.44328836E+03 0.44565646E+03 0.00000000E+00 0.0000E+00 0.9000E+01
       -2  1    1    2    0  502 0.10012232E+03 0.28364158E+02 -.27787472E+02 0.10770862E+03 0.00000000E+00 0.0000E+00 0.9000E+01
       21  1    1    2  502  501 -.16109664E+02 -.18388092E+01 -.62420881E+01 0.17374296E+02 0.00000000E+00 0.0000E+00 0.9000E+01
#aMCatNLO 2  0  0  5  1 0.26981669D+02 0.00000000D+00  -5  6  0 0.00000000D+00 0.00000000D+00 0.00000000D+00 0.00000000D+00 0.00000000D+00
  <mgrwgt>
 -.5822042808D-04    2    2    0
 0.284199313571490D+03 0.000000000000000D+00 0.000000000000000D+00 0.284199313571490D+03
 0.284199313571490D+03 -.000000000000000D+00 -.000000000000000D+00 -.284199313571490D+03
 0.206309545699419D+03 -.468152280159033D+02 -.206897144552804D+01 -.194596203533566D+03
 0.833344205143856D+02 -.390936679283973D+02 -.250550780525619D+02 -.691993774115973D+02
 0.278754660929176D+03 0.859088959443006D+02 0.271240494980899D+02 0.263795580945164D+03
 0.000000000000000D+00 0.000000000000000D+00 0.000000000000000D+00 0.000000000000000D+00
 0.284199313571490D+03 0.000000000000000D+00 0.000000000000000D+00 0.284199313571490D+03
 0.284199313571490D+03 -.000000000000000D+00 -.000000000000000D+00 -.284199313571490D+03
 0.202090287058650D+03 -.454645764761254D+02 -.164252970376292D+01 -.190448834350505D+03
 0.816370517106479D+02 -.385480776633979D+02 -.248828186236535D+02 -.675240642867860D+02
 0.249518012869408D+03 0.100122318524500D+03 0.283641575449474D+02 0.226782350826386D+03
 0.351532755042744D+02 -.161096643849768D+02 -.183880921753104D+01 0.311905478109050D+02
-.372685388959D-04 0.000000000000D+00 0.000000000000D+00 0.162254284773D-04 0.000000000000D+00  6 -1 22 9900012 -11 -2 21 2 0.73365265D-02 0.26057266D+00 0.13660698D+05 0.13660698D+05 0.13660698D+05 0.11955349D+01  1  2 13  2  6  5       -2 -.633193762522D-04 0.100000000000D+01
0.300114056145D-05 0.000000000000D+00 0.000000000000D+00 0.162254284773D-04 0.609653745137D-07  6 -1 22 9900012 -11 -2 21 2 0.73365265D-02 0.26057266D+00 0.13660698D+05 0.13660698D+05 0.13660698D+05 0.11955349D+01  1  2  1  2  6  5       -2 0.509894817521D-05 0.100000000000D+01
  </mgrwgt>
  </event>
  <event>
  7     66 -.61978431E-06 0.39323272E+02 0.78161638E-02 0.12358063E+00
       -3 -1    0    0    0  502 0.00000000E+00 0.00000000E+00 0.65838756E+02 0.65838756E+02 0.00000000E+00 0.0000E+00 0.9000E+01
       22 -1    0    0    0    0 0.00000000E+00 0.00000000E+00 -.11466320E+03 0.11466320E+03 0.00000000E+00 0.0000E+00 0.9000E+01
       24  2    1    2    0    0 0.42649244E+02 0.43412134E+00 -.82797206E+02 0.12267661E+03 0.79843766E+02 0.0000E+00 0.0000E+00
  9900012  1    3    3    0    0 0.19198870E+02 -.20258239E+02 -.40787050E+02 0.70303459E+02 0.50000000E+02 0.0000E+00 0.9000E+01
      -11  1    3    3    0    0 0.23450374E+02 0.20692361E+02 -.42010156E+02 0.52373152E+02 0.00000000E+00 0.0000E+00 0.9000E+01
       -4  1    1    2    0  501 -.41478447E+02 -.52722997E+01 0.30141822E+02 0.51544041E+02 0.00000000E+00 0.0000E+00 0.9000E+01
       21  1    1    2  501  502 -.11707963E+01 0.48381784E+01 0.38309377E+01 0.62813070E+01 0.00000000E+00 0.0000E+00 0.9000E+01
#aMCatNLO 2  0  0  1  5 0.53128490D+01 0.00000000D+00  -5  6  0 0.00000000D+00 0.00000000D+00 0.00000000D+00 0.00000000D+00 0.00000000D+00
  <mgrwgt>
 -.1945553718D-04    3    2    0
 0.829991975256112D+02 0.000000000000000D+00 0.000000000000000D+00 0.829991975256112D+02
 0.829991975256112D+02 0.000000000000000D+00 0.000000000000000D+00 -.829991975256112D+02
 0.601220610819985D+02 0.187724579946025D+02 -.184961421138082D+02 -.204975553784898D+02
 0.420792105939280D+02 0.231552624568773D+02 0.219118730943673D+02 -.274656804441037D+02
 0.637971233752958D+02 -.419277204514798D+02 -.341573098055905D+01 0.479632358225935D+02
 0.000000000000000D+00 -.000000000000000D+00 0.000000000000000D+00 0.000000000000000D+00
 0.899437879886937D+02 0.000000000000000D+00 0.000000000000000D+00 0.899437879886937D+02
 0.839333407232971D+02 0.000000000000000D+00 0.000000000000000D+00 -.839333407232971D+02
 0.608205774083252D+02 0.191988698766379D+02 -.202582391941588D+02 -.204975553784898D+02
 0.416227991963678D+02 0.234503736928346D+02 0.206923605311222D+02 -.274656804441037D+02
 0.636296371383591D+02 -.414784472633755D+02 -.527229972639143D+01 0.479632358225935D+02
 0.780411496893860D+01 -.117079630609699D+01 0.483817838942796D+01 0.601044726539659D+01
-.226514919400D-06 0.000000000000D+00 0.000000000000D+00 0.681053567521D-06 0.000000000000D+00  6 -3 22 9900012 -11 -4 21 2 0.10243040D-01 0.17444161D-01 0.45783486D+04 0.45783486D+04 0.45783486D+04 0.12461782D+01  1  2 13  1  6  1       -3 -.309162998896D-04 0.100000000000D+01
-.173365080821D-08 0.000000000000D+00 0.000000000000D+00 0.681053567521D-06 0.000000000000D+00  6 -3 22 9900012 -11 -4 21 2 0.93469728D-02 0.17444161D-01 0.42553473D+04 0.42553473D+04 0.42553473D+04 0.12498101D+01  1  2  8  1  6  1       -3 -.272888218244D-06 0.100000000000D+01
0.858446292625D-07 0.000000000000D+00 0.000000000000D+00 0.681053567521D-06 0.135101440860D-06  6 -3 22 9900012 -11 -4 21 2 0.10129039D-01 0.17640493D-01 0.45783486D+04 0.45783486D+04 0.45783486D+04 0.12461782D+01  1  2  1  1  6  1       -3 0.117336509316D-04 0.100000000000D+01
  </mgrwgt>
  </event>
  <event>
  6     66 0.61978431E-06 0.64591254E+02 0.78161638E-02 0.12192394E+00
       -1 -1    0    0    0  501 0.00000000E+00 0.00000000E+00 0.61703418E+02 0.61703418E+02 0.00000000E+00 0.0000E+00 0.9000E+01
       22 -1    0    0    0    0 -.00000000E+00 -.00000000E+00 -.16087553E+03 0.16087553E+03 0.00000000E+00 0.0000E+00 0.9000E+01
       24  2    1    2    0    0 -.63711892E+02 0.10621910E+02 -.11791203E+03 0.15532410E+03 0.77783671E+02 0.0000E+00 0.0000E+00
  9900012  1    3    3    0    0 -.23412013E+02 0.79614162E+01 -.43801278E+02 0.70922905E+02 0.50000000E+02 0.0000E+00 0.9000E+01
      -11  1    3    3    0    0 -.40299879E+02 0.26604935E+01 -.74110748E+02 0.84401193E+02 0.00000000E+00 0.0000E+00 0.9000E+01
       -2  1    1    2    0  501 0.63711892E+02 -.10621910E+02 0.18739916E+02 0.67254848E+02 0.00000000E+00 0.0000E+00 0.9000E+01
#aMCatNLO 1  0  0  5  1 0.18725900D+02 0.00000000D+00  -5  6  0 0.00000000D+00 0.00000000D+00 0.00000000D+00 0.00000000D+00 0.00000000D+00
  <mgrwgt>
 0.3727612010D-04    5    2    0
 0.996321735030348D+02 0.000000000000000D+00 0.000000000000000D+00 0.996321735030348D+02
 0.996321735030348D+02 -.000000000000000D+00 -.000000000000000D+00 -.996321735030348D+02
 0.574216135815958D+02 -.234120131964611D+02 0.796141616878115D+01 -.136284700898637D+02
 0.573921505658410D+02 -.402998787157126D+02 0.266049348478501D+01 -.407762246473166D+02
 0.844505828586328D+02 0.637118919121737D+02 -.106219096535662D+02 0.544046947371803D+02
 0.000000000000000D+00 0.000000000000000D+00 0.000000000000000D+00 -.000000000000000D+00
 0.996321735030348D+02 0.000000000000000D+00 0.000000000000000D+00 0.996321735030348D+02
 0.996321735030348D+02 -.000000000000000D+00 -.000000000000000D+00 -.996321735030348D+02
 0.550864646010542D+02 -.194150905408646D+02 0.729505781611190D+01 -.102154281845064D+02
 0.522664634508339D+02 -.364041851279775D+02 0.201101182469019D+01 -.374496240070078D+02
 0.793571582941811D+02 0.520458212288736D+02 -.726776784338804D+01 0.594640279136425D+02
 0.125542606600004D+02 0.377345443996848D+01 -.203830179741405D+01 -.117989757221284D+02
0.306397881156D-06 0.000000000000D+00 0.000000000000D+00 0.183201770698D-06 0.000000000000D+00  6 -1 22 9900012 -11 -2 21 0 0.94928336D-02 0.24750081D-01 0.64609232D+04 0.64609232D+04 0.64609232D+04 0.12295093D+01  1  2  2  2  6  5       -2 0.225582231576D-04 0.100000000000D+01
-.184024207469D-08 0.000000000000D+00 -.588324270027D-09 0.183201770698D-06 0.000000000000D+00  6 -1 22 9900012 -11 -2 21 2 0.94928336D-02 0.24750081D-01 0.64609232D+04 0.64609232D+04 0.64609232D+04 0.12295093D+01  1  2  3  2  6  5       -2 -.204813087056D-06 0.100000000000D+01
-.404082402637D-07 0.000000000000D+00 0.000000000000D+00 0.183201770698D-06 0.000000000000D+00  6 -1 22 9900012 -11 -2 21 2 0.94928336D-02 0.24750081D-01 0.64609232D+04 0.64609232D+04 0.64609232D+04 0.12295093D+01  1  2 15  2  6  5       -2 -.449730855778D-05 0.100000000000D+01
0.200428754168D-06 0.000000000000D+00 0.000000000000D+00 0.183201770698D-06 0.000000000000D+00  6 -1 22 9900012 -11 -2 21 2 0.94928336D-02 0.24750081D-01 0.54339209D+04 0.54339209D+04 0.54339209D+04 0.12377970D+01  1  2 12  2  6  5       -2 0.222310304989D-04 0.100000000000D+01
-.252568938120D-07 0.000000000000D+00 0.000000000000D+00 0.183201770698D-06 0.000000000000D+00  6 -1 22 9900012 -11 -2 21 2 0.94928336D-02 0.24750081D-01 0.64609232D+04 0.64609232D+04 0.64609232D+04 0.12295093D+01  1  2  4  2  6  5       -2 -.281101191099D-05 0.100000000000D+01
  </mgrwgt>
  </event>
  <event>
  6     66 -.61978431E-06 0.20352625E+02 0.78161638E-02 0.12523002E+00
       -3 -1    0    0    0  501 0.00000000E+00 0.00000000E+00 0.11189085E+03 0.11189085E+03 0.00000000E+00 0.0000E+00 0.9000E+01
       22 -1    0    0    0    0 0.00000000E+00 0.00000000E+00 -.46457512E+02 0.46457512E+02 0.00000000E+00 0.0000E+00 0.9000E+01
       24  2    1    2    0    0 0.29719855E+02 -.23490551E+02 0.72857403E+01 0.88949380E+02 0.80148826E+02 0.0000E+00 0.0000E+00
  9900012  1    3    3    0    0 0.23210649E+02 0.69508900E+01 0.13564162E+02 0.57192968E+02 0.50000000E+02 0.0000E+00 0.9000E+01
      -11  1    3    3    0    0 0.65092059E+01 -.30441441E+02 -.62784220E+01 0.31756412E+02 0.00000000E+00 0.0000E+00 0.9000E+01
       -4  1    1    2    0  501 -.29719855E+02 0.23490551E+02 0.58147599E+02 0.69398984E+02 0.00000000E+00 0.0000E+00 0.9000E+01
#aMCatNLO 1  0  0  5  1 0.65420257D+00 0.00000000D+00  -5  6  0 0.00000000D+00 0.00000000D+00 0.00000000D+00 0.00000000D+00 0.00000000D+00
  <mgrwgt>
 -.2991058620D-04    8    2    0
 0.720983399108444D+02 0.000000000000000D+00 0.000000000000000D+00 0.720983399108444D+02
 0.720983399108444D+02 -.000000000000000D+00 -.000000000000000D+00 -.720983399108444D+02
 0.566508500004040D+02 0.232106488082049D+02 0.695089004224370D+01 -.110575637140869D+02
 0.377220470770571D+02 0.650920586457646D+01 -.304414410931602D+02 -.213049698161705D+02
 0.498237827442276D+02 -.297198546727813D+02 0.234905510509165D+02 0.323625335302574D+02
 0.000000000000000D+00 0.000000000000000D+00 0.000000000000000D+00 0.000000000000000D+00
 0.720983399108444D+02 0.000000000000000D+00 0.000000000000000D+00 0.720983399108444D+02
 0.720983399108444D+02 -.000000000000000D+00 -.000000000000000D+00 -.720983399108444D+02
 0.566453861889943D+02 0.232002424523292D+02 0.695911521819568D+01 -.110462320287654D+02
 0.377121713171328D+02 0.650227716731154D+01 -.304359646559902D+02 -.212974250216207D+02
 0.444305152505918D+02 -.267100365319946D+02 0.213381466613306D+02 0.283783038772957D+02
 0.540860706496981D+01 -.299248308764623D+01 0.213870277646390D+01 0.396535317309041D+01
0.138217427915D-07 0.000000000000D+00 0.000000000000D+00 0.362922808839D-06 0.000000000000D+00  6 -3 22 9900012 -11 -4 21 0 0.17213977D-01 0.71473096D-02 0.38796204D+04 0.38796204D+04 0.38796204D+04 0.12544445D+01  1  2  2  2  6  5       -4 0.180641998968D-05 0.100000000000D+01
0.131205652860D-09 0.000000000000D+00 -.265395658338D-10 0.362922808839D-06 0.000000000000D+00  6 -3 22 9900012 -11 -4 21 2 0.17213977D-01 0.71473096D-02 0.38796204D+04 0.38796204D+04 0.38796204D+04 0.12544445D+01  1  2  3  2  6  5       -4 0.269843148698D-07 0.100000000000D+01
-.148077089413D-08 0.000000000000D+00 0.000000000000D+00 0.362922808839D-06 0.000000000000D+00  6 -3 22 9900012 -11 -4 21 2 0.17213977D-01 0.71473096D-02 0.38796204D+04 0.38796204D+04 0.38796204D+04 0.12544445D+01  1  2 15  2  6  5       -4 -.304541665594D-06 0.100000000000D+01
0.127293951822D-12 0.000000000000D+00 0.000000000000D+00 0.362922808839D-06 0.000000000000D+00  6 -3 22 9900012 -11 -4 21 2 0.17213977D-01 0.71473096D-02 0.38779104D+04 0.38779104D+04 0.38779104D+04 0.12544668D+01  1  2 12  2  6  5       -4 0.261794112424D-10 0.100000000000D+01
-.288280315981D-05 0.000000000000D+00 0.000000000000D+00 0.362922808839D-06 0.000000000000D+00  6 -3 22 9900012 -11 -4 21 2 0.17213977D-01 0.71473096D-02 0.38796204D+04 0.38796204D+04 0.38796204D+04 0.12544445D+01  1  2  4  2  6  5       -4 -.592889608615D-03 0.100000000000D+01
-.190730809530D-05 0.000000000000D+00 0.000000000000D+00 0.362922808839D-06 0.000000000000D+00  6 -3 22 9900012 -11 -4 21 2 0.17213977D-01 0.71473096D-02 0.38796204D+04 0.38796204D+04 0.38796204D+04 0.12544445D+01  1  2  5  2  6  5       -4 -.392265127878D-03 0.100000000000D+01
0.212551959361D-05 0.000000000000D+00 -.000000000000D+00 0.362922808839D-06 0.000000000000D+00  6 -3 22 9900012 -11 -4 21 2 0.17213977D-01 0.71473096D-02 0.38796204D+04 0.38796204D+04 0.38796204D+04 0.12544445D+01  1  2  6  2  6  5       -4 0.437143436476D-03 0.100000000000D+01
0.251176271287D-05 0.000000000000D+00 0.000000000000D+00 0.362922808839D-06 0.751608255927D-05  6 -3 22 9900012 -11 -4 21 2 0.17213977D-01 0.71473096D-02 0.38779104D+04 0.38779104D+04 0.38779104D+04 0.12544668D+01  1  2 11  2  6  5       -4 0.516571824995D-03 0.100000000000D+01
  </mgrwgt>
  </event>
  <event>
  6     66 0.61978431E-06 0.23612590E+02 0.78161638E-02 0.13090690E+00
       -1 -1    0    0    0  501 0.00000000E+00 0.00000000E+00 0.47348188E+02 0.47348188E+02 0.00000000E+00 0.0000E+00 0.9000E+01
       22 -1    0    0    0    0 -.00000000E+00 -.00000000E+00 -.90772524E+03 0.90772524E+03 0.00000000E+00 0.0000E+00 0.9000E+01
       24  2    1    2    0    0 -.24287841E+01 -.23487346E+02 -.90233973E+03 0.90692346E+03 0.87952377E+02 0.0000E+00 0.0000E+00
  9900012  1    3    3    0    0 -.10201466E+02 -.47610430E+01 -.83563885E+03 0.83720907E+03 0.50000000E+02 0.0000E+00 0.9000E+01
      -11  1    3    3    0    0 0.77726816E+01 -.18726303E+02 -.66700878E+02 0.69714390E+02 0.00000000E+00 0.0000E+00 0.9000E+01
       -2  1    1    2    0  501 0.24287841E+01 0.23487346E+02 0.41962670E+02 0.48149975E+02 0.00000000E+00 0.0000E+00 0.9000E+01
#aMCatNLO 1  0  0  5  1 0.80455490D+01 0.00000000D+00  -5  6  0 0.00000000D+00 0.00000000D+00 0.00000000D+00 0.00000000D+00 0.00000000D+00
  <mgrwgt>
 0.9726161824D-03    7    2    0
 0.207314122403700D+03 0.000000000000000D+00 0.000000000000000D+00 0.207314122403700D+03
 0.207314122403700D+03 -.000000000000000D+00 -.000000000000000D+00 -.207314122403700D+03
 0.194467322562739D+03 -.102014657276710D+02 -.476104297900496D+01 -.187592116336161D+03
 0.221751809672913D+02 0.777268161355409D+01 -.187263030071266D+02 -.898051486005768D+01
 0.197985741277370D+03 0.242878411411687D+01 0.234873459861316D+02 0.196572631196219D+03
 0.000000000000000D+00 0.000000000000000D+00 0.000000000000000D+00 0.000000000000000D+00
 0.207314122403700D+03 0.000000000000000D+00 0.000000000000000D+00 0.207314122403700D+03
 0.207314122403700D+03 -.000000000000000D+00 -.000000000000000D+00 -.207314122403700D+03
 0.194165215279166D+03 -.101976102248008D+02 -.472375867311056D+01 -.187280072816373D+03
 0.221573496902344D+02 0.777312142284063D+01 -.187220498695914D+02 -.894491907854053D+01
 0.114537905113533D+03 -.658535064157340D+01 0.126141475974011D+02 0.113650552770830D+03
 0.837677747244679D+02 0.900983944353357D+01 0.108316609453009D+02 0.825744391240836D+02
0.572019177299D-05 0.000000000000D+00 0.000000000000D+00 0.792629746504D-06 0.000000000000D+00  6 -1 22 9900012 -11 -2 21 0 0.72843366D-02 0.13965004D+00 0.22628871D+04 0.22628871D+04 0.22628871D+04 0.12825851D+01  1  2  2  2  6  5       -2 0.275686862297D-04 0.100000000000D+01
0.536092028013D-06 0.000000000000D+00 -.109835212847D-07 0.792629746504D-06 0.000000000000D+00  6 -1 22 9900012 -11 -2 21 2 0.72843366D-02 0.13965004D+00 0.22628871D+04 0.22628871D+04 0.22628871D+04 0.12825851D+01  1  2  3  2  6  5       -2 0.425027688705D-05 0.100000000000D+01
-.727094760628D-06 0.000000000000D+00 0.000000000000D+00 0.792629746504D-06 0.000000000000D+00  6 -1 22 9900012 -11 -2 21 2 0.72843366D-02 0.13965004D+00 0.22628871D+04 0.22628871D+04 0.22628871D+04 0.12825851D+01  1  2 15  2  6  5       -2 -.576459617810D-05 0.100000000000D+01
0.100018757615D-03 0.000000000000D+00 0.000000000000D+00 0.792629746504D-06 0.000000000000D+00  6 -1 22 9900012 -11 -2 21 2 0.72843366D-02 0.13965004D+00 0.24918970D+04 0.24918970D+04 0.24918970D+04 0.12774105D+01  1  2 12  2  6  5       -2 0.793726086674D-03 0.100000000000D+01
-.308457989772D-04 0.000000000000D+00 0.000000000000D+00 0.792629746504D-06 0.000000000000D+00  6 -1 22 9900012 -11 -2 21 2 0.72843366D-02 0.13965004D+00 0.22628871D+04 0.22628871D+04 0.22628871D+04 0.12825851D+01  1  2  4  2  6  5       -2 -.244553508735D-03 0.100000000000D+01
-.100129125657D-03 0.000000000000D+00 0.000000000000D+00 0.792629746504D-06 0.000000000000D+00  6 -1 22 9900012 -11 -2 21 2 0.72843366D-02 0.13965004D+00 0.22628871D+04 0.22628871D+04 0.22628871D+04 0.12825851D+01  1  2  5  2  6  5       -2 -.793849724045D-03 0.100000000000D+01
0.150252260674D-03 0.000000000000D+00 -.000000000000D+00 0.792629746504D-06 0.000000000000D+00  6 -1 22 9900012 -11 -2 21 2 0.72843366D-02 0.13965004D+00 0.22628871D+04 0.22628871D+04 0.22628871D+04 0.12825851D+01  1  2  6  2  6  5       -2 0.119123896160D-02 0.100000000000D+01
  </mgrwgt>
  </event>
  <event>
  6     66 0.61978431E-06 0.36453209E+02 0.78161638E-02 0.11760807E+00
       -3 -1    0    0    0  501 0.00000000E+00 0.00000000E+00 0.30194895E+02 0.30194895E+02 0.00000000E+00 0.0000E+00 0.9000E+01
       22 -1    0    0    0    0 0.00000000E+00 0.00000000E+00 -.61261958E+03 0.61261958E+03 0.00000000E+00 0.0000E+00 0.9000E+01
       24  2    1    2    0    0 -.45667441E+02 0.54305623E+02 -.55691639E+03 0.56741362E+03 0.82266256E+02 0.0000E+00 0.0000E+00
  9900012  1    3    3    0    0 -.41477569E+02 0.12682812E+02 -.31117194E+03 0.31813397E+03 0.50000000E+02 0.0000E+00 0.9000E+01
      -11  1    3    3    0    0 -.41898718E+01 0.41622811E+02 -.24574445E+03 0.24927966E+03 0.00000000E+00 0.0000E+00 0.9000E+01
       -4  1    1    2    0  501 0.45667441E+02 -.54305623E+02 -.25508299E+02 0.75400856E+02 0.00000000E+00 0.0000E+00 0.9000E+01
#aMCatNLO 1  0  0  1  5 0.15671738D+02 0.00000000D+00  -5  6  0 0.00000000D+00 0.00000000D+00 0.00000000D+00 0.00000000D+00 0.00000000D+00
  <mgrwgt>
 0.6089810968D-04    6    4    0
 0.136007292965037D+03 0.000000000000000D+00 0.000000000000000D+00 0.136007292965037D+03
 0.136007292965037D+03 0.000000000000000D+00 0.000000000000000D+00 -.136007292965037D+03
 0.855354773320199D+02 -.414775688539668D+02 0.126828121683074D+02 -.541763365306697D+02
 0.629118414777494D+02 -.418987182519261D+01 0.416228105843641D+02 -.469881518179645D+02
 0.123567267120306D+03 0.456674406791594D+02 -.543056227526715D+02 0.101164488348634D+03
 0.000000000000000D+00 0.000000000000000D+00 0.000000000000000D+00 -.000000000000000D+00
 0.138026629241586D+03 0.000000000000000D+00 0.000000000000000D+00 0.138026629241586D+03
 0.143080825305648D+03 0.000000000000000D+00 0.000000000000000D+00 -.143080825305648D+03
 0.861556365121815D+02 -.431863968150588D+02 0.110748992350743D+02 -.541763365306697D+02
 0.622390107227935D+02 -.543548827444488D+01 0.404507541549265D+02 -.469881518179645D+02
 0.123721564178364D+03 0.432061946663204D+02 -.566215196047943D+02 0.101164488348634D+03
 0.899124313389529D+01 0.541569042318330D+01 0.509586621479352D+01 -.505419606406259D+01
 0.136007292965037D+03 0.000000000000000D+00 0.000000000000000D+00 0.136007292965037D+03
 0.136007292965037D+03 0.000000000000000D+00 0.000000000000000D+00 -.136007292965037D+03
 0.855354773320199D+02 -.414775688539668D+02 0.126828121683074D+02 -.541763365306697D+02
 0.629118414777494D+02 -.418987182519261D+01 0.416228105843641D+02 -.469881518179645D+02
 0.000000000000000D+00 0.000000000000000D+00 0.000000000000000D+00 -.000000000000000D+00
 0.123567267120306D+03 0.456674406791594D+02 -.543056227526715D+02 0.101164488348634D+03
 0.138026629241586D+03 0.000000000000000D+00 0.000000000000000D+00 0.138026629241586D+03
 0.143080825305648D+03 0.000000000000000D+00 0.000000000000000D+00 -.143080825305648D+03
 0.861556365121815D+02 -.431863968150588D+02 0.110748992350743D+02 -.541763365306697D+02
 0.622390107227935D+02 -.543548827444488D+01 0.404507541549265D+02 -.469881518179645D+02
 0.899124313389529D+01 0.541569042318330D+01 0.509586621479352D+01 -.505419606406259D+01
 0.123721564178364D+03 0.432061946663204D+02 -.566215196047943D+02 0.101164488348634D+03
0.132424402492D-05 0.000000000000D+00 0.000000000000D+00 0.503451252422D-06 0.000000000000D+00  6 -3 22 9900012 -11 -4 21 0 0.46453684D-02 0.94249167D-01 0.80083833D+04 0.80083833D+04 0.80083833D+04 0.12194621D+01  1  2  2  1  6  1       -3 0.267411429690D-04 0.100000000000D+01
0.134365570310D-07 0.000000000000D+00 -.254272286858D-08 0.503451252422D-06 0.000000000000D+00  6 -3 22 9900012 -11 -4 21 2 0.46453684D-02 0.94249167D-01 0.80083833D+04 0.80083833D+04 0.80083833D+04 0.12194621D+01  1  2  3  1  6  1       -3 0.403493512568D-06 0.100000000000D+01
-.171241576517D-06 0.000000000000D+00 0.000000000000D+00 0.503451252422D-06 0.000000000000D+00  6 -3 22 9900012 -11 -4 21 2 0.46453684D-02 0.94249167D-01 0.80083833D+04 0.80083833D+04 0.80083833D+04 0.12194621D+01  1  2 15  1  6  1       -3 -.514230431555D-05 0.100000000000D+01
0.117944743747D-05 0.000000000000D+00 0.000000000000D+00 0.503451252422D-06 0.000000000000D+00  6 -3 22 9900012 -11 -4 21 2 0.49595250D-02 0.94249167D-01 0.86922405D+04 0.86922405D+04 0.86922405D+04 0.12156918D+01  1  2 12  1  6  1       -3 0.321489711636D-04 0.100000000000D+01
-.648460028103D-07 0.000000000000D+00 0.000000000000D+00 0.503451252422D-06 0.000000000000D+00  6 -3 22 9900012 -11 -4 21 2 0.46453684D-02 0.94249167D-01 0.80083833D+04 0.80083833D+04 0.80083833D+04 0.12194621D+01  1  2  4  1  6  1       -3 -.194729508382D-05 0.100000000000D+01
0.175572863643D-07 0.000000000000D+00 0.000000000000D+00 0.503451252422D-06 0.000000000000D+00  6 21 22 9900012 -11 3 -4 2 0.49595250D-02 0.94249167D-01 0.86922405D+04 0.86922405D+04 0.86922405D+04 0.12156918D+01  3  4 12  3  5  1       -3 0.869410143144D-05 0.100000000000D+01
  </mgrwgt>
  </event>
  <event>
  6     66 0.61978431E-06 0.36341739E+02 0.78161638E-02 0.12402821E+00
       -3 -1    0    0    0  501 0.00000000E+00 0.00000000E+00 0.19932371E+03 0.19932371E+03 0.00000000E+00 0.0000E+00 0.9000E+01
       22 -1    0    0    0    0 0.00000000E+00 0.00000000E+00 -.47215891E+02 0.47215891E+02 0.00000000E+00 0.0000E+00 0.9000E+01
       24  2    1    2    0    0 -.25787007E+02 0.25607660E+02 -.43065912E+01 0.85958813E+02 0.77779488E+02 0.0000E+00 0.0000E+00
  9900012  1    3    3    0    0 0.50989540E+01 0.11833947E+02 0.14513723E+01 0.51654120E+02 0.50000000E+02 0.0000E+00 0.9000E+01
      -11  1    3    3    0    0 -.30885962E+02 0.13773714E+02 -.57579634E+01 0.34304693E+02 0.00000000E+00 0.0000E+00 0.9000E+01
       -4  1    1    2    0  501 0.25787007E+02 -.25607660E+02 0.15641441E+03 0.16058079E+03 0.00000000E+00 0.0000E+00 0.9000E+01
#aMCatNLO 1  0  0  5  1 0.18019071D+02 0.00000000D+00  -5  6  0 0.00000000D+00 0.00000000D+00 0.00000000D+00 0.00000000D+00 0.00000000D+00
  <mgrwgt>
 0.3853349825D-04    7    2    0
 0.970115795468084D+02 0.000000000000000D+00 0.000000000000000D+00 0.970115795468084D+02
 0.970115795468084D+02 -.000000000000000D+00 -.000000000000000D+00 -.970115795468084D+02
 0.644975633840303D+02 0.509895403810505D+01 0.118339466983668D+02 -.386509256775891D+02
 0.481040332820426D+02 -.308859615060297D+02 0.137737137714042D+02 -.342102354389931D+02
 0.814215624275439D+02 0.257870074679247D+02 -.256076604697710D+02 0.728611611165822D+02
 0.000000000000000D+00 0.000000000000000D+00 0.000000000000000D+00 0.000000000000000D+00
 0.970115795468084D+02 0.000000000000000D+00 0.000000000000000D+00 0.970115795468084D+02
 0.970115795468084D+02 -.000000000000000D+00 -.000000000000000D+00 -.970115795468084D+02
 0.628458300365371D+02 0.604519159893862D+01 0.108942901596346D+02 -.359773324946572D+02
 0.460570947132156D+02 -.301862880193549D+02 0.130789064693644D+02 -.322333087752449D+02
 0.556856701582849D+02 0.117407685270004D+01 -.248455472214076D+02 0.498218244125008D+02
 0.294345641855792D+02 0.229670195677162D+02 0.872350592408590D+00 0.183888168574013D+02
0.366591188920D-06 0.000000000000D+00 0.000000000000D+00 0.351810200437D-06 0.000000000000D+00  6 -3 22 9900012 -11 -4 21 0 0.30665186D-01 0.72639833D-02 0.37084127D+04 0.37084127D+04 0.37084127D+04 0.12567265D+01  1  2  2  2  6  5       -4 0.169497249537D-04 0.100000000000D+01
0.150140286476D-07 0.000000000000D+00 -.703903345565D-09 0.351810200437D-06 0.000000000000D+00  6 -3 22 9900012 -11 -4 21 2 0.30665186D-01 0.72639833D-02 0.37084127D+04 0.37084127D+04 0.37084127D+04 0.12567265D+01  1  2  3  2  6  5       -4 0.109637567377D-05 0.100000000000D+01
-.472422752862D-07 0.000000000000D+00 0.000000000000D+00 0.351810200437D-06 0.000000000000D+00  6 -3 22 9900012 -11 -4 21 2 0.30665186D-01 0.72639833D-02 0.37084127D+04 0.37084127D+04 0.37084127D+04 0.12567265D+01  1  2 15  2  6  5       -4 -.344979236506D-05 0.100000000000D+01
0.262982977990D-06 0.000000000000D+00 0.000000000000D+00 0.351810200437D-06 0.000000000000D+00  6 -3 22 9900012 -11 -4 21 2 0.30665186D-01 0.72639833D-02 0.43747407D+04 0.43747407D+04 0.43747407D+04 0.12484328D+01  1  2 12  2  6  5       -4 0.192721148757D-04 0.100000000000D+01
-.415178075402D-07 0.000000000000D+00 0.000000000000D+00 0.351810200437D-06 0.000000000000D+00  6 -3 22 9900012 -11 -4 21 2 0.30665186D-01 0.72639833D-02 0.37084127D+04 0.37084127D+04 0.37084127D+04 0.12567265D+01  1  2  4  2  6  5       -4 -.303177217012D-05 0.100000000000D+01
-.250489583099D-06 0.000000000000D+00 0.000000000000D+00 0.351810200437D-06 0.000000000000D+00  6 -3 22 9900012 -11 -4 21 2 0.30665186D-01 0.72639833D-02 0.37084127D+04 0.37084127D+04 0.37084127D+04 0.12567265D+01  1  2  5  2  6  5       -4 -.182916052638D-04 0.100000000000D+01
0.355892036298D-06 0.000000000000D+00 -.000000000000D+00 0.351810200437D-06 0.000000000000D+00  6 -3 22 9900012 -11 -4 21 2 0.30665186D-01 0.72639833D-02 0.37084127D+04 0.37084127D+04 0.37084127D+04 0.12567265D+01  1  2  6  2  6  5       -4 0.259884525495D-04 0.100000000000D+01
  </mgrwgt>
  </event>
  <event>
  7     66 0.61978431E-06 0.33990847E+02 0.78161638E-02 0.11503966E+00
       -1 -1    0    0    0  502 0.00000000E+00 0.00000000E+00 0.43486327E+02 0.43486327E+02 0.00000000E+00 0.0000E+00 0.9000E+01
       22 -1    0    0    0    0 0.00000000E+00 0.00000000E+00 -.48848782E+03 0.48848782E+03 0.00000000E+00 0.0000E+00 0.9000E+01
       24  2    1    2    0    0 -.67297699E+02 0.21186744E+02 -.37950087E+03 0.39473013E+03 0.82541559E+02 0.0000E+00 0.0000E+00
  9900012  1    3    3    0    0 -.50567984E+02 0.34243181E+02 -.34736680E+03 0.35622101E+03 0.50000000E+02 0.0000E+00 0.9000E+01
      -11  1    3    3    0    0 -.16729715E+02 -.13056436E+02 -.32134074E+02 0.38509124E+02 0.00000000E+00 0.0000E+00 0.9000E+01
       -2  1    1    2    0  501 0.52626960E+02 0.31578303E+02 -.52948087E+02 0.81057300E+02 0.00000000E+00 0.0000E+00 0.9000E+01
       21  1    1    2  501  502 0.14670739E+02 -.52765047E+02 -.12552537E+02 0.56186715E+02 0.00000000E+00 0.0000E+00 0.9000E+01
#aMCatNLO 2  0  0  1  5 0.58480927D+02 0.00000000D+00  -5  6  0 0.00000000D+00 0.00000000D+00 0.00000000D+00 0.00000000D+00 0.00000000D+00
  <mgrwgt>
 0.6128547452D-05    2    2    0
 0.953443767446212D+02 0.000000000000000D+00 0.000000000000000D+00 0.953443767446212D+02
 0.953443767446212D+02 0.000000000000000D+00 0.000000000000000D+00 -.953443767446212D+02
 0.876735417175846D+02 -.436004758437727D+02 0.918371392089253D+01 -.565801009377047D+02
 0.255353100266721D+02 -.149257610694991D+02 -.195445685998910D+02 0.687630372355941D+01
 0.774799017449856D+02 0.585262369132719D+02 0.103608546789985D+02 0.497037972141453D+02
 0.000000000000000D+00 0.000000000000000D+00 -.000000000000000D+00 0.000000000000000D+00
 0.199074374094067D+03 0.000000000000000D+00 0.000000000000000D+00 0.199074374094067D+03
 0.106706558033434D+03 0.000000000000000D+00 0.000000000000000D+00 -.106706558033434D+03
 0.971134607330019D+02 -.505679841043091D+02 0.342431805918461D+02 -.565801009377047D+02
 0.223077886287584D+02 -.167297147062302D+02 -.130564362080497D+02 0.687630372355941D+01
 0.789762845721769D+02 0.526269596041530D+02 0.315783025215645D+02 0.497037972141453D+02
 0.107383398193565D+03 0.146707392063863D+02 -.527650469053609D+02 0.923678160606330D+02
-.825542142204D-07 0.000000000000D+00 0.000000000000D+00 0.118649771537D-06 0.000000000000D+00  6 -1 22 9900012 -11 -2 21 2 0.74874752D-02 0.67149743D-01 0.11695433D+05 0.11695433D+05 0.11695433D+05 0.12023440D+01  1  2 13  1  6  1       -1 -.260937733929D-05 0.100000000000D+01
0.286359047026D-06 0.000000000000D+00 0.000000000000D+00 0.118649771537D-06 0.210232353950D-09  6 -1 22 9900012 -11 -2 21 2 0.66902042D-02 0.75151973D-01 0.11695433D+05 0.11695433D+05 0.11695433D+05 0.12023440D+01  1  2  1  1  6  1       -1 0.873792479100D-05 0.100000000000D+01
  </mgrwgt>
  </event>
  <event>
  6     66 0.61978431E-06 0.77811412E+02 0.78161638E-02 0.10506112E+00
       -3 -1    0    0    0  501 0.00000000E+00 0.00000000E+00 0.87758446E+03 0.87758446E+03 0.00000000E+00 0.0000E+00 0.9000E+01
       22 -1    0    0    0    0 0.00000000E+00 0.00000000E+00 -.47153235E+03 0.47153235E+03 0.00000000E+00 0.0000E+00 0.9000E+01
       24  2    1    2    0    0 -.15365795E+03 0.75978612E+02 -.44323165E+03 0.48270672E+03 0.84663872E+02 0.0000E+00 0.0000E+00
  9900012  1    3    3    0    0 -.57327482E+02 0.31152589E+02 -.23448947E+03 0.24847985E+03 0.50000000E+02 0.0000E+00 0.9000E+01
      -11  1    3    3    0    0 -.96330464E+02 0.44826024E+02 -.20874218E+03 0.23422687E+03 0.00000000E+00 0.0000E+00 0.9000E+01
       -4  1    1    2    0  501 0.15365795E+03 -.75978612E+02 0.84928376E+03 0.86641008E+03 0.00000000E+00 0.0000E+00 0.9000E+01
#aMCatNLO 1  0  0  1  5 0.49784919D+02 0.00000000D+00  -5  6  0 0.00000000D+00 0.00000000D+00 0.00000000D+00 0.00000000D+00 0.00000000D+00
  <mgrwgt>
 0.7921362315D-04    9    4    0
 0.643280233033036D+03 0.000000000000000D+00 0.000000000000000D+00 0.643280233033036D+03
 0.643280233033036D+03 0.000000000000000D+00 0.000000000000000D+00 -.643280233033036D+03
 0.334569033063447D+03 -.573274818650866D+02 0.311525885334694D+02 -.324313912645885D+03
 0.311496910958386D+03 -.963304643102723D+02 0.448260236135214D+02 -.292816315784117D+03
 0.640494522044239D+03 0.153657946175359D+03 -.759786121469907D+02 0.617130228430002D+03
 0.000000000000000D+00 -.000000000000000D+00 -.000000000000000D+00 0.000000000000000D+00
 0.914745786224477D+03 0.000000000000000D+00 0.000000000000000D+00 0.914745786224477D+03
 0.646015932826238D+03 0.000000000000000D+00 0.000000000000000D+00 -.646015932826238D+03
 0.332853619644012D+03 -.446906685110571D+02 0.333880565842504D+02 -.324313912645885D+03
 0.308378569404692D+03 -.845938972094834D+02 0.469022369787599D+02 -.292816315784117D+03
 0.646279925496008D+03 0.178021411299501D+03 -.716686847653404D+02 0.617130228430002D+03
 0.273249604506002D+03 -.487368455789603D+02 -.862160879766991D+01 0.268729853398239D+03
 0.643280233033036D+03 0.000000000000000D+00 0.000000000000000D+00 0.643280233033036D+03
 0.643280233033036D+03 0.000000000000000D+00 0.000000000000000D+00 -.643280233033036D+03
 0.334569033063447D+03 -.573274818650866D+02 0.311525885334694D+02 -.324313912645885D+03
 0.311496910958386D+03 -.963304643102723D+02 0.448260236135214D+02 -.292816315784117D+03
 0.000000000000000D+00 -.000000000000000D+00 -.000000000000000D+00 0.000000000000000D+00
 0.640494522044239D+03 0.153657946175359D+03 -.759786121469907D+02 0.617130228430002D+03
 0.914745786224477D+03 0.000000000000000D+00 0.000000000000000D+00 0.914745786224477D+03
 0.646015932826238D+03 0.000000000000000D+00 0.000000000000000D+00 -.646015932826238D+03
 0.332853619644012D+03 -.446906685110571D+02 0.333880565842504D+02 -.324313912645885D+03
 0.308378569404692D+03 -.845938972094834D+02 0.469022369787599D+02 -.292816315784117D+03
 0.273249604506002D+03 -.487368455789603D+02 -.862160879766991D+01 0.268729853398239D+03
 0.646279925496008D+03 0.178021411299501D+03 -.716686847653404D+02 0.617130228430002D+03
0.997380355500D-04 0.000000000000D+00 0.000000000000D+00 0.969547426954D-05 0.000000000000D+00  6 -3 22 9900012 -11 -4 21 0 0.13501299D+00 0.72543438D-01 0.32375901D+05 0.32375901D+05 0.32375901D+05 0.11597605D+01  1  2  2  1  6  1       -3 0.577214989347D-05 0.100000000000D+01
0.862625214941D-06 0.000000000000D+00 -.191510159070D-06 0.969547426954D-05 0.000000000000D+00  6 -3 22 9900012 -11 -4 21 2 0.13501299D+00 0.72543438D-01 0.32375901D+05 0.32375901D+05 0.32375901D+05 0.11597605D+01  1  2  3  1  6  1       -3 0.671483876091D-07 0.100000000000D+01
-.135984117527D-04 0.000000000000D+00 0.000000000000D+00 0.969547426954D-05 0.000000000000D+00  6 -3 22 9900012 -11 -4 21 2 0.13501299D+00 0.72543438D-01 0.32375901D+05 0.32375901D+05 0.32375901D+05 0.11597605D+01  1  2 15  1  6  1       -3 -.105852623761D-05 0.100000000000D+01
0.150238456922D-02 0.000000000000D+00 0.000000000000D+00 0.969547426954D-05 0.000000000000D+00  6 -3 22 9900012 -11 -4 21 2 0.19280523D+00 0.72543438D-01 0.42650386D+05 0.42650386D+05 0.42650386D+05 0.11490156D+01  1  2 12  1  6  1       -3 0.380544942702D-04 0.100000000000D+01
-.469110245006D-03 0.000000000000D+00 0.000000000000D+00 0.969547426954D-05 0.000000000000D+00  6 -3 22 9900012 -11 -4 21 2 0.13501299D+00 0.72543438D-01 0.32375901D+05 0.32375901D+05 0.32375901D+05 0.11597605D+01  1  2  4  1  6  1       -3 -.365164338087D-04 0.100000000000D+01
-.154480807561D-02 0.000000000000D+00 -.371244403415D-04 0.969547426954D-05 0.000000000000D+00  6 -3 22 9900012 -11 -4 21 2 0.19226905D+00 0.72543438D-01 0.32375901D+05 0.32375901D+05 0.32375901D+05 0.11597605D+01  1  2  5  1  6  1       -3 -.401757725849D-04 0.100000000000D+01
0.146747599400D-02 0.000000000000D+00 0.349195041169D-04 0.969547426954D-05 0.000000000000D+00  6 -3 22 9900012 -11 -4 21 2 0.13501299D+00 0.72543438D-01 0.32375901D+05 0.32375901D+05 0.32375901D+05 0.11597605D+01  1  2  6  1  6  1       -3 0.114231122793D-03 0.100000000000D+01
0.657436337544D-04 0.000000000000D+00 0.000000000000D+00 0.969547426954D-05 0.000000000000D+00  6 21 22 9900012 -11 3 -4 2 0.19280523D+00 0.72543438D-01 0.42650386D+05 0.42650386D+05 0.42650386D+05 0.11490156D+01  3  4 12  3  5  1       -3 0.266587744519D-04 0.100000000000D+01
-.661527859975D-04 0.000000000000D+00 -.161536824243D-05 0.969547426954D-05 0.000000000000D+00  6 21 22 9900012 -11 3 -4 2 0.19226905D+00 0.72543438D-01 0.32375901D+05 0.32375901D+05 0.32375901D+05 0.11597605D+01  3  4  5  3  5  1       -3 -.278193340145D-04 0.100000000000D+01
  </mgrwgt>
  </event>
  <event>
  6     66 0.61978431E-06 0.98279769E+02 0.78161638E-02 0.11177475E+00
       -3 -1    0    0    0  501 0.00000000E+00 0.00000000E+00 0.10448336E+02 0.10448336E+02 0.00000000E+00 0.0000E+00 0.9000E+01
       22 -1    0    0    0    0 0.00000000E+00 0.00000000E+00 -.13626694E+04 0.13626694E+04 0.00000000E+00 0.0000E+00 0.9000E+01
       24  2    1    2    0    0 -.54369855E+02 0.81870824E+02 -.66605874E+03 0.67995278E+03 0.95092756E+02 0.0000E+00 0.0000E+00
  9900012  1    3    3    0    0 -.53811554E+02 0.58478321E+02 -.63006219E+03 0.63701944E+03 0.50000000E+02 0.0000E+00 0.9000E+01
      -11  1    3    3    0    0 -.55830101E+00 0.23392503E+02 -.35996547E+02 0.42933347E+02 0.00000000E+00 0.0000E+00 0.9000E+01
       -4  1    1    2    0  501 0.54369855E+02 -.81870824E+02 -.68616234E+03 0.69316496E+03 0.00000000E+00 0.0000E+00 0.9000E+01
#aMCatNLO 1  0  0  1  5 0.10506714D+03 0.00000000D+00  -5  6  0 0.00000000D+00 0.00000000D+00 0.00000000D+00 0.00000000D+00 0.00000000D+00
  <mgrwgt>
 0.1215140851D-04    4    2    0
 0.119321529446854D+03 0.000000000000000D+00 0.000000000000000D+00 0.119321529446854D+03
 0.119321529446854D+03 0.000000000000000D+00 0.000000000000000D+00 -.119321529446854D+03
 0.952020951075889D+02 -.538115543665323D+02 0.584783209949634D+02 -.157493334189789D+02
 0.430653701534896D+02 -.558301006338134D+00 0.233925034069977D+02 0.361539097581021D+02
 0.100375593632629D+03 0.543698553728705D+02 -.818708244019612D+02 -.204045763391233D+02
 0.000000000000000D+00 0.000000000000000D+00 -.000000000000000D+00 -.000000000000000D+00
 0.129299581249134D+03 0.000000000000000D+00 0.000000000000000D+00 0.129299581249134D+03
 0.177456501405944D+03 0.000000000000000D+00 0.000000000000000D+00 -.177456501405944D+03
 0.110098257342524D+03 -.699054467369552D+02 0.669836792302819D+02 -.157493334189789D+02
 0.457896990211151D+02 -.752382202369759D+01 0.270736670549640D+02 0.361539097581021D+02
 0.865370895518815D+02 0.397174080198177D+02 -.741272462237642D+02 -.204045763391233D+02
 0.643310367395568D+02 0.377118607408351D+02 -.199301000614816D+02 -.481569201568102D+02
0.950407822181D-06 0.000000000000D+00 0.000000000000D+00 0.111225899356D-08 0.000000000000D+00  6 -3 22 9900012 -11 -4 21 0 0.16074363D-02 0.20964145D+00 0.11617529D+05 0.11617529D+05 0.11617529D+05 0.12026396D+01  1  2  2  1  6  1       -3 0.166371388466D-04 0.100000000000D+01
-.509848094364D-07 0.000000000000D+00 -.182490814265D-08 0.111225899356D-08 0.000000000000D+00  6 -3 22 9900012 -11 -4 21 2 0.16074363D-02 0.20964145D+00 0.11617529D+05 0.11617529D+05 0.11617529D+05 0.12026396D+01  1  2  3  1  6  1       -3 -.129086376624D-05 0.100000000000D+01
-.954549997113D-07 0.000000000000D+00 0.000000000000D+00 0.111225899356D-08 0.000000000000D+00  6 -3 22 9900012 -11 -4 21 2 0.16074363D-02 0.20964145D+00 0.11617529D+05 0.11617529D+05 0.11617529D+05 0.12026396D+01  1  2 15  1  6  1       -3 -.241678652515D-05 0.100000000000D+01
-.307315642945D-07 0.000000000000D+00 0.000000000000D+00 0.111225899356D-08 0.000000000000D+00  6 -3 22 9900012 -11 -4 21 2 0.16074363D-02 0.20964145D+00 0.11617529D+05 0.11617529D+05 0.11617529D+05 0.12026396D+01  1  2  4  1  6  1       -3 -.778080045136D-06 0.100000000000D+01
  </mgrwgt>
  </event>
  <event>
  6     66 0.61978431E-06 0.27878352E+02 0.78161638E-02 0.12660464E+00
       -3 -1    0    0    0  501 0.00000000E+00 0.00000000E+00 0.56762675E+02 0.56762675E+02 0.00000000E+00 0.0000E+00 0.9000E+01
       22 -1    0    0    0    0 0.00000000E+00 0.00000000E+00 -.40134959E+03 0.40134959E+03 0.00000000E+00 0.0000E+00 0.9000E+01
       24  2    1    2    0    0 0.44131389E+01 -.27526836E+02 -.39306020E+03 0.40219391E+03 0.80538325E+02 0.0000E+00 0.0000E+00
  9900012  1    3    3    0    0 -.17682157E+02 -.12362324E+02 -.31472771E+03 0.31940416E+03 0.50000000E+02 0.0000E+00 0.9000E+01
      -11  1    3    3    0    0 0.22095296E+02 -.15164512E+02 -.78332484E+02 0.82789749E+02 0.00000000E+00 0.0000E+00 0.9000E+01
       -4  1    1    2    0  501 -.44131389E+01 0.27526836E+02 0.48473285E+02 0.55918350E+02 0.00000000E+00 0.0000E+00 0.9000E+01
#aMCatNLO 1  0  0  1  5 0.65685389D+01 0.00000000D+00  -5  6  0 0.00000000D+00 0.00000000D+00 0.00000000D+00 0.00000000D+00 0.00000000D+00
  <mgrwgt>
 0.1916807737D-03   11    4    0
 0.150935999887135D+03 0.000000000000000D+00 0.000000000000000D+00 0.150935999887135D+03
 0.150935999887135D+03 0.000000000000000D+00 0.000000000000000D+00 -.150935999887135D+03
 0.125456857793890D+03 -.176821574427590D+02 -.123623244595784D+02 -.113021844833828D+03
 0.362228046306564D+02 0.220952963701618D+02 -.151645116220437D+02 -.243706183936788D+02
 0.140192337349724D+03 -.441313892740272D+01 0.275268360816221D+02 0.137392463227507D+03
 0.000000000000000D+00 0.000000000000000D+00 0.000000000000000D+00 0.000000000000000D+00
 0.165070342492872D+03 0.000000000000000D+00 0.000000000000000D+00 0.165070342492872D+03
 0.151694299201617D+03 0.000000000000000D+00 0.000000000000000D+00 -.151694299201617D+03
 0.125863372457883D+03 -.203424574271585D+02 -.124030457007170D+02 -.113021844833828D+03
 0.357680165070566D+02 0.213332519451758D+02 -.151761762444435D+02 -.243706183936788D+02
 0.140308282897044D+03 -.738232208834028D+01 0.274813867623008D+02 0.137392463227507D+03
 0.148249698325067D+02 0.639152757032301D+01 0.978351828597220D-01 0.133760432912551D+02
 0.150935999887135D+03 0.000000000000000D+00 0.000000000000000D+00 0.150935999887135D+03
 0.150935999887135D+03 0.000000000000000D+00 0.000000000000000D+00 -.150935999887135D+03
 0.125456857793890D+03 -.176821574427590D+02 -.123623244595784D+02 -.113021844833828D+03
 0.362228046306564D+02 0.220952963701618D+02 -.151645116220437D+02 -.243706183936788D+02
 0.000000000000000D+00 0.000000000000000D+00 0.000000000000000D+00 0.000000000000000D+00
 0.140192337349724D+03 -.441313892740272D+01 0.275268360816221D+02 0.137392463227507D+03
 0.165070342492872D+03 0.000000000000000D+00 0.000000000000000D+00 0.165070342492872D+03
 0.151694299201617D+03 0.000000000000000D+00 0.000000000000000D+00 -.151694299201617D+03
 0.125863372457883D+03 -.203424574271585D+02 -.124030457007170D+02 -.113021844833828D+03
 0.357680165070566D+02 0.213332519451758D+02 -.151761762444435D+02 -.243706183936788D+02
 0.148249698325067D+02 0.639152757032301D+01 0.978351828597220D-01 0.133760432912551D+02
 0.140308282897044D+03 -.738232208834028D+01 0.274813867623008D+02 0.137392463227507D+03
0.729669167728D-06 0.000000000000D+00 0.000000000000D+00 0.105264492450D-04 0.000000000000D+00  6 -3 22 9900012 -11 -4 21 0 0.87327192D-02 0.61746091D-01 0.29775148D+04 0.29775148D+04 0.29775148D+04 0.12680158D+01  1  2  2  1  6  1       -3 0.108686458714D-04 0.100000000000D+01
0.613624144747D-07 0.000000000000D+00 -.140106086519D-08 0.105264492450D-04 0.000000000000D+00  6 -3 22 9900012 -11 -4 21 2 0.87327192D-02 0.61746091D-01 0.29775148D+04 0.29775148D+04 0.29775148D+04 0.12680158D+01  1  2  3  1  6  1       -3 0.146960709802D-05 0.100000000000D+01
-.911578098113D-07 0.000000000000D+00 0.000000000000D+00 0.105264492450D-04 0.000000000000D+00  6 -3 22 9900012 -11 -4 21 2 0.87327192D-02 0.61746091D-01 0.29775148D+04 0.29775148D+04 0.29775148D+04 0.12680158D+01  1  2 15  1  6  1       -3 -.218319578010D-05 0.100000000000D+01
0.828218124825D-05 0.000000000000D+00 0.000000000000D+00 0.105264492450D-04 0.000000000000D+00  6 -3 22 9900012 -11 -4 21 2 0.95984727D-02 0.61746091D-01 0.33881091D+04 0.33881091D+04 0.33881091D+04 0.12613329D+01  1  2 12  1  6  1       -3 0.171506206635D-03 0.100000000000D+01
-.754900335542D-06 0.000000000000D+00 0.000000000000D+00 0.105264492450D-04 0.000000000000D+00  6 -3 22 9900012 -11 -4 21 2 0.87327192D-02 0.61746091D-01 0.29775148D+04 0.29775148D+04 0.29775148D+04 0.12680158D+01  1  2  4  1  6  1       -3 -.180795834210D-04 0.100000000000D+01
-.111924157616D-04 0.000000000000D+00 -.978074750120D-06 0.105264492450D-04 0.000000000000D+00  6 -3 22 9900012 -11 -4 21 2 0.95914264D-02 0.61746091D-01 0.29775148D+04 0.29775148D+04 0.29775148D+04 0.12680158D+01  1  2  5  1  6  1       -3 -.231440178659D-03 0.100000000000D+01
0.112389671737D-04 0.000000000000D+00 0.973788355470D-06 0.105264492450D-04 0.000000000000D+00  6 -3 22 9900012 -11 -4 21 2 0.87327192D-02 0.61746091D-01 0.29775148D+04 0.29775148D+04 0.29775148D+04 0.12680158D+01  1  2  6  1  6  1       -3 0.269169100894D-03 0.100000000000D+01
0.691886459679D-07 0.000000000000D+00 0.000000000000D+00 0.105264492450D-04 0.295837790190D-06  6 -3 22 9900012 -11 -4 21 2 0.95504912D-02 0.62056302D-01 0.33881091D+04 0.33881091D+04 0.33881091D+04 0.12613329D+01  1  2 11  1  6  1       -3 0.143172090710D-05 0.100000000000D+01
0.129627059989D-06 0.000000000000D+00 0.000000000000D+00 0.105264492450D-04 0.000000000000D+00  6 21 22 9900012 -11 3 -4 2 0.95984727D-02 0.61746091D-01 0.33881091D+04 0.33881091D+04 0.33881091D+04 0.12613329D+01  3  4 12  3  5  1       -3 0.473126113723D-04 0.100000000000D+01
-.169097903117D-06 0.000000000000D+00 -.150270313471D-07 0.105264492450D-04 0.000000000000D+00  6 21 22 9900012 -11 3 -4 2 0.95914264D-02 0.61746091D-01 0.29775148D+04 0.29775148D+04 0.29775148D+04 0.12680158D+01  3  4  5  3  5  1       -3 -.617741645210D-04 0.100000000000D+01
0.931950113445D-08 0.000000000000D+00 0.000000000000D+00 0.105264492450D-04 0.305446732181D-07  6 21 22 9900012 -11 3 -4 2 0.95504912D-02 0.62056302D-01 0.33881091D+04 0.33881091D+04 0.33881091D+04 0.12613329D+01  3  4 11  3  5  1       -3 0.340000325359D-05 0.100000000000D+01
  </mgrwgt>
  </event>
  <event>
  6     66 -.61978431E-06 0.60884739E+02 0.78161638E-02 0.11260306E+00
       -3 -1    0    0    0  501 0.00000000E+00 0.00000000E+00 0.89554995E+02 0.89554995E+02 0.00000000E+00 0.0000E+00 0.9000E+01
       22 -1    0    0    0    0 0.00000000E+00 0.00000000E+00 -.12702570E+04 0.12702570E+04 0.00000000E+00 0.0000E+00 0.9000E+01
       24  2    1    2    0    0 -.24837332E+02 0.55588293E+02 -.12576848E+04 0.12616625E+04 0.79462320E+02 0.0000E+00 0.0000E+00
  9900012  1    3    3    0    0 -.24843036E+02 0.17917810E+02 -.58722495E+03 0.59014520E+03 0.50000000E+02 0.0000E+00 0.9000E+01
      -11  1    3    3    0    0 0.57042724E-02 0.37670483E+02 -.67045987E+03 0.67151731E+03 0.00000000E+00 0.0000E+00 0.9000E+01
       -4  1    1    2    0  501 0.24837332E+02 -.55588293E+02 0.76982855E+02 0.98149434E+02 0.00000000E+00 0.0000E+00 0.9000E+01
#aMCatNLO 1  0  0  1  1 0.10016301D+03 0.00000000D+00  -5  6  0 0.00000000D+00 0.00000000D+00 0.00000000D+00 0.00000000D+00 0.00000000D+00
  <mgrwgt>
 -.1923522980D-03    5    4    0
 0.337280085178709D+03 0.000000000000000D+00 0.000000000000000D+00 0.337280085178709D+03
 0.337280085178709D+03 0.000000000000000D+00 0.000000000000000D+00 -.337280085178709D+03
 0.161807442822417D+03 -.248430361565135D+02 0.179178104012931D+02 -.150809231075817D+03
 0.180152921854866D+03 0.570427237107118D-02 0.376704827962561D+02 -.176170400312322D+03
 0.332599805680134D+03 0.248373318841424D+02 -.555882931975492D+02 0.326979631388139D+03
 0.000000000000000D+00 0.000000000000000D+00 -.000000000000000D+00 0.000000000000000D+00
 0.858615984390781D+03 0.000000000000000D+00 0.000000000000000D+00 0.858615984390781D+03
 0.345633231551843D+03 0.000000000000000D+00 0.000000000000000D+00 -.345633231551843D+03
 0.166983579954213D+03 -.307010057771793D+02 0.412012140708909D+02 -.150809231075817D+03
 0.187448137136930D+03 -.654373195588475D+01 0.637022271352502D+02 -.176170400312322D+03
 0.327360835098933D+03 0.130790139353418D+02 -.885304514990188D+01 0.326979631388139D+03
 0.522456663752548D+03 0.241657237977223D+02 -.960503960562392D+02 0.512982752838938D+03
 0.337280085178709D+03 0.000000000000000D+00 0.000000000000000D+00 0.337280085178709D+03
 0.337280085178709D+03 0.000000000000000D+00 0.000000000000000D+00 -.337280085178709D+03
 0.161807442822417D+03 -.248430361565135D+02 0.179178104012931D+02 -.150809231075817D+03
 0.180152921854866D+03 0.570427237107118D-02 0.376704827962561D+02 -.176170400312322D+03
 0.000000000000000D+00 0.000000000000000D+00 -.000000000000000D+00 0.000000000000000D+00
 0.332599805680134D+03 0.248373318841424D+02 -.555882931975492D+02 0.326979631388139D+03
 0.858615984390781D+03 0.000000000000000D+00 0.000000000000000D+00 0.858615984390781D+03
 0.345633231551843D+03 0.000000000000000D+00 0.000000000000000D+00 -.345633231551843D+03
 0.166983579954213D+03 -.307010057771793D+02 0.412012140708909D+02 -.150809231075817D+03
 0.187448137136930D+03 -.654373195588475D+01 0.637022271352502D+02 -.176170400312322D+03
 0.522456663752548D+03 0.241657237977223D+02 -.960503960562392D+02 0.512982752838938D+03
 0.327360835098933D+03 0.130790139353418D+02 -.885304514990188D+01 0.326979631388139D+03
0.782106951240D-04 0.000000000000D+00 0.000000000000D+00 0.171563748519D-03 0.000000000000D+00  6 -3 22 9900012 -11 -4 21 0 0.13777692D-01 0.19542415D+00 0.61772995D+04 0.61772995D+04 0.61772995D+04 0.12316417D+01  1  2  2  1  6  1       -3 0.589635768125D-04 0.100000000000D+01
0.244925305328D-05 0.000000000000D+00 -.150174831313D-06 0.171563748519D-03 0.000000000000D+00  6 -3 22 9900012 -11 -4 21 2 0.13777692D-01 0.19542415D+00 0.61772995D+04 0.61772995D+04 0.61772995D+04 0.12316417D+01  1  2  3  1  6  1       -3 0.280104492133D-05 0.100000000000D+01
-.108894017554D-04 0.000000000000D+00 0.000000000000D+00 0.171563748519D-03 0.000000000000D+00  6 -3 22 9900012 -11 -4 21 2 0.13777692D-01 0.19542415D+00 0.61772995D+04 0.61772995D+04 0.61772995D+04 0.12316417D+01  1  2 15  1  6  1       -3 -.124534716584D-04 0.100000000000D+01
-.418965015218D-03 0.000000000000D+00 -.225246996617D-04 0.171563748519D-03 0.000000000000D+00  6 -3 22 9900012 -11 -4 21 2 0.35523748D-01 0.19542415D+00 0.61772995D+04 0.61772995D+04 0.61772995D+04 0.12316417D+01  1  2  5  1  6  1       -3 -.906520654026D-04 0.100000000000D+01
-.425384908802D-04 0.000000000000D+00 -.236039148608D-05 0.171563748519D-03 0.000000000000D+00  6 21 22 9900012 -11 3 -4 2 0.35523748D-01 0.19542415D+00 0.61772995D+04 0.61772995D+04 0.61772995D+04 0.12316417D+01  3  4  5  3  5  1       -3 -.151011382626D-03 0.100000000000D+01
  </mgrwgt>
  </event>
  <event>
  6     66 0.61978431E-06 0.71808447E+02 0.78161638E-02 0.11580504E+00
       -3 -1    0    0    0  501 0.00000000E+00 0.00000000E+00 0.14868733E+03 0.14868733E+03 0.00000000E+00 0.0000E+00 0.9000E+01
       22 -1    0    0    0    0 0.00000000E+00 0.00000000E+00 -.12810463E+03 0.12810463E+03 0.00000000E+00 0.0000E+00 0.9000E+01
       24  2    1    2    0    0 -.40760563E+02 0.67932191E+02 -.88154459E+02 0.14225581E+03 0.78672110E+02 0.0000E+00 0.0000E+00
  9900012  1    3    3    0    0 -.61383296E+01 0.37610563E+02 -.66098523E+02 0.91220876E+02 0.50000000E+02 0.0000E+00 0.9000E+01
      -11  1    3    3    0    0 -.34622234E+02 0.30321628E+02 -.22055935E+02 0.51034934E+02 0.00000000E+00 0.0000E+00 0.9000E+01
       -4  1    1    2    0  501 0.40760563E+02 -.67932191E+02 0.10873716E+03 0.13453615E+03 0.00000000E+00 0.0000E+00 0.9000E+01
#aMCatNLO 1  0  0  5  1 0.26679294D+02 0.00000000D+00  -5  6  0 0.00000000D+00 0.00000000D+00 0.00000000D+00 0.00000000D+00 0.00000000D+00
  <mgrwgt>
 0.2785618073D-04    5    2    0
 0.138012810350616D+03 0.000000000000000D+00 0.000000000000000D+00 0.138012810350616D+03
 0.138012810350616D+03 -.000000000000000D+00 -.000000000000000D+00 -.138012810350616D+03
 0.964029779521331D+02 -.613832955381689D+01 0.376105629259037D+02 -.730842022924575D+02
 0.528212933247586D+02 -.346222337567669D+02 0.303216275847046D+02 -.259227479023049D+02
 0.126801349424341D+03 0.407605633105838D+02 -.679321905106083D+02 0.990069501947624D+02
 0.000000000000000D+00 -.000000000000000D+00 0.000000000000000D+00 0.000000000000000D+00
 0.138012810350616D+03 0.000000000000000D+00 0.000000000000000D+00 0.138012810350616D+03
 0.138012810350616D+03 -.000000000000000D+00 -.000000000000000D+00 -.138012810350616D+03
 0.902853529660117D+02 -.370380698154185D+01 0.335531496384082D+02 -.671707743247269D+02
 0.491258597587681D+02 -.332927845933382D+02 0.281059468749938D+02 -.226935308253203D+02
 0.115356781264357D+03 0.481486902654772D+02 -.726983792176801D+02 0.755237463882341D+02
 0.212576267120957D+02 -.111520986905971D+02 0.110392827042780D+02 0.143405587618131D+02
0.774732506271D-06 0.000000000000D+00 0.000000000000D+00 0.101173354674D-05 0.000000000000D+00  6 -3 22 9900012 -11 -4 21 0 0.22874974D-01 0.19708405D-01 0.88465428D+04 0.88465428D+04 0.88465428D+04 0.12148872D+01  1  2  2  2  6  5       -4 0.158219368478D-04 0.100000000000D+01
0.210441235652D-08 0.000000000000D+00 -.148758840792D-08 0.101173354674D-05 0.000000000000D+00  6 -3 22 9900012 -11 -4 21 2 0.22874974D-01 0.19708405D-01 0.88465428D+04 0.88465428D+04 0.88465428D+04 0.12148872D+01  1  2  3  2  6  5       -4 0.634323193869D-07 0.100000000000D+01
-.991724473533D-07 0.000000000000D+00 0.000000000000D+00 0.101173354674D-05 0.000000000000D+00  6 -3 22 9900012 -11 -4 21 2 0.22874974D-01 0.19708405D-01 0.88465428D+04 0.88465428D+04 0.88465428D+04 0.12148872D+01  1  2 15  2  6  5       -4 -.298930878988D-05 0.100000000000D+01
0.567056670375D-06 0.000000000000D+00 0.000000000000D+00 0.101173354674D-05 0.000000000000D+00  6 -3 22 9900012 -11 -4 21 2 0.22874974D-01 0.19708405D-01 0.10690289D+05 0.10690289D+05 0.10690289D+05 0.12063370D+01  1  2 12  2  6  5       -4 0.171263465236D-04 0.100000000000D+01
-.718660954602D-07 0.000000000000D+00 0.000000000000D+00 0.101173354674D-05 0.000000000000D+00  6 -3 22 9900012 -11 -4 21 2 0.22874974D-01 0.19708405D-01 0.88465428D+04 0.88465428D+04 0.88465428D+04 0.12148872D+01  1  2  4  2  6  5       -4 -.216622617054D-05 0.100000000000D+01
  </mgrwgt>
  </event>
  <event>
  7     66 -.61978431E-06 0.35416418E+02 0.78161638E-02 0.12099110E+00
       -1 -1    0    0    0  501 0.00000000E+00 0.00000000E+00 0.10242743E+03 0.10242743E+03 0.00000000E+00 0.0000E+00 0.9000E+01
       22 -1    0    0    0    0 -.00000000E+00 -.00000000E+00 -.10616309E+03 0.10616309E+03 0.00000000E+00 0.0000E+00 0.9000E+01
       24  2    1    2    0    0 -.44758289E+02 0.65267767E+01 -.69868605E+02 0.11711182E+03 0.82387213E+02 0.0000E+00 0.0000E+00
  9900012  1    3    3    0    0 -.13196199E+02 -.15384182E+02 -.51260875E+02 0.74421032E+02 0.50000000E+02 0.0000E+00 0.9000E+01
      -11  1    3    3    0    0 -.31562090E+02 0.21910959E+02 -.18607730E+02 0.42690787E+02 0.00000000E+00 0.0000E+00 0.9000E+01
       -2  1    1    2    0  502 0.37892047E+02 -.23233455E+02 0.40576586E+02 0.60183553E+02 0.00000000E+00 0.0000E+00 0.9000E+01
       21  1    1    2  502  501 0.68662418E+01 0.16706679E+02 0.25556362E+02 0.31295144E+02 0.00000000E+00 0.0000E+00 0.9000E+01
#aMCatNLO 2  0  0  5  1 0.20951854D+02 0.00000000D+00  -5  6  0 0.00000000D+00 0.00000000D+00 0.00000000D+00 0.00000000D+00 0.00000000D+00
  <mgrwgt>
 -.1452248224D-04    2    2    0
 0.104278530761946D+03 0.000000000000000D+00 0.000000000000000D+00 0.104278530761946D+03
 0.104278530761946D+03 -.000000000000000D+00 -.000000000000000D+00 -.104278530761946D+03
 0.762503034058993D+02 -.154637990081319D+02 -.150535143647501D+02 -.533701357970735D+02
 0.443011189489803D+02 -.328742958988369D+02 0.221023081438798D+02 -.198332494564153D+02
 0.880056391690131D+02 0.483380949069689D+02 -.704879377912977D+01 0.732033852534888D+02
 0.000000000000000D+00 0.000000000000000D+00 0.000000000000000D+00 0.000000000000000D+00
 0.104278530761946D+03 0.000000000000000D+00 0.000000000000000D+00 0.104278530761946D+03
 0.104278530761946D+03 -.000000000000000D+00 -.000000000000000D+00 -.104278530761946D+03
 0.735147891103457D+02 -.131961989425705D+02 -.153841820351753D+02 -.499360740799204D+02
 0.423643343433167D+02 -.315620903356734D+02 0.219109587241650D+02 -.178460406192258D+02
 0.609200109554495D+02 0.378920474515498D+02 -.232334552753369D+02 0.416610973296492D+02
 0.317579271147807D+02 0.686624182669400D+01 0.167066785863472D+02 0.261210173694971D+02
-.219160441515D-06 0.000000000000D+00 0.000000000000D+00 0.267973360752D-06 0.000000000000D+00  6 -1 22 9900012 -11 -2 21 2 0.15758066D-01 0.16332783D-01 0.59972924D+04 0.59972924D+04 0.59972924D+04 0.12330527D+01  1  2 13  2  6  5       -2 -.212117038886D-04 0.100000000000D+01
0.691133903038D-07 0.000000000000D+00 0.000000000000D+00 0.267973360752D-06 0.208866342063D-08  6 -1 22 9900012 -11 -2 21 2 0.15758066D-01 0.16332783D-01 0.59972924D+04 0.59972924D+04 0.59972924D+04 0.12330527D+01  1  2  1  2  6  5       -2 0.668922164841D-05 0.100000000000D+01
  </mgrwgt>
  </event>
  <event>
  6     66 0.61978431E-06 0.22238376E+02 0.78161638E-02 0.13127117E+00
       -1 -1    0    0    0  501 0.00000000E+00 0.00000000E+00 0.99930331E+03 0.99930331E+03 0.00000000E+00 0.0000E+00 0.9000E+01
       22 -1    0    0    0    0 0.00000000E+00 0.00000000E+00 -.80995223E+01 0.80995223E+01 0.00000000E+00 0.0000E+00 0.9000E+01
       24  2    1    2    0    0 0.17323423E+02 -.13944332E+02 0.97829608E+03 0.98168991E+03 0.78468605E+02 0.0000E+00 0.0000E+00
  9900012  1    3    3    0    0 -.15644237E+01 -.44915092E+01 0.41968704E+03 0.42268172E+03 0.50000000E+02 0.0000E+00 0.9000E+01
      -11  1    3    3    0    0 0.18887846E+02 -.94528224E+01 0.55860903E+03 0.55900819E+03 0.00000000E+00 0.0000E+00 0.9000E+01
       -2  1    1    2    0  501 -.17323423E+02 0.13944332E+02 0.12907712E+02 0.25712923E+02 0.00000000E+00 0.0000E+00 0.9000E+01
#aMCatNLO 1  0  0  1  5 0.25756330D+03 0.00000000D+00  -5  6  0 0.00000000D+00 0.00000000D+00 0.00000000D+00 0.00000000D+00 0.00000000D+00
  <mgrwgt>
 0.2577437781D-04    1    2    0
 0.899659905164291D+02 0.000000000000000D+00 0.000000000000000D+00 0.899659905164291D+02
 0.899659905164291D+02 0.000000000000000D+00 0.000000000000000D+00 -.899659905164291D+02
 0.545504675006950D+02 -.156442366963754D+01 -.449150920425641D+01 0.212869074361295D+02
 0.525256608794536D+02 0.188878462076702D+02 -.945282244115263D+01 0.480919792102052D+02
 0.728558526527095D+02 -.173234225380326D+02 0.139443316454090D+02 -.693788866463346D+02
 0.000000000000000D+00 -.000000000000000D+00 0.000000000000000D+00 0.000000000000000D+00
 0.275616330496176D+03 0.000000000000000D+00 0.000000000000000D+00 0.275616330496176D+03
 0.139056911451678D+03 0.000000000000000D+00 0.000000000000000D+00 -.139056911451678D+03
 0.711877707027331D+02 -.104440058234565D+01 -.459725515591006D+02 0.212869074361295D+02
 0.725314704616376D+02 0.194050524009258D+02 -.507091676552666D+02 0.480919792102052D+02
 0.801690179188272D+02 -.166905485073157D+02 -.365385702006692D+02 -.693788866463346D+02
 0.190784982864656D+03 -.167010331126443D+01 0.133220289415036D+03 0.136559419044498D+03
0.512330325778D-06 0.000000000000D+00 0.000000000000D+00 0.632937957830D-06 0.000000000000D+00  6 -1 22 9900012 -11 -2 21 2 0.15373897D+00 0.12460804D-02 0.21895527D+04 0.21895527D+04 0.21895527D+04 0.12843684D+01  1  2 14  1  6  1       -1 0.257743778078D-04 0.100000000000D+01
  </mgrwgt>
  </event>
  <event>
  7     66 -.61978431E-06 0.42624989E+02 0.78161638E-02 0.12229993E+00
       -3 -1    0    0    0  501 0.00000000E+00 0.00000000E+00 0.79638465E+01 0.79638465E+01 0.00000000E+00 0.0000E+00 0.9000E+01
       22 -1    0    0    0    0 -.00000000E+00 -.00000000E+00 -.90009095E+03 0.90009095E+03 0.00000000E+00 0.0000E+00 0.9000E+01
       24  2    1    2    0    0 -.36323693E+01 -.52483672E+02 -.73721194E+03 0.74327900E+03 0.78832101E+02 0.0000E+00 0.0000E+00
  9900012  1    3    3    0    0 -.17011365E+02 -.19408010E+02 -.53424583E+03 0.53720077E+03 0.50000000E+02 0.0000E+00 0.9000E+01
      -11  1    3    3    0    0 0.13378996E+02 -.33075663E+02 -.20296611E+03 0.20607823E+03 0.00000000E+00 0.0000E+00 0.9000E+01
       -4  1    1    2    0  502 0.29426872E+01 0.45860278E+02 -.10771605E+03 0.11710923E+03 0.00000000E+00 0.0000E+00 0.9000E+01
       21  1    1    2  502  501 0.68968202E+00 0.66233947E+01 -.47199116E+02 0.47666566E+02 0.00000000E+00 0.0000E+00 0.9000E+01
#aMCatNLO 2  0  0  5  1 0.59608285D+01 0.00000000D+00  -5  6  0 0.00000000D+00 0.00000000D+00 0.00000000D+00 0.00000000D+00 0.00000000D+00
  <mgrwgt>
 -.2701330527D-04    3    2    0
 0.846651413211254D+02 0.000000000000000D+00 0.000000000000000D+00 0.846651413211254D+02
 0.846651413211254D+02 -.000000000000000D+00 -.000000000000000D+00 -.846651413211254D+02
 0.667482577211470D+02 -.170762630210610D+02 -.203457119618728D+02 -.353522722722135D+02
 0.362671161860486D+02 0.133437993258933D+02 -.335842128030786D+02 -.305734957114291D+01
 0.663149087350553D+02 0.373246369516767D+01 0.539299247649514D+02 0.384096218433564D+02
 0.000000000000000D+00 0.000000000000000D+00 0.000000000000000D+00 0.000000000000000D+00
 0.846651413211254D+02 0.000000000000000D+00 0.000000000000000D+00 0.846651413211254D+02
 0.846651413211254D+02 -.000000000000000D+00 -.000000000000000D+00 -.846651413211254D+02
 0.660989176816692D+02 -.170113650965961D+02 -.194080095568026D+02 -.346844279364884D+02
 0.357807328817388D+02 0.133789958278324D+02 -.330756627255467D+02 -.269515332756301D+01
 0.605041854185310D+02 0.294268724647671D+01 0.458602775419706D+02 0.393564732757246D+02
 0.694644666031189D+01 0.689682022286963D+00 0.662339474037860D+01 -.197689201167322D+01
-.392005798261D-06 0.000000000000D+00 0.000000000000D+00 0.270204881992D-06 0.000000000000D+00  6 -3 22 9900012 -11 -4 21 2 0.12252072D-02 0.13847553D+00 0.52244425D+04 0.52244425D+04 0.52244425D+04 0.12397041D+01  1  2 13  2  6  5       -4 -.371507317218D-04 0.100000000000D+01
-.552976324846D-08 0.000000000000D+00 0.000000000000D+00 0.270204881992D-06 0.000000000000D+00  6 -3 22 9900012 -11 -4 21 2 0.12252072D-02 0.13847553D+00 0.53886242D+04 0.53886242D+04 0.53886242D+04 0.12382023D+01  1  2  8  2  6  5       -4 -.524815456413D-06 0.100000000000D+01
0.112505473208D-06 0.000000000000D+00 0.000000000000D+00 0.270204881992D-06 0.153299342965D-07  6 -3 22 9900012 -11 -4 21 2 0.12252072D-02 0.13847553D+00 0.52244425D+04 0.52244425D+04 0.52244425D+04 0.12397041D+01  1  2  1  2  6  5       -4 0.106622419131D-04 0.100000000000D+01
  </mgrwgt>
  </event>
  <event>
  6     66 0.61978431E-06 0.32481613E+02 0.78161638E-02 0.12592789E+00
       -3 -1    0    0    0  501 0.00000000E+00 0.00000000E+00 0.19078082E+02 0.19078082E+02 0.00000000E+00 0.0000E+00 0.9000E+01
       22 -1    0    0    0    0 -.00000000E+00 -.00000000E+00 -.41520135E+03 0.41520135E+03 0.00000000E+00 0.0000E+00 0.9000E+01
       24  2    1    2    0    0 0.16555975E+02 -.27945570E+02 -.39211892E+03 0.40155193E+03 0.80197539E+02 0.0000E+00 0.0000E+00
  9900012  1    3    3    0    0 0.31054457E+02 -.49437337E+01 -.25334031E+03 0.26013484E+03 0.50000000E+02 0.0000E+00 0.9000E+01
      -11  1    3    3    0    0 -.14498483E+02 -.23001836E+02 -.13877861E+03 0.14141709E+03 0.00000000E+00 0.0000E+00 0.9000E+01
       -4  1    1    2    0  501 -.16555975E+02 0.27945570E+02 -.40043509E+01 0.32727512E+02 0.00000000E+00 0.0000E+00 0.9000E+01
#aMCatNLO 1  0  0  5  1 0.71843699D+01 0.00000000D+00  -5  6  0 0.00000000D+00 0.00000000D+00 0.00000000D+00 0.00000000D+00 0.00000000D+00
  <mgrwgt>
 0.1784255517D-04    6    2    0
 0.890013802245924D+02 0.000000000000000D+00 0.000000000000000D+00 0.890013802245924D+02
 0.890013802245924D+02 -.000000000000000D+00 -.000000000000000D+00 -.890013802245924D+02
 0.708821436981665D+02 0.310544574604016D+02 -.494373367447589D+01 -.391849264953181D+02
 0.361853756936652D+02 -.144984827165412D+02 -.230018364240865D+02 -.238765771024537D+02
 0.709352410573531D+02 -.165559747438604D+02 0.279455700985624D+02 0.630615035977719D+02
 0.000000000000000D+00 0.000000000000000D+00 0.000000000000000D+00 0.000000000000000D+00
 0.890013802245924D+02 0.000000000000000D+00 0.000000000000000D+00 0.890013802245924D+02
 0.890013802245924D+02 -.000000000000000D+00 -.000000000000000D+00 -.890013802245924D+02
 0.704558293428360D+02 0.308935015374058D+02 -.467204897463515D+01 -.385718473698596D+02
 0.359245464157098D+02 -.145806016179274D+02 -.228632242583514D+02 -.235637872199296D+02
 0.216660814902277D+02 -.116973117226036D+02 0.798672826188689D+01 0.163952480089874D+02
 0.499563032004113D+02 -.461558819687488D+01 0.195485449710996D+02 0.457403865808018D+02
0.259680293898D-06 0.000000000000D+00 0.000000000000D+00 0.115453305993D-05 0.000000000000D+00  6 -3 22 9900012 -11 -4 21 0 0.29350896D-02 0.63877131D-01 0.35246629D+04 0.35246629D+04 0.35246629D+04 0.12593114D+01  1  2  2  2  6  5       -4 0.190739147005D-04 0.100000000000D+01
0.121928582722D-07 0.000000000000D+00 -.498620351981D-09 0.115453305993D-05 0.000000000000D+00  6 -3 22 9900012 -11 -4 21 2 0.29350896D-02 0.63877131D-01 0.35246629D+04 0.35246629D+04 0.35246629D+04 0.12593114D+01  1  2  3  2  6  5       -4 0.142027568952D-05 0.100000000000D+01
-.343710642455D-07 0.000000000000D+00 0.000000000000D+00 0.115453305993D-05 0.000000000000D+00  6 -3 22 9900012 -11 -4 21 2 0.29350896D-02 0.63877131D-01 0.35246629D+04 0.35246629D+04 0.35246629D+04 0.12593114D+01  1  2 15  2  6  5       -4 -.400368690271D-05 0.100000000000D+01
0.273963337778D-06 0.000000000000D+00 0.000000000000D+00 0.115453305993D-05 0.000000000000D+00  6 -3 22 9900012 -11 -4 21 2 0.29350896D-02 0.63877131D-01 0.36196062D+04 0.36196062D+04 0.36196062D+04 0.12579573D+01  1  2 12  2  6  5       -4 0.319486183474D-04 0.100000000000D+01
-.272612572481D-06 0.000000000000D+00 0.000000000000D+00 0.115453305993D-05 0.000000000000D+00  6 -3 22 9900012 -11 -4 21 2 0.29350896D-02 0.63877131D-01 0.35246629D+04 0.35246629D+04 0.35246629D+04 0.12593114D+01  1  2  5  2  6  5       -4 -.317550651955D-04 0.100000000000D+01
0.993426762368D-08 0.000000000000D+00 0.000000000000D+00 0.115453305993D-05 0.421707092138D-07  6 -3 22 9900012 -11 -4 21 2 0.29350896D-02 0.63877131D-01 0.36196062D+04 0.36196062D+04 0.36196062D+04 0.12579573D+01  1  2 11  2  6  5       -4 0.115849853285D-05 0.100000000000D+01
  </mgrwgt>
  </event>
  <event>
  6     66 0.61978431E-06 0.24831381E+02 0.78161638E-02 0.12767350E+00
       -3 -1    0    0    0  501 0.00000000E+00 0.00000000E+00 0.16009871E+02 0.16009871E+02 0.00000000E+00 0.0000E+00 0.9000E+01
       22 -1    0    0    0    0 0.00000000E+00 0.00000000E+00 -.20262525E+04 0.20262525E+04 0.00000000E+00 0.0000E+00 0.9000E+01
       24  2    1    2    0    0 -.24300225E+02 -.68370472E+01 -.20148271E+04 0.20166057E+04 0.80827791E+02 0.0000E+00 0.0000E+00
  9900012  1    3    3    0    0 -.14559113E+02 -.27501068E+02 -.11829994E+04 0.11844644E+04 0.50000000E+02 0.0000E+00 0.9000E+01
      -11  1    3    3    0    0 -.97411119E+01 0.20664021E+02 -.83182763E+03 0.83214127E+03 0.00000000E+00 0.0000E+00 0.9000E+01
       -4  1    1    2    0  501 0.24300225E+02 0.68370472E+01 0.45844766E+01 0.25656648E+02 0.00000000E+00 0.0000E+00 0.9000E+01
#aMCatNLO 1  0  0  1  5 0.10503440D+02 0.00000000D+00  -5  6  0 0.00000000D+00 0.00000000D+00 0.00000000D+00 0.00000000D+00 0.00000000D+00
  <mgrwgt>
 0.1098081691D-03    6    4    0
 0.180111190166382D+03 0.000000000000000D+00 0.000000000000000D+00 0.180111190166382D+03
 0.180111190166382D+03 0.000000000000000D+00 0.000000000000000D+00 -.180111190166382D+03
 0.113461027758242D+03 -.145591130793792D+02 -.275010679631457D+02 -.969800407670818D+02
 0.757183549398641D+02 -.974111192644596D+01 0.206640207155083D+02 -.721898764447255D+02
 0.171042997634659D+03 0.243002250058252D+02 0.683704724763742D+01 0.169169917211807D+03
 0.000000000000000D+00 0.000000000000000D+00 -.000000000000000D+00 -.000000000000000D+00
 0.180754553188164D+03 0.000000000000000D+00 0.000000000000000D+00 0.180754553188164D+03
 0.185119736681096D+03 0.000000000000000D+00 0.000000000000000D+00 -.185119736681096D+03
 0.113312703640522D+03 -.151549921317726D+02 -.265512092497823D+02 -.969800407670818D+02
 0.759463607363461D+02 -.101396317483901D+02 0.212992797060724D+02 -.721898764447255D+02
 0.170980930277044D+03 0.234015102702040D+02 0.826964001798108D+01 0.169169917211807D+03
 0.563429521534886D+01 0.189311360995870D+01 -.301771047427123D+01 -.436518349293198D+01
 0.180111190166382D+03 0.000000000000000D+00 0.000000000000000D+00 0.180111190166382D+03
 0.180111190166382D+03 0.000000000000000D+00 0.000000000000000D+00 -.180111190166382D+03
 0.113461027758242D+03 -.145591130793792D+02 -.275010679631457D+02 -.969800407670818D+02
 0.757183549398641D+02 -.974111192644596D+01 0.206640207155083D+02 -.721898764447255D+02
 0.000000000000000D+00 0.000000000000000D+00 -.000000000000000D+00 -.000000000000000D+00
 0.171042997634659D+03 0.243002250058252D+02 0.683704724763742D+01 0.169169917211807D+03
 0.180754553188164D+03 0.000000000000000D+00 0.000000000000000D+00 0.180754553188164D+03
 0.185119736681096D+03 0.000000000000000D+00 0.000000000000000D+00 -.185119736681096D+03
 0.113312703640522D+03 -.151549921317726D+02 -.265512092497823D+02 -.969800407670818D+02
 0.759463607363461D+02 -.101396317483901D+02 0.212992797060724D+02 -.721898764447255D+02
 0.563429521534886D+01 0.189311360995870D+01 -.301771047427123D+01 -.436518349293198D+01
 0.170980930277044D+03 0.234015102702040D+02 0.826964001798108D+01 0.169169917211807D+03
0.259353027922D-04 0.000000000000D+00 0.000000000000D+00 0.166414053856D-04 0.000000000000D+00  6 -3 22 9900012 -11 -4 21 0 0.24630571D-02 0.31173115D+00 0.28612199D+04 0.28612199D+04 0.28612199D+04 0.12701004D+01  1  2  2  1  6  1       -3 0.676614504657D-04 0.100000000000D+01
0.267107342517D-05 0.000000000000D+00 -.497991958220D-07 0.166414053856D-04 0.000000000000D+00  6 -3 22 9900012 -11 -4 21 2 0.24630571D-02 0.31173115D+00 0.28612199D+04 0.28612199D+04 0.28612199D+04 0.12701004D+01  1  2  3  1  6  1       -3 0.112411798166D-04 0.100000000000D+01
-.366801850045D-05 0.000000000000D+00 0.000000000000D+00 0.166414053856D-04 0.000000000000D+00  6 -3 22 9900012 -11 -4 21 2 0.24630571D-02 0.31173115D+00 0.28612199D+04 0.28612199D+04 0.28612199D+04 0.12701004D+01  1  2 15  1  6  1       -3 -.154368109636D-04 0.100000000000D+01
0.694228189659D-05 0.000000000000D+00 0.000000000000D+00 0.166414053856D-04 0.000000000000D+00  6 -3 22 9900012 -11 -4 21 2 0.25405928D-02 0.31173115D+00 0.30568471D+04 0.30568471D+04 0.30568471D+04 0.12666462D+01  1  2 12  1  6  1       -3 0.279887903226D-04 0.100000000000D+01
-.207267796018D-07 0.000000000000D+00 0.000000000000D+00 0.166414053856D-04 0.000000000000D+00  6 -3 22 9900012 -11 -4 21 2 0.24630571D-02 0.31173115D+00 0.28612199D+04 0.28612199D+04 0.28612199D+04 0.12701004D+01  1  2  4  1  6  1       -3 -.872283982643D-07 0.100000000000D+01
0.238258338644D-06 0.000000000000D+00 0.000000000000D+00 0.166414053856D-04 0.000000000000D+00  6 21 22 9900012 -11 3 -4 2 0.25405928D-02 0.31173115D+00 0.30568471D+04 0.30568471D+04 0.30568471D+04 0.12666462D+01  3  4 12  3  5  1       -3 0.184407878322D-04 0.100000000000D+01
  </mgrwgt>
  </event>
  <event>
  6     66 0.61978431E-06 0.38229420E+02 0.78161638E-02 0.12416935E+00
       -1 -1    0    0    0  501 0.00000000E+00 0.00000000E+00 0.32742831E+02 0.32742831E+02 0.00000000E+00 0.0000E+00 0.9000E+01
       22 -1    0    0    0    0 -.00000000E+00 -.00000000E+00 -.16952738E+03 0.16952738E+03 0.00000000E+00 0.0000E+00 0.9000E+01
       24  2    1    2    0    0 0.37756035E+02 0.59975291E+01 -.13806147E+03 0.16401947E+03 0.79874456E+02 0.0000E+00 0.0000E+00
  9900012  1    3    3    0    0 0.82144443E+01 0.17762920E+02 -.10621826E+03 0.11901813E+03 0.50000000E+02 0.0000E+00 0.9000E+01
      -11  1    3    3    0    0 0.29541591E+02 -.11765391E+02 -.31843216E+02 0.45001338E+02 0.00000000E+00 0.0000E+00 0.9000E+01
       -2  1    1    2    0  501 -.37756035E+02 -.59975291E+01 0.12769228E+01 0.38250740E+02 0.00000000E+00 0.0000E+00 0.9000E+01
#aMCatNLO 1  0  0  5  1 0.14085937D+02 0.00000000D+00  -5  6  0 0.00000000D+00 0.00000000D+00 0.00000000D+00 0.00000000D+00 0.00000000D+00
  <mgrwgt>
 0.5191818488D-04    5    2    0
 0.745037345480686D+02 0.000000000000000D+00 0.000000000000000D+00 0.745037345480686D+02
 0.745037345480686D+02 -.000000000000000D+00 -.000000000000000D+00 -.745037345480686D+02
 0.640558967707225D+02 0.821444428797098D+01 0.177629197182946D+02 -.349307815432563D+02
 0.318559214840280D+02 0.295415910112730D+02 -.117653905963350D+02 -.191565086456239D+01
 0.530956508413869D+02 -.377560352992440D+02 -.599752912195961D+01 0.368464324078187D+02
 0.000000000000000D+00 0.000000000000000D+00 0.000000000000000D+00 0.000000000000000D+00
 0.745037345480686D+02 0.000000000000000D+00 0.000000000000000D+00 0.745037345480686D+02
 0.745037345480686D+02 -.000000000000000D+00 -.000000000000000D+00 -.745037345480686D+02
 0.614658539262993D+02 0.427150919219325D+01 0.171365862625835D+02 -.310828380199622D+02
 0.301208845655861D+02 0.275947529346828D+02 -.120746449438200D+02 -.157152111097267D-01
 0.465074863348920D+02 -.381159884801051D+02 -.108980272821579D+02 0.243177036072901D+02
 0.109132442693598D+02 0.624972635322899D+01 0.583608596339437D+01 0.678084962378180D+01
0.213349788646D-06 0.000000000000D+00 0.000000000000D+00 0.557091340035D-06 0.000000000000D+00  6 -1 22 9900012 -11 -2 21 0 0.50373587D-02 0.26081136D-01 0.38267370D+04 0.38267370D+04 0.38267370D+04 0.12551371D+01  1  2  2  2  6  5       -2 0.344149061027D-04 0.100000000000D+01
0.247195976125D-08 0.000000000000D+00 -.409659682345D-09 0.557091340035D-06 0.000000000000D+00  6 -1 22 9900012 -11 -2 21 2 0.50373587D-02 0.26081136D-01 0.38267370D+04 0.38267370D+04 0.38267370D+04 0.12551371D+01  1  2  3  2  6  5       -2 0.628171316457D-06 0.100000000000D+01
-.254225746159D-07 0.000000000000D+00 0.000000000000D+00 0.557091340035D-06 0.000000000000D+00  6 -1 22 9900012 -11 -2 21 2 0.50373587D-02 0.26081136D-01 0.38267370D+04 0.38267370D+04 0.38267370D+04 0.12551371D+01  1  2 15  2  6  5       -2 -.646035279965D-05 0.100000000000D+01
0.113836919034D-06 0.000000000000D+00 0.000000000000D+00 0.557091340035D-06 0.000000000000D+00  6 -1 22 9900012 -11 -2 21 2 0.50373587D-02 0.26081136D-01 0.43127216D+04 0.43127216D+04 0.43127216D+04 0.12491429D+01  1  2 12  2  6  5       -2 0.290473804735D-04 0.100000000000D+01
-.224773665418D-07 0.000000000000D+00 0.000000000000D+00 0.557091340035D-06 0.000000000000D+00  6 -1 22 9900012 -11 -2 21 2 0.50373587D-02 0.26081136D-01 0.38267370D+04 0.38267370D+04 0.38267370D+04 0.12551371D+01  1  2  4  2  6  5       -2 -.571192021505D-05 0.100000000000D+01
  </mgrwgt>
  </event>
  <event>
  6     66 0.61978431E-06 0.29780995E+02 0.78161638E-02 0.12077901E+00
       -1 -1    0    0    0  501 0.00000000E+00 0.00000000E+00 0.26093997E+02 0.26093997E+02 0.00000000E+00 0.0000E+00 0.9000E+01
       22 -1    0    0    0    0 0.00000000E+00 0.00000000E+00 -.62265867E+03 0.62265867E+03 0.00000000E+00 0.0000E+00 0.9000E+01
       24  2    1    2    0    0 0.56679784E+02 -.17132962E+02 -.57964562E+03 0.58717028E+03 0.72620629E+02 0.0000E+00 0.0000E+00
  9900012  1    3    3    0    0 0.25807607E+02 -.93597404E+01 -.45333374E+03 0.45690822E+03 0.50000000E+02 0.0000E+00 0.9000E+01
      -11  1    3    3    0    0 0.30872177E+02 -.77732218E+01 -.12631188E+03 0.13026206E+03 0.00000000E+00 0.0000E+00 0.9000E+01
       -2  1    1    2    0  501 -.56679784E+02 0.17132962E+02 -.16919055E+02 0.61582390E+02 0.00000000E+00 0.0000E+00 0.9000E+01
#aMCatNLO 1  0  0  1  5 0.99250123D+01 0.00000000D+00  -5  6  0 0.00000000D+00 0.00000000D+00 0.00000000D+00 0.00000000D+00 0.00000000D+00
  <mgrwgt>
 0.1394600738D-03   11    4    0
 0.127466284155473D+03 0.000000000000000D+00 0.000000000000000D+00 0.127466284155473D+03
 0.127466284155473D+03 0.000000000000000D+00 0.000000000000000D+00 -.127466284155473D+03
 0.101899609415917D+03 0.258076072501670D+02 -.935974043293339D+01 -.844386941287331D+02
 0.359101074661960D+02 0.308721766642203D+02 -.777322176456905D+01 -.166138962812988D+02
 0.117122851428832D+03 -.566797839143873D+02 0.171329621975024D+02 0.101052590410032D+03
 0.000000000000000D+00 -.000000000000000D+00 0.000000000000000D+00 0.000000000000000D+00
 0.146194076672243D+03 0.000000000000000D+00 0.000000000000000D+00 0.146194076672243D+03
 0.128785394688609D+03 0.000000000000000D+00 0.000000000000000D+00 -.128785394688609D+03
 0.102995171168358D+03 0.292438005080283D+02 -.110865842205919D+02 -.844386941287331D+02
 0.371023383579977D+02 0.320966337898026D+02 -.838856730013483D+01 -.166138962812988D+02
 0.115014737858442D+03 -.527867144231564D+02 0.151765172709911D+02 0.101052590410032D+03
 0.198672239760536D+02 -.855371987467455D+01 0.429863424973568D+01 0.174086819836332D+02
 0.127466284155473D+03 0.000000000000000D+00 0.000000000000000D+00 0.127466284155473D+03
 0.127466284155473D+03 0.000000000000000D+00 0.000000000000000D+00 -.127466284155473D+03
 0.101899609415917D+03 0.258076072501670D+02 -.935974043293339D+01 -.844386941287331D+02
 0.359101074661960D+02 0.308721766642203D+02 -.777322176456905D+01 -.166138962812988D+02
 0.000000000000000D+00 -.000000000000000D+00 0.000000000000000D+00 0.000000000000000D+00
 0.117122851428832D+03 -.566797839143873D+02 0.171329621975024D+02 0.101052590410032D+03
 0.146194076672243D+03 0.000000000000000D+00 0.000000000000000D+00 0.146194076672243D+03
 0.128785394688609D+03 0.000000000000000D+00 0.000000000000000D+00 -.128785394688609D+03
 0.102995171168358D+03 0.292438005080283D+02 -.110865842205919D+02 -.844386941287331D+02
 0.371023383579977D+02 0.320966337898026D+02 -.838856730013483D+01 -.166138962812988D+02
 0.198672239760536D+02 -.855371987467455D+01 0.429863424973568D+01 0.174086819836332D+02
 0.115014737858442D+03 -.527867144231564D+02 0.151765172709911D+02 0.101052590410032D+03
0.580851608423D-06 0.000000000000D+00 0.000000000000D+00 0.782909548551D-07 0.000000000000D+00  6 -1 22 9900012 -11 -2 21 0 0.40144611D-02 0.95793642D-01 0.54825909D+04 0.54825909D+04 0.54825909D+04 0.12373657D+01  1  2  2  1  6  1       -1 0.152599517638D-04 0.100000000000D+01
0.727104619271D-08 0.000000000000D+00 -.111531155904D-08 0.782909548551D-07 0.000000000000D+00  6 -1 22 9900012 -11 -2 21 2 0.40144611D-02 0.95793642D-01 0.54825909D+04 0.54825909D+04 0.54825909D+04 0.12373657D+01  1  2  3  1  6  1       -1 0.292469813536D-06 0.100000000000D+01
-.729998005058D-07 0.000000000000D+00 0.000000000000D+00 0.782909548551D-07 0.000000000000D+00  6 -1 22 9900012 -11 -2 21 2 0.40144611D-02 0.95793642D-01 0.54825909D+04 0.54825909D+04 0.54825909D+04 0.12373657D+01  1  2 15  1  6  1       -1 -.293633646057D-05 0.100000000000D+01
0.370477854153D-05 0.000000000000D+00 0.000000000000D+00 0.782909548551D-07 0.000000000000D+00  6 -1 22 9900012 -11 -2 21 2 0.46519281D-02 0.95793642D-01 0.61346821D+04 0.61346821D+04 0.61346821D+04 0.12319715D+01  1  2 12  1  6  1       -1 0.120960660575D-03 0.100000000000D+01
-.523868400563D-06 0.000000000000D+00 0.000000000000D+00 0.782909548551D-07 0.000000000000D+00  6 -1 22 9900012 -11 -2 21 2 0.40144611D-02 0.95793642D-01 0.54825909D+04 0.54825909D+04 0.54825909D+04 0.12373657D+01  1  2  4  1  6  1       -1 -.210720286145D-04 0.100000000000D+01
-.475970240491D-05 0.000000000000D+00 -.516077703474D-06 0.782909548551D-07 0.000000000000D+00  6 -1 22 9900012 -11 -2 21 2 0.46494744D-02 0.95793642D-01 0.54825909D+04 0.54825909D+04 0.54825909D+04 0.12373657D+01  1  2  5  1  6  1       -1 -.155183971935D-03 0.100000000000D+01
0.478927032528D-05 0.000000000000D+00 0.510562601346D-06 0.782909548551D-07 0.000000000000D+00  6 -1 22 9900012 -11 -2 21 2 0.40144611D-02 0.95793642D-01 0.54825909D+04 0.54825909D+04 0.54825909D+04 0.12373657D+01  1  2  6  1  6  1       -1 0.192643116532D-03 0.100000000000D+01
0.212880210808D-14 0.000000000000D+00 0.000000000000D+00 0.782909548551D-07 0.233572874969D-06  6 -1 22 9900012 -11 -2 21 2 0.46042798D-02 0.96784982D-01 0.61346821D+04 0.61346821D+04 0.61346821D+04 0.12319715D+01  1  2 11  1  6  1       -1 0.691682620217D-13 0.100000000000D+01
0.833101523501D-07 0.000000000000D+00 0.000000000000D+00 0.782909548551D-07 0.000000000000D+00  6 21 22 9900012 -11 1 -2 2 0.46519281D-02 0.95793642D-01 0.61346821D+04 0.61346821D+04 0.61346821D+04 0.12319715D+01  3  4 12  3  5  1       -1 0.440512707854D-04 0.100000000000D+01
-.103273353013D-06 0.000000000000D+00 -.115713907058D-07 0.782909548551D-07 0.000000000000D+00  6 21 22 9900012 -11 1 -2 2 0.46494744D-02 0.95793642D-01 0.54825909D+04 0.54825909D+04 0.54825909D+04 0.12373657D+01  3  4  5  3  5  1       -1 -.545550589069D-04 0.100000000000D+01
0.350584637611D-15 0.000000000000D+00 0.000000000000D+00 0.782909548551D-07 0.164933247037D-09  6 21 22 9900012 -11 1 -2 2 0.46042798D-02 0.96784982D-01 0.61346821D+04 0.61346821D+04 0.61346821D+04 0.12319715D+01  3  4 11  3  5  1       -1 0.184738009750D-12 0.100000000000D+01
  </mgrwgt>
  </event>
  <event>
  6     66 0.61978431E-06 0.51446433E+02 0.78161638E-02 0.12137486E+00
       -1 -1    0    0    0  501 0.00000000E+00 0.00000000E+00 0.16642928E+03 0.16642928E+03 0.00000000E+00 0.0000E+00 0.9000E+01
       22 -1    0    0    0    0 0.00000000E+00 0.00000000E+00 -.55038049E+02 0.55038049E+02 0.00000000E+00 0.0000E+00 0.9000E+01
       24  2    1    2    0    0 -.54388176E+02 0.11722400E+02 0.52471488E+00 0.97423495E+02 0.79972330E+02 0.0000E+00 0.0000E+00
  9900012  1    3    3    0    0 -.31400552E+02 0.31206819E+02 0.49529862E+01 0.66965605E+02 0.50000000E+02 0.0000E+00 0.9000E+01
      -11  1    3    3    0    0 -.22987624E+02 -.19484419E+02 -.44282714E+01 0.30457889E+02 0.00000000E+00 0.0000E+00 0.9000E+01
       -2  1    1    2    0  501 0.54388176E+02 -.11722400E+02 0.11086652E+03 0.12404384E+03 0.00000000E+00 0.0000E+00 0.9000E+01
#aMCatNLO 1  0  0  5  1 0.20057041D+02 0.00000000D+00  -5  6  0 0.00000000D+00 0.00000000D+00 0.00000000D+00 0.00000000D+00 0.00000000D+00
  <mgrwgt>
 0.3973565725D-04    7    2    0
 0.957075910036968D+02 0.000000000000000D+00 0.000000000000000D+00 0.957075910036968D+02
 0.957075910036968D+02 -.000000000000000D+00 -.000000000000000D+00 -.957075910036968D+02
 0.745968762612555D+02 -.314005517510812D+02 0.312068190832884D+02 -.332390394019991D+02
 0.378167397371750D+02 -.229876242508349D+02 -.194844187719082D+02 -.228480275028845D+02
 0.790015660089630D+02 0.543881760019162D+02 -.117224003113803D+02 0.560870669048836D+02
 0.000000000000000D+00 0.000000000000000D+00 -.000000000000000D+00 0.000000000000000D+00
 0.957075910036968D+02 0.000000000000000D+00 0.000000000000000D+00 0.957075910036968D+02
 0.957075910036968D+02 -.000000000000000D+00 -.000000000000000D+00 -.957075910036968D+02
 0.718816237923930D+02 -.285342697978651D+02 0.305890431817818D+02 -.302832251148527D+02
 0.362191553411391D+02 -.215388945746336D+02 -.197966665885441D+02 -.213540447248386D+02
 0.482968802460303D+02 0.221721180363577D+02 0.811320587381133D+01 0.421326680110620D+02
 0.350175226278312D+02 0.279010463361411D+02 -.189055824670491D+02 0.950460182862931D+01
0.298312194008D-06 0.000000000000D+00 0.000000000000D+00 0.800043442046D-06 0.000000000000D+00  6 -1 22 9900012 -11 -2 21 0 0.25604505D-01 0.84673921D-02 0.58181468D+04 0.58181468D+04 0.58181468D+04 0.12345051D+01  1  2  2  2  6  5       -2 0.229254815610D-04 0.100000000000D+01
0.157717782386D-08 0.000000000000D+00 -.572798686198D-09 0.800043442046D-06 0.000000000000D+00  6 -1 22 9900012 -11 -2 21 2 0.25604505D-01 0.84673921D-02 0.58181468D+04 0.58181468D+04 0.58181468D+04 0.12345051D+01  1  2  3  2  6  5       -2 0.184719979191D-06 0.100000000000D+01
-.361614818291D-07 0.000000000000D+00 0.000000000000D+00 0.800043442046D-06 0.000000000000D+00  6 -1 22 9900012 -11 -2 21 2 0.25604505D-01 0.84673921D-02 0.58181468D+04 0.58181468D+04 0.58181468D+04 0.12345051D+01  1  2 15  2  6  5       -2 -.423525367268D-05 0.100000000000D+01
0.150582387345D-06 0.000000000000D+00 0.000000000000D+00 0.800043442046D-06 0.000000000000D+00  6 -1 22 9900012 -11 -2 21 2 0.25604505D-01 0.84673921D-02 0.57576733D+04 0.57576733D+04 0.57576733D+04 0.12350067D+01  1  2 12  2  6  5       -2 0.176342484544D-04 0.100000000000D+01
-.455450795464D-07 0.000000000000D+00 0.000000000000D+00 0.800043442046D-06 0.000000000000D+00  6 -1 22 9900012 -11 -2 21 2 0.25604505D-01 0.84673921D-02 0.58181468D+04 0.58181468D+04 0.58181468D+04 0.12345051D+01  1  2  4  2  6  5       -2 -.533426606612D-05 0.100000000000D+01
-.138761917681D-06 0.000000000000D+00 0.000000000000D+00 0.800043442046D-06 0.000000000000D+00  6 -1 22 9900012 -11 -2 21 2 0.25604505D-01 0.84673921D-02 0.58181468D+04 0.58181468D+04 0.58181468D+04 0.12345051D+01  1  2  5  2  6  5       -2 -.162518760781D-04 0.100000000000D+01
0.211855195599D-06 0.000000000000D+00 -.000000000000D+00 0.800043442046D-06 0.000000000000D+00  6 -1 22 9900012 -11 -2 21 2 0.25604505D-01 0.84673921D-02 0.58181468D+04 0.58181468D+04 0.58181468D+04 0.12345051D+01  1  2  6  2  6  5       -2 0.248126030752D-04 0.100000000000D+01
  </mgrwgt>
  </event>
  <event>
  7     66 0.61978431E-06 0.61795818E+02 0.78161638E-02 0.11819422E+00
       -1 -1    0    0    0  502 0.00000000E+00 0.00000000E+00 0.14879903E+02 0.14879903E+02 0.00000000E+00 0.0000E+00 0.9000E+01
       22 -1    0    0    0    0 0.00000000E+00 0.00000000E+00 -.82134141E+03 0.82134141E+03 0.00000000E+00 0.0000E+00 0.9000E+01
       24  2    1    2    0    0 0.59287978E+02 0.39784263E+02 -.67328173E+03 0.68234703E+03 0.84801710E+02 0.0000E+00 0.0000E+00
  9900012  1    3    3    0    0 0.12661420E+02 0.34423028E+02 -.44415033E+03 0.44845822E+03 0.50000000E+02 0.0000E+00 0.9000E+01
      -11  1    3    3    0    0 0.46626558E+02 0.53612355E+01 -.22913140E+03 0.23388881E+03 0.00000000E+00 0.0000E+00 0.9000E+01
       -2  1    1    2    0  501 -.53435667E+02 -.37052504E+02 -.13222056E+03 0.14734495E+03 0.00000000E+00 0.0000E+00 0.9000E+01
       21  1    1    2  501  502 -.58523112E+01 -.27317590E+01 -.95921650E+00 0.65293300E+01 0.00000000E+00 0.0000E+00 0.9000E+01
#aMCatNLO 2  0  0  1  5 0.65366659D+01 0.00000000D+00  -5  6  0 0.00000000D+00 0.00000000D+00 0.00000000D+00 0.00000000D+00 0.00000000D+00
  <mgrwgt>
 0.5713864110D-04    2    2    0
 0.993895560725462D+02 0.000000000000000D+00 0.000000000000000D+00 0.993895560725462D+02
 0.993895560725462D+02 0.000000000000000D+00 0.000000000000000D+00 -.993895560725462D+02
 0.711842658858858D+02 0.105543282631272D+02 0.334394734519379D+02 -.365733165010199D+02
 0.462940368273964D+02 0.452430455203965D+02 0.471543559127412D+01 -.860054329680447D+01
 0.813008094318103D+02 -.557973737835238D+02 -.381549090432120D+02 0.451738597978244D+02
 0.000000000000000D+00 -.000000000000000D+00 -.000000000000000D+00 0.000000000000000D+00
 0.122340318712999D+03 0.000000000000000D+00 0.000000000000000D+00 0.122340318712999D+03
 0.998974077906246D+02 0.000000000000000D+00 0.000000000000000D+00 -.998974077906246D+02
 0.719921099397563D+02 0.126614200878531D+02 0.344230279762413D+02 -.365733165010199D+02
 0.477152813884698D+02 0.466265577424263D+02 0.536123549872876D+01 -.860054329680447D+01
 0.791766137567064D+02 -.534356666617749D+02 -.370525044410881D+02 0.451738597978244D+02
 0.233537214186910D+02 -.585231116850450D+01 -.273175903388195D+01 0.224429109223743D+02
-.141937142981D-05 0.000000000000D+00 0.000000000000D+00 0.315916134730D-07 0.000000000000D+00  6 -1 22 9900012 -11 -2 21 2 0.23009131D-02 0.12571784D+00 0.81385161D+04 0.81385161D+04 0.81385161D+04 0.12187175D+01  1  2 13  1  6  1       -1 -.741637664087D-04 0.100000000000D+01
0.252133412683D-05 0.000000000000D+00 0.000000000000D+00 0.315916134730D-07 0.120879078054D-07  6 -1 22 9900012 -11 -2 21 2 0.22892159D-02 0.12636022D+00 0.81385161D+04 0.81385161D+04 0.81385161D+04 0.12187175D+01  1  2  1  1  6  1       -1 0.131302407505D-03 0.100000000000D+01
  </mgrwgt>
  </event>
  <event>
  6     66 0.61978431E-06 0.55319804E+02 0.78161638E-02 0.11693387E+00
       -1 -1    0    0    0  501 0.00000000E+00 0.00000000E+00 0.86995037E+03 0.86995037E+03 0.00000000E+00 0.0000E+00 0.9000E+01
       22 -1    0    0    0    0 0.00000000E+00 0.00000000E+00 -.16275456E+04 0.16275456E+04 0.00000000E+00 0.0000E+00 0.9000E+01
       24  2    1    2    0    0 0.80054724E+01 0.81626494E+02 -.16236071E+04 0.16276090E+04 0.79272517E+02 0.0000E+00 0.0000E+00
  9900012  1    3    3    0    0 0.18177725E+01 0.52477255E+02 -.75068511E+03 0.75417856E+03 0.50000000E+02 0.0000E+00 0.9000E+01
      -11  1    3    3    0    0 0.61876999E+01 0.29149239E+02 -.87292194E+03 0.87343041E+03 0.00000000E+00 0.0000E+00 0.9000E+01
       -2  1    1    2    0  501 -.80054724E+01 -.81626494E+02 0.86601181E+03 0.86988702E+03 0.00000000E+00 0.0000E+00 0.9000E+01
#aMCatNLO 1  0  0  1  5 0.87783829D+01 0.00000000D+00  -5  6  0 0.00000000D+00 0.00000000D+00 0.00000000D+00 0.00000000D+00 0.00000000D+00
  <mgrwgt>
 0.9838884284D-02   11    4    0
 0.118990920350044D+04 0.000000000000000D+00 0.000000000000000D+00 0.118990920350044D+04
 0.118990920350044D+04 0.000000000000000D+00 0.000000000000000D+00 -.118990920350044D+04
 0.552496967503383D+03 0.181777247647454D+01 0.524772548507886D+02 -.547718661839255D+03
 0.638732532507971D+03 0.618769994262975D+01 0.291492391398456D+02 -.638037054026672D+03
 0.118858890698953D+04 -.800547241910428D+01 -.816264939906342D+02 0.118575571586593D+04
 0.000000000000000D+00 -.000000000000000D+00 0.000000000000000D+00 0.000000000000000D+00
 0.126057650260558D+04 0.000000000000000D+00 0.000000000000000D+00 0.126057650260558D+04
 0.119018880718680D+04 0.000000000000000D+00 0.000000000000000D+00 -.119018880718680D+04
 0.552330570665146D+03 0.272030695214931D+01 0.506549769952416D+02 -.547718661839255D+03
 0.638650813259788D+03 0.723119539181028D+01 0.270423515907753D+02 -.638037054026672D+03
 0.118885314770221D+04 -.606333815456980D+01 -.855477937948488D+02 0.118575571586593D+04
 0.709307781652358D+02 -.388816418938979D+01 0.785046520883189D+01 0.703876954187815D+02
 0.118990920350044D+04 0.000000000000000D+00 0.000000000000000D+00 0.118990920350044D+04
 0.118990920350044D+04 0.000000000000000D+00 0.000000000000000D+00 -.118990920350044D+04
 0.552496967503383D+03 0.181777247647454D+01 0.524772548507886D+02 -.547718661839255D+03
 0.638732532507971D+03 0.618769994262975D+01 0.291492391398456D+02 -.638037054026672D+03
 0.000000000000000D+00 -.000000000000000D+00 0.000000000000000D+00 0.000000000000000D+00
 0.118858890698953D+04 -.800547241910428D+01 -.816264939906342D+02 0.118575571586593D+04
 0.126057650260558D+04 0.000000000000000D+00 0.000000000000000D+00 0.126057650260558D+04
 0.119018880718680D+04 0.000000000000000D+00 0.000000000000000D+00 -.119018880718680D+04
 0.552330570665146D+03 0.272030695214931D+01 0.506549769952416D+02 -.547718661839255D+03
 0.638650813259788D+03 0.723119539181028D+01 0.270423515907753D+02 -.638037054026672D+03
 0.709307781652358D+02 -.388816418938979D+01 0.785046520883189D+01 0.703876954187815D+02
 0.118885314770221D+04 -.606333815456980D+01 -.855477937948488D+02 0.118575571586593D+04
0.598136479670D-02 0.000000000000D+00 0.000000000000D+00 0.137155100058D-01 0.000000000000D+00  6 -1 22 9900012 -11 -2 21 0 0.13383852D+00 0.25039163D+00 0.84937602D+04 0.84937602D+04 0.84937602D+04 0.12167508D+01  1  2  2  1  6  1       -1 0.519897790659D-04 0.100000000000D+01
0.891420878596D-04 0.000000000000D+00 -.114850078744D-04 0.137155100058D-01 0.000000000000D+00  6 -1 22 9900012 -11 -2 21 2 0.13383852D+00 0.25039163D+00 0.84937602D+04 0.84937602D+04 0.84937602D+04 0.12167508D+01  1  2  3  1  6  1       -1 0.114710655987D-05 0.100000000000D+01
-.777351913104D-03 0.000000000000D+00 0.000000000000D+00 0.137155100058D-01 0.000000000000D+00  6 -1 22 9900012 -11 -2 21 2 0.13383852D+00 0.25039163D+00 0.84937602D+04 0.84937602D+04 0.84937602D+04 0.12167508D+01  1  2 15  1  6  1       -1 -.100031926586D-04 0.100000000000D+01
0.856508925010D+00 0.000000000000D+00 0.000000000000D+00 0.137155100058D-01 0.000000000000D+00  6 -1 22 9900012 -11 -2 21 2 0.14182035D+00 0.25039163D+00 0.93840624D+04 0.93840624D+04 0.93840624D+04 0.12122023D+01  1  2 12  1  6  1       -1 0.939087002059D-02 0.100000000000D+01
-.872582761479D-01 0.000000000000D+00 0.000000000000D+00 0.137155100058D-01 0.000000000000D+00  6 -1 22 9900012 -11 -2 21 2 0.13383852D+00 0.25039163D+00 0.84937602D+04 0.84937602D+04 0.84937602D+04 0.12167508D+01  1  2  4  1  6  1       -1 -.112286511765D-02 0.100000000000D+01
-.855934518672D+00 0.000000000000D+00 -.111394411877D-01 0.137155100058D-01 0.000000000000D+00  6 -1 22 9900012 -11 -2 21 2 0.14180102D+00 0.25039163D+00 0.84937602D+04 0.84937602D+04 0.84937602D+04 0.12167508D+01  1  2  5  1  6  1       -1 -.946948872006D-02 0.100000000000D+01
0.855168416962D+00 0.000000000000D+00 0.111208653904D-01 0.137155100058D-01 0.000000000000D+00  6 -1 22 9900012 -11 -2 21 2 0.13383852D+00 0.25039163D+00 0.84937602D+04 0.84937602D+04 0.84937602D+04 0.12167508D+01  1  2  6  1  6  1       -1 0.110045582782D-01 0.100000000000D+01
0.663213441960D-04 0.000000000000D+00 0.000000000000D+00 0.137155100058D-01 0.185657320325D-03  6 -1 22 9900012 -11 -2 21 2 0.14178703D+00 0.25045047D+00 0.93840624D+04 0.93840624D+04 0.93840624D+04 0.12122023D+01  1  2 11  1  6  1       -1 0.727129341187D-06 0.100000000000D+01
0.137023784636D-01 0.000000000000D+00 0.000000000000D+00 0.137155100058D-01 0.000000000000D+00  6 21 22 9900012 -11 1 -2 2 0.14182035D+00 0.25039163D+00 0.93840624D+04 0.93840624D+04 0.93840624D+04 0.12122023D+01  3  4 12  3  5  1       -1 0.106850835185D-02 0.100000000000D+01
-.136540804777D-01 0.000000000000D+00 -.110903789053D-03 0.137155100058D-01 0.000000000000D+00  6 21 22 9900012 -11 1 -2 2 0.14180102D+00 0.25039163D+00 0.84937602D+04 0.84937602D+04 0.84937602D+04 0.12167508D+01  3  4  5  3  5  1       -1 -.107698997663D-02 0.100000000000D+01
0.552238720654D-05 0.000000000000D+00 0.000000000000D+00 0.137155100058D-01 0.127181046509D-04  6 21 22 9900012 -11 1 -2 2 0.14178703D+00 0.25045047D+00 0.93840624D+04 0.93840624D+04 0.93840624D+04 0.12122023D+01  3  4 11  3  5  1       -1 0.430625685641D-06 0.100000000000D+01
  </mgrwgt>
  </event>
  <event>
  7     66 -.61978431E-06 0.96218869E+02 0.78161638E-02 0.11172385E+00
       -1 -1    0    0    0  501 0.00000000E+00 0.00000000E+00 0.21216570E+03 0.21216570E+03 0.00000000E+00 0.0000E+00 0.9000E+01
       22 -1    0    0    0    0 -.00000000E+00 -.00000000E+00 -.60156063E+03 0.60156063E+03 0.00000000E+00 0.0000E+00 0.9000E+01
       24  2    1    2    0    0 -.41612767E+02 0.92732062E+02 -.57124759E+03 0.58569375E+03 0.79890566E+02 0.0000E+00 0.0000E+00
  9900012  1    3    3    0    0 -.10098006E+02 0.36695750E+02 -.22925614E+03 0.23771186E+03 0.50000000E+02 0.0000E+00 0.9000E+01
      -11  1    3    3    0    0 -.31514761E+02 0.56036312E+02 -.34199144E+03 0.34798189E+03 0.00000000E+00 0.0000E+00 0.9000E+01
       -2  1    1    2    0  502 0.18926102E+02 -.10834959E+03 0.14780937E+03 0.18424289E+03 0.00000000E+00 0.0000E+00 0.9000E+01
       21  1    1    2  502  501 0.22686665E+02 0.15617531E+02 0.34043283E+02 0.43789692E+02 0.00000000E+00 0.0000E+00 0.9000E+01
#aMCatNLO 2  0  0  5  1 0.36426524D+02 0.00000000D+00  -5  6  0 0.00000000D+00 0.00000000D+00 0.00000000D+00 0.00000000D+00 0.00000000D+00
  <mgrwgt>
 -.1022490131D-03    2    2    0
 0.357254155115159D+03 0.000000000000000D+00 0.000000000000000D+00 0.357254155115159D+03
 0.357254155115159D+03 -.000000000000000D+00 -.000000000000000D+00 -.357254155115159D+03
 0.148155416395887D+03 -.104015644131147D+02 0.373722155755703D+02 -.133959517646831D+03
 0.213565098585371D+03 -.319521143535660D+02 0.570109318824373D+02 -.203319618748442D+03
 0.352787795249060D+03 0.423536787666807D+02 -.943831474580076D+02 0.337279136395273D+03
 0.000000000000000D+00 0.000000000000000D+00 0.000000000000000D+00 0.000000000000000D+00
 0.357254155115159D+03 0.000000000000000D+00 0.000000000000000D+00 0.357254155115159D+03
 0.357254155115159D+03 -.000000000000000D+00 -.000000000000000D+00 -.357254155115159D+03
 0.145780273248366D+03 -.100980059874849D+02 0.366957501425162D+02 -.131542161548771D+03
 0.209923788144790D+03 -.315147614758563D+02 0.560363119119867D+02 -.199836804381678D+03
 0.290380821415037D+03 0.189261024533717D+02 -.108349592828609D+03 0.268743725183437D+03
 0.684234274221249D+02 0.226866650099695D+02 0.156175307741060D+02 0.626352407470114D+02
-.653292157781D-04 0.000000000000D+00 0.000000000000D+00 0.101988242471D-03 0.000000000000D+00  6 -1 22 9900012 -11 -2 21 2 0.32640877D-01 0.92547790D-01 0.17511296D+05 0.17511296D+05 0.17511296D+05 0.11848896D+01  1  2 13  2  6  5       -2 -.119156502256D-03 0.100000000000D+01
0.926976697946D-05 0.000000000000D+00 0.000000000000D+00 0.101988242471D-03 0.195905928322D-06  6 -1 22 9900012 -11 -2 21 2 0.32640877D-01 0.92547790D-01 0.17511296D+05 0.17511296D+05 0.17511296D+05 0.11848896D+01  1  2  1  2  6  5       -2 0.169074891967D-04 0.100000000000D+01
  </mgrwgt>
  </event>
  <event>
  6     66 0.61978431E-06 0.21731690E+02 0.78161638E-02 0.12028393E+00
       -1 -1    0    0    0  501 0.00000000E+00 0.00000000E+00 0.46051196E+03 0.46051196E+03 0.00000000E+00 0.0000E+00 0.9000E+01
       22 -1    0    0    0    0 0.00000000E+00 0.00000000E+00 -.40302537E+02 0.40302537E+02 0.00000000E+00 0.0000E+00 0.9000E+01
       24  2    1    2    0    0 -.30399611E+02 0.49932753E+02 0.25641107E+02 0.10193911E+03 0.79477670E+02 0.0000E+00 0.0000E+00
  9900012  1    3    3    0    0 -.40975636E+02 0.21215399E+02 0.16705322E+02 0.70058288E+02 0.50000000E+02 0.0000E+00 0.9000E+01
      -11  1    3    3    0    0 0.10576025E+02 0.28717354E+02 0.89357853E+01 0.31880824E+02 0.00000000E+00 0.0000E+00 0.9000E+01
       -2  1    1    2    0  501 0.30399611E+02 -.49932753E+02 0.39456831E+03 0.39887538E+03 0.00000000E+00 0.0000E+00 0.9000E+01
#aMCatNLO 1  0  0  5  1 0.55107222D+01 0.00000000D+00  -5  6  0 0.00000000D+00 0.00000000D+00 0.00000000D+00 0.00000000D+00 0.00000000D+00
  <mgrwgt>
 0.5987154440D-04    8    2    0
 0.136234356992031D+03 0.000000000000000D+00 0.000000000000000D+00 0.136234356992031D+03
 0.136234356992031D+03 -.000000000000000D+00 -.000000000000000D+00 -.136234356992031D+03
 0.103008055472549D+03 -.409756362735997D+02 0.212153990725972D+02 -.773405686971577D+02
 0.448179077143894D+02 0.105760249696099D+02 0.287173535058202D+02 -.327430321650190D+02
 0.124642750797125D+03 0.303996113039897D+02 -.499327525784174D+02 0.110083600862177D+03
 0.000000000000000D+00 0.000000000000000D+00 0.000000000000000D+00 0.000000000000000D+00
 0.136234356992031D+03 0.000000000000000D+00 0.000000000000000D+00 0.136234356992031D+03
 0.136234356992031D+03 -.000000000000000D+00 -.000000000000000D+00 -.136234356992031D+03
 0.102283687075844D+03 -.407656725147237D+02 0.208705239912170D+02 -.765802442839113D+02
 0.445020896651303D+02 0.106673777057687D+02 0.285673024566024D+02 -.324122240489412D+02
 0.118544022515967D+03 0.273220056175437D+02 -.520341822261631D+02 0.102949682677293D+03
 0.713891472712183D+01 0.277628919141129D+01 0.259635577834366D+01 0.604278565555914D+01
0.617998308141D-06 0.000000000000D+00 0.000000000000D+00 0.347576497953D-05 0.000000000000D+00  6 -1 22 9900012 -11 -2 21 0 0.70847993D-01 0.62003903D-02 0.61700279D+04 0.61700279D+04 0.61700279D+04 0.12316978D+01  1  2  2  2  6  5       -2 0.131538277769D-04 0.100000000000D+01
0.133870143533D-07 0.000000000000D+00 -.118663811298D-08 0.347576497953D-05 0.000000000000D+00  6 -1 22 9900012 -11 -2 21 2 0.70847993D-01 0.62003903D-02 0.61700279D+04 0.61700279D+04 0.61700279D+04 0.12316978D+01  1  2  3  2  6  5       -2 0.432271795994D-06 0.100000000000D+01
-.777716919182D-07 0.000000000000D+00 0.000000000000D+00 0.347576497953D-05 0.000000000000D+00  6 -1 22 9900012 -11 -2 21 2 0.70847993D-01 0.62003903D-02 0.61700279D+04 0.61700279D+04 0.61700279D+04 0.12316978D+01  1  2 15  2  6  5       -2 -.251127757510D-05 0.100000000000D+01
0.157240592057D-05 0.000000000000D+00 0.000000000000D+00 0.347576497953D-05 0.000000000000D+00  6 -1 22 9900012 -11 -2 21 2 0.70847993D-01 0.62003903D-02 0.64698357D+04 0.64698357D+04 0.64698357D+04 0.12294440D+01  1  2 12  2  6  5       -2 0.507405308423D-04 0.100000000000D+01
-.721708441338D-06 0.000000000000D+00 0.000000000000D+00 0.347576497953D-05 0.000000000000D+00  6 -1 22 9900012 -11 -2 21 2 0.70847993D-01 0.62003903D-02 0.61700279D+04 0.61700279D+04 0.61700279D+04 0.12316978D+01  1  2  4  2  6  5       -2 -.233042406535D-04 0.100000000000D+01
-.467518565559D-05 0.000000000000D+00 0.000000000000D+00 0.347576497953D-05 0.000000000000D+00  6 -1 22 9900012 -11 -2 21 2 0.70847993D-01 0.62003903D-02 0.61700279D+04 0.61700279D+04 0.61700279D+04 0.12316978D+01  1  2  5  2  6  5       -2 -.150963526789D-03 0.100000000000D+01
0.495061194140D-05 0.000000000000D+00 -.000000000000D+00 0.347576497953D-05 0.000000000000D+00  6 -1 22 9900012 -11 -2 21 2 0.70847993D-01 0.62003903D-02 0.61700279D+04 0.61700279D+04 0.61700279D+04 0.12316978D+01  1  2  6  2  6  5       -2 0.159857146537D-03 0.100000000000D+01
0.386335921280D-06 0.000000000000D+00 0.000000000000D+00 0.347576497953D-05 0.615850739312D-06  6 -1 22 9900012 -11 -2 21 2 0.70847993D-01 0.62003903D-02 0.64698357D+04 0.64698357D+04 0.64698357D+04 0.12294440D+01  1  2 11  2  6  5       -2 0.124668124641D-04 0.100000000000D+01
  </mgrwgt>
  </event>
  <event>
  6     66 -.61978431E-06 0.31819294E+02 0.78161638E-02 0.12562143E+00
       -3 -1    0    0    0  501 0.00000000E+00 0.00000000E+00 0.10851585E+03 0.10851585E+03 0.00000000E+00 0.0000E+00 0.9000E+01
       22 -1    0    0    0    0 0.00000000E+00 0.00000000E+00 -.35287774E+02 0.35287774E+02 0.00000000E+00 0.0000E+00 0.9000E+01
       24  2    1    2    0    0 0.32738708E+02 0.14975356E+02 0.46204570E+02 0.98788578E+02 0.79550214E+02 0.0000E+00 0.0000E+00
  9900012  1    3    3    0    0 0.90316652E+01 0.30196657E+02 0.29895172E+02 0.66235416E+02 0.50000000E+02 0.0000E+00 0.9000E+01
      -11  1    3    3    0    0 0.23707043E+02 -.15221301E+02 0.16309398E+02 0.32553162E+02 0.00000000E+00 0.0000E+00 0.9000E+01
       -4  1    1    2    0  501 -.32738708E+02 -.14975356E+02 0.27023504E+02 0.45015043E+02 0.00000000E+00 0.0000E+00 0.9000E+01
#aMCatNLO 1  0  0  5  1 0.56610617D+01 0.00000000D+00  -5  6  0 0.00000000D+00 0.00000000D+00 0.00000000D+00 0.00000000D+00 0.00000000D+00
  <mgrwgt>
 -.1808363436D-04    8    2    0
 0.618811979961522D+02 0.000000000000000D+00 0.000000000000000D+00 0.618811979961522D+02
 0.618811979961522D+02 -.000000000000000D+00 -.000000000000000D+00 -.618811979961522D+02
 0.592726634436526D+02 0.903166518394583D+01 0.301966567985966D+02 -.445416365857646D+01
 0.281746063644734D+02 0.237070432583894D+02 -.152213008512985D+02 -.310715516416443D+00
 0.363151261841782D+02 -.327387084423352D+02 -.149753559472981D+02 0.476487917499290D+01
 0.000000000000000D+00 0.000000000000000D+00 0.000000000000000D+00 0.000000000000000D+00
 0.618811979961522D+02 0.000000000000000D+00 0.000000000000000D+00 0.618811979961522D+02
 0.618811979961522D+02 -.000000000000000D+00 -.000000000000000D+00 -.618811979961522D+02
 0.589244018191717D+02 0.813448761729664D+01 0.297862693994673D+02 -.432358603633680D+01
 0.279236975869639D+02 0.232812277804807D+02 -.154160775744177D+02 -.248741193066130D+00
 0.252551896829431D+02 -.242154377723783D+02 -.709963722837999D+01 -.101603673108381D+01
 0.116591069032256D+02 -.720027762539898D+01 -.727055459666966D+01 0.558836396048674D+01
0.970102493532D-07 0.000000000000D+00 0.000000000000D+00 0.148005904271D-06 0.000000000000D+00  6 -3 22 9900012 -11 -4 21 0 0.16694746D-01 0.54288883D-02 0.37994361D+04 0.37994361D+04 0.37994361D+04 0.12554989D+01  1  2  2  2  6  5       -4 0.194326119628D-04 0.100000000000D+01
-.156633604249D-08 0.000000000000D+00 -.186272450451D-09 0.148005904271D-06 0.000000000000D+00  6 -3 22 9900012 -11 -4 21 2 0.16694746D-01 0.54288883D-02 0.37994361D+04 0.37994361D+04 0.37994361D+04 0.12554989D+01  1  2  3  2  6  5       -4 -.494573841766D-06 0.100000000000D+01
-.110590822420D-07 0.000000000000D+00 0.000000000000D+00 0.148005904271D-06 0.000000000000D+00  6 -3 22 9900012 -11 -4 21 2 0.16694746D-01 0.54288883D-02 0.37994361D+04 0.37994361D+04 0.37994361D+04 0.12554989D+01  1  2 15  2  6  5       -4 -.349192806808D-05 0.100000000000D+01
0.924386988349D-07 0.000000000000D+00 0.000000000000D+00 0.148005904271D-06 0.000000000000D+00  6 -3 22 9900012 -11 -4 21 2 0.16694746D-01 0.54288883D-02 0.37304881D+04 0.37304881D+04 0.37304881D+04 0.12564256D+01  1  2 12  2  6  5       -4 0.291660523104D-04 0.100000000000D+01
-.327460383248D-06 0.000000000000D+00 0.000000000000D+00 0.148005904271D-06 0.000000000000D+00  6 -3 22 9900012 -11 -4 21 2 0.16694746D-01 0.54288883D-02 0.37994361D+04 0.37994361D+04 0.37994361D+04 0.12554989D+01  1  2  4  2  6  5       -4 -.103396292606D-03 0.100000000000D+01
-.134672901207D-06 0.000000000000D+00 0.000000000000D+00 0.148005904271D-06 0.000000000000D+00  6 -3 22 9900012 -11 -4 21 2 0.16694746D-01 0.54288883D-02 0.37994361D+04 0.37994361D+04 0.37994361D+04 0.12554989D+01  1  2  5  2  6  5       -4 -.425232468161D-04 0.100000000000D+01
0.184361188457D-06 0.000000000000D+00 -.000000000000D+00 0.148005904271D-06 0.000000000000D+00  6 -3 22 9900012 -11 -4 21 2 0.16694746D-01 0.54288883D-02 0.37994361D+04 0.37994361D+04 0.37994361D+04 0.12554989D+01  1  2  6  2  6  5       -4 0.582124261805D-04 0.100000000000D+01
0.792707058907D-07 0.000000000000D+00 0.000000000000D+00 0.148005904271D-06 0.358684621978D-07  6 -3 22 9900012 -11 -4 21 2 0.16694746D-01 0.54288883D-02 0.37304881D+04 0.37304881D+04 0.37304881D+04 0.12564256D+01  1  2 11  2  6  5       -4 0.250113165139D-04 0.100000000000D+01
  </mgrwgt>
  </event>
  <event>
  6     66 0.61978431E-06 0.32688053E+02 0.78161638E-02 0.12258833E+00
       -1 -1    0    0    0  501 0.00000000E+00 0.00000000E+00 0.46424962E+03 0.46424962E+03 0.00000000E+00 0.0000E+00 0.9000E+01
       22 -1    0    0    0    0 0.00000000E+00 0.00000000E+00 -.65175079E+02 0.65175079E+02 0.00000000E+00 0.0000E+00 0.9000E+01
       24  2    1    2    0    0 0.24546541E+02 0.24403693E+02 -.34659266E+02 0.94311968E+02 0.80594105E+02 0.0000E+00 0.0000E+00
  9900012  1    3    3    0    0 0.29394066E+00 0.34912032E+02 -.20562460E+02 0.64356439E+02 0.50000000E+02 0.0000E+00 0.9000E+01
      -11  1    3    3    0    0 0.24252601E+02 -.10508339E+02 -.14096806E+02 0.29955530E+02 0.00000000E+00 0.0000E+00 0.9000E+01
       -2  1    1    2    0  501 -.24546541E+02 -.24403693E+02 0.43373381E+03 0.43511273E+03 0.00000000E+00 0.0000E+00 0.9000E+01
#aMCatNLO 1  0  0  5  1 0.16050663D+02 0.00000000D+00  -5  6  0 0.00000000D+00 0.00000000D+00 0.00000000D+00 0.00000000D+00 0.00000000D+00
  <mgrwgt>
 0.1687166521D-03    7    2    0
 0.173946847965312D+03 0.000000000000000D+00 0.000000000000000D+00 0.173946847965312D+03
 0.173946847965312D+03 -.000000000000000D+00 -.000000000000000D+00 -.173946847965312D+03
 0.121525176299657D+03 0.293940658334261D+00 0.349120323415624D+02 -.105116278812246D+03
 0.617570085312275D+02 0.242526008174903D+02 -.105083388544004D+02 -.558150004105946D+02
 0.164611511099739D+03 -.245465414758245D+02 -.244036934871620D+02 0.160931279222840D+03
 0.000000000000000D+00 0.000000000000000D+00 0.000000000000000D+00 0.000000000000000D+00
 0.173946847965312D+03 0.000000000000000D+00 0.000000000000000D+00 0.173946847965312D+03
 0.173946847965312D+03 -.000000000000000D+00 -.000000000000000D+00 -.173946847965312D+03
 0.117888540964588D+03 -.318869592681857D+00 0.343027883245869D+02 -.101098591118278D+03
 0.598488619875291D+02 0.239413349264245D+02 -.108177933413414D+02 -.537742885621660D+02
 0.157912851765997D+03 -.259837232507990D+02 -.350874750802177D+02 0.151756989860075D+03
 0.122434412125097D+02 0.236125791705643D+01 0.116024800969723D+02 0.311588982036931D+01
0.435130112720D-05 0.000000000000D+00 0.000000000000D+00 0.149112110350D-04 0.000000000000D+00  6 -1 22 9900012 -11 -2 21 0 0.71423019D-01 0.10026935D-01 0.37226824D+04 0.37226824D+04 0.37226824D+04 0.12565318D+01  1  2  2  2  6  5       -2 0.452946438849D-04 0.100000000000D+01
0.303867926239D-06 0.000000000000D+00 -.835507102617D-08 0.149112110350D-04 0.000000000000D+00  6 -1 22 9900012 -11 -2 21 2 0.71423019D-01 0.10026935D-01 0.37226824D+04 0.37226824D+04 0.37226824D+04 0.12565318D+01  1  2  3  2  6  5       -2 0.499412636787D-05 0.100000000000D+01
-.548789083037D-06 0.000000000000D+00 0.000000000000D+00 0.149112110350D-04 0.000000000000D+00  6 -1 22 9900012 -11 -2 21 2 0.71423019D-01 0.10026935D-01 0.37226824D+04 0.37226824D+04 0.37226824D+04 0.12565318D+01  1  2 15  2  6  5       -2 -.901945152261D-05 0.100000000000D+01
0.725176847770D-05 0.000000000000D+00 0.000000000000D+00 0.149112110350D-04 0.000000000000D+00  6 -1 22 9900012 -11 -2 21 2 0.71423019D-01 0.10026935D-01 0.50701313D+04 0.50701313D+04 0.50701313D+04 0.12411650D+01  1  2 12  2  6  5       -2 0.118377341964D-03 0.100000000000D+01
-.933485458072D-07 0.000000000000D+00 0.000000000000D+00 0.149112110350D-04 0.000000000000D+00  6 -1 22 9900012 -11 -2 21 2 0.71423019D-01 0.10026935D-01 0.37226824D+04 0.37226824D+04 0.37226824D+04 0.12565318D+01  1  2  4  2  6  5       -2 -.153420086084D-05 0.100000000000D+01
-.836465754970D-05 0.000000000000D+00 0.000000000000D+00 0.149112110350D-04 0.000000000000D+00  6 -1 22 9900012 -11 -2 21 2 0.71423019D-01 0.10026935D-01 0.37226824D+04 0.37226824D+04 0.37226824D+04 0.12565318D+01  1  2  5  2  6  5       -2 -.137474715888D-03 0.100000000000D+01
0.900987027826D-05 0.000000000000D+00 -.000000000000D+00 0.149112110350D-04 0.000000000000D+00  6 -1 22 9900012 -11 -2 21 2 0.71423019D-01 0.10026935D-01 0.37226824D+04 0.37226824D+04 0.37226824D+04 0.12565318D+01  1  2  6  2  6  5       -2 0.148078908112D-03 0.100000000000D+01
  </mgrwgt>
  </event>
  <event>
  6     66 -.61978431E-06 0.21850739E+02 0.78161638E-02 0.12898800E+00
       -1 -1    0    0    0  501 0.00000000E+00 0.00000000E+00 0.19507424E+03 0.19507424E+03 0.00000000E+00 0.0000E+00 0.9000E+01
       22 -1    0    0    0    0 0.00000000E+00 0.00000000E+00 -.53988818E+02 0.53988818E+02 0.00000000E+00 0.0000E+00 0.9000E+01
       24  2    1    2    0    0 -.10486909E+01 -.21825560E+02 0.18350012E+03 0.20135078E+03 0.79952427E+02 0.0000E+00 0.0000E+00
  9900012  1    3    3    0    0 -.97384400E+00 0.93699335E+01 0.99694475E+02 0.11192735E+03 0.50000000E+02 0.0000E+00 0.9000E+01
      -11  1    3    3    0    0 -.74846927E-01 -.31195493E+02 0.83805643E+02 0.89423432E+02 0.00000000E+00 0.0000E+00 0.9000E+01
       -2  1    1    2    0  501 0.10486909E+01 0.21825560E+02 -.42414694E+02 0.47712274E+02 0.00000000E+00 0.0000E+00 0.9000E+01
#aMCatNLO 1  0  0  5  1 0.20831856D+01 0.00000000D+00  -5  6  0 0.00000000D+00 0.00000000D+00 0.00000000D+00 0.00000000D+00 0.00000000D+00
  <mgrwgt>
 -.3349150325D-03    7    2    0
 0.102624693161865D+03 0.000000000000000D+00 0.000000000000000D+00 0.102624693161865D+03
 0.102624693161865D+03 -.000000000000000D+00 -.000000000000000D+00 -.102624693161865D+03
 0.672914640098752D+02 -.973843996958239D+00 0.936993345215882D+01 0.440385865300423D+02
 0.509054816574714D+02 -.748469269285080D-01 -.311954930421978D+02 0.402269023735469D+02
 0.870524406563832D+02 0.104869092388675D+01 0.218255595900390D+02 -.842654889035893D+02
 0.000000000000000D+00 0.000000000000000D+00 0.000000000000000D+00 0.000000000000000D+00
 0.102624693161865D+03 0.000000000000000D+00 0.000000000000000D+00 0.102624693161865D+03
 0.102624693161865D+03 -.000000000000000D+00 -.000000000000000D+00 -.102624693161865D+03
 0.672028840617582D+02 -.972059711073695D+00 0.940706835722166D+01 0.438952137602584D+02
 0.508026115708578D+02 -.734976039443586D-01 -.311674106696646D+02 0.401184801889372D+02
 0.821261632341109D+02 0.181006000771748D+01 0.187690326601535D+02 -.799321824006225D+02
 0.511772745700282D+01 -.764502692699431D+00 0.299130965228950D+01 -.408151154857309D+01
0.126509924970D-06 0.000000000000D+00 0.000000000000D+00 0.210101949326D-05 0.000000000000D+00  6 -1 22 9900012 -11 -2 21 0 0.30011422D-01 0.83059720D-02 0.27001546D+04 0.27001546D+04 0.27001546D+04 0.12731500D+01  1  2  2  2  6  5       -2 0.726233609774D-05 0.100000000000D+01
-.609137818284D-08 0.000000000000D+00 -.242915711356D-09 0.210101949326D-05 0.000000000000D+00  6 -1 22 9900012 -11 -2 21 2 0.30011422D-01 0.83059720D-02 0.27001546D+04 0.27001546D+04 0.27001546D+04 0.12731500D+01  1  2  3  2  6  5       -2 -.566795613689D-06 0.100000000000D+01
-.104479350644D-07 0.000000000000D+00 0.000000000000D+00 0.210101949326D-05 0.000000000000D+00  6 -1 22 9900012 -11 -2 21 2 0.30011422D-01 0.83059720D-02 0.27001546D+04 0.27001546D+04 0.27001546D+04 0.12731500D+01  1  2 15  2  6  5       -2 -.972168134841D-06 0.100000000000D+01
0.265500131421D-08 0.000000000000D+00 0.000000000000D+00 0.210101949326D-05 0.000000000000D+00  6 -1 22 9900012 -11 -2 21 2 0.30011422D-01 0.83059720D-02 0.27038744D+04 0.27038744D+04 0.27038744D+04 0.12730773D+01  1  2 12  2  6  5       -2 0.247047610575D-06 0.100000000000D+01
-.386532007848D-05 0.000000000000D+00 0.000000000000D+00 0.210101949326D-05 0.000000000000D+00  6 -1 22 9900012 -11 -2 21 2 0.30011422D-01 0.83059720D-02 0.27001546D+04 0.27001546D+04 0.27001546D+04 0.12731500D+01  1  2  4  2  6  5       -2 -.359663511315D-03 0.100000000000D+01
-.333491260956D-05 0.000000000000D+00 0.000000000000D+00 0.210101949326D-05 0.000000000000D+00  6 -1 22 9900012 -11 -2 21 2 0.30011422D-01 0.83059720D-02 0.27001546D+04 0.27001546D+04 0.27001546D+04 0.12731500D+01  1  2  5  2  6  5       -2 -.310309716849D-03 0.100000000000D+01
0.353672126055D-05 0.000000000000D+00 -.000000000000D+00 0.210101949326D-05 0.000000000000D+00  6 -1 22 9900012 -11 -2 21 2 0.30011422D-01 0.83059720D-02 0.27001546D+04 0.27001546D+04 0.27001546D+04 0.12731500D+01  1  2  6  2  6  5       -2 0.329087775730D-03 0.100000000000D+01
  </mgrwgt>
  </event>
  <event>
  6     66 0.61978431E-06 0.12006833E+03 0.78161638E-02 0.11182569E+00
       -1 -1    0    0    0  501 0.00000000E+00 0.00000000E+00 0.25741123E+02 0.25741123E+02 0.00000000E+00 0.0000E+00 0.9000E+01
       22 -1    0    0    0    0 -.00000000E+00 -.00000000E+00 -.74093526E+03 0.74093526E+03 0.00000000E+00 0.0000E+00 0.9000E+01
       24  2    1    2    0    0 0.40299923E+02 -.11686279E+03 -.46924108E+03 0.49140579E+03 0.77533597E+02 0.0000E+00 0.0000E+00
  9900012  1    3    3    0    0 0.20094328E+02 -.49070562E+02 -.19457593E+03 0.20777751E+03 0.50000000E+02 0.0000E+00 0.9000E+01
      -11  1    3    3    0    0 0.20205594E+02 -.67792231E+02 -.27466516E+03 0.28362828E+03 0.00000000E+00 0.0000E+00 0.9000E+01
       -2  1    1    2    0  501 -.40299923E+02 0.11686279E+03 -.24595306E+03 0.27527060E+03 0.00000000E+00 0.0000E+00 0.9000E+01
#aMCatNLO 1  0  0  5  1 0.64128115D+02 0.00000000D+00  -5  6  0 0.00000000D+00 0.00000000D+00 0.00000000D+00 0.00000000D+00 0.00000000D+00
  <mgrwgt>
 0.6446895585D-04    4    2    0
 0.138103244046235D+03 0.000000000000000D+00 0.000000000000000D+00 0.138103244046235D+03
 0.138103244046235D+03 -.000000000000000D+00 -.000000000000000D+00 -.138103244046235D+03
 0.729112032078738D+02 0.200943282267674D+02 -.490705616690619D+02 -.208362756211258D+01
 0.760742230750345D+02 0.202055943088972D+02 -.677922312254774D+02 -.279863316739758D+02
 0.127221061809563D+03 -.402999225356646D+02 0.116862792894539D+03 0.300699592360884D+02
 0.000000000000000D+00 0.000000000000000D+00 0.000000000000000D+00 0.000000000000000D+00
 0.138103244046235D+03 0.000000000000000D+00 0.000000000000000D+00 0.138103244046235D+03
 0.138103244046235D+03 -.000000000000000D+00 -.000000000000000D+00 -.138103244046235D+03
 0.598670590713516D+02 0.134840839762785D+02 -.299019986490322D+02 0.284863440382249D+01
 0.556633855695537D+02 0.136471580470582D+02 -.487739023961590D+02 -.230927264599346D+02
 0.537034062601369D+02 -.474065610186573D+02 -.202480032612937D+02 -.150563003508921D+02
 0.106972637191429D+03 0.202753189953206D+02 0.989239043064850D+02 0.353003924070042D+02
0.321457069986D-05 0.000000000000D+00 0.000000000000D+00 0.939801524203D-07 0.000000000000D+00  6 -1 22 9900012 -11 -2 21 0 0.39601728D-02 0.11399004D+00 0.17853914D+05 0.17853914D+05 0.17853914D+05 0.11840717D+01  1  2  2  2  6  5       -2 0.684182013843D-04 0.100000000000D+01
-.106738163986D-06 0.000000000000D+00 -.617239895168D-08 0.939801524203D-07 0.000000000000D+00  6 -1 22 9900012 -11 -2 21 2 0.39601728D-02 0.11399004D+00 0.17853914D+05 0.17853914D+05 0.17853914D+05 0.11840717D+01  1  2  3  2  6  5       -2 -.318510971049D-05 0.100000000000D+01
-.376486819350D-06 0.000000000000D+00 0.000000000000D+00 0.939801524203D-07 0.000000000000D+00  6 -1 22 9900012 -11 -2 21 2 0.39601728D-02 0.11399004D+00 0.17853914D+05 0.17853914D+05 0.17853914D+05 0.11840717D+01  1  2 15  2  6  5       -2 -.112345179962D-04 0.100000000000D+01
0.351053590824D-06 0.000000000000D+00 0.000000000000D+00 0.939801524203D-07 0.000000000000D+00  6 -1 22 9900012 -11 -2 21 2 0.39601728D-02 0.11399004D+00 0.17289147D+05 0.17289147D+05 0.17289147D+05 0.11854295D+01  1  2 12  2  6  5       -2 0.104703821768D-04 0.100000000000D+01
  </mgrwgt>
  </event>
  <event>
  7     66 -.61978431E-06 0.29763683E+02 0.78161638E-02 0.12438378E+00
       -1 -1    0    0    0  502 0.00000000E+00 0.00000000E+00 0.12798197E+02 0.12798197E+02 0.00000000E+00 0.0000E+00 0.9000E+01
       22 -1    0    0    0    0 0.00000000E+00 0.00000000E+00 -.46723203E+03 0.46723203E+03 0.00000000E+00 0.0000E+00 0.9000E+01
       24  2    1    2    0    0 -.20536450E+02 0.21382628E+02 -.38396907E+03 0.39348873E+03 0.80759996E+02 0.0000E+00 0.0000E+00
  9900012  1    3    3    0    0 0.59064794E+01 0.91450176E+01 -.30608107E+03 0.31032908E+03 0.50000000E+02 0.0000E+00 0.9000E+01
      -11  1    3    3    0    0 -.26442930E+02 0.12237610E+02 -.77887998E+02 0.83159653E+02 0.00000000E+00 0.0000E+00 0.9000E+01
       -2  1    1    2    0  501 0.14717281E+02 -.33273219E+02 -.57277519E+02 0.67855874E+02 0.00000000E+00 0.0000E+00 0.9000E+01
       21  1    1    2  501  502 0.58191692E+01 0.11890591E+02 -.13187245E+02 0.18685618E+02 0.00000000E+00 0.0000E+00 0.9000E+01
#aMCatNLO 2  0  0  1  5 0.14250452D+02 0.00000000D+00  -5  6  0 0.00000000D+00 0.00000000D+00 0.00000000D+00 0.00000000D+00 0.00000000D+00
  <mgrwgt>
 -.5108444793D-04    2    2    0
 0.670168801885773D+02 0.000000000000000D+00 0.000000000000000D+00 0.670168801885773D+02
 0.670168801885773D+02 0.000000000000000D+00 0.000000000000000D+00 -.670168801885773D+02
 0.615854698093742D+02 0.854429918492465D+01 0.145350027982753D+02 -.317568691267570D+02
 0.297617614014552D+02 -.251557139356216D+02 0.148678406469873D+02 0.564799190882147D+01
 0.426865291663251D+02 0.166114147506969D+02 -.294028434452626D+02 0.261088772179355D+02
 0.000000000000000D+00 0.000000000000000D+00 0.000000000000000D+00 0.000000000000000D+00
 0.857665010632967D+02 0.000000000000000D+00 0.000000000000000D+00 0.857665010632967D+02
 0.697210180816946D+02 0.000000000000000D+00 0.000000000000000D+00 -.697210180816946D+02
 0.602247173712429D+02 0.590647941045148D+01 0.914501758806532D+01 -.317568691267570D+02
 0.296797480883659D+02 -.264429296668008D+02 0.122376102496920D+02 0.564799190882147D+01
 0.447814573620650D+02 0.147172810182216D+02 -.332732188602172D+02 0.261088772179355D+02
 0.208015963233175D+02 0.581916923812778D+01 0.118905910224598D+02 0.160454829816021D+02
-.395296613967D-06 0.000000000000D+00 0.000000000000D+00 0.260388172108D-06 0.000000000000D+00  6 -1 22 9900012 -11 -2 21 2 0.20484009D-02 0.69093905D-01 0.42204364D+04 0.42204364D+04 0.42204364D+04 0.12502210D+01  1  2 13  1  6  1       -1 -.740840350796D-04 0.100000000000D+01
0.124534358644D-06 0.000000000000D+00 0.000000000000D+00 0.260388172108D-06 0.468631080284D-08  6 -1 22 9900012 -11 -2 21 2 0.19689535D-02 0.71881851D-01 0.42204364D+04 0.42204364D+04 0.42204364D+04 0.12502210D+01  1  2  1  1  6  1       -1 0.229995871529D-04 0.100000000000D+01
  </mgrwgt>
  </event>
  <event>
  6     66 0.61978431E-06 0.30825600E+02 0.78161638E-02 0.12246689E+00
       -3 -1    0    0    0  501 0.00000000E+00 0.00000000E+00 0.24772195E+03 0.24772195E+03 0.00000000E+00 0.0000E+00 0.9000E+01
       22 -1    0    0    0    0 0.00000000E+00 0.00000000E+00 -.75537393E+02 0.75537393E+02 0.00000000E+00 0.0000E+00 0.9000E+01
       24  2    1    2    0    0 0.40429968E+02 0.26674889E+02 -.41591862E+02 0.10406425E+03 0.82178788E+02 0.0000E+00 0.0000E+00
  9900012  1    3    3    0    0 0.33114448E+02 0.20513628E+01 -.61899025E+01 0.60324868E+02 0.50000000E+02 0.0000E+00 0.9000E+01
      -11  1    3    3    0    0 0.73155195E+01 0.24623526E+02 -.35401959E+02 0.43739382E+02 0.00000000E+00 0.0000E+00 0.9000E+01
       -4  1    1    2    0  501 -.40429968E+02 -.26674889E+02 0.21377642E+03 0.21919509E+03 0.00000000E+00 0.0000E+00 0.9000E+01
#aMCatNLO 1  0  0  5  1 0.15716158D+02 0.00000000D+00  -5  6  0 0.00000000D+00 0.00000000D+00 0.00000000D+00 0.00000000D+00 0.00000000D+00
  <mgrwgt>
 0.4313629640D-04    7    2    0
 0.136792800915266D+03 0.000000000000000D+00 0.000000000000000D+00 0.136792800915266D+03
 0.136792800915266D+03 -.000000000000000D+00 -.000000000000000D+00 -.136792800915266D+03
 0.751734834319602D+02 0.331144481249742D+02 0.205136282435588D+01 -.452799938961615D+02
 0.739616212230642D+02 0.731551952962455D+01 0.246235256954517D+02 -.693576713152996D+02
 0.124450497175508D+03 -.404299676545988D+02 -.266748885198076D+02 0.114637665211461D+03
 0.000000000000000D+00 0.000000000000000D+00 -.000000000000000D+00 0.000000000000000D+00
 0.136792800915266D+03 0.000000000000000D+00 0.000000000000000D+00 0.136792800915266D+03
 0.136792800915266D+03 -.000000000000000D+00 -.000000000000000D+00 -.136792800915266D+03
 0.732204798276007D+02 0.322003647686489D+02 0.144826880666833D+01 -.426881446354097D+02
 0.713007719559778D+02 0.642072614997274D+01 0.240331588207021D+02 -.668205180638725D+02
 0.114877594976098D+03 -.434869816494956D+02 -.127534290229987D+02 0.105560855920479D+03
 0.141867550708559D+02 0.486589073087393D+01 -.127279986043717D+02 0.394780677880304D+01
0.768116160329D-06 0.000000000000D+00 0.000000000000D+00 0.115830371147D-05 0.000000000000D+00  6 -3 22 9900012 -11 -4 21 0 0.38111069D-01 0.11621137D-01 0.44977540D+04 0.44977540D+04 0.44977540D+04 0.12470570D+01  1  2  2  2  6  5       -4 0.124768772575D-04 0.100000000000D+01
0.200735981108D-07 0.000000000000D+00 -.147488415265D-08 0.115830371147D-05 0.000000000000D+00  6 -3 22 9900012 -11 -4 21 2 0.38111069D-01 0.11621137D-01 0.44977540D+04 0.44977540D+04 0.44977540D+04 0.12470570D+01  1  2  3  2  6  5       -4 0.507080396054D-06 0.100000000000D+01
-.112801004348D-06 0.000000000000D+00 0.000000000000D+00 0.115830371147D-05 0.000000000000D+00  6 -3 22 9900012 -11 -4 21 2 0.38111069D-01 0.11621137D-01 0.44977540D+04 0.44977540D+04 0.44977540D+04 0.12470570D+01  1  2 15  2  6  5       -4 -.284947310614D-05 0.100000000000D+01
0.123275076664D-05 0.000000000000D+00 0.000000000000D+00 0.115830371147D-05 0.000000000000D+00  6 -3 22 9900012 -11 -4 21 2 0.38111069D-01 0.11621137D-01 0.51344493D+04 0.51344493D+04 0.51344493D+04 0.12405500D+01  1  2 12  2  6  5       -4 0.311748897830D-04 0.100000000000D+01
-.713773779621D-07 0.000000000000D+00 0.000000000000D+00 0.115830371147D-05 0.000000000000D+00  6 -3 22 9900012 -11 -4 21 2 0.38111069D-01 0.11621137D-01 0.44977540D+04 0.44977540D+04 0.44977540D+04 0.12470570D+01  1  2  4  2  6  5       -4 -.180306833317D-05 0.100000000000D+01
-.119306464433D-05 0.000000000000D+00 0.000000000000D+00 0.115830371147D-05 0.000000000000D+00  6 -3 22 9900012 -11 -4 21 2 0.38111069D-01 0.11621137D-01 0.44977540D+04 0.44977540D+04 0.44977540D+04 0.12470570D+01  1  2  5  2  6  5       -4 -.301380793332D-04 0.100000000000D+01
0.133676368903D-05 0.000000000000D+00 -.000000000000D+00 0.115830371147D-05 0.000000000000D+00  6 -3 22 9900012 -11 -4 21 2 0.38111069D-01 0.11621137D-01 0.44977540D+04 0.44977540D+04 0.44977540D+04 0.12470570D+01  1  2  6  2  6  5       -4 0.337680697363D-04 0.100000000000D+01
  </mgrwgt>
  </event>
  <event>
  6     66 0.61978431E-06 0.80982966E+02 0.78161638E-02 0.11469582E+00
       -1 -1    0    0    0  501 0.00000000E+00 0.00000000E+00 0.34011056E+02 0.34011056E+02 0.00000000E+00 0.0000E+00 0.9000E+01
       22 -1    0    0    0    0 -.00000000E+00 -.00000000E+00 -.73760937E+03 0.73760937E+03 0.00000000E+00 0.0000E+00 0.9000E+01
       24  2    1    2    0    0 -.82395523E+02 -.61403121E+02 -.63463672E+03 0.64786637E+03 0.80048104E+02 0.0000E+00 0.0000E+00
  9900012  1    3    3    0    0 -.49337431E+02 -.42262395E+02 -.53339571E+03 0.53965848E+03 0.50000000E+02 0.0000E+00 0.9000E+01
      -11  1    3    3    0    0 -.33058092E+02 -.19140726E+02 -.10124101E+03 0.10820789E+03 0.00000000E+00 0.0000E+00 0.9000E+01
       -2  1    1    2    0  501 0.82395523E+02 0.61403121E+02 -.68961595E+02 0.12375406E+03 0.00000000E+00 0.0000E+00 0.9000E+01
#aMCatNLO 1  0  0  5  1 0.14854961D+02 0.00000000D+00  -5  6  0 0.00000000D+00 0.00000000D+00 0.00000000D+00 0.00000000D+00 0.00000000D+00
  <mgrwgt>
 0.6990972213D-04    7    2    0
 0.158388363718226D+03 0.000000000000000D+00 0.000000000000000D+00 0.158388363718226D+03
 0.158388363718226D+03 -.000000000000000D+00 -.000000000000000D+00 -.158388363718226D+03
 0.129792313793622D+03 -.493374306298859D+02 -.422623952997567D+02 -.100626798628747D+03
 0.387099542143288D+02 -.330580924866370D+02 -.191407259579935D+02 -.626543583650691D+01
 0.148274459428501D+03 0.823955231165229D+02 0.614031212577502D+02 0.106892234465254D+03
 0.000000000000000D+00 0.000000000000000D+00 0.000000000000000D+00 0.000000000000000D+00
 0.158388363718226D+03 0.000000000000000D+00 0.000000000000000D+00 0.158388363718226D+03
 0.158388363718226D+03 -.000000000000000D+00 -.000000000000000D+00 -.158388363718226D+03
 0.128510711898392D+03 -.485496134339292D+02 -.416752950183026D+02 -.996047583862589D+02
 0.383740318332432D+02 -.328229884278344D+02 -.189655207710512D+02 -.596043385063793D+01
 0.102854814254245D+03 0.465287844410997D+02 0.380646359245836D+02 0.834581842939190D+02
 0.470371694505728D+02 0.348438174206639D+02 0.225761798647701D+02 0.221070079429778D+02
0.103825610759D-05 0.000000000000D+00 0.000000000000D+00 0.232603933323D-05 0.000000000000D+00  6 -1 22 9900012 -11 -2 21 0 0.52324702D-02 0.11347837D+00 0.12425082D+05 0.12425082D+05 0.12425082D+05 0.11996774D+01  1  2  2  2  6  5       -2 0.144255598895D-04 0.100000000000D+01
-.795519062307D-08 0.000000000000D+00 -.199358841613D-08 0.232603933323D-05 0.000000000000D+00  6 -1 22 9900012 -11 -2 21 2 0.52324702D-02 0.11347837D+00 0.12425082D+05 0.12425082D+05 0.12425082D+05 0.11996774D+01  1  2  3  2  6  5       -2 -.159077110425D-06 0.100000000000D+01
-.130644034896D-06 0.000000000000D+00 0.000000000000D+00 0.232603933323D-05 0.000000000000D+00  6 -1 22 9900012 -11 -2 21 2 0.52324702D-02 0.11347837D+00 0.12425082D+05 0.12425082D+05 0.12425082D+05 0.11996774D+01  1  2 15  2  6  5       -2 -.261244218400D-05 0.100000000000D+01
0.354266822643D-05 0.000000000000D+00 0.000000000000D+00 0.232603933323D-05 0.000000000000D+00  6 -1 22 9900012 -11 -2 21 2 0.52324702D-02 0.11347837D+00 0.12182060D+05 0.12182060D+05 0.12182060D+05 0.12005458D+01  1  2 12  2  6  5       -2 0.708249530411D-04 0.100000000000D+01
-.189596884051D-05 0.000000000000D+00 0.000000000000D+00 0.232603933323D-05 0.000000000000D+00  6 -1 22 9900012 -11 -2 21 2 0.52324702D-02 0.11347837D+00 0.12425082D+05 0.12425082D+05 0.12425082D+05 0.11996774D+01  1  2  4  2  6  5       -2 -.379130128861D-04 0.100000000000D+01
-.348096570723D-05 0.000000000000D+00 0.000000000000D+00 0.232603933323D-05 0.000000000000D+00  6 -1 22 9900012 -11 -2 21 2 0.52324702D-02 0.11347837D+00 0.12425082D+05 0.12425082D+05 0.12425082D+05 0.11996774D+01  1  2  5  2  6  5       -2 -.696076300909D-04 0.100000000000D+01
0.474836548110D-05 0.000000000000D+00 -.000000000000D+00 0.232603933323D-05 0.000000000000D+00  6 -1 22 9900012 -11 -2 21 2 0.52324702D-02 0.11347837D+00 0.12425082D+05 0.12425082D+05 0.12425082D+05 0.11996774D+01  1  2  6  2  6  5       -2 0.949513714709D-04 0.100000000000D+01
  </mgrwgt>
  </event>
  <event>
  6     66 0.61978431E-06 0.66960576E+02 0.78161638E-02 0.11511743E+00
       -1 -1    0    0    0  501 0.00000000E+00 0.00000000E+00 0.81987280E+02 0.81987280E+02 0.00000000E+00 0.0000E+00 0.9000E+01
       22 -1    0    0    0    0 0.00000000E+00 0.00000000E+00 -.13208742E+03 0.13208742E+03 0.00000000E+00 0.0000E+00 0.9000E+01
       24  2    1    2    0    0 0.21946115E+02 0.63262049E+02 -.88751823E+02 0.13675930E+03 0.79639823E+02 0.0000E+00 0.0000E+00
  9900012  1    3    3    0    0 0.26250561E+02 0.28185750E+02 -.76902366E+02 0.99486192E+02 0.50000000E+02 0.0000E+00 0.9000E+01
      -11  1    3    3    0    0 -.43044467E+01 0.35076299E+02 -.11849457E+02 0.37273109E+02 0.00000000E+00 0.0000E+00 0.9000E+01
       -2  1    1    2    0  501 -.21946115E+02 -.63262049E+02 0.38651682E+02 0.77315401E+02 0.00000000E+00 0.0000E+00 0.9000E+01
#aMCatNLO 1  0  0  1  5 0.48973130D+03 0.00000000D+00  -5  6  0 0.00000000D+00 0.00000000D+00 0.00000000D+00 0.00000000D+00 0.00000000D+00
  <mgrwgt>
 0.6027949814D-04    3    2    0
 0.104064828093337D+03 0.000000000000000D+00 0.000000000000000D+00 0.104064828093337D+03
 0.104064828093337D+03 0.000000000000000D+00 0.000000000000000D+00 -.104064828093337D+03
 0.838162987228350D+02 0.262505612650131D+02 0.281857498416876D+02 -.551510967318794D+02
 0.354854292960149D+02 -.430444673323853D+01 0.350762990390576D+02 -.321569220632075D+01
 0.888279281678232D+02 -.219461145317745D+02 -.632620488807452D+02 0.583667889382001D+02
 0.000000000000000D+00 -.000000000000000D+00 0.000000000000000D+00 -.000000000000000D+00
 0.107074079505394D+03 0.000000000000000D+00 0.000000000000000D+00 0.107074079505394D+03
 0.753174906128370D+03 0.000000000000000D+00 0.000000000000000D+00 -.753174906128370D+03
 0.902974892063433D+02 0.441685051615827D+02 0.257125696504999D+02 -.551510967318794D+02
 0.343567628758030D+02 0.288297073571627D+01 0.340842332857197D+02 -.321569220632075D+01
 0.880167298172646D+02 -.374713846059900D+01 -.657740194159219D+02 0.583667889382001D+02
 0.647578003734353D+03 -.433043374366999D+02 0.597721647970228D+01 -.646100826622976D+03
0.112352686384D-05 0.000000000000D+00 0.000000000000D+00 0.918342562352D-06 0.000000000000D+00  6 -1 22 9900012 -11 -2 21 0 0.12613428D-01 0.20321142D-01 0.68405473D+04 0.68405473D+04 0.68405473D+04 0.12268135D+01  1  2  2  1  6  1       -1 0.733208595663D-04 0.100000000000D+01
-.632533838036D-08 0.000000000000D+00 -.215731949429D-08 0.918342562352D-06 0.000000000000D+00  6 -1 22 9900012 -11 -2 21 2 0.12613428D-01 0.20321142D-01 0.68405473D+04 0.68405473D+04 0.68405473D+04 0.12268135D+01  1  2  3  1  6  1       -1 -.621276513711D-06 0.100000000000D+01
-.126451327300D-06 0.000000000000D+00 0.000000000000D+00 0.918342562352D-06 0.000000000000D+00  6 -1 22 9900012 -11 -2 21 2 0.12613428D-01 0.20321142D-01 0.68405473D+04 0.68405473D+04 0.68405473D+04 0.12268135D+01  1  2 15  1  6  1       -1 -.124200849117D-04 0.100000000000D+01
  </mgrwgt>
  </event>
  <event>
  6     66 0.61978431E-06 0.46107191E+02 0.78161638E-02 0.10635620E+00
       -1 -1    0    0    0  501 0.00000000E+00 0.00000000E+00 0.90515090E+03 0.90515090E+03 0.00000000E+00 0.0000E+00 0.9000E+01
       22 -1    0    0    0    0 0.00000000E+00 0.00000000E+00 -.77439833E+02 0.77439833E+02 0.00000000E+00 0.0000E+00 0.9000E+01
       24  2    1    2    0    0 0.43388373E+02 0.15598787E+02 -.50618870E+02 0.10305145E+03 0.77015961E+02 0.0000E+00 0.0000E+00
  9900012  1    3    3    0    0 0.75700991E+01 0.15413167E+02 -.22244376E+02 0.57355770E+02 0.50000000E+02 0.0000E+00 0.9000E+01
      -11  1    3    3    0    0 0.35818274E+02 0.18562002E+00 -.28374494E+02 0.45695679E+02 0.00000000E+00 0.0000E+00 0.9000E+01
       -2  1    1    2    0  501 -.43388373E+02 -.15598787E+02 0.87832994E+03 0.87953929E+03 0.00000000E+00 0.0000E+00 0.9000E+01
#aMCatNLO 1  0  0  1  5 0.63350266D+00 0.00000000D+00  -5  6  0 0.00000000D+00 0.00000000D+00 0.00000000D+00 0.00000000D+00 0.00000000D+00
  <mgrwgt>
 0.3218322632D-03    3    2    0
 0.264754102422834D+03 0.000000000000000D+00 0.000000000000000D+00 0.264754102422834D+03
 0.264754102422834D+03 0.000000000000000D+00 0.000000000000000D+00 -.264754102422834D+03
 0.141204921515568D+03 0.757009910376944D+01 0.154131670834349D+02 -.130934937049799D+03
 0.129150093348586D+03 0.358182736149500D+02 0.185620018060650D+00 -.124083695272190D+03
 0.259153189981514D+03 -.433883727187194D+02 -.155987871014956D+02 0.255018632321990D+03
 0.000000000000000D+00 -.000000000000000D+00 -.000000000000000D+00 -.000000000000000D+00
 0.302772491570931D+03 0.000000000000000D+00 0.000000000000000D+00 0.302772491570931D+03
 0.587713049561392D+03 0.000000000000000D+00 0.000000000000000D+00 -.587713049561392D+03
 0.154106995745140D+03 0.345039354157392D+02 0.539859874243689D+02 -.130934937049799D+03
 0.142629715809623D+03 0.606058709481902D+02 0.356847419234527D+02 -.124083695272190D+03
 0.260348311473849D+03 0.399260849535279D+01 0.522570524743675D+02 0.255018632321990D+03
 0.333400518103711D+03 -.991024148592821D+02 -.141927781822189D+03 -.284940557990460D+03
0.196664896026D-03 0.000000000000D+00 0.000000000000D+00 0.119612987784D-04 0.000000000000D+00  6 -1 22 9900012 -11 -2 21 0 0.13925399D+00 0.11913820D-01 0.45422542D+04 0.45422542D+04 0.45422542D+04 0.12465696D+01  1  2  2  1  6  1       -1 0.379927730498D-03 0.100000000000D+01
0.924066130233D-05 0.000000000000D+00 -.377622491898D-06 0.119612987784D-04 0.000000000000D+00  6 -1 22 9900012 -11 -2 21 2 0.13925399D+00 0.11913820D-01 0.45422542D+04 0.45422542D+04 0.45422542D+04 0.12465696D+01  1  2  3  1  6  1       -1 0.277402424760D-04 0.100000000000D+01
-.285930709531D-04 0.000000000000D+00 0.000000000000D+00 0.119612987784D-04 0.000000000000D+00  6 -1 22 9900012 -11 -2 21 2 0.13925399D+00 0.11913820D-01 0.45422542D+04 0.45422542D+04 0.45422542D+04 0.12465696D+01  1  2 15  1  6  1       -1 -.858357097423D-04 0.100000000000D+01
  </mgrwgt>
  </event>
  <event>
  6     66 0.61978431E-06 0.20939738E+02 0.78161638E-02 0.11925151E+00
       -3 -1    0    0    0  501 0.00000000E+00 0.00000000E+00 0.54502113E+03 0.54502113E+03 0.00000000E+00 0.0000E+00 0.9000E+01
       22 -1    0    0    0    0 0.00000000E+00 0.00000000E+00 -.55532532E+02 0.55532532E+02 0.00000000E+00 0.0000E+00 0.9000E+01
       24  2    1    2    0    0 -.17874920E+02 -.64217345E+02 -.39277337E-01 0.10650820E+03 0.83069937E+02 0.0000E+00 0.0000E+00
  9900012  1    3    3    0    0 0.11753046E+02 -.43330942E+02 0.12099984E+02 0.68279676E+02 0.50000000E+02 0.0000E+00 0.9000E+01
      -11  1    3    3    0    0 -.29627966E+02 -.20886403E+02 -.12139261E+02 0.38228521E+02 0.00000000E+00 0.0000E+00 0.9000E+01
       -4  1    1    2    0  501 0.17874920E+02 0.64217345E+02 0.48952787E+03 0.49404546E+03 0.00000000E+00 0.0000E+00 0.9000E+01
#aMCatNLO 1  0  0  5  1 0.12624783D+01 0.00000000D+00  -5  6  0 0.00000000D+00 0.00000000D+00 0.00000000D+00 0.00000000D+00 0.00000000D+00
  <mgrwgt>
 0.3229385434D-04    8    2    0
 0.173972420816121D+03 0.000000000000000D+00 0.000000000000000D+00 0.173972420816121D+03
 0.173972420816121D+03 -.000000000000000D+00 -.000000000000000D+00 -.173972420816121D+03
 0.100828640817808D+03 0.117530455427540D+02 -.433309418674281D+02 -.751712059668995D+02
 0.830600277034018D+02 -.296279655696847D+02 -.208864029194188D+02 -.747322556288724D+02
 0.164056173111032D+03 0.178749200269306D+02 0.642173447868469D+02 0.149903461595772D+03
 0.000000000000000D+00 0.000000000000000D+00 0.000000000000000D+00 0.000000000000000D+00
 0.173972420816121D+03 0.000000000000000D+00 0.000000000000000D+00 0.173972420816121D+03
 0.173972420816121D+03 -.000000000000000D+00 -.000000000000000D+00 -.173972420816121D+03
 0.100821007841793D+03 0.117540394902848D+02 -.433273710166951D+02 -.751628704792288D+02
 0.830528179076607D+02 -.296271467859486D+02 -.208834613612239D+02 -.747253891077268D+02
 0.132789062725067D+03 0.132127319953619D+02 0.520234265132916D+02 0.121457490450102D+03
 0.312819531577213D+02 0.466037530030195D+01 0.121874058646275D+02 0.284307691368532D+02
0.274939137089D-06 0.000000000000D+00 0.000000000000D+00 0.103737095724D-05 0.000000000000D+00  6 -3 22 9900012 -11 -4 21 0 0.83849404D-01 0.85434665D-02 0.72341503D+04 0.72341503D+04 0.72341503D+04 0.12241893D+01  1  2  2  2  6  5       -4 0.137658884387D-05 0.100000000000D+01
0.565827052272D-08 0.000000000000D+00 -.527919339780D-09 0.103737095724D-05 0.000000000000D+00  6 -3 22 9900012 -11 -4 21 2 0.83849404D-01 0.85434665D-02 0.72341503D+04 0.72341503D+04 0.72341503D+04 0.12241893D+01  1  2  3  2  6  5       -4 0.424569251200D-07 0.100000000000D+01
-.364261363173D-07 0.000000000000D+00 0.000000000000D+00 0.103737095724D-05 0.000000000000D+00  6 -3 22 9900012 -11 -4 21 2 0.83849404D-01 0.85434665D-02 0.72341503D+04 0.72341503D+04 0.72341503D+04 0.12241893D+01  1  2 15  2  6  5       -4 -.273324107750D-06 0.100000000000D+01
0.855213924927D-08 0.000000000000D+00 0.000000000000D+00 0.103737095724D-05 0.000000000000D+00  6 -3 22 9900012 -11 -4 21 2 0.83849404D-01 0.85434665D-02 0.72392508D+04 0.72392508D+04 0.72392508D+04 0.12241563D+01  1  2 12  2  6  5       -4 0.641707126951D-07 0.100000000000D+01
-.165944234543D-03 0.000000000000D+00 0.000000000000D+00 0.103737095724D-05 0.000000000000D+00  6 -3 22 9900012 -11 -4 21 2 0.83849404D-01 0.85434665D-02 0.72341503D+04 0.72341503D+04 0.72341503D+04 0.12241893D+01  1  2  4  2  6  5       -4 -.124516526946D-02 0.100000000000D+01
-.147464405988D-03 0.000000000000D+00 0.000000000000D+00 0.103737095724D-05 0.000000000000D+00  6 -3 22 9900012 -11 -4 21 2 0.83849404D-01 0.85434665D-02 0.72341503D+04 0.72341503D+04 0.72341503D+04 0.12241893D+01  1  2  5  2  6  5       -4 -.110650157460D-02 0.100000000000D+01
0.178204547452D-03 0.000000000000D+00 -.000000000000D+00 0.103737095724D-05 0.000000000000D+00  6 -3 22 9900012 -11 -4 21 2 0.83849404D-01 0.85434665D-02 0.72341503D+04 0.72341503D+04 0.72341503D+04 0.12241893D+01  1  2  6  2  6  5       -4 0.133716072727D-02 0.100000000000D+01
0.139347555538D-03 0.000000000000D+00 0.000000000000D+00 0.103737095724D-05 0.329509727625D-05  6 -3 22 9900012 -11 -4 21 2 0.83849404D-01 0.85434665D-02 0.72392508D+04 0.72392508D+04 0.72392508D+04 0.12241563D+01  1  2 11  2  6  5       -4 0.104559007876D-02 0.100000000000D+01
  </mgrwgt>
  </event>
  <event>
  6     66 0.61978431E-06 0.26858075E+02 0.78161638E-02 0.12558432E+00
       -1 -1    0    0    0  501 0.00000000E+00 0.00000000E+00 0.37414177E+02 0.37414177E+02 0.00000000E+00 0.0000E+00 0.9000E+01
       22 -1    0    0    0    0 0.00000000E+00 0.00000000E+00 -.14864856E+03 0.14864856E+03 0.00000000E+00 0.0000E+00 0.9000E+01
       24  2    1    2    0    0 -.26051545E+02 -.65324737E+01 -.12842173E+03 0.15417605E+03 0.80973806E+02 0.0000E+00 0.0000E+00
  9900012  1    3    3    0    0 0.67740936E+01 0.32370914E+01 -.68213572E+02 0.84908530E+02 0.50000000E+02 0.0000E+00 0.9000E+01
      -11  1    3    3    0    0 -.32825639E+02 -.97695651E+01 -.60208154E+02 0.69267516E+02 0.00000000E+00 0.0000E+00 0.9000E+01
       -2  1    1    2    0  501 0.26051545E+02 0.65324737E+01 0.17187344E+02 0.31886690E+02 0.00000000E+00 0.0000E+00 0.9000E+01
#aMCatNLO 1  0  0  1  5 0.10137209D+02 0.00000000D+00  -5  6  0 0.00000000D+00 0.00000000D+00 0.00000000D+00 0.00000000D+00 0.00000000D+00
  <mgrwgt>
 0.6818953646D-04    9    4    0
 0.745758910277902D+02 0.000000000000000D+00 0.000000000000000D+00 0.745758910277902D+02
 0.745758910277902D+02 0.000000000000000D+00 0.000000000000000D+00 -.745758910277902D+02
 0.550487485617804D+02 0.677409358784962D+01 0.323709144434802D+01 -.217714862437570D+02
 0.415072932068829D+02 -.328256387619533D+02 -.976956514076153D+01 -.234496999168927D+02
 0.525957402869171D+02 0.260515451741036D+02 0.653247369641351D+01 0.452211861606497D+02
 0.000000000000000D+00 -.000000000000000D+00 -.000000000000000D+00 0.000000000000000D+00
 0.870777176494507D+02 0.000000000000000D+00 0.000000000000000D+00 0.870777176494507D+02
 0.765094124922485D+02 0.000000000000000D+00 0.000000000000000D+00 -.765094124922485D+02
 0.556060178765030D+02 0.927284653018918D+01 0.566091229815745D+01 -.217714862437570D+02
 0.396771458541280D+02 -.309923706388939D+02 -.799127268455134D+01 -.234496999168927D+02
 0.541641495210402D+02 0.284623458776618D+02 0.887097980506134D+01 0.452211861606497D+02
 0.141398168900279D+02 -.674282176895714D+01 -.654061941866744D+01 0.105683051572022D+02
 0.745758910277902D+02 0.000000000000000D+00 0.000000000000000D+00 0.745758910277902D+02
 0.745758910277902D+02 0.000000000000000D+00 0.000000000000000D+00 -.745758910277902D+02
 0.550487485617804D+02 0.677409358784962D+01 0.323709144434802D+01 -.217714862437570D+02
 0.415072932068829D+02 -.328256387619533D+02 -.976956514076153D+01 -.234496999168927D+02
 0.000000000000000D+00 -.000000000000000D+00 -.000000000000000D+00 0.000000000000000D+00
 0.525957402869171D+02 0.260515451741036D+02 0.653247369641351D+01 0.452211861606497D+02
 0.870777176494507D+02 0.000000000000000D+00 0.000000000000000D+00 0.870777176494507D+02
 0.765094124922485D+02 0.000000000000000D+00 0.000000000000000D+00 -.765094124922485D+02
 0.556060178765030D+02 0.927284653018918D+01 0.566091229815745D+01 -.217714862437570D+02
 0.396771458541280D+02 -.309923706388939D+02 -.799127268455134D+01 -.234496999168927D+02
 0.141398168900279D+02 -.674282176895714D+01 -.654061941866744D+01 0.105683051572022D+02
 0.541641495210402D+02 0.284623458776618D+02 0.887097980506134D+01 0.452211861606497D+02
0.942456556619D-07 0.000000000000D+00 0.000000000000D+00 0.344007517541D-06 0.000000000000D+00  6 -1 22 9900012 -11 -2 21 0 0.57560272D-02 0.22869009D-01 0.31173914D+04 0.31173914D+04 0.31173914D+04 0.12656278D+01  1  2  2  1  6  1       -1 0.149476985410D-04 0.100000000000D+01
0.479102141064D-08 0.000000000000D+00 -.180964066596D-09 0.344007517541D-06 0.000000000000D+00  6 -1 22 9900012 -11 -2 21 2 0.57560272D-02 0.22869009D-01 0.31173914D+04 0.31173914D+04 0.31173914D+04 0.12656278D+01  1  2  3  1  6  1       -1 0.121717516478D-05 0.100000000000D+01
-.118631710780D-07 0.000000000000D+00 0.000000000000D+00 0.344007517541D-06 0.000000000000D+00  6 -1 22 9900012 -11 -2 21 2 0.57560272D-02 0.22869009D-01 0.31173914D+04 0.31173914D+04 0.31173914D+04 0.12656278D+01  1  2 15  1  6  1       -1 -.301387866472D-05 0.100000000000D+01
0.247277975355D-06 0.000000000000D+00 0.000000000000D+00 0.344007517541D-06 0.000000000000D+00  6 -1 22 9900012 -11 -2 21 2 0.68952155D-02 0.22869009D-01 0.37441792D+04 0.37441792D+04 0.37441792D+04 0.12562401D+01  1  2 12  1  6  1       -1 0.487465425730D-04 0.100000000000D+01
-.342480179541D-07 0.000000000000D+00 0.000000000000D+00 0.344007517541D-06 0.000000000000D+00  6 -1 22 9900012 -11 -2 21 2 0.57560272D-02 0.22869009D-01 0.31173914D+04 0.31173914D+04 0.31173914D+04 0.12656278D+01  1  2  4  1  6  1       -1 -.870082458913D-05 0.100000000000D+01
-.397052923956D-06 0.000000000000D+00 -.698544220121D-07 0.344007517541D-06 0.000000000000D+00  6 -1 22 9900012 -11 -2 21 2 0.68876418D-02 0.22869009D-01 0.31173914D+04 0.31173914D+04 0.31173914D+04 0.12656278D+01  1  2  5  1  6  1       -1 -.779623216835D-04 0.100000000000D+01
0.404173288390D-06 0.000000000000D+00 0.687442001951D-07 0.344007517541D-06 0.000000000000D+00  6 -1 22 9900012 -11 -2 21 2 0.57560272D-02 0.22869009D-01 0.31173914D+04 0.31173914D+04 0.31173914D+04 0.12656278D+01  1  2  6  1  6  1       -1 0.102681588482D-03 0.100000000000D+01
0.653811864024D-08 0.000000000000D+00 0.000000000000D+00 0.344007517541D-06 0.000000000000D+00  6 21 22 9900012 -11 1 -2 2 0.68952155D-02 0.22869009D-01 0.37441792D+04 0.37441792D+04 0.37441792D+04 0.12562401D+01  3  4 12  3  5  1       -1 0.197707024209D-04 0.100000000000D+01
-.978155061035D-08 0.000000000000D+00 -.183817520663D-08 0.344007517541D-06 0.000000000000D+00  6 21 22 9900012 -11 1 -2 2 0.68876418D-02 0.22869009D-01 0.31173914D+04 0.31173914D+04 0.31173914D+04 0.12656278D+01  3  4  5  3  5  1       -1 -.294971457865D-04 0.100000000000D+01
  </mgrwgt>
  </event>
  <event>
  6     66 0.61978431E-06 0.40962578E+02 0.78161638E-02 0.11355039E+00
       -1 -1    0    0    0  501 0.00000000E+00 0.00000000E+00 0.11836824E+02 0.11836824E+02 0.00000000E+00 0.0000E+00 0.9000E+01
       22 -1    0    0    0    0 0.00000000E+00 0.00000000E+00 -.15214941E+04 0.15214941E+04 0.00000000E+00 0.0000E+00 0.9000E+01
       24  2    1    2    0    0 0.96881461E+01 -.85543031E+02 -.13121771E+04 0.13179014E+04 0.87428912E+02 0.0000E+00 0.0000E+00
  9900012  1    3    3    0    0 -.22164946E+02 -.43249545E+02 -.73221129E+03 0.73552375E+03 0.50000000E+02 0.0000E+00 0.9000E+01
      -11  1    3    3    0    0 0.31853092E+02 -.42293486E+02 -.57996586E+03 0.58237767E+03 0.00000000E+00 0.0000E+00 0.9000E+01
       -2  1    1    2    0  501 -.96881461E+01 0.85543031E+02 -.19748013E+03 0.21542950E+03 0.00000000E+00 0.0000E+00 0.9000E+01
#aMCatNLO 1  0  0  1  5 0.26615288D+02 0.00000000D+00  -5  6  0 0.00000000D+00 0.00000000D+00 0.00000000D+00 0.00000000D+00 0.00000000D+00
  <mgrwgt>
 0.6167854289D-04    9    4    0
 0.134200067548883D+03 0.000000000000000D+00 0.000000000000000D+00 0.134200067548883D+03
 0.134200067548883D+03 0.000000000000000D+00 0.000000000000000D+00 -.134200067548883D+03
 0.835066797732396D+02 -.221649461775892D+02 -.432495450602494D+02 -.459516874529806D+02
 0.649329755902945D+02 0.318530922343969D+02 -.422934859538072D+02 -.375889994545197D+02
 0.119960479734231D+03 -.968814605680771D+01 0.855430310140566D+02 0.835406869075004D+02
 0.000000000000000D+00 0.000000000000000D+00 -.000000000000000D+00 0.000000000000000D+00
 0.176924711246591D+03 0.000000000000000D+00 0.000000000000000D+00 0.176924711246591D+03
 0.138562845988095D+03 0.000000000000000D+00 0.000000000000000D+00 -.138562845988095D+03
 0.804265154710836D+02 -.240002540000689D+02 -.357890293103378D+02 -.459516874529806D+02
 0.606460740052901D+02 0.304471767837840D+02 -.365784477275928D+02 -.375889994545197D+02
 0.128509197005562D+03 -.124698788272200D+02 0.968507587377183D+02 0.835406869075004D+02
 0.459057707527508D+02 0.602295604350486D+01 -.244832816997877D+02 0.383618652584954D+02
 0.134200067548883D+03 0.000000000000000D+00 0.000000000000000D+00 0.134200067548883D+03
 0.134200067548883D+03 0.000000000000000D+00 0.000000000000000D+00 -.134200067548883D+03
 0.835066797732396D+02 -.221649461775892D+02 -.432495450602494D+02 -.459516874529806D+02
 0.649329755902945D+02 0.318530922343969D+02 -.422934859538072D+02 -.375889994545197D+02
 0.000000000000000D+00 0.000000000000000D+00 -.000000000000000D+00 0.000000000000000D+00
 0.119960479734231D+03 -.968814605680771D+01 0.855430310140566D+02 0.835406869075004D+02
 0.176924711246591D+03 0.000000000000000D+00 0.000000000000000D+00 0.176924711246591D+03
 0.138562845988095D+03 0.000000000000000D+00 0.000000000000000D+00 -.138562845988095D+03
 0.804265154710836D+02 -.240002540000689D+02 -.357890293103378D+02 -.459516874529806D+02
 0.606460740052901D+02 0.304471767837840D+02 -.365784477275928D+02 -.375889994545197D+02
 0.459057707527508D+02 0.602295604350486D+01 -.244832816997877D+02 0.383618652584954D+02
 0.128509197005562D+03 -.124698788272200D+02 0.968507587377183D+02 0.835406869075004D+02
0.163806313429D-05 0.000000000000D+00 0.000000000000D+00 0.327378800696D-07 0.000000000000D+00  6 -1 22 9900012 -11 -2 21 0 0.18210499D-02 0.23407602D+00 0.10895530D+05 0.10895530D+05 0.10895530D+05 0.12054886D+01  1  2  2  1  6  1       -1 0.192056647593D-04 0.100000000000D+01
-.299280890339D-08 0.000000000000D+00 -.314529687381D-08 0.327378800696D-07 0.000000000000D+00  6 -1 22 9900012 -11 -2 21 2 0.18210499D-02 0.23407602D+00 0.10895530D+05 0.10895530D+05 0.10895530D+05 0.12054886D+01  1  2  3  1  6  1       -1 -.509922196917D-07 0.100000000000D+01
-.207241457633D-06 0.000000000000D+00 0.000000000000D+00 0.327378800696D-07 0.000000000000D+00  6 -1 22 9900012 -11 -2 21 2 0.18210499D-02 0.23407602D+00 0.10895530D+05 0.10895530D+05 0.10895530D+05 0.12054886D+01  1  2 15  1  6  1       -1 -.353103130805D-05 0.100000000000D+01
0.361859203881D-05 0.000000000000D+00 0.000000000000D+00 0.327378800696D-07 0.000000000000D+00  6 -1 22 9900012 -11 -2 21 2 0.24788581D-02 0.23407602D+00 0.13978591D+05 0.13978591D+05 0.13978591D+05 0.11945360D+01  1  2 12  1  6  1       -1 0.400022679828D-04 0.100000000000D+01
-.109844071489D-05 0.000000000000D+00 0.000000000000D+00 0.327378800696D-07 0.000000000000D+00  6 -1 22 9900012 -11 -2 21 2 0.18210499D-02 0.23407602D+00 0.10895530D+05 0.10895530D+05 0.10895530D+05 0.12054886D+01  1  2  4  1  6  1       -1 -.187155050858D-04 0.100000000000D+01
-.462305556533D-05 0.000000000000D+00 -.774937924403D-06 0.327378800696D-07 0.000000000000D+00  6 -1 22 9900012 -11 -2 21 2 0.24831922D-02 0.23407602D+00 0.10895530D+05 0.10895530D+05 0.10895530D+05 0.12054886D+01  1  2  5  1  6  1       -1 -.507784256057D-04 0.100000000000D+01
0.467269766319D-05 0.000000000000D+00 0.739107802876D-06 0.327378800696D-07 0.000000000000D+00  6 -1 22 9900012 -11 -2 21 2 0.18210499D-02 0.23407602D+00 0.10895530D+05 0.10895530D+05 0.10895530D+05 0.12054886D+01  1  2  6  1  6  1       -1 0.796145806451D-04 0.100000000000D+01
0.142689209184D-06 0.000000000000D+00 0.000000000000D+00 0.327378800696D-07 0.000000000000D+00  6 21 22 9900012 -11 1 -2 2 0.24788581D-02 0.23407602D+00 0.13978591D+05 0.13978591D+05 0.13978591D+05 0.11945360D+01  3  4 12  3  5  1       -1 0.276324671484D-04 0.100000000000D+01
-.164753344594D-06 0.000000000000D+00 -.306823015429D-07 0.327378800696D-07 0.000000000000D+00  6 21 22 9900012 -11 1 -2 2 0.24831922D-02 0.23407602D+00 0.10895530D+05 0.10895530D+05 0.10895530D+05 0.12054886D+01  3  4  5  3  5  1       -1 -.317004834278D-04 0.100000000000D+01
  </mgrwgt>
  </event>
  <event>
  6     66 0.61978431E-06 0.46015569E+02 0.78161638E-02 0.11831975E+00
       -3 -1    0    0    0  501 0.00000000E+00 0.00000000E+00 0.59622136E+03 0.59622136E+03 0.00000000E+00 0.0000E+00 0.9000E+01
       22 -1    0    0    0    0 0.00000000E+00 0.00000000E+00 -.16902978E+02 0.16902978E+02 0.00000000E+00 0.0000E+00 0.9000E+01
       24  2    1    2    0    0 -.20178296E+02 -.41355398E+02 0.17014281E+03 0.20136945E+03 0.97384033E+02 0.0000E+00 0.0000E+00
  9900012  1    3    3    0    0 -.43889545E+02 -.11106394E+02 0.89839642E+02 0.11234236E+03 0.50000000E+02 0.0000E+00 0.9000E+01
      -11  1    3    3    0    0 0.23711250E+02 -.30249003E+02 0.80303164E+02 0.89027096E+02 0.00000000E+00 0.0000E+00 0.9000E+01
       -4  1    1    2    0  501 0.20178296E+02 0.41355398E+02 0.40917557E+03 0.41175488E+03 0.00000000E+00 0.0000E+00 0.9000E+01
#aMCatNLO 1  0  0  1  1 0.12816932D+03 0.00000000D+00  -5  6  0 0.00000000D+00 0.00000000D+00 0.00000000D+00 0.00000000D+00 0.00000000D+00
  <mgrwgt>
 0.2433443881D-04    4    2    0
 0.100388825973533D+03 0.000000000000000D+00 0.000000000000000D+00 0.100388825973533D+03
 0.100388825973533D+03 0.000000000000000D+00 0.000000000000000D+00 -.100388825973533D+03
 0.838443806473011D+02 -.438895454141938D+02 -.111063944422346D+02 -.498019675510761D+02
 0.401617399591249D+02 0.237112497548325D+02 -.302490034458895D+02 -.116507416990892D+02
 0.767715313406409D+02 0.201782956593614D+02 0.413553978881241D+02 0.614527092501653D+02
 0.000000000000000D+00 0.000000000000000D+00 0.000000000000000D+00 -.000000000000000D+00
 0.103895089581465D+03 0.000000000000000D+00 0.000000000000000D+00 0.103895089581465D+03
 0.184675351734112D+03 0.000000000000000D+00 0.000000000000000D+00 -.184675351734112D+03
 0.880426359516605D+02 -.474365769968321D+02 -.228263211267564D+02 -.498019675510761D+02
 0.437338874781032D+02 0.219799936887655D+02 -.359693342897853D+02 -.116507416990892D+02
 0.710493686389595D+02 0.171278884140894D+02 0.312763928272415D+02 0.614527092501653D+02
 0.857445492468544D+02 0.832869489397724D+01 0.275192625893002D+02 -.807802621526473D+02
0.140341739457D-05 0.000000000000D+00 0.000000000000D+00 0.347348096288D-08 0.000000000000D+00  6 -3 22 9900012 -11 -4 21 0 0.91726362D-01 0.26004581D-02 0.57685021D+04 0.57685021D+04 0.57685021D+04 0.12349164D+01  1  2  2  1  6  1       -3 0.285926715300D-04 0.100000000000D+01
0.345332695157D-07 0.000000000000D+00 -.269474616172D-08 0.347348096288D-08 0.000000000000D+00  6 -3 22 9900012 -11 -4 21 2 0.91726362D-01 0.26004581D-02 0.57685021D+04 0.57685021D+04 0.57685021D+04 0.12349164D+01  1  2  3  1  6  1       -3 0.107295303573D-05 0.100000000000D+01
-.163623459888D-06 0.000000000000D+00 0.000000000000D+00 0.347348096288D-08 0.000000000000D+00  6 -3 22 9900012 -11 -4 21 2 0.91726362D-01 0.26004581D-02 0.57685021D+04 0.57685021D+04 0.57685021D+04 0.12349164D+01  1  2 15  1  6  1       -3 -.508380151850D-05 0.100000000000D+01
-.796212539963D-08 0.000000000000D+00 0.000000000000D+00 0.347348096288D-08 0.000000000000D+00  6 -3 22 9900012 -11 -4 21 2 0.91726362D-01 0.26004581D-02 0.57685021D+04 0.57685021D+04 0.57685021D+04 0.12349164D+01  1  2  4  1  6  1       -3 -.247384239551D-06 0.100000000000D+01
  </mgrwgt>
  </event>
  <event>
  7     66 0.61978431E-06 0.19202667E+02 0.78161638E-02 0.12881556E+00
       -1 -1    0    0    0  502 0.00000000E+00 0.00000000E+00 0.11469247E+03 0.11469247E+03 0.00000000E+00 0.0000E+00 0.9000E+01
       22 -1    0    0    0    0 0.00000000E+00 0.00000000E+00 -.17314872E+03 0.17314872E+03 0.00000000E+00 0.0000E+00 0.9000E+01
       24  2    1    2    0    0 -.19608729E+01 -.22284966E+02 0.20072039E+01 0.83335237E+02 0.80251281E+02 0.0000E+00 0.0000E+00
  9900012  1    3    3    0    0 0.16245619E+02 0.10946759E+01 -.51940277E+01 0.52840291E+02 0.50000000E+02 0.0000E+00 0.9000E+01
      -11  1    3    3    0    0 -.18206492E+02 -.23379642E+02 0.72012316E+01 0.30494946E+02 0.00000000E+00 0.0000E+00 0.9000E+01
       -2  1    1    2    0  501 -.65166430E+00 0.21348894E+01 -.13104192E+03 0.13106093E+03 0.00000000E+00 0.0000E+00 0.9000E+01
       21  1    1    2  501  502 0.26125372E+01 0.20150077E+02 0.70578467E+02 0.73445020E+02 0.00000000E+00 0.0000E+00 0.9000E+01
#aMCatNLO 2  0  0  1  5 0.25599112D+02 0.00000000D+00  -5  6  0 0.00000000D+00 0.00000000D+00 0.00000000D+00 0.00000000D+00 0.00000000D+00
  <mgrwgt>
 0.6743531208D-03    1    2    0
 0.850042759211602D+02 0.000000000000000D+00 0.000000000000000D+00 0.850042759211602D+02
 0.850042759211602D+02 0.000000000000000D+00 0.000000000000000D+00 -.850042759211602D+02
 0.630735691968056D+02 0.172051428135489D+02 0.849532917421158D+01 0.333179767424644D+02
 0.408717190576160D+02 -.175596574781090D+02 -.183907141576229D+02 0.319990231217890D+02
 0.660632635878988D+02 0.354514664560042D+00 0.989538498341134D+01 -.653169998642534D+02
 0.000000000000000D+00 0.000000000000000D+00 0.000000000000000D+00 0.000000000000000D+00
 0.230050765548517D+03 0.000000000000000D+00 0.000000000000000D+00 0.230050765548517D+03
 0.863237905588998D+02 0.000000000000000D+00 0.000000000000000D+00 -.863237905588998D+02
 0.622511527676217D+02 0.162456188357601D+02 0.109467590161627D+01 0.333179767424644D+02
 0.436121711758541D+02 -.182064916952150D+02 -.233796418722632D+02 0.319990231217890D+02
 0.653551290272466D+02 -.651664298857046D+00 0.213488935141184D+01 -.653169998642534D+02
 0.145156103136694D+03 0.261253715831202D+01 0.201500766192350D+02 0.143726974989617D+03
0.171993140770D-04 0.000000000000D+00 0.000000000000D+00 0.462216002602D-05 0.183550135163D-05  6 -1 22 9900012 -11 -2 21 2 0.17644995D-01 0.26638265D-01 0.27440700D+04 0.27440700D+04 0.27440700D+04 0.12722987D+01  1  2  1  1  6  1       -1 0.674353120815D-03 0.100000000000D+01
  </mgrwgt>
  </event>
  <event>
  7     66 -.61978431E-06 0.96879472E+02 0.78161638E-02 0.11367436E+00
       -1 -1    0    0    0  501 0.00000000E+00 0.00000000E+00 0.41083215E+02 0.41083215E+02 0.00000000E+00 0.0000E+00 0.9000E+01
       22 -1    0    0    0    0 -.00000000E+00 -.00000000E+00 -.39448639E+03 0.39448639E+03 0.00000000E+00 0.0000E+00 0.9000E+01
       24  2    1    2    0    0 0.73060792E+02 -.75635696E+02 -.19265136E+03 0.23414454E+03 0.81550488E+02 0.0000E+00 0.0000E+00
  9900012  1    3    3    0    0 0.26105646E+02 -.33160252E+02 -.68191360E+02 0.94504861E+02 0.50000000E+02 0.0000E+00 0.9000E+01
      -11  1    3    3    0    0 0.46955146E+02 -.42475444E+02 -.12446000E+03 0.13963968E+03 0.00000000E+00 0.0000E+00 0.9000E+01
       -2  1    1    2    0  502 -.67288205E+02 0.73842252E+02 -.10347931E+03 0.14383445E+03 0.00000000E+00 0.0000E+00 0.9000E+01
       21  1    1    2  502  501 -.57725866E+01 0.17934441E+01 -.57272507E+02 0.57590618E+02 0.00000000E+00 0.0000E+00 0.9000E+01
#aMCatNLO 2  0  0  5  1 0.22026278D+02 0.00000000D+00  -5  6  0 0.00000000D+00 0.00000000D+00 0.00000000D+00 0.00000000D+00 0.00000000D+00
  <mgrwgt>
 -.1838366576D-04    2    2    0
 0.127305809749852D+03 0.000000000000000D+00 0.000000000000000D+00 0.127305809749852D+03
 0.127305809749852D+03 -.000000000000000D+00 -.000000000000000D+00 -.127305809749852D+03
 0.698838346424650D+02 0.292275786086208D+02 -.363922121035605D+02 0.143215184677375D+02
 0.704820273668353D+02 0.500704641683917D+02 -.457005560835501D+02 -.192905151137913D+02
 0.114245757490403D+03 -.792980427770125D+02 0.820927681871106D+02 0.496899664605379D+01
 0.000000000000000D+00 -.000000000000000D+00 0.000000000000000D+00 0.000000000000000D+00
 0.127305809749852D+03 0.000000000000000D+00 0.000000000000000D+00 0.127305809749852D+03
 0.127305809749852D+03 -.000000000000000D+00 -.000000000000000D+00 -.127305809749852D+03
 0.670212995296425D+02 0.261056458528333D+02 -.331602521075579D+02 0.145171459113598D+02
 0.661330447164309D+02 0.469551458784666D+02 -.424754436690729D+02 -.190953021477216D+02
 0.102430504833616D+03 -.672882051749457D+02 0.738422517172596D+02 0.226191871235160D+02
 0.190267704200147D+02 -.577258655635423D+01 0.179344405937124D+01 -.180410308871542D+02
-.631245654506D-06 0.000000000000D+00 0.000000000000D+00 0.131468235945D-06 0.000000000000D+00  6 -1 22 9900012 -11 -2 21 2 0.63204946D-02 0.60690214D-01 0.13770207D+05 0.13770207D+05 0.13770207D+05 0.11951879D+01  1  2 13  2  6  5       -2 -.305877800276D-04 0.100000000000D+01
0.251858555696D-06 0.000000000000D+00 0.000000000000D+00 0.131468235945D-06 0.688910743692D-09  6 -1 22 9900012 -11 -2 21 2 0.63204946D-02 0.60690214D-01 0.13770207D+05 0.13770207D+05 0.13770207D+05 0.11951879D+01  1  2  1  2  6  5       -2 0.122041142695D-04 0.100000000000D+01
  </mgrwgt>
  </event>
  <event>
  6     66 0.61978431E-06 0.36485239E+02 0.78161638E-02 0.12525152E+00
       -3 -1    0    0    0  501 0.00000000E+00 0.00000000E+00 0.80452613E+03 0.80452613E+03 0.00000000E+00 0.0000E+00 0.9000E+01
       22 -1    0    0    0    0 0.00000000E+00 0.00000000E+00 -.10801969E+02 0.10801969E+02 0.00000000E+00 0.0000E+00 0.9000E+01
       24  2    1    2    0    0 -.24268305E+02 -.27243753E+02 0.17984991E+03 0.20037057E+03 0.80443775E+02 0.0000E+00 0.0000E+00
  9900012  1    3    3    0    0 -.46821699E+01 -.37752611E+02 0.10571234E+03 0.12297269E+03 0.50000000E+02 0.0000E+00 0.9000E+01
      -11  1    3    3    0    0 -.19586135E+02 0.10508858E+02 0.74137566E+02 0.77397878E+02 0.00000000E+00 0.0000E+00 0.9000E+01
       -4  1    1    2    0  501 0.24268305E+02 0.27243753E+02 0.61387425E+03 0.61495753E+03 0.00000000E+00 0.0000E+00 0.9000E+01
#aMCatNLO 1  0  0  5  1 0.85059225D+01 0.00000000D+00  -5  6  0 0.00000000D+00 0.00000000D+00 0.00000000D+00 0.00000000D+00 0.00000000D+00
  <mgrwgt>
 0.2276189981D-04    6    2    0
 0.932226725880995D+02 0.000000000000000D+00 0.000000000000000D+00 0.932226725880995D+02
 0.932226725880995D+02 -.000000000000000D+00 -.000000000000000D+00 -.932226725880995D+02
 0.877289082478813D+02 -.468216985510005D+01 -.377526111225745D+02 -.612305396125237D+02
 0.228479140262372D+02 -.195861350323665D+02 0.105088581914655D+02 -.528908209010755D+01
 0.758685229020805D+02 0.242683048874666D+02 0.272437529311090D+02 0.665196217026312D+02
 0.000000000000000D+00 0.000000000000000D+00 -.000000000000000D+00 0.000000000000000D+00
 0.932226725880995D+02 0.000000000000000D+00 0.000000000000000D+00 0.932226725880995D+02
 0.932226725880995D+02 -.000000000000000D+00 -.000000000000000D+00 -.932226725880995D+02
 0.846908316655758D+02 -.342759806534742D+01 -.363442208772380D+02 -.577917481007095D+02
 0.225470820765008D+02 -.192558289923794D+02 0.108796618461415D+02 -.438371053952241D+01
 0.743006582600497D+02 0.213154183336530D+02 0.293470414728885D+02 0.648459090145757D+02
 0.490677317407251D+01 0.136800872407384D+01 -.388248244179193D+01 -.267045037434380D+01
0.670721368380D-06 0.000000000000D+00 0.000000000000D+00 0.136042612856D-05 0.000000000000D+00  6 -3 22 9900012 -11 -4 21 0 0.12377325D+00 0.16618415D-02 0.36929408D+04 0.36929408D+04 0.36929408D+04 0.12569385D+01  1  2  2  2  6  5       -4 0.113350863043D-04 0.100000000000D+01
0.237559390271D-07 0.000000000000D+00 -.128787332979D-08 0.136042612856D-05 0.000000000000D+00  6 -3 22 9900012 -11 -4 21 2 0.12377325D+00 0.16618415D-02 0.36929408D+04 0.36929408D+04 0.36929408D+04 0.12569385D+01  1  2  3  2  6  5       -4 0.634282812516D-06 0.100000000000D+01
-.808169508204D-07 0.000000000000D+00 0.000000000000D+00 0.136042612856D-05 0.000000000000D+00  6 -3 22 9900012 -11 -4 21 2 0.12377325D+00 0.16618415D-02 0.36929408D+04 0.36929408D+04 0.36929408D+04 0.12569385D+01  1  2 15  2  6  5       -4 -.215781000308D-05 0.100000000000D+01
0.506901491257D-06 0.000000000000D+00 0.000000000000D+00 0.136042612856D-05 0.000000000000D+00  6 -3 22 9900012 -11 -4 21 2 0.12377325D+00 0.16618415D-02 0.38696376D+04 0.38696376D+04 0.38696376D+04 0.12545745D+01  1  2 12  2  6  5       -4 0.135384592074D-04 0.100000000000D+01
-.220721067095D-07 0.000000000000D+00 0.000000000000D+00 0.136042612856D-05 0.000000000000D+00  6 -3 22 9900012 -11 -4 21 2 0.12377325D+00 0.16618415D-02 0.36929408D+04 0.36929408D+04 0.36929408D+04 0.12569385D+01  1  2  4  2  6  5       -4 -.589324543470D-06 0.100000000000D+01
0.451558607738D-10 0.000000000000D+00 0.000000000000D+00 0.136042612856D-05 0.988550584505D-08  6 -3 22 9900012 -11 -4 21 2 0.12377325D+00 0.16618415D-02 0.38696376D+04 0.38696376D+04 0.38696376D+04 0.12545745D+01  1  2 11  2  6  5       -4 0.120603468248D-08 0.100000000000D+01
  </mgrwgt>
  </event>
  <event>
  7     66 0.61978431E-06 0.71825880E+02 0.78161638E-02 0.11741352E+00
       -3 -1    0    0    0  502 0.00000000E+00 0.00000000E+00 0.18806374E+03 0.18806374E+03 0.00000000E+00 0.0000E+00 0.9000E+01
       22 -1    0    0    0    0 0.00000000E+00 0.00000000E+00 -.11608436E+04 0.11608436E+04 0.00000000E+00 0.0000E+00 0.9000E+01
       24  2    1    2    0    0 0.37609568E+02 -.74531443E+02 -.11313287E+04 0.11372482E+04 0.80370740E+02 0.0000E+00 0.0000E+00
  9900012  1    3    3    0    0 0.22395556E+02 -.42535026E+02 -.94757856E+03 0.95011363E+03 0.50000000E+02 0.0000E+00 0.9000E+01
      -11  1    3    3    0    0 0.15214012E+02 -.31996417E+02 -.18375011E+03 0.18713455E+03 0.00000000E+00 0.0000E+00 0.9000E+01
       -4  1    1    2    0  501 -.32438385E+02 0.68504516E+02 0.27898743E+02 0.80767923E+02 0.00000000E+00 0.0000E+00 0.9000E+01
       21  1    1    2  501  502 -.51711827E+01 0.60269274E+01 0.13065009E+03 0.13089122E+03 0.00000000E+00 0.0000E+00 0.9000E+01
#aMCatNLO 2  0  0  1  5 0.79419396D+01 0.00000000D+00  -5  6  0 0.00000000D+00 0.00000000D+00 0.00000000D+00 0.00000000D+00 0.00000000D+00
  <mgrwgt>
 0.1118844117D-03    2    2    0
 0.257848098262486D+03 0.000000000000000D+00 0.000000000000000D+00 0.257848098262486D+03
 0.257848098262486D+03 0.000000000000000D+00 0.000000000000000D+00 -.257848098262486D+03
 0.215815050311447D+03 0.202280928900934D+02 -.400088840620473D+02 -.205100583604903D+03
 0.482958978946665D+02 0.147271391076333D+02 -.314289748962560D+02 -.335831008712266D+02
 0.251585248318859D+03 -.349552319977267D+02 0.714378589583033D+02 0.238683684476130D+03
 0.000000000000000D+00 -.000000000000000D+00 0.000000000000000D+00 0.000000000000000D+00
 0.846483022925726D+03 0.000000000000000D+00 0.000000000000000D+00 0.846483022925726D+03
 0.257905455004494D+03 0.000000000000000D+00 0.000000000000000D+00 -.257905455004494D+03
 0.216511059204015D+03 0.223955558300114D+02 -.425350260566188D+02 -.205100583604903D+03
 0.488166110222108D+02 0.152140117702992D+02 -.319964168840833D+02 -.335831008712266D+02
 0.250429668156318D+03 -.324383848705303D+02 0.685045155064574D+02 0.238683684476130D+03
 0.588631139547676D+03 -.517118272978030D+01 0.602692743424472D+01 0.588577567921232D+03
-.146669111693D-02 0.000000000000D+00 0.000000000000D+00 0.333038766855D-04 0.000000000000D+00  6 -3 22 9900012 -11 -4 21 2 0.28939320D-01 0.17855160D+00 0.88856146D+04 0.88856146D+04 0.88856146D+04 0.12146859D+01  1  2 13  1  6  1       -3 -.573199139277D-03 0.100000000000D+01
0.175318542589D-02 0.000000000000D+00 0.000000000000D+00 0.333038766855D-04 0.891579700445D-05  6 -3 22 9900012 -11 -4 21 2 0.28932884D-01 0.17859132D+00 0.88856146D+04 0.88856146D+04 0.88856146D+04 0.12146859D+01  1  2  1  1  6  1       -3 0.685083550949D-03 0.100000000000D+01
  </mgrwgt>
  </event>
  <event>
  7     66 -.61978431E-06 0.18849222E+02 0.78161638E-02 0.12519720E+00
       -1 -1    0    0    0  502 0.00000000E+00 0.00000000E+00 0.58924817E+02 0.58924817E+02 0.00000000E+00 0.0000E+00 0.9000E+01
       22 -1    0    0    0    0 0.00000000E+00 0.00000000E+00 -.26368860E+03 0.26368860E+03 0.00000000E+00 0.0000E+00 0.9000E+01
       24  2    1    2    0    0 0.32856357E+02 0.87798520E+01 -.23146106E+03 0.24777150E+03 0.81608022E+02 0.0000E+00 0.0000E+00
  9900012  1    3    3    0    0 0.18569135E+02 0.30939527E+02 -.17230390E+03 0.18300465E+03 0.50000000E+02 0.0000E+00 0.9000E+01
      -11  1    3    3    0    0 0.14287222E+02 -.22159675E+02 -.59157156E+02 0.64766851E+02 0.00000000E+00 0.0000E+00 0.9000E+01
       -2  1    1    2    0  501 -.21497659E+02 -.12378504E+02 0.45939505E+02 0.52209336E+02 0.00000000E+00 0.0000E+00 0.9000E+01
       21  1    1    2  501  502 -.11358698E+02 0.35986522E+01 -.19242230E+02 0.22632581E+02 0.00000000E+00 0.0000E+00 0.9000E+01
#aMCatNLO 2  0  0  1  5 0.23104411D+02 0.00000000D+00  -5  6  0 0.00000000D+00 0.00000000D+00 0.00000000D+00 0.00000000D+00 0.00000000D+00
  <mgrwgt>
 -.1547035612D-04    2    2    0
 0.117716062500499D+03 0.000000000000000D+00 0.000000000000000D+00 0.117716062500499D+03
 0.117716062500499D+03 0.000000000000000D+00 0.000000000000000D+00 -.117716062500499D+03
 0.969800523644294D+02 0.138860155002655D+02 0.324232285906408D+02 -.752399054883305D+02
 0.348799364655878D+02 0.125817983428772D+02 -.216193643733029D+02 -.243086692847835D+02
 0.103572136170981D+03 -.264678138431427D+02 -.108038642173379D+02 0.995485747731140D+02
 0.000000000000000D+00 -.000000000000000D+00 0.000000000000000D+00 -.000000000000000D+00
 0.121358002665694D+03 0.000000000000000D+00 0.000000000000000D+00 0.121358002665694D+03
 0.128032781751409D+03 0.000000000000000D+00 0.000000000000000D+00 -.128032781751409D+03
 0.972785201198484D+02 0.185691345987735D+02 0.309395271306378D+02 -.752399054883305D+02
 0.358620596503688D+02 0.142872221439505D+02 -.221596751641138D+02 -.243086692847835D+02
 0.102592862493171D+03 -.214976587022874D+02 -.123785041707139D+02 0.995485747731140D+02
 0.136573421537151D+02 -.113586980404366D+02 0.359865220418993D+01 -.667477908571526D+01
-.284250087051D-06 0.000000000000D+00 0.000000000000D+00 0.126341209793D-05 0.000000000000D+00  6 -1 22 9900012 -11 -2 21 2 0.98598508D-02 0.37298601D-01 0.38905789D+04 0.38905789D+04 0.38905789D+04 0.12543023D+01  1  2 13  1  6  1       -1 -.157347890045D-04 0.100000000000D+01
0.482978224094D-08 0.000000000000D+00 0.000000000000D+00 0.126341209793D-05 0.747018672766D-09  6 -1 22 9900012 -11 -2 21 2 0.90653565D-02 0.40567477D-01 0.38905789D+04 0.38905789D+04 0.38905789D+04 0.12543023D+01  1  2  1  1  6  1       -1 0.264432881821D-06 0.100000000000D+01
  </mgrwgt>
  </event>
  <event>
  7     66 0.61978431E-06 0.46531090E+02 0.78161638E-02 0.11819084E+00
       21 -1    0    0  502  501 0.00000000E+00 0.00000000E+00 0.45167540E+03 0.45167540E+03 0.00000000E+00 0.0000E+00 0.9000E+01
       22 -1    0    0    0    0 0.00000000E+00 0.00000000E+00 -.50540168E+02 0.50540168E+02 0.00000000E+00 0.0000E+00 0.9000E+01
       24  2    1    2    0    0 -.52576318E+02 0.12709982E+02 0.18026136E+03 0.20423891E+03 0.79331971E+02 0.0000E+00 0.0000E+00
  9900012  1    3    3    0    0 -.15715275E+02 0.13710142E+01 0.70210305E+02 0.87626118E+02 0.50000000E+02 0.0000E+00 0.9000E+01
      -11  1    3    3    0    0 -.36861043E+02 0.11338968E+02 0.11005105E+03 0.11661279E+03 0.00000000E+00 0.0000E+00 0.9000E+01
        3  1    1    2  502    0 0.45462420E+02 -.40435389E+02 0.24990664E+03 0.25720649E+03 0.00000000E+00 0.0000E+00 0.9000E+01
       -4  1    1    2    0  501 0.71138986E+01 0.27725407E+02 -.29032759E+02 0.40770172E+02 0.00000000E+00 0.0000E+00 0.9000E+01
#aMCatNLO 2  0  0  1  5 0.50351459D+02 0.00000000D+00  -5  6  0 0.00000000D+00 0.00000000D+00 0.00000000D+00 0.00000000D+00 0.00000000D+00
  <mgrwgt>
 0.3917313319D-05    1    2    0
 0.914569677818409D+02 0.000000000000000D+00 0.000000000000000D+00 0.914569677818409D+02
 0.914569677818409D+02 0.000000000000000D+00 0.000000000000000D+00 -.914569677818409D+02
 0.551160657124044D+02 -.223336019891472D+01 -.106201308410650D+02 0.204940387126267D+02
 0.535445162907011D+02 -.228932408937324D+02 -.108433796468317D+01 0.483915174112678D+02
 0.000000000000000D+00 0.000000000000000D+00 -.000000000000000D+00 0.000000000000000D+00
 0.742533535605764D+02 0.251266010926471D+02 0.117044688057482D+02 -.688855561238945D+02
 0.219737806112058D+03 0.000000000000000D+00 0.000000000000000D+00 0.219737806112058D+03
 0.103886314332631D+03 0.000000000000000D+00 0.000000000000000D+00 -.103886314332631D+03
 0.562925853727894D+02 -.157152749057685D+02 0.137101416267881D+01 0.204940387126267D+02
 0.618792991390220D+02 -.368610433902656D+02 0.113389675346787D+02 0.483915174112678D+02
 0.130856487985725D+03 0.454624197284760D+02 -.404353891148772D+02 0.115851491779427D+03
 0.745957479471530D+02 0.711389856755812D+01 0.277254074175197D+02 -.688855561238945D+02
0.188144120431D-07 0.000000000000D+00 0.000000000000D+00 0.969542817842D-06 0.120257257398D-09  6 21 22 9900012 -11 3 -4 2 0.69488523D-01 0.77754105D-02 0.81415865D+04 0.81415865D+04 0.81415865D+04 0.12187001D+01  1  2  1  3  5  1       -3 0.391731331949D-05 0.100000000000D+01
  </mgrwgt>
  </event>
  <event>
  6     66 0.61978431E-06 0.40183941E+02 0.78161638E-02 0.11973881E+00
       -1 -1    0    0    0  501 0.00000000E+00 0.00000000E+00 0.13530489E+03 0.13530489E+03 0.00000000E+00 0.0000E+00 0.9000E+01
       22 -1    0    0    0    0 0.00000000E+00 0.00000000E+00 -.47718364E+02 0.47718364E+02 0.00000000E+00 0.0000E+00 0.9000E+01
       24  2    1    2    0    0 0.56493522E+02 0.45118453E+01 0.40011689E+02 0.10902839E+03 0.84109331E+02 0.0000E+00 0.0000E+00
  9900012  1    3    3    0    0 0.13461436E+02 -.93265080E+01 0.70488919E+01 0.53083716E+02 0.50000000E+02 0.0000E+00 0.9000E+01
      -11  1    3    3    0    0 0.43032087E+02 0.13838353E+02 0.32962797E+02 0.55944674E+02 0.00000000E+00 0.0000E+00 0.9000E+01
       -2  1    1    2    0  501 -.56493522E+02 -.45118453E+01 0.47574838E+02 0.73994864E+02 0.00000000E+00 0.0000E+00 0.9000E+01
#aMCatNLO 1  0  0  1  5 0.13683809D+02 0.00000000D+00  -5  6  0 0.00000000D+00 0.00000000D+00 0.00000000D+00 0.00000000D+00 0.00000000D+00
  <mgrwgt>
 0.1122114805D-03    9    4    0
 0.803525229049747D+02 0.000000000000000D+00 0.000000000000000D+00 0.803525229049747D+02
 0.803525229049747D+02 0.000000000000000D+00 0.000000000000000D+00 -.803525229049747D+02
 0.566140681898370D+02 0.134614356707031D+02 -.932650803170833D+01 -.209035574633007D+02
 0.457489011510951D+02 0.430320865113752D+02 0.138383533337536D+02 0.704992652588567D+01
 0.583420764690173D+02 -.564935221820782D+02 -.451184530204530D+01 0.138536309374151D+02
 0.000000000000000D+00 -.000000000000000D+00 -.000000000000000D+00 0.000000000000000D+00
 0.877700269407857D+02 0.000000000000000D+00 0.000000000000000D+00 0.877700269407857D+02
 0.846180058922039D+02 0.000000000000000D+00 0.000000000000000D+00 -.846180058922039D+02
 0.568682495424772D+02 0.159855642312054D+02 -.644211359834225D+01 -.209035574633007D+02
 0.484741301546583D+02 0.451278407145714D+02 0.162332320463498D+02 0.704992652588567D+01
 0.557297361089442D+02 -.539562817922981D+02 -.161246760357448D+01 0.138536309374151D+02
 0.113159170269099D+02 -.715712315347872D+01 -.817865084443306D+01 0.315202104858178D+01
 0.803525229049747D+02 0.000000000000000D+00 0.000000000000000D+00 0.803525229049747D+02
 0.803525229049747D+02 0.000000000000000D+00 0.000000000000000D+00 -.803525229049747D+02
 0.566140681898370D+02 0.134614356707031D+02 -.932650803170833D+01 -.209035574633007D+02
 0.457489011510951D+02 0.430320865113752D+02 0.138383533337536D+02 0.704992652588567D+01
 0.000000000000000D+00 -.000000000000000D+00 -.000000000000000D+00 0.000000000000000D+00
 0.583420764690173D+02 -.564935221820782D+02 -.451184530204530D+01 0.138536309374151D+02
 0.877700269407857D+02 0.000000000000000D+00 0.000000000000000D+00 0.877700269407857D+02
 0.846180058922039D+02 0.000000000000000D+00 0.000000000000000D+00 -.846180058922039D+02
 0.568682495424772D+02 0.159855642312054D+02 -.644211359834225D+01 -.209035574633007D+02
 0.484741301546583D+02 0.451278407145714D+02 0.162332320463498D+02 0.704992652588567D+01
 0.113159170269099D+02 -.715712315347872D+01 -.817865084443306D+01 0.315202104858178D+01
 0.557297361089442D+02 -.539562817922981D+02 -.161246760357448D+01 0.138536309374151D+02
0.385053959406D-06 0.000000000000D+00 0.000000000000D+00 0.228635045467D-07 0.000000000000D+00  6 -1 22 9900012 -11 -2 21 0 0.20816137D-01 0.73412867D-02 0.59667493D+04 0.59667493D+04 0.59667493D+04 0.12332969D+01  1  2  2  1  6  1       -1 0.499274540641D-04 0.100000000000D+01
-.943182794628D-08 0.000000000000D+00 -.739354295577D-09 0.228635045467D-07 0.000000000000D+00  6 -1 22 9900012 -11 -2 21 2 0.20816137D-01 0.73412867D-02 0.59667493D+04 0.59667493D+04 0.59667493D+04 0.12332969D+01  1  2  3  1  6  1       -1 -.186015426414D-05 0.100000000000D+01
-.380188627211D-07 0.000000000000D+00 0.000000000000D+00 0.228635045467D-07 0.000000000000D+00  6 -1 22 9900012 -11 -2 21 2 0.20816137D-01 0.73412867D-02 0.59667493D+04 0.59667493D+04 0.59667493D+04 0.12332969D+01  1  2 15  1  6  1       -1 -.749811701519D-05 0.100000000000D+01
0.483796138297D-06 0.000000000000D+00 0.000000000000D+00 0.228635045467D-07 0.000000000000D+00  6 -1 22 9900012 -11 -2 21 2 0.23944740D-01 0.73412867D-02 0.68636422D+04 0.68636422D+04 0.68636422D+04 0.12266549D+01  1  2 12  1  6  1       -1 0.769688597163D-04 0.100000000000D+01
-.162634977183D-06 0.000000000000D+00 0.000000000000D+00 0.228635045467D-07 0.000000000000D+00  6 -1 22 9900012 -11 -2 21 2 0.20816137D-01 0.73412867D-02 0.59667493D+04 0.59667493D+04 0.59667493D+04 0.12332969D+01  1  2  4  1  6  1       -1 -.320750280887D-04 0.100000000000D+01
-.162907820161D-05 0.000000000000D+00 -.358288535051D-06 0.228635045467D-07 0.000000000000D+00  6 -1 22 9900012 -11 -2 21 2 0.23872652D-01 0.73412867D-02 0.59667493D+04 0.59667493D+04 0.59667493D+04 0.12332969D+01  1  2  5  1  6  1       -1 -.259855747338D-03 0.100000000000D+01
0.166584331814D-05 0.000000000000D+00 0.354952027972D-06 0.228635045467D-07 0.000000000000D+00  6 -1 22 9900012 -11 -2 21 2 0.20816137D-01 0.73412867D-02 0.59667493D+04 0.59667493D+04 0.59667493D+04 0.12332969D+01  1  2  6  1  6  1       -1 0.328539236431D-03 0.100000000000D+01
0.104340210835D-07 0.000000000000D+00 0.000000000000D+00 0.228635045467D-07 0.000000000000D+00  6 21 22 9900012 -11 1 -2 2 0.23944740D-01 0.73412867D-02 0.68636422D+04 0.68636422D+04 0.68636422D+04 0.12266549D+01  3  4 12  3  5  1       -1 0.197458624800D-04 0.100000000000D+01
-.324006284115D-07 0.000000000000D+00 -.759032349955D-08 0.228635045467D-07 0.000000000000D+00  6 21 22 9900012 -11 1 -2 2 0.23872652D-01 0.73412867D-02 0.59667493D+04 0.59667493D+04 0.59667493D+04 0.12332969D+01  3  4  5  3  5  1       -1 -.616808854791D-04 0.100000000000D+01
  </mgrwgt>
  </event>
  <event>
  6     66 0.61978431E-06 0.40107689E+02 0.78161638E-02 0.11491817E+00
       -1 -1    0    0    0  501 0.00000000E+00 0.00000000E+00 0.15540031E+03 0.15540031E+03 0.00000000E+00 0.0000E+00 0.9000E+01
       22 -1    0    0    0    0 0.00000000E+00 0.00000000E+00 -.99520544E+02 0.99520544E+02 0.00000000E+00 0.0000E+00 0.9000E+01
       24  2    1    2    0    0 -.48733994E+02 -.82858456E+02 -.26285788E+02 0.12846255E+03 0.81062673E+02 0.0000E+00 0.0000E+00
  9900012  1    3    3    0    0 -.53323930E+02 -.50139850E+02 -.33293673E+02 0.94688514E+02 0.50000000E+02 0.0000E+00 0.9000E+01
      -11  1    3    3    0    0 0.45899362E+01 -.32718606E+02 0.70078851E+01 0.33774031E+02 0.00000000E+00 0.0000E+00 0.9000E+01
       -2  1    1    2    0  501 0.48733994E+02 0.82858456E+02 0.82165558E+02 0.12645831E+03 0.00000000E+00 0.0000E+00 0.9000E+01
#aMCatNLO 1  0  0  5  1 0.76555161D+00 0.00000000D+00  -5  6  0 0.00000000D+00 0.00000000D+00 0.00000000D+00 0.00000000D+00 0.00000000D+00
  <mgrwgt>
 0.3047470974D-04    6    2    0
 0.124360459170652D+03 0.000000000000000D+00 0.000000000000000D+00 0.124360459170652D+03
 0.124360459170652D+03 -.000000000000000D+00 -.000000000000000D+00 -.124360459170652D+03
 0.104528884551540D+03 -.533239304383330D+02 -.501398496859657D+02 -.553971264748070D+02
 0.330414747228419D+02 0.458993618680833D+01 -.327186062736649D+02 -.405390145570788D+00
 0.111150559066922D+03 0.487339942515247D+02 0.828584559596306D+02 0.558025166203778D+02
 0.000000000000000D+00 0.000000000000000D+00 0.000000000000000D+00 0.000000000000000D+00
 0.124360459170652D+03 0.000000000000000D+00 0.000000000000000D+00 0.124360459170652D+03
 0.124360459170652D+03 -.000000000000000D+00 -.000000000000000D+00 -.124360459170652D+03
 0.104445281277352D+03 -.532806624853226D+02 -.500662846963925D+02 -.553475828101829D+02
 0.330201621169816D+02 0.460361420192199D+01 -.326953506544546D+02 -.389728230773190D+00
 0.126371178858536D+01 -.185934602148830D+00 0.931594888477127D+00 0.833382728461095D+00
 0.109991763158385D+03 0.488629828855495D+02 0.818300404623700D+02 0.549039283124950D+02
0.101251367793D-05 0.000000000000D+00 0.000000000000D+00 0.341026304856D-06 0.000000000000D+00  6 -1 22 9900012 -11 -2 21 0 0.23907741D-01 0.15310853D-01 0.11860177D+05 0.11860177D+05 0.11860177D+05 0.12017260D+01  1  2  2  2  6  5       -2 0.394502411109D-04 0.100000000000D+01
-.182337569770D-07 0.000000000000D+00 -.194415956212D-08 0.341026304856D-06 0.000000000000D+00  6 -1 22 9900012 -11 -2 21 2 0.23907741D-01 0.15310853D-01 0.11860177D+05 0.11860177D+05 0.11860177D+05 0.12017260D+01  1  2  3  2  6  5       -2 -.102597286313D-05 0.100000000000D+01
-.123703965722D-06 0.000000000000D+00 0.000000000000D+00 0.341026304856D-06 0.000000000000D+00  6 -1 22 9900012 -11 -2 21 2 0.23907741D-01 0.15310853D-01 0.11860177D+05 0.11860177D+05 0.11860177D+05 0.12017260D+01  1  2 15  2  6  5       -2 -.696054642236D-05 0.100000000000D+01
0.312304728420D-12 0.000000000000D+00 0.000000000000D+00 0.341026304856D-06 0.000000000000D+00  6 -1 22 9900012 -11 -2 21 2 0.23907741D-01 0.15310853D-01 0.11864779D+05 0.11864779D+05 0.11864779D+05 0.12017089D+01  1  2 12  2  6  5       -2 0.175727115426D-10 0.100000000000D+01
-.418771384936D-06 0.000000000000D+00 0.000000000000D+00 0.341026304856D-06 0.000000000000D+00  6 -1 22 9900012 -11 -2 21 2 0.23907741D-01 0.15310853D-01 0.11860177D+05 0.11860177D+05 0.11860177D+05 0.12017260D+01  1  2  5  2  6  5       -2 -.235633324136D-04 0.100000000000D+01
0.401193718673D-06 0.000000000000D+00 0.000000000000D+00 0.341026304856D-06 0.223464612369D-07  6 -1 22 9900012 -11 -2 21 2 0.23907741D-01 0.15310853D-01 0.11864779D+05 0.11864779D+05 0.11864779D+05 0.12017089D+01  1  2 11  2  6  5       -2 0.225743027543D-04 0.100000000000D+01
  </mgrwgt>
  </event>
  <event>
  7     66 -.61978431E-06 0.62625577E+02 0.78161638E-02 0.11936042E+00
       -1 -1    0    0    0  501 0.00000000E+00 0.00000000E+00 0.10360644E+04 0.10360644E+04 0.00000000E+00 0.0000E+00 0.9000E+01
       22 -1    0    0    0    0 0.00000000E+00 0.00000000E+00 -.19921844E+02 0.19921844E+02 0.00000000E+00 0.0000E+00 0.9000E+01
       24  2    1    2    0    0 -.17908763E+02 0.60182918E+02 0.12121537E+03 0.15807231E+03 0.79693062E+02 0.0000E+00 0.0000E+00
  9900012  1    3    3    0    0 0.83926198E+01 0.38431424E+02 0.57321256E+02 0.85633736E+02 0.50000000E+02 0.0000E+00 0.9000E+01
      -11  1    3    3    0    0 -.26301383E+02 0.21751495E+02 0.63894110E+02 0.72438578E+02 0.00000000E+00 0.0000E+00 0.9000E+01
       -2  1    1    2    0  502 0.13586080E+02 -.64128548E+02 0.86046277E+03 0.86295610E+03 0.00000000E+00 0.0000E+00 0.9000E+01
       21  1    1    2  502  501 0.43226830E+01 0.39456300E+01 0.34464403E+02 0.34957812E+02 0.00000000E+00 0.0000E+00 0.9000E+01
#aMCatNLO 2  0  0  5  1 0.80964677D+01 0.00000000D+00  -5  6  0 0.00000000D+00 0.00000000D+00 0.00000000D+00 0.00000000D+00 0.00000000D+00
  <mgrwgt>
 -.6345969365D-04    3    2    0
 0.143667368413438D+03 0.000000000000000D+00 0.000000000000000D+00 0.143667368413438D+03
 0.143667368413438D+03 -.000000000000000D+00 -.000000000000000D+00 -.143667368413438D+03
 0.113842908291041D+03 0.810065323597452D+01 0.394125857502268D+02 -.940278430561603D+02
 0.408760025498084D+02 -.264062770072022D+02 0.221039933748805D+02 -.220220252464229D+02
 0.132615825986027D+03 0.183056237712277D+02 -.615165791251073D+02 0.116049868302583D+03
 0.000000000000000D+00 0.000000000000000D+00 0.000000000000000D+00 0.000000000000000D+00
 0.143667368413438D+03 0.000000000000000D+00 0.000000000000000D+00 0.143667368413438D+03
 0.143667368413438D+03 -.000000000000000D+00 -.000000000000000D+00 -.143667368413438D+03
 0.111999960300284D+03 0.839261982508493D+01 0.384314235672080D+02 -.921768990709423D+02
 0.402618124809796D+02 -.263013831433837D+02 0.217514945060097D+02 -.213570427670481D+02
 0.128480574276169D+03 0.135860803453117D+02 -.641285480296901D+02 0.110499799614246D+03
 0.659238976944415D+01 0.432268297298705D+01 0.394562995647238D+01 0.303414222374422D+01
-.523381773721D-05 0.000000000000D+00 0.000000000000D+00 0.437980885763D-05 0.000000000000D+00  6 -1 22 9900012 -11 -2 21 2 0.15939452D+00 0.30648990D-02 0.71532952D+04 0.71532952D+04 0.71532952D+04 0.12247152D+01  1  2 13  2  6  5       -2 -.693844780667D-04 0.100000000000D+01
-.638661421970D-06 0.000000000000D+00 0.000000000000D+00 0.437980885763D-05 0.000000000000D+00  6 -1 22 9900012 -11 -2 21 2 0.15939452D+00 0.30648990D-02 0.66258167D+04 0.66258167D+04 0.66258167D+04 0.12283172D+01  1  2  8  2  6  5       -2 -.848855102412D-05 0.100000000000D+01
0.108722833635D-05 0.000000000000D+00 0.000000000000D+00 0.437980885763D-05 0.108348265564D-06  6 -1 22 9900012 -11 -2 21 2 0.15939452D+00 0.30648990D-02 0.71532952D+04 0.71532952D+04 0.71532952D+04 0.12247152D+01  1  2  1  2  6  5       -2 0.144133354359D-04 0.100000000000D+01
  </mgrwgt>
  </event>
  <event>
  6     66 0.61978431E-06 0.29802152E+02 0.78161638E-02 0.12350148E+00
       -1 -1    0    0    0  501 0.00000000E+00 0.00000000E+00 0.45493877E+03 0.45493877E+03 0.00000000E+00 0.0000E+00 0.9000E+01
       22 -1    0    0    0    0 0.00000000E+00 0.00000000E+00 -.42092751E+02 0.42092751E+02 0.00000000E+00 0.0000E+00 0.9000E+01
       24  2    1    2    0    0 0.45599820E+01 -.30710095E+02 0.89348915E+01 0.91928939E+02 0.86065058E+02 0.0000E+00 0.0000E+00
  9900012  1    3    3    0    0 0.22079728E+02 -.89612946E+00 -.44545901E+01 0.54846703E+02 0.50000000E+02 0.0000E+00 0.9000E+01
      -11  1    3    3    0    0 -.17519746E+02 -.29813966E+02 0.13389482E+02 0.37082236E+02 0.00000000E+00 0.0000E+00 0.9000E+01
       -2  1    1    2    0  501 -.45599820E+01 0.30710095E+02 0.40391113E+03 0.40510259E+03 0.00000000E+00 0.0000E+00 0.9000E+01
#aMCatNLO 1  0  0  1  5 0.12685840D+02 0.00000000D+00  -5  6  0 0.00000000D+00 0.00000000D+00 0.00000000D+00 0.00000000D+00 0.00000000D+00
  <mgrwgt>
 0.1063080430D-03    9    4    0
 0.138382168855851D+03 0.000000000000000D+00 0.000000000000000D+00 0.138382168855851D+03
 0.138382168855851D+03 0.000000000000000D+00 0.000000000000000D+00 -.138382168855851D+03
 0.105142159467948D+03 0.220797277146977D+02 -.896129458808794D+00 -.898140093394192D+02
 0.466217807520295D+02 -.175197457087910D+02 -.298139656329815D+02 -.312694164324345D+02
 0.125000397491724D+03 -.455998200590668D+01 0.307100950917903D+02 0.121083425771854D+03
 0.000000000000000D+00 -.000000000000000D+00 -.000000000000000D+00 0.000000000000000D+00
 0.156778446079373D+03 0.000000000000000D+00 0.000000000000000D+00 0.156778446079373D+03
 0.140478190957578D+03 0.000000000000000D+00 0.000000000000000D+00 -.140478190957578D+03
 0.105597248143765D+03 0.239492408110347D+02 0.326441518339961D+01 -.898140093394192D+02
 0.451767322465984D+02 -.167053820156397D+02 -.280016239558954D+02 -.312694164324345D+02
 0.126249789736603D+03 -.233108936165133D+01 0.356704280080368D+02 0.121083425771854D+03
 0.202328669099845D+02 -.491276943374365D+01 -.109332192355410D+02 0.163002551217954D+02
 0.138382168855851D+03 0.000000000000000D+00 0.000000000000000D+00 0.138382168855851D+03
 0.138382168855851D+03 0.000000000000000D+00 0.000000000000000D+00 -.138382168855851D+03
 0.105142159467948D+03 0.220797277146977D+02 -.896129458808794D+00 -.898140093394192D+02
 0.466217807520295D+02 -.175197457087910D+02 -.298139656329815D+02 -.312694164324345D+02
 0.000000000000000D+00 -.000000000000000D+00 -.000000000000000D+00 0.000000000000000D+00
 0.125000397491724D+03 -.455998200590668D+01 0.307100950917903D+02 0.121083425771854D+03
 0.156778446079373D+03 0.000000000000000D+00 0.000000000000000D+00 0.156778446079373D+03
 0.140478190957578D+03 0.000000000000000D+00 0.000000000000000D+00 -.140478190957578D+03
 0.105597248143765D+03 0.239492408110347D+02 0.326441518339961D+01 -.898140093394192D+02
 0.451767322465984D+02 -.167053820156397D+02 -.280016239558954D+02 -.312694164324345D+02
 0.202328669099845D+02 -.491276943374365D+01 -.109332192355410D+02 0.163002551217954D+02
 0.126249789736603D+03 -.233108936165133D+01 0.356704280080368D+02 0.121083425771854D+03
0.714269581046D-06 0.000000000000D+00 0.000000000000D+00 0.214189567701D-06 0.000000000000D+00  6 -1 22 9900012 -11 -2 21 0 0.69990581D-01 0.64758079D-02 0.36175920D+04 0.36175920D+04 0.36175920D+04 0.12579856D+01  1  2  2  1  6  1       -1 0.141497985760D-04 0.100000000000D+01
0.551539740828D-07 0.000000000000D+00 -.137149163136D-08 0.214189567701D-06 0.000000000000D+00  6 -1 22 9900012 -11 -2 21 2 0.69990581D-01 0.64758079D-02 0.36175920D+04 0.36175920D+04 0.36175920D+04 0.12579856D+01  1  2  3  1  6  1       -1 0.172908467454D-05 0.100000000000D+01
-.870159704420D-07 0.000000000000D+00 0.000000000000D+00 0.214189567701D-06 0.000000000000D+00  6 -1 22 9900012 -11 -2 21 2 0.69990581D-01 0.64758079D-02 0.36175920D+04 0.36175920D+04 0.36175920D+04 0.12579856D+01  1  2 15  1  6  1       -1 -.272796264338D-05 0.100000000000D+01
0.299570794078D-05 0.000000000000D+00 0.000000000000D+00 0.214189567701D-06 0.000000000000D+00  6 -1 22 9900012 -11 -2 21 2 0.80496054D-01 0.64758079D-02 0.46154839D+04 0.46154839D+04 0.46154839D+04 0.12457790D+01  1  2 12  1  6  1       -1 0.716422394229D-04 0.100000000000D+01
-.166785106678D-06 0.000000000000D+00 0.000000000000D+00 0.214189567701D-06 0.000000000000D+00  6 -1 22 9900012 -11 -2 21 2 0.69990581D-01 0.64758079D-02 0.36175920D+04 0.36175920D+04 0.36175920D+04 0.12579856D+01  1  2  4  1  6  1       -1 -.522873603751D-05 0.100000000000D+01
-.406547411563D-05 0.000000000000D+00 -.644131363381D-06 0.214189567701D-06 0.000000000000D+00  6 -1 22 9900012 -11 -2 21 2 0.80027814D-01 0.64758079D-02 0.36175920D+04 0.36175920D+04 0.36175920D+04 0.12579856D+01  1  2  5  1  6  1       -1 -.988044101422D-04 0.100000000000D+01
0.412048109054D-05 0.000000000000D+00 0.638390150160D-06 0.214189567701D-06 0.000000000000D+00  6 -1 22 9900012 -11 -2 21 2 0.69990581D-01 0.64758079D-02 0.36175920D+04 0.36175920D+04 0.36175920D+04 0.12579856D+01  1  2  6  1  6  1       -1 0.129177649007D-03 0.100000000000D+01
0.645430665381D-07 0.000000000000D+00 0.000000000000D+00 0.214189567701D-06 0.000000000000D+00  6 21 22 9900012 -11 1 -2 2 0.80496054D-01 0.64758079D-02 0.46154839D+04 0.46154839D+04 0.46154839D+04 0.12457790D+01  3  4 12  3  5  1       -1 0.127451283564D-04 0.100000000000D+01
-.809276027262D-07 0.000000000000D+00 -.133998592363D-07 0.214189567701D-06 0.000000000000D+00  6 21 22 9900012 -11 1 -2 2 0.80027814D-01 0.64758079D-02 0.36175920D+04 0.36175920D+04 0.36175920D+04 0.12579856D+01  3  4  5  3  5  1       -1 -.163747482505D-04 0.100000000000D+01
  </mgrwgt>
  </event>
  <event>
  6     66 0.61978431E-06 0.39206405E+02 0.78161638E-02 0.11871117E+00
       -1 -1    0    0    0  501 0.00000000E+00 0.00000000E+00 0.33757081E+03 0.33757081E+03 0.00000000E+00 0.0000E+00 0.9000E+01
       22 -1    0    0    0    0 0.00000000E+00 0.00000000E+00 -.23979838E+03 0.23979838E+03 0.00000000E+00 0.0000E+00 0.9000E+01
       24  2    1    2    0    0 -.28924604E+02 0.26467140E+02 -.23010335E+03 0.24715763E+03 0.81253903E+02 0.0000E+00 0.0000E+00
  9900012  1    3    3    0    0 -.34956481E+01 -.61057102E+00 -.16206201E+03 0.16963693E+03 0.50000000E+02 0.0000E+00 0.9000E+01
      -11  1    3    3    0    0 -.25428956E+02 0.27077711E+02 -.68041345E+02 0.77520700E+02 0.00000000E+00 0.0000E+00 0.9000E+01
       -2  1    1    2    0  501 0.28924604E+02 -.26467140E+02 0.32787578E+03 0.33021156E+03 0.00000000E+00 0.0000E+00 0.9000E+01
#aMCatNLO 1  0  0  1  1 0.47684191D+02 0.00000000D+00  -5  6  0 0.00000000D+00 0.00000000D+00 0.00000000D+00 0.00000000D+00 0.00000000D+00
  <mgrwgt>
 0.1175231431D-03    7    4    0
 0.284515256841313D+03 0.000000000000000D+00 0.000000000000000D+00 0.284515256841313D+03
 0.284515256841313D+03 0.000000000000000D+00 0.000000000000000D+00 -.284515256841313D+03
 0.199968767615496D+03 -.349564814774845D+01 -.610571022045466D+00 -.193584389010877D+03
 0.903477569622540D+02 -.254289556052772D+02 0.270777106886189D+02 -.823582599913258D+02
 0.278713989104875D+03 0.289246037530256D+02 -.264671396665734D+02 0.275942649002203D+03
 0.000000000000000D+00 -.000000000000000D+00 -.000000000000000D+00 0.000000000000000D+00
 0.346135841402883D+03 0.000000000000000D+00 0.000000000000000D+00 0.346135841402883D+03
 0.293463807252769D+03 0.000000000000000D+00 0.000000000000000D+00 -.293463807252769D+03
 0.200415008148086D+03 0.317855626911692D+01 0.134594428683615D+02 -.193584389010877D+03
 0.916784395573093D+02 -.223946667096316D+02 0.334743512831681D+02 -.823582599913258D+02
 0.278661316165584D+03 0.382157812419066D+02 -.688023639515844D+01 0.275942649002203D+03
 0.688448847846732D+02 -.189996708013919D+02 -.400535577563711D+02 0.526720341501134D+02
 0.284515256841313D+03 0.000000000000000D+00 0.000000000000000D+00 0.284515256841313D+03
 0.284515256841313D+03 0.000000000000000D+00 0.000000000000000D+00 -.284515256841313D+03
 0.199968767615496D+03 -.349564814774845D+01 -.610571022045466D+00 -.193584389010877D+03
 0.903477569622540D+02 -.254289556052772D+02 0.270777106886189D+02 -.823582599913258D+02
 0.000000000000000D+00 -.000000000000000D+00 -.000000000000000D+00 0.000000000000000D+00
 0.278713989104875D+03 0.289246037530256D+02 -.264671396665734D+02 0.275942649002203D+03
 0.346135841402883D+03 0.000000000000000D+00 0.000000000000000D+00 0.346135841402883D+03
 0.293463807252769D+03 0.000000000000000D+00 0.000000000000000D+00 -.293463807252769D+03
 0.200415008148086D+03 0.317855626911692D+01 0.134594428683615D+02 -.193584389010877D+03
 0.916784395573093D+02 -.223946667096316D+02 0.334743512831681D+02 -.823582599913258D+02
 0.688448847846732D+02 -.189996708013919D+02 -.400535577563711D+02 0.526720341501134D+02
 0.278661316165584D+03 0.382157812419066D+02 -.688023639515844D+01 0.275942649002203D+03
0.305307601412D-04 0.000000000000D+00 0.000000000000D+00 0.542754692601D-04 0.000000000000D+00  6 -1 22 9900012 -11 -2 21 0 0.51933970D-01 0.36892058D-01 0.39991894D+04 0.39991894D+04 0.39991894D+04 0.12529170D+01  1  2  2  1  6  1       -1 0.823937414836D-04 0.100000000000D+01
0.188634850305D-05 0.000000000000D+00 -.586230789380D-07 0.542754692601D-04 0.000000000000D+00  6 -1 22 9900012 -11 -2 21 2 0.51933970D-01 0.36892058D-01 0.39991894D+04 0.39991894D+04 0.39991894D+04 0.12529170D+01  1  2  3  1  6  1       -1 0.799140480526D-05 0.100000000000D+01
-.427475462318D-05 0.000000000000D+00 0.000000000000D+00 0.542754692601D-04 0.000000000000D+00  6 -1 22 9900012 -11 -2 21 2 0.51933970D-01 0.36892058D-01 0.39991894D+04 0.39991894D+04 0.39991894D+04 0.12529170D+01  1  2 15  1  6  1       -1 -.181097472613D-04 0.100000000000D+01
-.120647901699D-05 0.000000000000D+00 0.000000000000D+00 0.542754692601D-04 0.000000000000D+00  6 -1 22 9900012 -11 -2 21 2 0.51933970D-01 0.36892058D-01 0.39991894D+04 0.39991894D+04 0.39991894D+04 0.12529170D+01  1  2  4  1  6  1       -1 -.511117759962D-05 0.100000000000D+01
-.549037481854D-04 0.000000000000D+00 -.182605559042D-04 0.542754692601D-04 0.000000000000D+00  6 -1 22 9900012 -11 -2 21 2 0.64562762D-01 0.36892058D-01 0.39991894D+04 0.39991894D+04 0.39991894D+04 0.12529170D+01  1  2  5  1  6  1       -1 -.158190797724D-03 0.100000000000D+01
0.579250127823D-04 0.000000000000D+00 0.178363602235D-04 0.542754692601D-04 0.000000000000D+00  6 -1 22 9900012 -11 -2 21 2 0.51933970D-01 0.36892058D-01 0.39991894D+04 0.39991894D+04 0.39991894D+04 0.12529170D+01  1  2  6  1  6  1       -1 0.245395919548D-03 0.100000000000D+01
-.143272462215D-05 0.000000000000D+00 -.557322553682D-06 0.542754692601D-04 0.000000000000D+00  6 21 22 9900012 -11 1 -2 2 0.64562762D-01 0.36892058D-01 0.39991894D+04 0.39991894D+04 0.39991894D+04 0.12529170D+01  3  4  5  3  5  1       -1 -.368462001940D-04 0.100000000000D+01
  </mgrwgt>
  </event>
  <event>
  6     66 0.61978431E-06 0.52274886E+02 0.78161638E-02 0.11944746E+00
       -3 -1    0    0    0  501 0.00000000E+00 0.00000000E+00 0.29067443E+02 0.29067443E+02 0.00000000E+00 0.0000E+00 0.9000E+01
       22 -1    0    0    0    0 0.00000000E+00 0.00000000E+00 -.19160844E+03 0.19160844E+03 0.00000000E+00 0.0000E+00 0.9000E+01
       24  2    1    2    0    0 0.52874850E+02 0.16790345E+00 -.10492126E+03 0.14247223E+03 0.80585895E+02 0.0000E+00 0.0000E+00
  9900012  1    3    3    0    0 0.31113947E+02 -.21072393E+02 -.51578319E+02 0.81070626E+02 0.50000000E+02 0.0000E+00 0.9000E+01
      -11  1    3    3    0    0 0.21760903E+02 0.21240297E+02 -.53342941E+02 0.61401600E+02 0.00000000E+00 0.0000E+00 0.9000E+01
       -4  1    1    2    0  501 -.52874850E+02 -.16790345E+00 -.57619741E+02 0.78203661E+02 0.00000000E+00 0.0000E+00 0.9000E+01
#aMCatNLO 1  0  0  1  5 0.21619092D+02 0.00000000D+00  -5  6  0 0.00000000D+00 0.00000000D+00 0.00000000D+00 0.00000000D+00 0.00000000D+00
  <mgrwgt>
 0.2862955108D-04    9    4    0
 0.746295351044397D+02 0.000000000000000D+00 0.000000000000000D+00 0.746295351044397D+02
 0.746295351044397D+02 0.000000000000000D+00 0.000000000000000D+00 -.746295351044397D+02
 0.636928847710034D+02 0.311139470332493D+02 -.210723932906445D+02 0.120274731955170D+02
 0.326910617761639D+02 0.217609032969047D+02 0.212402967438538D+02 -.120007667250371D+02
 0.528751236617122D+02 -.528748503301540D+02 -.167903453209258D+00 -.267064704798993D-01
 0.000000000000000D+00 -.000000000000000D+00 -.000000000000000D+00 0.000000000000000D+00
 0.124301987047354D+03 0.000000000000000D+00 0.000000000000000D+00 0.124301987047354D+03
 0.775808507819397D+02 0.000000000000000D+00 0.000000000000000D+00 -.775808507819397D+02
 0.616511455377441D+02 0.316735979684712D+02 -.123687843533182D+02 0.120274731955170D+02
 0.361685267868310D+02 0.220683557782343D+02 0.260217524618583D+02 -.120007667250371D+02
 0.528917163452023D+02 -.524026099627466D+02 0.717630920446126D+01 -.267064704798993D-01
 0.511714491595164D+02 -.133934378395893D+01 -.208292773130013D+02 0.467211362654145D+02
 0.746295351044397D+02 0.000000000000000D+00 0.000000000000000D+00 0.746295351044397D+02
 0.746295351044397D+02 0.000000000000000D+00 0.000000000000000D+00 -.746295351044397D+02
 0.636928847710034D+02 0.311139470332493D+02 -.210723932906445D+02 0.120274731955170D+02
 0.326910617761639D+02 0.217609032969047D+02 0.212402967438538D+02 -.120007667250371D+02
 0.000000000000000D+00 -.000000000000000D+00 -.000000000000000D+00 0.000000000000000D+00
 0.528751236617122D+02 -.528748503301540D+02 -.167903453209258D+00 -.267064704798993D-01
 0.124301987047354D+03 0.000000000000000D+00 0.000000000000000D+00 0.124301987047354D+03
 0.775808507819397D+02 0.000000000000000D+00 0.000000000000000D+00 -.775808507819397D+02
 0.616511455377441D+02 0.316735979684712D+02 -.123687843533182D+02 0.120274731955170D+02
 0.361685267868310D+02 0.220683557782343D+02 0.260217524618583D+02 -.120007667250371D+02
 0.511714491595164D+02 -.133934378395893D+01 -.208292773130013D+02 0.467211362654145D+02
 0.528917163452023D+02 -.524026099627466D+02 0.717630920446126D+01 -.267064704798993D-01
0.153180181253D-06 0.000000000000D+00 0.000000000000D+00 0.107724780155D-06 0.000000000000D+00  6 -3 22 9900012 -11 -4 21 0 0.44719143D-02 0.29478222D-01 0.53166523D+04 0.53166523D+04 0.53166523D+04 0.12388542D+01  1  2  2  1  6  1       -3 0.223333523387D-04 0.100000000000D+01
-.535902025967D-08 0.000000000000D+00 -.294126114641D-09 0.107724780155D-06 0.000000000000D+00  6 -3 22 9900012 -11 -4 21 2 0.44719143D-02 0.29478222D-01 0.53166523D+04 0.53166523D+04 0.53166523D+04 0.12388542D+01  1  2  3  1  6  1       -3 -.119915995241D-05 0.100000000000D+01
-.158730448977D-07 0.000000000000D+00 0.000000000000D+00 0.107724780155D-06 0.000000000000D+00  6 -3 22 9900012 -11 -4 21 2 0.44719143D-02 0.29478222D-01 0.53166523D+04 0.53166523D+04 0.53166523D+04 0.12388542D+01  1  2 15  1  6  1       -3 -.355182828985D-05 0.100000000000D+01
0.353364395713D-06 0.000000000000D+00 0.000000000000D+00 0.107724780155D-06 0.000000000000D+00  6 -3 22 9900012 -11 -4 21 2 0.77429171D-02 0.29478222D-01 0.70854396D+04 0.70854396D+04 0.70854396D+04 0.12251616D+01  1  2 12  1  6  1       -3 0.345775160231D-04 0.100000000000D+01
-.306057090113D-06 0.000000000000D+00 0.000000000000D+00 0.107724780155D-06 0.000000000000D+00  6 -3 22 9900012 -11 -4 21 2 0.44719143D-02 0.29478222D-01 0.53166523D+04 0.53166523D+04 0.53166523D+04 0.12388542D+01  1  2  4  1  6  1       -3 -.684847953232D-04 0.100000000000D+01
-.386730095653D-06 0.000000000000D+00 -.503671903888D-07 0.107724780155D-06 0.000000000000D+00  6 -3 22 9900012 -11 -4 21 2 0.77192055D-02 0.29478222D-01 0.53166523D+04 0.53166523D+04 0.53166523D+04 0.12388542D+01  1  2  5  1  6  1       -3 -.377062643188D-04 0.100000000000D+01
0.365129829741D-06 0.000000000000D+00 0.436935376655D-07 0.107724780155D-06 0.000000000000D+00  6 -3 22 9900012 -11 -4 21 2 0.44719143D-02 0.29478222D-01 0.53166523D+04 0.53166523D+04 0.53166523D+04 0.12388542D+01  1  2  6  1  6  1       -3 0.817031935021D-04 0.100000000000D+01
0.214936573935D-07 0.000000000000D+00 0.000000000000D+00 0.107724780155D-06 0.000000000000D+00  6 21 22 9900012 -11 3 -4 2 0.77429171D-02 0.29478222D-01 0.70854396D+04 0.70854396D+04 0.70854396D+04 0.12251616D+01  3  4 12  3  5  1       -3 0.371064771871D-04 0.100000000000D+01
-.209181862785D-07 0.000000000000D+00 -.304938006452D-08 0.107724780155D-06 0.000000000000D+00  6 21 22 9900012 -11 3 -4 2 0.77192055D-02 0.29478222D-01 0.53166523D+04 0.53166523D+04 0.53166523D+04 0.12388542D+01  3  4  5  3  5  1       -3 -.361489400897D-04 0.100000000000D+01
  </mgrwgt>
  </event>
  <event>
  6     66 0.61978431E-06 0.22291651E+02 0.78161638E-02 0.12841531E+00
       -1 -1    0    0    0  501 0.00000000E+00 0.00000000E+00 0.15848578E+02 0.15848578E+02 0.00000000E+00 0.0000E+00 0.9000E+01
       22 -1    0    0    0    0 -.00000000E+00 -.00000000E+00 -.29043164E+03 0.29043164E+03 0.00000000E+00 0.0000E+00 0.9000E+01
       24  2    1    2    0    0 -.15449793E+02 0.16069275E+02 -.27046852E+03 0.28361202E+03 0.82375001E+02 0.0000E+00 0.0000E+00
  9900012  1    3    3    0    0 -.32120157E+01 0.35567734E+02 -.17743493E+03 0.18777256E+03 0.50000000E+02 0.0000E+00 0.9000E+01
      -11  1    3    3    0    0 -.12237777E+02 -.19498459E+02 -.93033586E+02 0.95839456E+02 0.00000000E+00 0.0000E+00 0.9000E+01
       -2  1    1    2    0  501 0.15449793E+02 -.16069275E+02 -.41145419E+01 0.22668197E+02 0.00000000E+00 0.0000E+00 0.9000E+01
#aMCatNLO 1  0  0  5  1 0.12361414D+02 0.00000000D+00  -5  6  0 0.00000000D+00 0.00000000D+00 0.00000000D+00 0.00000000D+00 0.00000000D+00
  <mgrwgt>
 0.3874042493D-04    7    2    0
 0.678448857851816D+02 0.000000000000000D+00 0.000000000000000D+00 0.678448857851816D+02
 0.678448857851816D+02 -.000000000000000D+00 -.000000000000000D+00 -.678448857851816D+02
 0.647830333758552D+02 -.321201572421179D+01 0.355677342953364D+02 -.205295067028154D+02
 0.280660981463877D+02 -.122377768078519D+02 -.194984593694300D+02 -.160546805070221D+02
 0.428406400481203D+02 0.154497925320637D+02 -.160692749259064D+02 0.365841872098375D+02
 0.000000000000000D+00 0.000000000000000D+00 -.000000000000000D+00 0.000000000000000D+00
 0.678448857851816D+02 0.000000000000000D+00 0.000000000000000D+00 0.678448857851816D+02
 0.678448857851816D+02 -.000000000000000D+00 -.000000000000000D+00 -.678448857851816D+02
 0.630599260571785D+02 -.189707738448978D+01 0.342000715485548D+02 -.174158111441244D+02
 0.274946931994476D+02 -.116663021247725D+02 -.200928481792823D+02 -.147014625432163D+02
 0.256298651329221D+02 0.266602643248266D+01 0.646937153443258D+00 0.254826168615505D+02
 0.195052871808150D+02 0.108973530767796D+02 -.147541605227157D+02 0.663465682579020D+01
0.119233487106D-06 0.000000000000D+00 0.000000000000D+00 0.551293904888D-07 0.000000000000D+00  6 -1 22 9900012 -11 -2 21 0 0.24382428D-02 0.44681790D-01 0.28492369D+04 0.28492369D+04 0.28492369D+04 0.12703206D+01  1  2  2  2  6  5       -2 0.222696418908D-04 0.100000000000D+01
0.719278368983D-08 0.000000000000D+00 -.228943992693D-09 0.551293904888D-07 0.000000000000D+00  6 -1 22 9900012 -11 -2 21 2 0.24382428D-02 0.44681790D-01 0.28492369D+04 0.28492369D+04 0.28492369D+04 0.12703206D+01  1  2  3  2  6  5       -2 0.216789702801D-05 0.100000000000D+01
-.151276680357D-07 0.000000000000D+00 0.000000000000D+00 0.551293904888D-07 0.000000000000D+00  6 -1 22 9900012 -11 -2 21 2 0.24382428D-02 0.44681790D-01 0.28492369D+04 0.28492369D+04 0.28492369D+04 0.12703206D+01  1  2 15  2  6  5       -2 -.455946237083D-05 0.100000000000D+01
0.467692054869D-07 0.000000000000D+00 0.000000000000D+00 0.551293904888D-07 0.000000000000D+00  6 -1 22 9900012 -11 -2 21 2 0.24382428D-02 0.44681790D-01 0.27524220D+04 0.27524220D+04 0.27524220D+04 0.12721385D+01  1  2 12  2  6  5       -2 0.140741764766D-04 0.100000000000D+01
-.683446574491D-08 0.000000000000D+00 0.000000000000D+00 0.551293904888D-07 0.000000000000D+00  6 -1 22 9900012 -11 -2 21 2 0.24382428D-02 0.44681790D-01 0.28492369D+04 0.28492369D+04 0.28492369D+04 0.12703206D+01  1  2  4  2  6  5       -2 -.205990039675D-05 0.100000000000D+01
-.418914239414D-07 0.000000000000D+00 0.000000000000D+00 0.551293904888D-07 0.000000000000D+00  6 -1 22 9900012 -11 -2 21 2 0.24382428D-02 0.44681790D-01 0.28492369D+04 0.28492369D+04 0.28492369D+04 0.12703206D+01  1  2  5  2  6  5       -2 -.126260287224D-04 0.100000000000D+01
0.646123844369D-07 0.000000000000D+00 -.000000000000D+00 0.551293904888D-07 0.000000000000D+00  6 -1 22 9900012 -11 -2 21 2 0.24382428D-02 0.44681790D-01 0.28492369D+04 0.28492369D+04 0.28492369D+04 0.12703206D+01  1  2  6  2  6  5       -2 0.194741010204D-04 0.100000000000D+01
  </mgrwgt>
  </event>
  <event>
  6     66 -.61978431E-06 0.49152857E+02 0.78161638E-02 0.11195897E+00
       -1 -1    0    0    0  501 0.00000000E+00 0.00000000E+00 0.33936686E+03 0.33936686E+03 0.00000000E+00 0.0000E+00 0.9000E+01
       22 -1    0    0    0    0 0.00000000E+00 0.00000000E+00 -.63036034E+02 0.63036034E+02 0.00000000E+00 0.0000E+00 0.9000E+01
       24  2    1    2    0    0 -.81158489E+02 0.89401572E+02 0.64892660E+02 0.15891688E+03 0.80400098E+02 0.0000E+00 0.0000E+00
  9900012  1    3    3    0    0 -.33196215E+02 0.45048769E+02 0.54555441E+02 0.92777565E+02 0.50000000E+02 0.0000E+00 0.9000E+01
      -11  1    3    3    0    0 -.47962274E+02 0.44352803E+02 0.10337218E+02 0.66139314E+02 0.00000000E+00 0.0000E+00 0.9000E+01
       -2  1    1    2    0  501 0.81158489E+02 -.89401572E+02 0.21143816E+03 0.24348601E+03 0.00000000E+00 0.0000E+00 0.9000E+01
#aMCatNLO 1  0  0  5  1 0.44267826D+01 0.00000000D+00  -5  6  0 0.00000000D+00 0.00000000D+00 0.00000000D+00 0.00000000D+00 0.00000000D+00
  <mgrwgt>
 -.2871015217D-04    8    2    0
 0.146261207605335D+03 0.000000000000000D+00 0.000000000000000D+00 0.146261207605335D+03
 0.146261207605335D+03 -.000000000000000D+00 -.000000000000000D+00 -.146261207605335D+03
 0.760919815189968D+02 -.331962150939079D+02 0.450487690432694D+02 -.125940209072610D+02
 0.812182524380639D+02 -.479622735022228D+02 0.443528030921195D+02 -.482581983445583D+02
 0.135212181253609D+03 0.811584885961307D+02 -.894015721353889D+02 0.608522192518193D+02
 0.000000000000000D+00 0.000000000000000D+00 0.000000000000000D+00 0.000000000000000D+00
 0.146261207605335D+03 0.000000000000000D+00 0.000000000000000D+00 0.146261207605335D+03
 0.146261207605335D+03 -.000000000000000D+00 -.000000000000000D+00 -.146261207605335D+03
 0.760238180802769D+02 -.331399765816340D+02 0.449868185129082D+02 -.125518535586757D+02
 0.811199688601705D+02 -.479022556732067D+02 0.442866893883898D+02 -.482131972836282D+02
 0.975836101116538D+02 0.595517453217061D+02 -.661901359073054D+02 0.399376576696024D+02
 0.377950181585691D+02 0.214904869331346D+02 -.230833719939926D+02 0.208273931727015D+02
0.130715727266D-06 0.000000000000D+00 0.000000000000D+00 0.847891077412D-06 0.000000000000D+00  6 -1 22 9900012 -11 -2 21 0 0.52210286D-01 0.96978514D-02 0.17045125D+05 0.17045125D+05 0.17045125D+05 0.11860315D+01  1  2  2  2  6  5       -2 0.276145775004D-05 0.100000000000D+01
-.294358210782D-08 0.000000000000D+00 -.250991405471D-09 0.847891077412D-06 0.000000000000D+00  6 -1 22 9900012 -11 -2 21 2 0.52210286D-01 0.96978514D-02 0.17045125D+05 0.17045125D+05 0.17045125D+05 0.11860315D+01  1  2  3  2  6  5       -2 -.874740393858D-07 0.100000000000D+01
-.165822893874D-07 0.000000000000D+00 0.000000000000D+00 0.847891077412D-06 0.000000000000D+00  6 -1 22 9900012 -11 -2 21 2 0.52210286D-01 0.96978514D-02 0.17045125D+05 0.17045125D+05 0.17045125D+05 0.11860315D+01  1  2 15  2  6  5       -2 -.492773696077D-06 0.100000000000D+01
0.819074014456D-06 0.000000000000D+00 0.000000000000D+00 0.847891077412D-06 0.000000000000D+00  6 -1 22 9900012 -11 -2 21 2 0.52210286D-01 0.96978514D-02 0.17003296D+05 0.17003296D+05 0.17003296D+05 0.11861357D+01  1  2 12  2  6  5       -2 0.243409558384D-04 0.100000000000D+01
-.723125659670D-05 0.000000000000D+00 0.000000000000D+00 0.847891077412D-06 0.000000000000D+00  6 -1 22 9900012 -11 -2 21 2 0.52210286D-01 0.96978514D-02 0.17045125D+05 0.17045125D+05 0.17045125D+05 0.11860315D+01  1  2  4  2  6  5       -2 -.214890293927D-03 0.100000000000D+01
-.413419055366D-05 0.000000000000D+00 0.000000000000D+00 0.847891077412D-06 0.000000000000D+00  6 -1 22 9900012 -11 -2 21 2 0.52210286D-01 0.96978514D-02 0.17045125D+05 0.17045125D+05 0.17045125D+05 0.11860315D+01  1  2  5  2  6  5       -2 -.122855192780D-03 0.100000000000D+01
0.544299736124D-05 0.000000000000D+00 -.000000000000D+00 0.847891077412D-06 0.000000000000D+00  6 -1 22 9900012 -11 -2 21 2 0.52210286D-01 0.96978514D-02 0.17045125D+05 0.17045125D+05 0.17045125D+05 0.11860315D+01  1  2  6  2  6  5       -2 0.161748831225D-03 0.100000000000D+01
0.406372417518D-05 0.000000000000D+00 0.000000000000D+00 0.847891077412D-06 0.217737871057D-06  6 -1 22 9900012 -11 -2 21 2 0.52210286D-01 0.96978514D-02 0.17003296D+05 0.17003296D+05 0.17003296D+05 0.11861357D+01  1  2 11  2  6  5       -2 0.120764337461D-03 0.100000000000D+01
  </mgrwgt>
  </event>
  <event>
  6     66 0.61978431E-06 0.36066573E+02 0.78161638E-02 0.11277662E+00
       -1 -1    0    0    0  501 0.00000000E+00 0.00000000E+00 0.33430511E+03 0.33430511E+03 0.00000000E+00 0.0000E+00 0.9000E+01
       22 -1    0    0    0    0 0.00000000E+00 0.00000000E+00 -.21806387E+03 0.21806387E+03 0.00000000E+00 0.0000E+00 0.9000E+01
       24  2    1    2    0    0 -.35932364E+02 -.31085228E+01 -.20824942E+03 0.22588011E+03 0.79707010E+02 0.0000E+00 0.0000E+00
  9900012  1    3    3    0    0 -.17945895E+02 -.14712013E+02 -.88722663E+02 0.10445195E+03 0.50000000E+02 0.0000E+00 0.9000E+01
      -11  1    3    3    0    0 -.17986468E+02 0.11603490E+02 -.11952675E+03 0.12142816E+03 0.00000000E+00 0.0000E+00 0.9000E+01
       -2  1    1    2    0  501 0.35932364E+02 0.31085228E+01 0.32449066E+03 0.32648887E+03 0.00000000E+00 0.0000E+00 0.9000E+01
#aMCatNLO 1  0  0  1  5 0.16248816D+03 0.00000000D+00  -5  6  0 0.00000000D+00 0.00000000D+00 0.00000000D+00 0.00000000D+00 0.00000000D+00
  <mgrwgt>
 0.2357687705D-03    4    2    0
 0.269999754502911D+03 0.000000000000000D+00 0.000000000000000D+00 0.269999754502911D+03
 0.269999754502911D+03 0.000000000000000D+00 0.000000000000000D+00 -.269999754502911D+03
 0.125943167449118D+03 -.179458953969064D+02 -.147120131346573D+02 -.113239493707123D+03
 0.149939191955519D+03 -.179864683188686D+02 0.116034903676321D+02 -.148403528438432D+03
 0.264117149601186D+03 0.359323637157750D+02 0.310852276702521D+01 0.261643022145555D+03
 0.000000000000000D+00 0.000000000000000D+00 0.000000000000000D+00 -.000000000000000D+00
 0.319640624838886D+03 0.000000000000000D+00 0.000000000000000D+00 0.319640624838886D+03
 0.338472610272112D+03 0.000000000000000D+00 0.000000000000000D+00 -.338472610272112D+03
 0.132907299779340D+03 -.366124046752206D+02 -.316338303638332D+02 -.113239493707123D+03
 0.153894701484225D+03 -.398968718490800D+02 -.825902588689132D+01 -.148403528438432D+03
 0.263527195624008D+03 -.211770500248326D+01 -.313851417316698D+02 0.261643022145555D+03
 0.107784038223425D+03 0.786269815267839D+02 0.712779979823943D+02 -.188319854332262D+02
0.892661137228D-04 0.000000000000D+00 0.000000000000D+00 0.144793589061D-03 0.000000000000D+00  6 -1 22 9900012 -11 -2 21 0 0.51431556D-01 0.33548288D-01 0.31693343D+04 0.31693343D+04 0.31693343D+04 0.12647717D+01  1  2  2  1  6  1       -1 0.280895264648D-03 0.100000000000D+01
0.501522817375D-05 0.000000000000D+00 -.171402690501D-06 0.144793589061D-03 0.000000000000D+00  6 -1 22 9900012 -11 -2 21 2 0.51431556D-01 0.33548288D-01 0.31693343D+04 0.31693343D+04 0.31693343D+04 0.12647717D+01  1  2  3  1  6  1       -1 0.252448495187D-04 0.100000000000D+01
-.138624741535D-04 0.000000000000D+00 0.000000000000D+00 0.144793589061D-03 0.000000000000D+00  6 -1 22 9900012 -11 -2 21 2 0.51431556D-01 0.33548288D-01 0.31693343D+04 0.31693343D+04 0.31693343D+04 0.12647717D+01  1  2 15  1  6  1       -1 -.697786943759D-04 0.100000000000D+01
-.117737741943D-06 0.000000000000D+00 0.000000000000D+00 0.144793589061D-03 0.000000000000D+00  6 -1 22 9900012 -11 -2 21 2 0.51431556D-01 0.33548288D-01 0.31693343D+04 0.31693343D+04 0.31693343D+04 0.12647717D+01  1  2  4  1  6  1       -1 -.592649322234D-06 0.100000000000D+01
  </mgrwgt>
  </event>
  <event>
  7     66 0.61978431E-06 0.30220507E+02 0.78161638E-02 0.12674229E+00
       -3 -1    0    0    0  502 0.00000000E+00 0.00000000E+00 0.21995124E+03 0.21995124E+03 0.00000000E+00 0.0000E+00 0.9000E+01
       22 -1    0    0    0    0 0.00000000E+00 0.00000000E+00 -.35861585E+03 0.35861585E+03 0.00000000E+00 0.0000E+00 0.9000E+01
       24  2    1    2    0    0 0.24851738E+01 0.30434421E+02 -.35243173E+03 0.36258626E+03 0.79550243E+02 0.0000E+00 0.0000E+00
  9900012  1    3    3    0    0 -.15894657E+02 0.38320647E+02 -.25742301E+03 0.26549524E+03 0.50000000E+02 0.0000E+00 0.9000E+01
      -11  1    3    3    0    0 0.18379831E+02 -.78862266E+01 -.95008716E+02 0.97091024E+02 0.00000000E+00 0.0000E+00 0.9000E+01
       -4  1    1    2    0  501 -.22233678E+01 -.30288802E+02 0.20795262E+03 0.21015863E+03 0.00000000E+00 0.0000E+00 0.9000E+01
       21  1    1    2  501  502 -.26180602E+00 -.14561842E+00 0.58144980E+01 0.58222104E+01 0.00000000E+00 0.0000E+00 0.9000E+01
#aMCatNLO 2  0  0  1  5 0.92933962D+00 0.00000000D+00  -5  6  0 0.00000000D+00 0.00000000D+00 0.00000000D+00 0.00000000D+00 0.00000000D+00
  <mgrwgt>
 0.6076837883D-01    1    2    0
 0.277111170346867D+03 0.000000000000000D+00 0.000000000000000D+00 0.277111170346867D+03
 0.277111170346867D+03 0.000000000000000D+00 0.000000000000000D+00 -.277111170346867D+03
 0.207258647640458D+03 -.159925635591849D+02 0.382661909847273D+02 -.196814845883326D+03
 0.755616404772637D+02 0.183441353085819D+02 -.790608077686448D+01 -.728735075191622D+02
 0.271402052576011D+03 -.235157174939703D+01 -.303601102078628D+02 0.269688353402489D+03
 0.000000000000000D+00 -.000000000000000D+00 -.000000000000000D+00 0.000000000000000D+00
 0.284640792956221D+03 0.000000000000000D+00 0.000000000000000D+00 0.284640792956221D+03
 0.277114190647537D+03 0.000000000000000D+00 0.000000000000000D+00 -.277114190647537D+03
 0.207261177480944D+03 -.158946572054864D+02 0.383206472156969D+02 -.196814845883326D+03
 0.755682397276095D+02 0.183798310090262D+02 -.788622656685067D+01 -.728735075191622D+02
 0.271393004451882D+03 -.222336778515085D+01 -.302888022240142D+02 0.269688353402489D+03
 0.753256194332316D+01 -.261806018389030D+00 -.145618424832034D+00 0.752660230868385D+01
0.206285417300D-01 0.000000000000D+00 0.000000000000D+00 0.135622138335D-03 0.175955211073D-01  6 -3 22 9900012 -11 -4 21 2 0.33838653D-01 0.55171670D-01 0.33431657D+04 0.33431657D+04 0.33431657D+04 0.12620185D+01  1  2  1  1  6  1       -3 0.607683788307D-01 0.100000000000D+01
  </mgrwgt>
  </event>
  <event>
  7     66 -.61978431E-06 0.56505034E+02 0.78161638E-02 0.11922272E+00
       -1 -1    0    0    0  501 0.00000000E+00 0.00000000E+00 0.41064901E+03 0.41064901E+03 0.00000000E+00 0.0000E+00 0.9000E+01
       22 -1    0    0    0    0 0.00000000E+00 0.00000000E+00 -.33856191E+03 0.33856191E+03 0.00000000E+00 0.0000E+00 0.9000E+01
       24  2    1    2    0    0 -.20376273E+02 0.54170981E+02 -.32743916E+03 0.34203920E+03 0.80154371E+02 0.0000E+00 0.0000E+00
  9900012  1    3    3    0    0 0.58041388E+00 0.58660733E+02 -.26747435E+03 0.27835938E+03 0.50000000E+02 0.0000E+00 0.9000E+01
      -11  1    3    3    0    0 -.20956687E+02 -.44897518E+01 -.59964810E+02 0.63679816E+02 0.00000000E+00 0.0000E+00 0.9000E+01
       -2  1    1    2    0  502 0.30633303E+02 -.53494564E+02 0.38126299E+03 0.38621437E+03 0.00000000E+00 0.0000E+00 0.9000E+01
       21  1    1    2  502  501 -.10257029E+02 -.67641792E+00 0.18263266E+02 0.20957363E+02 0.00000000E+00 0.0000E+00 0.9000E+01
#aMCatNLO 2  0  0  5  1 0.11793647D+02 0.00000000D+00  -5  6  0 0.00000000D+00 0.00000000D+00 0.00000000D+00 0.00000000D+00 0.00000000D+00
  <mgrwgt>
 -.7226987087D-03    3    2    0
 0.372867423791787D+03 0.000000000000000D+00 0.000000000000000D+00 0.372867423791787D+03
 0.372867423791787D+03 -.000000000000000D+00 -.000000000000000D+00 -.372867423791787D+03
 0.307061372066832D+03 0.492920782011215D+00 0.588933364666408D+02 -.297183475591250D+03
 0.701136975548784D+02 -.209766669936979D+02 -.443663468718072D+01 -.667549720942565D+02
 0.368559777961863D+03 0.204837462116866D+02 -.544567017794599D+02 0.363938447685507D+03
 0.000000000000000D+00 0.000000000000000D+00 0.000000000000000D+00 0.000000000000000D+00
 0.372867423791787D+03 0.000000000000000D+00 0.000000000000000D+00 0.372867423791787D+03
 0.372867423791787D+03 -.000000000000000D+00 -.000000000000000D+00 -.372867423791787D+03
 0.305512530573110D+03 0.580413875143353D+00 0.586607332488885D+02 -.295628969878836D+03
 0.697731954287577D+02 -.209566871399970D+02 -.448975177442380D+01 -.663999863965344D+02
 0.351159504740864D+03 0.306333026298287D+02 -.534945635547090D+02 0.345706421996944D+03
 0.192896168408427D+02 -.102570293649752D+02 -.676417919755461D+00 0.163225342784260D+02
-.446552592185D-03 0.000000000000D+00 0.000000000000D+00 0.268977093908D-03 0.000000000000D+00  6 -1 22 9900012 -11 -2 21 2 0.63176771D-01 0.52086448D-01 0.72621780D+04 0.72621780D+04 0.72621780D+04 0.12240085D+01  1  2 13  2  6  5       -2 -.747417850660D-03 0.100000000000D+01
-.128933285574D-04 0.000000000000D+00 0.000000000000D+00 0.268977093908D-03 0.000000000000D+00  6 -1 22 9900012 -11 -2 21 2 0.63176771D-01 0.52086448D-01 0.61528040D+04 0.61528040D+04 0.61528040D+04 0.12318310D+01  1  2  8  2  6  5       -2 -.217186289004D-04 0.100000000000D+01
0.277447306735D-04 0.000000000000D+00 0.000000000000D+00 0.268977093908D-03 0.111910197289D-05  6 -1 22 9900012 -11 -2 21 2 0.63176771D-01 0.52086448D-01 0.72621780D+04 0.72621780D+04 0.72621780D+04 0.12240085D+01  1  2  1  2  6  5       -2 0.464377708919D-04 0.100000000000D+01
  </mgrwgt>
  </event>
  <event>
  6     66 -.61978431E-06 0.91817489E+02 0.78161638E-02 0.11000630E+00
       -3 -1    0    0    0  501 0.00000000E+00 0.00000000E+00 0.40991458E+03 0.40991458E+03 0.00000000E+00 0.0000E+00 0.9000E+01
       22 -1    0    0    0    0 -.00000000E+00 -.00000000E+00 -.84781672E+03 0.84781672E+03 0.00000000E+00 0.0000E+00 0.9000E+01
  9900012  1    1    2    0    0 0.41328047E+02 0.10596120E+03 -.76928448E+03 0.77925245E+03 0.50000000E+02 0.0000E+00 0.9000E+01
      -11  1    1    2    0    0 0.41844410E+02 -.20926403E+02 -.53866505E+02 0.71347525E+02 0.00000000E+00 0.0000E+00 0.9000E+01
       -4  1    1    2    0  502 -.80579039E+02 -.63562871E+02 0.35755355E+03 0.37199161E+03 0.00000000E+00 0.0000E+00 0.9000E+01
       21  1    1    2  502  501 -.25934186E+01 -.21471924E+02 0.27695294E+02 0.35139702E+02 0.00000000E+00 0.0000E+00 0.9000E+01
#aMCatNLO 2  0  0  5  1 0.15560971D+02 0.00000000D+00  -5  6  0 0.00000000D+00 0.00000000D+00 0.00000000D+00 0.00000000D+00 0.00000000D+00
  <mgrwgt>
 -.3333602430D-03    5    2    0
 0.589518814971974D+03 0.000000000000000D+00 0.000000000000000D+00 0.589518814971974D+03
 0.589518814971974D+03 -.000000000000000D+00 -.000000000000000D+00 -.589518814971974D+03
 0.546820399210730D+03 0.415139754707000D+02 0.106151288572686D+03 -.532466940539935D+03
 0.561815368305102D+02 0.418635219783148D+02 -.209068631776775D+02 -.310920195593499D+02
 0.576035693902707D+03 -.833774974490148D+02 -.852444253950086D+02 0.563558960099285D+03
 0.000000000000000D+00 0.000000000000000D+00 -.000000000000000D+00 0.000000000000000D+00
 0.589518814971974D+03 0.000000000000000D+00 0.000000000000000D+00 0.589518814971974D+03
 0.589518814971974D+03 -.000000000000000D+00 -.000000000000000D+00 -.589518814971974D+03
 0.545545678984171D+03 0.413280470257108D+02 0.105961196953933D+03 -.531210226866379D+03
 0.561031778201465D+02 0.418444103244399D+02 -.209264027657289D+02 -.309628414943683D+02
 0.529617497492706D+03 -.805790387448172D+02 -.635628706540942D+02 0.519578168940544D+03
 0.477712756469242D+02 -.259341860533349D+01 -.214719235341096D+02 0.425948994202038D+02
-.239029830831D-02 0.000000000000D+00 0.000000000000D+00 0.102697181607D-07 0.000000000000D+00  6 -3 22 9900012 -11 -4 21 2 0.63063782D-01 0.13043334D+00 0.21798401D+05 0.21798401D+05 0.21798401D+05 0.11757466D+01  1  2 13  2  6  5       -4 -.390394506822D-03 0.100000000000D+01
-.186403888320D-04 0.000000000000D+00 0.000000000000D+00 0.102697181607D-07 0.000000000000D+00  6 -3 22 9900012 -11 -4 21 2 0.63063782D-01 0.13043334D+00 0.21097505D+05 0.21097505D+05 0.21097505D+05 0.11770974D+01  1  2  8  2  6  5       -4 -.304790185102D-05 0.100000000000D+01
-.333712550737D-04 0.000000000000D+00 0.000000000000D+00 0.102697181607D-07 0.000000000000D+00  6 -3 22 9900012 -11 -4 21 2 0.63063782D-01 0.13043334D+00 0.21097505D+05 0.21097505D+05 0.21097505D+05 0.11770974D+01  1  2  9  2  6  5       -4 -.545655517313D-05 0.100000000000D+01
0.362530979111D-04 0.000000000000D+00 0.000000000000D+00 0.102697181607D-07 0.000000000000D+00  6 -3 22 9900012 -11 -4 21 2 0.63063782D-01 0.13043334D+00 0.21097505D+05 0.21097505D+05 0.21097505D+05 0.11770974D+01  1  2 10  2  6  5       -4 0.592776713107D-05 0.100000000000D+01
0.364984545698D-03 0.000000000000D+00 0.000000000000D+00 0.102697181607D-07 0.525509953373D-10  6 -3 22 9900012 -11 -4 21 2 0.63063782D-01 0.13043334D+00 0.21798401D+05 0.21798401D+05 0.21798401D+05 0.11757466D+01  1  2  1  2  6  5       -4 0.596109536706D-04 0.100000000000D+01
  </mgrwgt>
  </event>
  <event>
  6     66 0.61978431E-06 0.49887838E+02 0.78161638E-02 0.10690650E+00
       -3 -1    0    0    0  501 0.00000000E+00 0.00000000E+00 0.35981418E+02 0.35981418E+02 0.00000000E+00 0.0000E+00 0.9000E+01
       22 -1    0    0    0    0 0.00000000E+00 0.00000000E+00 -.65358288E+03 0.65358288E+03 0.00000000E+00 0.0000E+00 0.9000E+01
       24  2    1    2    0    0 -.11466554E+03 -.73553703E+02 -.42989433E+03 0.45763263E+03 0.77846956E+02 0.0000E+00 0.0000E+00
  9900012  1    3    3    0    0 -.48869661E+02 -.41387959E+02 -.18579221E+03 0.20278056E+03 0.50000000E+02 0.0000E+00 0.9000E+01
      -11  1    3    3    0    0 -.65795882E+02 -.32165745E+02 -.24410212E+03 0.25485207E+03 0.00000000E+00 0.0000E+00 0.9000E+01
       -4  1    1    2    0  501 0.11466554E+03 0.73553703E+02 -.18770713E+03 0.23193167E+03 0.00000000E+00 0.0000E+00 0.9000E+01
#aMCatNLO 1  0  0  1  5 0.10117894D+03 0.00000000D+00  -5  6  0 0.00000000D+00 0.00000000D+00 0.00000000D+00 0.00000000D+00 0.00000000D+00
  <mgrwgt>
 0.1556946808D-04    6    4    0
 0.153352008676570D+03 0.000000000000000D+00 0.000000000000000D+00 0.153352008676570D+03
 0.153352008676570D+03 0.000000000000000D+00 0.000000000000000D+00 -.153352008676570D+03
 0.817879347715070D+02 -.488696607100574D+02 -.413879585065651D+02 -.938399845113945D+01
 0.814435476010229D+02 -.657958822761674D+02 -.321657449063195D+02 -.356274918561829D+02
 0.143472534980611D+03 0.114665542986225D+03 0.735537034128846D+02 0.450114903073224D+02
 0.000000000000000D+00 -.000000000000000D+00 0.000000000000000D+00 -.000000000000000D+00
 0.183344543777738D+03 0.000000000000000D+00 0.000000000000000D+00 0.183344543777738D+03
 0.196848718269759D+03 0.000000000000000D+00 0.000000000000000D+00 -.196848718269759D+03
 0.880775505705780D+02 -.424219684390202D+02 -.580514606305518D+02 -.938399845113945D+01
 0.845965145180475D+02 -.594933940275883D+02 -.484539798129932D+02 -.356274918561829D+02
 0.140892654576667D+03 0.125459373358346D+03 0.456579838637785D+02 0.450114903073224D+02
 0.666265423822050D+02 -.235440108917374D+02 0.608474565797665D+02 -.135041744920208D+02
 0.153352008676570D+03 0.000000000000000D+00 0.000000000000000D+00 0.153352008676570D+03
 0.153352008676570D+03 0.000000000000000D+00 0.000000000000000D+00 -.153352008676570D+03
 0.817879347715070D+02 -.488696607100574D+02 -.413879585065651D+02 -.938399845113945D+01
 0.814435476010229D+02 -.657958822761674D+02 -.321657449063195D+02 -.356274918561829D+02
 0.000000000000000D+00 -.000000000000000D+00 0.000000000000000D+00 -.000000000000000D+00
 0.143472534980611D+03 0.114665542986225D+03 0.735537034128846D+02 0.450114903073224D+02
 0.183344543777738D+03 0.000000000000000D+00 0.000000000000000D+00 0.183344543777738D+03
 0.196848718269759D+03 0.000000000000000D+00 0.000000000000000D+00 -.196848718269759D+03
 0.880775505705780D+02 -.424219684390202D+02 -.580514606305518D+02 -.938399845113945D+01
 0.845965145180475D+02 -.594933940275883D+02 -.484539798129932D+02 -.356274918561829D+02
 0.666265423822050D+02 -.235440108917374D+02 0.608474565797665D+02 -.135041744920208D+02
 0.140892654576667D+03 0.125459373358346D+03 0.456579838637785D+02 0.450114903073224D+02
0.140791374134D-05 0.000000000000D+00 0.000000000000D+00 0.138967067894D-06 0.000000000000D+00  6 -3 22 9900012 -11 -4 21 0 0.55356027D-02 0.10055121D+00 0.21128701D+05 0.21128701D+05 0.21128701D+05 0.11770362D+01  1  2  2  1  6  1       -3 0.210354747152D-04 0.100000000000D+01
-.418090097511D-07 0.000000000000D+00 -.270337973948D-08 0.138967067894D-06 0.000000000000D+00  6 -3 22 9900012 -11 -4 21 2 0.55356027D-02 0.10055121D+00 0.21128701D+05 0.21128701D+05 0.21128701D+05 0.11770362D+01  1  2  3  1  6  1       -3 -.865417725405D-06 0.100000000000D+01
-.191342091906D-06 0.000000000000D+00 0.000000000000D+00 0.138967067894D-06 0.000000000000D+00  6 -3 22 9900012 -11 -4 21 2 0.55356027D-02 0.10055121D+00 0.21128701D+05 0.21128701D+05 0.21128701D+05 0.11770362D+01  1  2 15  1  6  1       -3 -.396064960490D-05 0.100000000000D+01
0.927097720310D-07 0.000000000000D+00 0.000000000000D+00 0.138967067894D-06 0.000000000000D+00  6 -3 22 9900012 -11 -4 21 2 0.84954533D-02 0.10055121D+00 0.32952687D+05 0.32952687D+05 0.32952687D+05 0.11590629D+01  1  2 12  1  6  1       -3 0.984869601194D-06 0.100000000000D+01
-.119237036617D-06 0.000000000000D+00 0.000000000000D+00 0.138967067894D-06 0.000000000000D+00  6 -3 22 9900012 -11 -4 21 2 0.55356027D-02 0.10055121D+00 0.21128701D+05 0.21128701D+05 0.21128701D+05 0.11770362D+01  1  2  4  1  6  1       -3 -.246812458912D-05 0.100000000000D+01
0.464212617211D-08 0.000000000000D+00 0.000000000000D+00 0.138967067894D-06 0.000000000000D+00  6 21 22 9900012 -11 3 -4 2 0.84954533D-02 0.10055121D+00 0.32952687D+05 0.32952687D+05 0.32952687D+05 0.11590629D+01  3  4 12  3  5  1       -3 0.843315686997D-06 0.100000000000D+01
  </mgrwgt>
  </event>
  <event>
  6     66 0.61978431E-06 0.53518666E+02 0.78161638E-02 0.11521822E+00
       -3 -1    0    0    0  501 0.00000000E+00 0.00000000E+00 0.10593317E+04 0.10593317E+04 0.00000000E+00 0.0000E+00 0.9000E+01
       22 -1    0    0    0    0 0.00000000E+00 0.00000000E+00 -.13817220E+02 0.13817220E+02 0.00000000E+00 0.0000E+00 0.9000E+01
       24  2    1    2    0    0 -.23891454E+02 -.63311074E+02 0.20464815E+03 0.22956414E+03 0.78992001E+02 0.0000E+00 0.0000E+00
  9900012  1    3    3    0    0 -.21505542E+02 -.16752413E+02 0.10188364E+03 0.11671936E+03 0.50000000E+02 0.0000E+00 0.9000E+01
      -11  1    3    3    0    0 -.23859125E+01 -.46558661E+02 0.10276450E+03 0.11284478E+03 0.00000000E+00 0.0000E+00 0.9000E+01
       -4  1    1    2    0  501 0.23891454E+02 0.63311074E+02 0.84086630E+03 0.84358475E+03 0.00000000E+00 0.0000E+00 0.9000E+01
#aMCatNLO 1  0  0  1  5 0.44410896D+02 0.00000000D+00  -5  6  0 0.00000000D+00 0.00000000D+00 0.00000000D+00 0.00000000D+00 0.00000000D+00
  <mgrwgt>
 0.1816436042D-04    9    4    0
 0.120983548797535D+03 0.000000000000000D+00 0.000000000000000D+00 0.120983548797535D+03
 0.120983548797535D+03 0.000000000000000D+00 0.000000000000000D+00 -.120983548797535D+03
 0.774337836820484D+02 -.215055419408396D+02 -.167524128196242D+02 -.524676965939039D+02
 0.564435351443203D+02 -.238591253523447D+01 -.465586607102691D+02 -.318193525048575D+02
 0.108089778768702D+03 0.238914544760741D+02 0.633110735298933D+02 0.842870490987613D+02
 0.000000000000000D+00 -.000000000000000D+00 0.000000000000000D+00 0.000000000000000D+00
 0.163667214835996D+03 0.000000000000000D+00 0.000000000000000D+00 0.163667214835996D+03
 0.131916840794406D+03 0.000000000000000D+00 0.000000000000000D+00 -.131916840794406D+03
 0.767115894310785D+02 -.106499618009672D+02 -.227681154426613D+02 -.524676965939039D+02
 0.604995928501846D+02 0.584972549990808D+01 -.511225024112225D+02 -.318193525048575D+02
 0.107913548314682D+03 0.391033377799724D+02 0.548812922456596D+02 0.842870490987613D+02
 0.504593250344572D+02 -.343031014789132D+02 0.190093256082242D+02 0.317503740415902D+02
 0.120983548797535D+03 0.000000000000000D+00 0.000000000000000D+00 0.120983548797535D+03
 0.120983548797535D+03 0.000000000000000D+00 0.000000000000000D+00 -.120983548797535D+03
 0.774337836820484D+02 -.215055419408396D+02 -.167524128196242D+02 -.524676965939039D+02
 0.564435351443203D+02 -.238591253523447D+01 -.465586607102691D+02 -.318193525048575D+02
 0.000000000000000D+00 -.000000000000000D+00 0.000000000000000D+00 0.000000000000000D+00
 0.108089778768702D+03 0.238914544760741D+02 0.633110735298933D+02 0.842870490987613D+02
 0.163667214835996D+03 0.000000000000000D+00 0.000000000000000D+00 0.163667214835996D+03
 0.131916840794406D+03 0.000000000000000D+00 0.000000000000000D+00 -.131916840794406D+03
 0.767115894310785D+02 -.106499618009672D+02 -.227681154426613D+02 -.524676965939039D+02
 0.604995928501846D+02 0.584972549990808D+01 -.511225024112225D+02 -.318193525048575D+02
 0.504593250344572D+02 -.343031014789132D+02 0.190093256082242D+02 0.317503740415902D+02
 0.107913548314682D+03 0.391033377799724D+02 0.548812922456596D+02 0.842870490987613D+02
0.167305561485D-05 0.000000000000D+00 0.000000000000D+00 0.112157285652D-05 0.000000000000D+00  6 -3 22 9900012 -11 -4 21 0 0.16297410D+00 0.21257262D-02 0.73305493D+04 0.73305493D+04 0.73305493D+04 0.12235708D+01  1  2  2  1  6  1       -3 0.985085288584D-05 0.100000000000D+01
0.114878584607D-07 0.000000000000D+00 -.321248704334D-08 0.112157285652D-05 0.000000000000D+00  6 -3 22 9900012 -11 -4 21 2 0.16297410D+00 0.21257262D-02 0.73305493D+04 0.73305493D+04 0.73305493D+04 0.12235708D+01  1  2  3  1  6  1       -3 0.101265320745D-06 0.100000000000D+01
-.211367457841D-06 0.000000000000D+00 0.000000000000D+00 0.112157285652D-05 0.000000000000D+00  6 -3 22 9900012 -11 -4 21 2 0.16297410D+00 0.21257262D-02 0.73305493D+04 0.73305493D+04 0.73305493D+04 0.12235708D+01  1  2 15  1  6  1       -3 -.186320135181D-05 0.100000000000D+01
0.833501567726D-06 0.000000000000D+00 0.000000000000D+00 0.112157285652D-05 0.000000000000D+00  6 -3 22 9900012 -11 -4 21 2 0.24039636D+00 0.21257262D-02 0.11451555D+05 0.11451555D+05 0.11451555D+05 0.12032767D+01  1  2 12  1  6  1       -3 0.187442125010D-05 0.100000000000D+01
-.294218716054D-06 0.000000000000D+00 0.000000000000D+00 0.112157285652D-05 0.000000000000D+00  6 -3 22 9900012 -11 -4 21 2 0.16297410D+00 0.21257262D-02 0.73305493D+04 0.73305493D+04 0.73305493D+04 0.12235708D+01  1  2  4  1  6  1       -3 -.259353409971D-05 0.100000000000D+01
-.180911897299D-05 0.000000000000D+00 -.613472671286D-06 0.112157285652D-05 0.000000000000D+00  6 -3 22 9900012 -11 -4 21 2 0.23008183D+00 0.21257262D-02 0.73305493D+04 0.73305493D+04 0.73305493D+04 0.12235708D+01  1  2  5  1  6  1       -3 -.489525500536D-05 0.100000000000D+01
0.193898695252D-05 0.000000000000D+00 0.578720418840D-06 0.112157285652D-05 0.000000000000D+00  6 -3 22 9900012 -11 -4 21 2 0.16297410D+00 0.21257262D-02 0.73305493D+04 0.73305493D+04 0.73305493D+04 0.12235708D+01  1  2  6  1  6  1       -3 0.170921444010D-04 0.100000000000D+01
0.388508140988D-07 0.000000000000D+00 0.000000000000D+00 0.112157285652D-05 0.000000000000D+00  6 21 22 9900012 -11 3 -4 2 0.24039636D+00 0.21257262D-02 0.11451555D+05 0.11451555D+05 0.11451555D+05 0.12032767D+01  3  4 12  3  5  1       -3 0.162402533854D-05 0.100000000000D+01
-.603426372726D-07 0.000000000000D+00 -.262190419234D-07 0.112157285652D-05 0.000000000000D+00  6 21 22 9900012 -11 3 -4 2 0.23008183D+00 0.21257262D-02 0.73305493D+04 0.73305493D+04 0.73305493D+04 0.12235708D+01  3  4  5  3  5  1       -3 -.302635831819D-05 0.100000000000D+01
  </mgrwgt>
  </event>
  <event>
  6     66 0.61978431E-06 0.74396984E+02 0.78161638E-02 0.10765046E+00
       -1 -1    0    0    0  501 0.00000000E+00 0.00000000E+00 0.59124274E+03 0.59124274E+03 0.00000000E+00 0.0000E+00 0.9000E+01
       22 -1    0    0    0    0 0.00000000E+00 0.00000000E+00 -.10811192E+03 0.10811192E+03 0.00000000E+00 0.0000E+00 0.9000E+01
       24  2    1    2    0    0 -.68844383E+02 -.28202167E+02 -.78487228E+02 0.13283040E+03 0.77128206E+02 0.0000E+00 0.0000E+00
  9900012  1    3    3    0    0 -.38806459E+02 -.35967216E+02 -.69211652E+02 0.10044817E+03 0.50000000E+02 0.0000E+00 0.9000E+01
      -11  1    3    3    0    0 -.30037924E+02 0.77650496E+01 -.92755758E+01 0.32382235E+02 0.00000000E+00 0.0000E+00 0.9000E+01
       -2  1    1    2    0  501 0.68844383E+02 0.28202167E+02 0.56161804E+03 0.56652426E+03 0.00000000E+00 0.0000E+00 0.9000E+01
#aMCatNLO 1  0  0  5  1 0.39217560D+02 0.00000000D+00  -5  6  0 0.00000000D+00 0.00000000D+00 0.00000000D+00 0.00000000D+00 0.00000000D+00
  <mgrwgt>
 0.1975555752D-03    3    2    0
 0.252824821059085D+03 0.000000000000000D+00 0.000000000000000D+00 0.252824821059085D+03
 0.252824821059085D+03 -.000000000000000D+00 -.000000000000000D+00 -.252824821059085D+03
 0.205057351925818D+03 -.388064588090011D+02 -.359672161480934D+02 -.191700119186427D+03
 0.536497635934244D+02 -.300379238199330D+02 0.776504960391661D+01 -.437689875467430D+02
 0.246942526598927D+03 0.688443826289340D+02 0.282021665441767D+02 0.235469106733170D+03
 0.000000000000000D+00 0.000000000000000D+00 0.000000000000000D+00 -.000000000000000D+00
 0.252824821059085D+03 0.000000000000000D+00 0.000000000000000D+00 0.252824821059085D+03
 0.252824821059085D+03 -.000000000000000D+00 -.000000000000000D+00 -.252824821059085D+03
 0.140590796673031D+03 -.198308177614305D+02 -.281938268217551D+02 -.126797550864421D+03
 0.378104718547213D+02 -.250168739314103D+02 0.982192744601990D+01 -.265954421249528D+02
 0.118565572862508D+03 0.157254684333366D+02 -.117495586532357D+03 -.230040348292896D+01
 0.208682800727908D+03 0.291222232595043D+02 0.135867485908093D+03 0.155693396472303D+03
0.712018615090D-04 0.000000000000D+00 0.000000000000D+00 0.510263531753D-05 0.000000000000D+00  6 -1 22 9900012 -11 -2 21 0 0.90960421D-01 0.16632604D-01 0.79406428D+04 0.79406428D+04 0.79406428D+04 0.12198550D+01  1  2  2  2  6  5       -2 0.231474563178D-03 0.100000000000D+01
0.140890517182D-05 0.000000000000D+00 -.136716948038D-06 0.510263531753D-05 0.000000000000D+00  6 -1 22 9900012 -11 -2 21 2 0.90960421D-01 0.16632604D-01 0.79406428D+04 0.79406428D+04 0.79406428D+04 0.12198550D+01  1  2  3  2  6  5       -2 0.681569458890D-05 0.100000000000D+01
-.842046312697D-05 0.000000000000D+00 0.000000000000D+00 0.510263531753D-05 0.000000000000D+00  6 -1 22 9900012 -11 -2 21 2 0.90960421D-01 0.16632604D-01 0.79406428D+04 0.79406428D+04 0.79406428D+04 0.12198550D+01  1  2 15  2  6  5       -2 -.407346825879D-04 0.100000000000D+01
  </mgrwgt>
  </event>
  <event>
  6     66 0.61978431E-06 0.41959912E+02 0.78161638E-02 0.12429801E+00
       -1 -1    0    0    0  501 0.00000000E+00 0.00000000E+00 0.65308502E+01 0.65308502E+01 0.00000000E+00 0.0000E+00 0.9000E+01
       22 -1    0    0    0    0 -.00000000E+00 -.00000000E+00 -.74415004E+03 0.74415004E+03 0.00000000E+00 0.0000E+00 0.9000E+01
       24  2    1    2    0    0 0.18796353E+02 0.38390200E+02 -.60348266E+03 0.60989837E+03 0.77185401E+02 0.0000E+00 0.0000E+00
  9900012  1    3    3    0    0 -.70029359E+00 0.61080746E+01 -.36206945E+03 0.36555723E+03 0.50000000E+02 0.0000E+00 0.9000E+01
      -11  1    3    3    0    0 0.19496647E+02 0.32282125E+02 -.24141321E+03 0.24434114E+03 0.00000000E+00 0.0000E+00 0.9000E+01
       -2  1    1    2    0  501 -.18796353E+02 -.38390200E+02 -.13413653E+03 0.14078252E+03 0.00000000E+00 0.0000E+00 0.9000E+01
#aMCatNLO 1  0  0  5  1 0.11749337D+02 0.00000000D+00  -5  6  0 0.00000000D+00 0.00000000D+00 0.00000000D+00 0.00000000D+00 0.00000000D+00
  <mgrwgt>
 0.5729018029D-04    7    2    0
 0.697132156022387D+02 0.000000000000000D+00 0.000000000000000D+00 0.697132156022387D+02
 0.697132156022387D+02 -.000000000000000D+00 -.000000000000000D+00 -.697132156022387D+02
 0.526976810545563D+02 -.700293585843424D+00 0.610807456330314D+01 -.154675984739227D+02
 0.383801569375242D+02 0.194966468124596D+02 0.322821254491639D+02 -.712611998942200D+01
 0.483485932123970D+02 -.187963532266162D+02 -.383902000124671D+02 0.225937184633448D+02
 0.000000000000000D+00 0.000000000000000D+00 0.000000000000000D+00 -.000000000000000D+00
 0.697132156022387D+02 0.000000000000000D+00 0.000000000000000D+00 0.697132156022387D+02
 0.697132156022387D+02 -.000000000000000D+00 -.000000000000000D+00 -.697132156022387D+02
 0.517857072330160D+02 -.270852782913489D+01 0.200640051289885D+01 -.130536472912473D+02
 0.349460541696002D+02 0.180872724565013D+02 0.294035796607677D+02 -.543201438159108D+01
 0.457867398869731D+02 -.148088522621122D+02 -.372002202791973D+02 0.222096162806894D+02
 0.690792991488816D+01 -.569892365254175D+00 0.579024010553076D+01 -.372395460785102D+01
0.301604010692D-06 0.000000000000D+00 0.000000000000D+00 0.436583387845D-07 0.000000000000D+00  6 -1 22 9900012 -11 -2 21 0 0.10047462D-02 0.11448462D+00 0.42793890D+04 0.42793890D+04 0.42793890D+04 0.12495293D+01  1  2  2  2  6  5       -2 0.378157970680D-04 0.100000000000D+01
-.168811144661D-08 0.000000000000D+00 -.579119407609D-09 0.436583387845D-07 0.000000000000D+00  6 -1 22 9900012 -11 -2 21 2 0.10047462D-02 0.11448462D+00 0.42793890D+04 0.42793890D+04 0.42793890D+04 0.12495293D+01  1  2  3  2  6  5       -2 -.330468579008D-06 0.100000000000D+01
-.302152436252D-07 0.000000000000D+00 0.000000000000D+00 0.436583387845D-07 0.000000000000D+00  6 -1 22 9900012 -11 -2 21 2 0.10047462D-02 0.11448462D+00 0.42793890D+04 0.42793890D+04 0.42793890D+04 0.12495293D+01  1  2 15  2  6  5       -2 -.591500557933D-05 0.100000000000D+01
0.163958127522D-06 0.000000000000D+00 0.000000000000D+00 0.436583387845D-07 0.000000000000D+00  6 -1 22 9900012 -11 -2 21 2 0.10047462D-02 0.11448462D+00 0.42570709D+04 0.42570709D+04 0.42570709D+04 0.12497899D+01  1  2 12  2  6  5       -2 0.320886703942D-04 0.100000000000D+01
-.325333345165D-07 0.000000000000D+00 0.000000000000D+00 0.436583387845D-07 0.000000000000D+00  6 -1 22 9900012 -11 -2 21 2 0.10047462D-02 0.11448462D+00 0.42793890D+04 0.42793890D+04 0.42793890D+04 0.12495293D+01  1  2  4  2  6  5       -2 -.636880038321D-05 0.100000000000D+01
0.421839008017D-12 0.000000000000D+00 0.000000000000D+00 0.436583387845D-07 0.000000000000D+00  6 -1 22 9900012 -11 -2 21 2 0.10047462D-02 0.11448462D+00 0.42793890D+04 0.42793890D+04 0.42793890D+04 0.12495293D+01  1  2  5  2  6  5       -2 0.825801743301D-10 0.100000000000D+01
-.486365384253D-12 0.000000000000D+00 0.000000000000D+00 0.436583387845D-07 0.000000000000D+00  6 -1 22 9900012 -11 -2 21 2 0.10047462D-02 0.11448462D+00 0.42793890D+04 0.42793890D+04 0.42793890D+04 0.12495293D+01  1  2  6  2  6  5       -2 -.952120061362D-10 0.100000000000D+01
  </mgrwgt>
  </event>
  <event>
  6     66 0.61978431E-06 0.18521267E+03 0.78161638E-02 0.10324207E+00
       -1 -1    0    0    0  501 0.00000000E+00 0.00000000E+00 0.45035800E+03 0.45035800E+03 0.00000000E+00 0.0000E+00 0.9000E+01
       22 -1    0    0    0    0 0.00000000E+00 0.00000000E+00 -.26817560E+03 0.26817560E+03 0.00000000E+00 0.0000E+00 0.9000E+01
       24  2    1    2    0    0 0.13984199E+03 -.18556442E+03 -.16836211E+03 0.29797279E+03 0.80324614E+02 0.0000E+00 0.0000E+00
  9900012  1    3    3    0    0 0.13006538E+03 -.15551524E+03 -.12191576E+03 0.24179629E+03 0.50000000E+02 0.0000E+00 0.9000E+01
      -11  1    3    3    0    0 0.97766164E+01 -.30049182E+02 -.46446352E+02 0.56176500E+02 0.00000000E+00 0.0000E+00 0.9000E+01
       -2  1    1    2    0  501 -.13984199E+03 0.18556442E+03 0.35054452E+03 0.42056081E+03 0.00000000E+00 0.0000E+00 0.9000E+01
#aMCatNLO 1  0  0  5  1 0.15094811D+02 0.00000000D+00  -5  6  0 0.00000000D+00 0.00000000D+00 0.00000000D+00 0.00000000D+00 0.00000000D+00
  <mgrwgt>
 0.2892062573D-04    7    2    0
 0.347527014961699D+03 0.000000000000000D+00 0.000000000000000D+00 0.347527014961699D+03
 0.347527014961699D+03 -.000000000000000D+00 -.000000000000000D+00 -.347527014961699D+03
 0.281920044894931D+03 0.130065375698902D+03 -.155515240693933D+03 -.189412036760527D+03
 0.702483672649719D+02 0.977661640762567D+01 -.300491815923542D+02 -.627399199923162D+02
 0.342885617763495D+03 -.139841992106528D+03 0.185564422286287D+03 0.252151956752844D+03
 0.000000000000000D+00 -.000000000000000D+00 0.000000000000000D+00 0.000000000000000D+00
 0.347527014961699D+03 0.000000000000000D+00 0.000000000000000D+00 0.347527014961699D+03
 0.347527014961699D+03 -.000000000000000D+00 -.000000000000000D+00 -.347527014961699D+03
 0.280387284019131D+03 0.129427930075310D+03 -.154669377251207D+03 -.188262645516230D+03
 0.698803909538775D+02 0.961776294960907D+01 -.298383897570765D+02 -.624534880724582D+02
 0.311920835498779D+03 -.115615996482505D+03 0.165379029532102D+03 0.237859886417685D+03
 0.328655194516103D+02 -.234296965424134D+02 0.191287374761814D+02 0.128562471710031D+02
0.177972406753D-05 0.000000000000D+00 0.000000000000D+00 0.334386947885D-05 0.000000000000D+00  6 -1 22 9900012 -11 -2 21 0 0.69285847D-01 0.41257784D-01 0.55877363D+05 0.55877363D+05 0.55877363D+05 0.11387712D+01  1  2  2  2  6  5       -2 0.263176272752D-05 0.100000000000D+01
-.146264682236D-07 0.000000000000D+00 -.341730451571D-08 0.334386947885D-05 0.000000000000D+00  6 -1 22 9900012 -11 -2 21 2 0.69285847D-01 0.41257784D-01 0.55877363D+05 0.55877363D+05 0.55877363D+05 0.11387712D+01  1  2  3  2  6  5       -2 -.280482960748D-07 0.100000000000D+01
-.218898460058D-06 0.000000000000D+00 0.000000000000D+00 0.334386947885D-05 0.000000000000D+00  6 -1 22 9900012 -11 -2 21 2 0.69285847D-01 0.41257784D-01 0.55877363D+05 0.55877363D+05 0.55877363D+05 0.11387712D+01  1  2 15  2  6  5       -2 -.419768376355D-06 0.100000000000D+01
0.201861339928D-04 0.000000000000D+00 0.000000000000D+00 0.334386947885D-05 0.000000000000D+00  6 -1 22 9900012 -11 -2 21 2 0.69285847D-01 0.41257784D-01 0.55499361D+05 0.55499361D+05 0.55499361D+05 0.11390251D+01  1  2 12  2  6  5       -2 0.387190518259D-04 0.100000000000D+01
-.826882357775D-05 0.000000000000D+00 0.000000000000D+00 0.334386947885D-05 0.000000000000D+00  6 -1 22 9900012 -11 -2 21 2 0.69285847D-01 0.41257784D-01 0.55877363D+05 0.55877363D+05 0.55877363D+05 0.11387712D+01  1  2  4  2  6  5       -2 -.158566243302D-04 0.100000000000D+01
-.201186989611D-04 0.000000000000D+00 0.000000000000D+00 0.334386947885D-05 0.000000000000D+00  6 -1 22 9900012 -11 -2 21 2 0.69285847D-01 0.41257784D-01 0.55877363D+05 0.55877363D+05 0.55877363D+05 0.11387712D+01  1  2  5  2  6  5       -2 -.385804157555D-04 0.100000000000D+01
0.221390222721D-04 0.000000000000D+00 -.000000000000D+00 0.334386947885D-05 0.000000000000D+00  6 -1 22 9900012 -11 -2 21 2 0.69285847D-01 0.41257784D-01 0.55877363D+05 0.55877363D+05 0.55877363D+05 0.11387712D+01  1  2  6  2  6  5       -2 0.424546679351D-04 0.100000000000D+01
  </mgrwgt>
  </event>
  <event>
  7     66 -.61978431E-06 0.37339181E+02 0.78161638E-02 0.12548203E+00
       -1 -1    0    0    0  502 0.00000000E+00 0.00000000E+00 0.29016850E+02 0.29016850E+02 0.00000000E+00 0.0000E+00 0.9000E+01
       22 -1    0    0    0    0 0.00000000E+00 0.00000000E+00 -.35145159E+03 0.35145159E+03 0.00000000E+00 0.0000E+00 0.9000E+01
       24  2    1    2    0    0 0.30795790E+00 0.38893301E+02 -.32830675E+03 0.34029841E+03 0.80652975E+02 0.0000E+00 0.0000E+00
  9900012  1    3    3    0    0 0.13439466E+02 0.11713359E+02 -.14270764E+03 0.15226061E+03 0.50000000E+02 0.0000E+00 0.9000E+01
      -11  1    3    3    0    0 -.13131508E+02 0.27179942E+02 -.18559911E+03 0.18803780E+03 0.00000000E+00 0.0000E+00 0.9000E+01
       -2  1    1    2    0  501 -.28668175E+01 -.34700235E+02 0.48816594E+01 0.35159004E+02 0.00000000E+00 0.0000E+00 0.9000E+01
       21  1    1    2  501  502 0.25588596E+01 -.41930659E+01 0.99035260E+00 0.50110241E+01 0.00000000E+00 0.0000E+00 0.9000E+01
#aMCatNLO 2  0  0  1  5 0.50462123D+01 0.00000000D+00  -5  6  0 0.00000000D+00 0.00000000D+00 0.00000000D+00 0.00000000D+00 0.00000000D+00
  <mgrwgt>
 -.1596455885D-04    2    2    0
 0.953157268883069D+02 0.000000000000000D+00 0.000000000000000D+00 0.953157268883069D+02
 0.953157268883069D+02 0.000000000000000D+00 0.000000000000000D+00 -.953157268883069D+02
 0.576894166779321D+02 0.142140964752224D+02 0.104440142122954D+02 -.227365526227375D+02
 0.546877714085226D+02 -.123924811112083D+02 0.259689376033451D+02 -.465058387011001D+02
 0.782542656901591D+02 -.182161536401413D+01 -.364129518156405D+02 0.692423913238375D+02
 0.000000000000000D+00 0.000000000000000D+00 -.000000000000000D+00 0.000000000000000D+00
 0.106344673226679D+03 0.000000000000000D+00 0.000000000000000D+00 0.106344673226679D+03
 0.958958993502049D+02 0.000000000000000D+00 0.000000000000000D+00 -.958958993502049D+02
 0.577474922717490D+02 0.134394661196807D+02 0.117133594210694D+02 -.227365526227375D+02
 0.554434736618793D+02 -.131315082239520D+02 0.271799416880730D+02 -.465058387011001D+02
 0.775037658575574D+02 -.286681746145488D+01 -.347002352081700D+02 0.692423913238375D+02
 0.115458407856985D+02 0.255885956572612D+01 -.419306590097244D+01 0.104487738764744D+02
-.305413690712D-06 0.000000000000D+00 0.000000000000D+00 0.120294563806D-05 0.000000000000D+00  6 -1 22 9900012 -11 -2 21 2 0.44913033D-02 0.53742353D-01 0.37822289D+04 0.37822289D+04 0.37822289D+04 0.12557284D+01  1  2 13  1  6  1       -1 -.290096959948D-04 0.100000000000D+01
0.137549166783D-06 0.000000000000D+00 0.000000000000D+00 0.120294563806D-05 0.136755420701D-05  6 -1 22 9900012 -11 -2 21 2 0.44641308D-02 0.54069475D-01 0.37822289D+04 0.37822289D+04 0.37822289D+04 0.12557284D+01  1  2  1  1  6  1       -1 0.130451371419D-04 0.100000000000D+01
  </mgrwgt>
  </event>
  <event>
  7     66 -.61978431E-06 0.31535828E+02 0.78161638E-02 0.12404270E+00
       -1 -1    0    0    0  502 0.00000000E+00 0.00000000E+00 0.44001231E+02 0.44001231E+02 0.00000000E+00 0.0000E+00 0.9000E+01
       22 -1    0    0    0    0 0.00000000E+00 0.00000000E+00 -.16413781E+03 0.16413781E+03 0.00000000E+00 0.0000E+00 0.9000E+01
       24  2    1    2    0    0 0.13229619E+02 -.34638619E+02 -.12882078E+03 0.15901243E+03 0.85529549E+02 0.0000E+00 0.0000E+00
  9900012  1    3    3    0    0 -.16877106E+02 -.19487056E+02 -.59216964E+02 0.81677603E+02 0.50000000E+02 0.0000E+00 0.9000E+01
      -11  1    3    3    0    0 0.30106725E+02 -.15151562E+02 -.69603811E+02 0.77334826E+02 0.00000000E+00 0.0000E+00 0.9000E+01
       -2  1    1    2    0  501 -.18493552E+02 0.29832583E+02 0.16296180E+02 0.38698320E+02 0.00000000E+00 0.0000E+00 0.9000E+01
       21  1    1    2  501  502 0.52639331E+01 0.48060357E+01 -.76119850E+01 0.10428293E+02 0.00000000E+00 0.0000E+00 0.9000E+01
#aMCatNLO 2  0  0  1  5 0.11749570D+02 0.00000000D+00  -5  6  0 0.00000000D+00 0.00000000D+00 0.00000000D+00 0.00000000D+00 0.00000000D+00
  <mgrwgt>
 -.2406734318D-04    3    2    0
 0.812049086462337D+02 0.000000000000000D+00 0.000000000000000D+00 0.812049086462337D+02
 0.812049086462337D+02 0.000000000000000D+00 0.000000000000000D+00 -.812049086462337D+02
 0.572790484349223D+02 -.150042123787177D+02 -.177770814708421D+02 -.154834871680625D+02
 0.464469857980802D+02 0.316021550247511D+02 -.137862161863535D+02 -.311218015349656D+02
 0.586837830594649D+02 -.165979426460334D+02 0.315632976571956D+02 0.466052887030281D+02
 0.000000000000000D+00 0.000000000000000D+00 0.000000000000000D+00 -.000000000000000D+00
 0.839703485139118D+02 0.000000000000000D+00 0.000000000000000D+00 0.839703485139118D+02
 0.860097142504183D+02 0.000000000000000D+00 0.000000000000000D+00 -.860097142504183D+02
 0.583465547509851D+02 -.168771060357870D+02 -.194870564294083D+02 -.154834871680625D+02
 0.458753884005800D+02 0.301067250829567D+02 -.151515621274360D+02 -.311218015349656D+02
 0.583442148406075D+02 -.184935521730528D+02 0.298325828298012D+02 0.466052887030281D+02
 0.741390477215754D+01 0.526393312588307D+01 0.480603572704308D+01 -.203936573650649D+01
-.145920800834D-06 0.000000000000D+00 0.000000000000D+00 0.237134531212D-07 0.000000000000D+00  6 -1 22 9900012 -11 -2 21 2 0.71699593D-02 0.23841307D-01 0.43683290D+04 0.43683290D+04 0.43683290D+04 0.12485057D+01  1  2 13  1  6  1       -1 -.256543653080D-04 0.100000000000D+01
-.203740180997D-09 0.000000000000D+00 0.000000000000D+00 0.237134531212D-07 0.000000000000D+00  6 -1 22 9900012 -11 -2 21 2 0.65464792D-02 0.23841307D-01 0.39241670D+04 0.39241670D+04 0.39241670D+04 0.12538693D+01  1  2  8  1  6  1       -1 -.407270631641D-07 0.100000000000D+01
0.929021409240D-08 0.000000000000D+00 0.000000000000D+00 0.237134531212D-07 0.277900678925D-09  6 -1 22 9900012 -11 -2 21 2 0.67694201D-02 0.25251971D-01 0.43683290D+04 0.43683290D+04 0.43683290D+04 0.12485057D+01  1  2  1  1  6  1       -1 0.162774919248D-05 0.100000000000D+01
  </mgrwgt>
  </event>
  <event>
  6     66 -.61978431E-06 0.21466377E+02 0.78161638E-02 0.12947524E+00
       -1 -1    0    0    0  501 0.00000000E+00 0.00000000E+00 0.23276860E+03 0.23276860E+03 0.00000000E+00 0.0000E+00 0.9000E+01
       22 -1    0    0    0    0 -.00000000E+00 -.00000000E+00 -.43403553E+03 0.43403553E+03 0.00000000E+00 0.0000E+00 0.9000E+01
       24  2    1    2    0    0 0.13783598E+02 0.16456542E+02 -.42952585E+03 0.43753803E+03 0.80537376E+02 0.0000E+00 0.0000E+00
  9900012  1    3    3    0    0 0.86329270E+01 -.11230040E+02 -.33144369E+03 0.33549301E+03 0.50000000E+02 0.0000E+00 0.9000E+01
      -11  1    3    3    0    0 0.51506708E+01 0.27686581E+02 -.98082159E+02 0.10204502E+03 0.00000000E+00 0.0000E+00 0.9000E+01
       -2  1    1    2    0  501 -.13783598E+02 -.16456542E+02 0.22825892E+03 0.22926609E+03 0.00000000E+00 0.0000E+00 0.9000E+01
#aMCatNLO 1  0  0  5  1 0.18848834D+02 0.00000000D+00  -5  6  0 0.00000000D+00 0.00000000D+00 0.00000000D+00 0.00000000D+00 0.00000000D+00
  <mgrwgt>
 -.5698582099D-04    1    2    0
 0.317851916316030D+03 0.000000000000000D+00 0.000000000000000D+00 0.317851916316030D+03
 0.317851916316030D+03 -.000000000000000D+00 -.000000000000000D+00 -.317851916316030D+03
 0.246969520532681D+03 0.863292701097579D+01 -.112300396918076D+02 -.241440060577954D+03
 0.759840394654108D+02 0.515067075360754D+01 0.276865814028048D+02 -.705726438111462D+02
 0.312750272633968D+03 -.137835977645834D+02 -.164565417109972D+02 0.312012704389100D+03
 0.000000000000000D+00 0.000000000000000D+00 0.000000000000000D+00 0.000000000000000D+00
 0.317851916316030D+03 0.000000000000000D+00 0.000000000000000D+00 0.317851916316030D+03
 0.317851916316030D+03 -.000000000000000D+00 -.000000000000000D+00 -.317851916316030D+03
 0.239878588670690D+03 0.831196869716882D+01 -.116132389093753D+02 -.234174680871039D+03
 0.738608397553163D+02 0.505188437884686D+01 0.275686381687890D+02 -.683364639347228D+02
 0.576258360889895D+02 -.413639984984360D+02 -.380985712525647D+01 0.399404757340420D+02
 0.264338568117065D+03 0.280001454224203D+02 -.121455421341573D+02 0.262570669071720D+03
-.191258855968D-04 0.000000000000D+00 0.000000000000D+00 0.227918939873D-03 0.000000000000D+00  6 -1 22 9900012 -11 -2 21 2 0.35810553D-01 0.66774696D-01 0.25804205D+04 0.25804205D+04 0.25804205D+04 0.12755524D+01  1  2 14  2  6  5       -2 -.569858209850D-04 0.100000000000D+01
  </mgrwgt>
  </event>
</LesHouchesEvents>
