<LesHouchesEvents version="3.0">
  <!--
  <scalesfunctionalform>
    muR  H_T/2 := sum_i mT(i)/2, i=final state
    muF1 H_T/2 := sum_i mT(i)/2, i=final state
    muF2 H_T/2 := sum_i mT(i)/2, i=final state
    QES  H_T/2 := sum_i mT(i)/2, i=final state
  </scalesfunctionalform>
PYTHIA8   
  -->
  <header>
       12
  </header>
  <init>
   2212   2212 0.65000000D+04 0.65000000D+04 -1 -1  82200  82200 -4   1
 0.16941023D-04 0.32562620D-06 0.17582409D-05     66
  </init>
  <event>
  6     66 -.17582409E-05 0.55225935E+01 0.78161638E-02 0.13010485E+00
       22 -1    0    0    0    0 0.00000000E+00 0.00000000E+00 0.36337994E+02 0.36337994E+02 0.00000000E+00 0.0000E+00 0.9000E+01
       -2 -1    0    0    0  501 0.00000000E+00 0.00000000E+00 -.68864944E+02 0.68864944E+02 0.00000000E+00 0.0000E+00 0.9000E+01
      -24  2    1    2    0    0 -.55208609E+01 -.13832664E+00 -.18507880E+02 0.90135311E+02 0.88041659E+02 0.0000E+00 0.0000E+00
  9900012  1    3    3    0    0 -.30753835E+02 -.99929940E+01 -.20494074E+02 0.62973529E+02 0.50000000E+02 0.0000E+00 0.9000E+01
       11  1    3    3    0    0 0.25232974E+02 0.98546674E+01 0.19861941E+01 0.27161782E+02 0.00000000E+00 0.0000E+00 0.9000E+01
       -1  1    1    2    0  501 0.55208609E+01 0.13832664E+00 -.14019070E+02 0.15067626E+02 0.00000000E+00 0.0000E+00 0.9000E+01
#aMCatNLO 1  0  0  2  5 0.64380060D+01 0.00000000D+00  -5  6  0 0.00000000D+00 0.00000000D+00 0.00000000D+00 0.00000000D+00 0.00000000D+00
  <mgrwgt>
 -.2750091224D-04    7    4    0
 0.500241330864616D+02 0.000000000000000D+00 0.000000000000000D+00 0.500241330864616D+02
 0.500241330864616D+02 0.000000000000000D+00 0.000000000000000D+00 -.500241330864616D+02
 0.595551600691922D+02 -.307538347619940D+02 -.999299399610008D+01 -.107648004764715D+01
 0.292069438895132D+02 0.252329738713293D+02 0.985466735130109D+01 0.109191635379816D+02
 0.112861622142177D+02 0.552086089066472D+01 0.138326644798991D+00 -.984268349033449D+01
 0.000000000000000D+00 0.000000000000000D+00 -.000000000000000D+00 -.000000000000000D+00
 0.502220233703505D+02 0.000000000000000D+00 0.000000000000000D+00 0.502220233703505D+02
 0.159233151166435D+03 0.000000000000000D+00 0.000000000000000D+00 -.159233151166435D+03
 0.598249545304257D+02 -.321927247948416D+02 -.644164928866153D+01 -.107648004764715D+01
 0.292452138393181D+02 0.245284492741086D+02 0.115935144087432D+02 0.109191635379816D+02
 0.111844560718529D+02 0.525002224394212D+01 0.806787314239197D+00 -.984268349033449D+01
 0.109200550095188D+03 0.241425327679082D+01 -.595865243432088D+01 -.109011127796084D+03
 0.500241330864616D+02 0.000000000000000D+00 0.000000000000000D+00 0.500241330864616D+02
 0.500241330864616D+02 0.000000000000000D+00 0.000000000000000D+00 -.500241330864616D+02
 0.595551600691922D+02 -.307538347619940D+02 -.999299399610008D+01 -.107648004764715D+01
 0.292069438895132D+02 0.252329738713293D+02 0.985466735130109D+01 0.109191635379816D+02
 0.000000000000000D+00 0.000000000000000D+00 -.000000000000000D+00 -.000000000000000D+00
 0.112861622142177D+02 0.552086089066472D+01 0.138326644798991D+00 -.984268349033449D+01
 0.502220233703505D+02 0.000000000000000D+00 0.000000000000000D+00 0.502220233703505D+02
 0.159233151166435D+03 0.000000000000000D+00 0.000000000000000D+00 -.159233151166435D+03
 0.598249545304257D+02 -.321927247948416D+02 -.644164928866153D+01 -.107648004764715D+01
 0.292452138393181D+02 0.245284492741086D+02 0.115935144087432D+02 0.109191635379816D+02
 0.109200550095188D+03 0.241425327679082D+01 -.595865243432088D+01 -.109011127796084D+03
 0.111844560718529D+02 0.525002224394212D+01 0.806787314239197D+00 -.984268349033449D+01
0.184718979497D-08 0.000000000000D+00 0.000000000000D+00 0.187913480045D-08 0.000000000000D+00  6 22 -2 9900012 11 -1 21 0 0.55904606D-02 0.10594607D-01 0.21232323D+04 0.21232323D+04 0.21232323D+04 0.12860404D+01  1  2  2  1  6  2       -2 0.825417528015D-06 0.100000000000D+01
0.355592763134D-09 0.000000000000D+00 -.354684759446D-11 0.187913480045D-08 0.000000000000D+00  6 22 -2 9900012 11 -1 21 2 0.55904606D-02 0.10594607D-01 0.21232323D+04 0.21232323D+04 0.21232323D+04 0.12860404D+01  1  2  3  1  6  2       -2 0.262799363387D-06 0.100000000000D+01
-.126845825374D-09 0.000000000000D+00 0.000000000000D+00 0.187913480045D-08 0.000000000000D+00  6 22 -2 9900012 11 -1 21 2 0.55904606D-02 0.10594607D-01 0.21232323D+04 0.21232323D+04 0.21232323D+04 0.12860404D+01  1  2 15  1  6  2       -2 -.937448835087D-07 0.100000000000D+01
-.112193186952D-06 0.000000000000D+00 -.621652291256D-09 0.187913480045D-08 0.000000000000D+00  6 22 -2 9900012 11 -1 21 2 0.55904606D-02 0.33761082D-01 0.21232323D+04 0.21232323D+04 0.21232323D+04 0.12860404D+01  1  2  5  1  6  2       -2 -.134251083054D-04 0.100000000000D+01
0.194688817236D-07 0.000000000000D+00 0.000000000000D+00 0.187913480045D-08 0.114081643416D-08  6 22 -2 9900012 11 -1 21 2 0.56125758D-02 0.33723975D-01 0.24347517D+04 0.24347517D+04 0.24347517D+04 0.12786500D+01  1  2 11  1  6  2       -2 0.232531153779D-05 0.100000000000D+01
-.149357367642D-07 0.000000000000D+00 -.829081518604D-10 0.187913480045D-08 0.000000000000D+00  6 22 21 9900012 11 2 -1 2 0.55904606D-02 0.33761082D-01 0.21232323D+04 0.21232323D+04 0.21232323D+04 0.12860404D+01  3  4  5  3  5  2       -2 -.220083697067D-04 0.100000000000D+01
0.314507501161D-08 0.000000000000D+00 0.000000000000D+00 0.187913480045D-08 0.176513301363D-09  6 22 21 9900012 11 2 -1 2 0.56125758D-02 0.33723975D-01 0.24347517D+04 0.24347517D+04 0.24347517D+04 0.12786500D+01  3  4 11  3  5  2       -2 0.461278222474D-05 0.100000000000D+01
  </mgrwgt>
  </event>
  <event>
  6     66 0.17582409E-05 0.27136425E+02 0.78161638E-02 0.13010477E+00
       22 -1    0    0    0    0 0.00000000E+00 0.00000000E+00 0.11361343E+03 0.11361343E+03 0.00000000E+00 0.0000E+00 0.9000E+01
       -2 -1    0    0    0  501 0.00000000E+00 0.00000000E+00 -.30893159E+02 0.30893159E+02 0.00000000E+00 0.0000E+00 0.9000E+01
      -24  2    1    2    0    0 -.13606255E+02 -.23478828E+02 0.37862820E+02 0.92079720E+02 0.79427301E+02 0.0000E+00 0.0000E+00
  9900012  1    3    3    0    0 -.18134036E+02 -.11582855E+02 0.24943963E+01 0.54490621E+02 0.50000000E+02 0.0000E+00 0.9000E+01
       11  1    3    3    0    0 0.45277811E+01 -.11895973E+02 0.35368423E+02 0.37589099E+02 0.00000000E+00 0.0000E+00 0.9000E+01
       -1  1    1    2    0  501 0.13606255E+02 0.23478828E+02 0.44857447E+02 0.52426864E+02 0.00000000E+00 0.0000E+00 0.9000E+01
#aMCatNLO 1  0  0  2  5 0.10970455D+02 0.00000000D+00  -5  6  0 0.00000000D+00 0.00000000D+00 0.00000000D+00 0.00000000D+00 0.00000000D+00
  <mgrwgt>
 0.1974034736D-04    6    4    0
 0.592442199407635D+02 0.000000000000000D+00 0.000000000000000D+00 0.592442199407635D+02
 0.592442199407635D+02 0.000000000000000D+00 0.000000000000000D+00 -.592442199407635D+02
 0.647144685605021D+02 -.181340356796290D+02 -.115828550382004D+02 -.349993808545550D+02
 0.211513196876383D+02 0.452778108659908D+01 -.118959732287021D+02 0.168927009060870D+02
 0.326226516333866D+02 0.136062545930299D+02 0.234788282669025D+02 0.181066799484680D+02
 0.000000000000000D+00 0.000000000000000D+00 -.000000000000000D+00 0.000000000000000D+00
 0.644655511613305D+02 0.000000000000000D+00 0.000000000000000D+00 0.644655511613305D+02
 0.602553465973430D+02 0.000000000000000D+00 0.000000000000000D+00 -.602553465973430D+02
 0.650636331942470D+02 -.201288752920750D+02 -.101561845054835D+02 -.349993808545550D+02
 0.207655461392954D+02 0.388347034965233D+01 -.114351747080692D+02 0.168927009060870D+02
 0.327439204129281D+02 0.126014947338187D+02 0.241974129965469D+02 0.181066799484680D+02
 0.614779801220298D+01 0.364391020860396D+01 -.260605378299409D+01 0.421020456398748D+01
 0.592442199407635D+02 0.000000000000000D+00 0.000000000000000D+00 0.592442199407635D+02
 0.592442199407635D+02 0.000000000000000D+00 0.000000000000000D+00 -.592442199407635D+02
 0.647144685605021D+02 -.181340356796290D+02 -.115828550382004D+02 -.349993808545550D+02
 0.211513196876383D+02 0.452778108659908D+01 -.118959732287021D+02 0.168927009060870D+02
 0.000000000000000D+00 0.000000000000000D+00 -.000000000000000D+00 0.000000000000000D+00
 0.326226516333866D+02 0.136062545930299D+02 0.234788282669025D+02 0.181066799484680D+02
 0.644655511613305D+02 0.000000000000000D+00 0.000000000000000D+00 0.644655511613305D+02
 0.602553465973430D+02 0.000000000000000D+00 0.000000000000000D+00 -.602553465973430D+02
 0.650636331942470D+02 -.201288752920750D+02 -.101561845054835D+02 -.349993808545550D+02
 0.207655461392954D+02 0.388347034965233D+01 -.114351747080692D+02 0.168927009060870D+02
 0.614779801220298D+01 0.364391020860396D+01 -.260605378299409D+01 0.421020456398748D+01
 0.327439204129281D+02 0.126014947338187D+02 0.241974129965469D+02 0.181066799484680D+02
0.314533837132D-07 0.000000000000D+00 0.000000000000D+00 0.798843101097D-07 0.000000000000D+00  6 22 -2 9900012 11 -1 21 0 0.17478989D-01 0.47527937D-02 0.22230487D+04 0.22230487D+04 0.22230487D+04 0.12835456D+01  1  2  2  1  6  2       -2 0.927709476201D-05 0.100000000000D+01
-.149615915200D-08 0.000000000000D+00 -.603946376624D-10 0.798843101097D-07 0.000000000000D+00  6 22 -2 9900012 11 -1 21 2 0.17478989D-01 0.47527937D-02 0.22230487D+04 0.22230487D+04 0.22230487D+04 0.12835456D+01  1  2  3  1  6  2       -2 -.727017773993D-06 0.100000000000D+01
0.999539186494D-10 0.000000000000D+00 0.000000000000D+00 0.798843101097D-07 0.000000000000D+00  6 22 -2 9900012 11 -1 21 2 0.17478989D-01 0.47527937D-02 0.22230487D+04 0.22230487D+04 0.22230487D+04 0.12835456D+01  1  2 15  1  6  2       -2 0.485698833185D-07 0.100000000000D+01
0.261450293604D-07 0.000000000000D+00 0.000000000000D+00 0.798843101097D-07 0.000000000000D+00  6 22 -2 9900012 11 -1 21 2 0.17478989D-01 0.52599338D-02 0.24347694D+04 0.24347694D+04 0.24347694D+04 0.12786496D+01  1  2 12  1  6  2       -2 0.110183909647D-04 0.100000000000D+01
-.575719290840D-08 0.000000000000D+00 0.000000000000D+00 0.798843101097D-07 0.000000000000D+00  6 22 -2 9900012 11 -1 21 2 0.17478989D-01 0.47527937D-02 0.22230487D+04 0.22230487D+04 0.22230487D+04 0.12835456D+01  1  2  4  1  6  2       -2 -.279755102733D-05 0.100000000000D+01
0.430323547431D-09 0.000000000000D+00 0.000000000000D+00 0.798843101097D-07 0.000000000000D+00  6 22 21 9900012 11 2 -1 2 0.17478989D-01 0.52599338D-02 0.24347694D+04 0.24347694D+04 0.24347694D+04 0.12786496D+01  3  4 12  3  5  2       -2 0.292086055026D-05 0.100000000000D+01
  </mgrwgt>
  </event>
  <event>
  7     66 0.17582409E-05 0.12908283E+02 0.78161638E-02 0.13640536E+00
       22 -1    0    0    0    0 0.00000000E+00 0.00000000E+00 0.55630886E+03 0.55630886E+03 0.00000000E+00 0.0000E+00 0.9000E+01
       -2 -1    0    0    0  502 0.00000000E+00 0.00000000E+00 -.73040723E+01 0.73040723E+01 0.00000000E+00 0.0000E+00 0.9000E+01
      -24  2    1    2    0    0 0.85748588E+01 0.95308100E+01 0.30509726E+03 0.31491605E+03 0.76963753E+02 0.0000E+00 0.0000E+00
  9900012  1    3    3    0    0 0.16013586E+02 0.11946670E+02 0.14576155E+03 0.15538851E+03 0.50000000E+02 0.0000E+00 0.9000E+01
       11  1    3    3    0    0 -.74387270E+01 -.24158603E+01 0.15933570E+03 0.15952754E+03 0.00000000E+00 0.0000E+00 0.9000E+01
       -1  1    1    2    0  501 0.53783067E-01 0.22412992E+00 0.22859448E+03 0.22859460E+03 0.00000000E+00 0.0000E+00 0.9000E+01
       21  1    1    2  501  502 -.86286419E+01 -.97549399E+01 0.15313053E+02 0.20102286E+02 0.00000000E+00 0.0000E+00 0.9000E+01
#aMCatNLO 2  0  0  2  5 0.17975450D+02 0.00000000D+00  -5  6  0 0.00000000D+00 0.00000000D+00 0.00000000D+00 0.00000000D+00 0.00000000D+00
  <mgrwgt>
 0.1389661339D-02    1    2    0
 0.510081920152330D+02 0.000000000000000D+00 0.000000000000000D+00 0.510081920152330D+02
 0.510081920152330D+02 0.000000000000000D+00 0.000000000000000D+00 -.510081920152330D+02
 0.628218446822844D+02 0.106385136195623D+02 0.586998907816432D+01 -.360409409626564D+02
 0.172180527273774D+02 -.884738330630282D+01 -.400838878773524D+01 0.142168198863339D+02
 0.219764866208042D+02 -.179113031325949D+01 -.186160029042908D+01 0.218241210763224D+02
 0.000000000000000D+00 -.000000000000000D+00 -.000000000000000D+00 -.000000000000000D+00
 0.531127757149431D+02 0.000000000000000D+00 0.000000000000000D+00 0.531127757149431D+02
 0.765036305206853D+02 0.000000000000000D+00 0.000000000000000D+00 -.765036305206853D+02
 0.647928027406324D+02 0.160135858109649D+02 0.119466702887327D+02 -.360409409626564D+02
 0.162261827894260D+02 -.743872698103522D+01 -.241586033061169D+01 0.142168198863339D+02
 0.218253382011579D+02 0.537830668869861D-01 0.224129923612375D+00 0.218241210763224D+02
 0.267720825044120D+02 -.862864189681663D+01 -.975493988173339D+01 -.233908548057422D+02
0.496405843953D-05 0.000000000000D+00 0.000000000000D+00 0.455416214276D-06 0.277412673398D-05  6 22 -2 9900012 11 -1 21 2 0.85585979D-01 0.11237034D-02 0.14032157D+04 0.14032157D+04 0.14032157D+04 0.13092442D+01  1  2  1  1  6  2       -2 0.138966133915D-02 0.100000000000D+01
  </mgrwgt>
  </event>
  <event>
  6     66 0.17582409E-05 0.10066458E+03 0.78161638E-02 0.10962730E+00
       22 -1    0    0    0    0 0.00000000E+00 0.00000000E+00 0.13872762E+04 0.13872762E+04 0.00000000E+00 0.0000E+00 0.9000E+01
       -2 -1    0    0    0  501 0.00000000E+00 0.00000000E+00 -.12931568E+02 0.12931568E+02 0.00000000E+00 0.0000E+00 0.9000E+01
      -24  2    1    2    0    0 -.93063824E+02 -.80905333E+02 0.80264273E+03 0.81535769E+03 0.73254787E+02 0.0000E+00 0.0000E+00
  9900012  1    3    3    0    0 -.56448781E+02 -.33374479E+02 0.41701778E+03 0.42509311E+03 0.50000000E+02 0.0000E+00 0.9000E+01
       11  1    3    3    0    0 -.36615044E+02 -.47530854E+02 0.38562495E+03 0.39026459E+03 0.00000000E+00 0.0000E+00 0.9000E+01
       -1  1    1    2    0  501 0.93063824E+02 0.80905333E+02 0.57170193E+03 0.58485010E+03 0.00000000E+00 0.0000E+00 0.9000E+01
#aMCatNLO 1  0  0  2  5 0.45231851D+02 0.00000000D+00  -5  6  0 0.00000000D+00 0.00000000D+00 0.00000000D+00 0.00000000D+00 0.00000000D+00
  <mgrwgt>
 0.1187784249D-04    9    4    0
 0.133939003718037D+03 0.000000000000000D+00 0.000000000000000D+00 0.133939003718037D+03
 0.133939003718037D+03 0.000000000000000D+00 0.000000000000000D+00 -.133939003718037D+03
 0.824723289131857D+02 -.564487806213208D+02 -.333744791998045D+02 -.116805002996542D+01
 0.614829204209505D+02 -.366150438706046D+02 -.475308537450318D+02 0.134278072711455D+02
 0.123922758101938D+03 0.930638244919253D+02 0.809053329448363D+02 -.122597572411801D+02
 0.000000000000000D+00 0.000000000000000D+00 0.000000000000000D+00 -.000000000000000D+00
 0.149330689309439D+03 0.000000000000000D+00 0.000000000000000D+00 0.149330689309439D+03
 0.155946425282328D+03 0.000000000000000D+00 0.000000000000000D+00 -.155946425282328D+03
 0.909058402275628D+02 -.629617752748515D+02 -.424066303877799D+02 -.116805002996542D+01
 0.697273236262468D+02 -.415439897823249D+02 -.543662631135744D+02 0.134278072711455D+02
 0.109464016243458D+03 0.842965914484021D+02 0.687470281155228D+02 -.122597572411801D+02
 0.351799344944998D+02 0.202091736087743D+02 0.280258653858316D+02 -.661573597288815D+01
 0.133939003718037D+03 0.000000000000000D+00 0.000000000000000D+00 0.133939003718037D+03
 0.133939003718037D+03 0.000000000000000D+00 0.000000000000000D+00 -.133939003718037D+03
 0.824723289131857D+02 -.564487806213208D+02 -.333744791998045D+02 -.116805002996542D+01
 0.614829204209505D+02 -.366150438706046D+02 -.475308537450318D+02 0.134278072711455D+02
 0.000000000000000D+00 0.000000000000000D+00 0.000000000000000D+00 -.000000000000000D+00
 0.123922758101938D+03 0.930638244919253D+02 0.809053329448363D+02 -.122597572411801D+02
 0.149330689309439D+03 0.000000000000000D+00 0.000000000000000D+00 0.149330689309439D+03
 0.155946425282328D+03 0.000000000000000D+00 0.000000000000000D+00 -.155946425282328D+03
 0.909058402275628D+02 -.629617752748515D+02 -.424066303877799D+02 -.116805002996542D+01
 0.697273236262468D+02 -.415439897823249D+02 -.543662631135744D+02 0.134278072711455D+02
 0.351799344944998D+02 0.202091736087743D+02 0.280258653858316D+02 -.661573597288815D+01
 0.109464016243458D+03 0.842965914484021D+02 0.687470281155228D+02 -.122597572411801D+02
0.460110686912D-06 0.000000000000D+00 0.000000000000D+00 0.277652074864D-08 0.000000000000D+00  6 22 -2 9900012 11 -1 21 0 0.21342711D+00 0.19894720D-02 0.17659431D+05 0.17659431D+05 0.17659431D+05 0.11845338D+01  1  2  2  1  6  2       -2 0.639766042698D-05 0.100000000000D+01
-.183401172142D-07 0.000000000000D+00 -.883473093834D-09 0.277652074864D-08 0.000000000000D+00  6 22 -2 9900012 11 -1 21 2 0.21342711D+00 0.19894720D-02 0.17659431D+05 0.17659431D+05 0.17659431D+05 0.11845338D+01  1  2  3  1  6  2       -2 -.357812812237D-06 0.100000000000D+01
0.119879088575D-07 0.000000000000D+00 0.000000000000D+00 0.277652074864D-08 0.000000000000D+00  6 22 -2 9900012 11 -1 21 2 0.21342711D+00 0.19894720D-02 0.17659431D+05 0.17659431D+05 0.17659431D+05 0.11845338D+01  1  2 15  1  6  2       -2 0.233882222837D-06 0.100000000000D+01
0.283131910339D-06 0.000000000000D+00 0.000000000000D+00 0.277652074864D-08 0.000000000000D+00  6 22 -2 9900012 11 -1 21 2 0.21342711D+00 0.25825468D-02 0.22898968D+05 0.22898968D+05 0.22898968D+05 0.11737194D+01  1  2 12  1  6  2       -2 0.380927823595D-05 0.100000000000D+01
-.547240674115D-07 0.000000000000D+00 0.000000000000D+00 0.277652074864D-08 0.000000000000D+00  6 22 -2 9900012 11 -1 21 2 0.21342711D+00 0.19894720D-02 0.17659431D+05 0.17659431D+05 0.17659431D+05 0.11845338D+01  1  2  4  1  6  2       -2 -.106765797780D-05 0.100000000000D+01
-.820700580021D-06 0.000000000000D+00 -.267820125410D-06 0.277652074864D-08 0.000000000000D+00  6 22 -2 9900012 11 -1 21 2 0.21342711D+00 0.26076713D-02 0.17659431D+05 0.17659431D+05 0.17659431D+05 0.11845338D+01  1  2  5  1  6  2       -2 -.108507725596D-04 0.100000000000D+01
0.870616389637D-06 0.000000000000D+00 0.258305957078D-06 0.277652074864D-08 0.000000000000D+00  6 22 -2 9900012 11 -1 21 2 0.21342711D+00 0.19894720D-02 0.17659431D+05 0.17659431D+05 0.17659431D+05 0.11845338D+01  1  2  6  1  6  2       -2 0.169855893022D-04 0.100000000000D+01
0.988778567344D-08 0.000000000000D+00 0.000000000000D+00 0.277652074864D-08 0.000000000000D+00  6 22 21 9900012 11 2 -1 2 0.21342711D+00 0.25825468D-02 0.22898968D+05 0.22898968D+05 0.22898968D+05 0.11737194D+01  3  4 12  3  5  2       -2 0.231016717155D-05 0.100000000000D+01
-.243325783977D-07 0.000000000000D+00 -.960566342893D-08 0.277652074864D-08 0.000000000000D+00  6 22 21 9900012 11 2 -1 2 0.21342711D+00 0.26076713D-02 0.17659431D+05 0.17659431D+05 0.17659431D+05 0.11845338D+01  3  4  5  3  5  2       -2 -.558249152222D-05 0.100000000000D+01
  </mgrwgt>
  </event>
  <event>
  7     66 0.17582409E-05 0.16734588E+02 0.78161638E-02 0.13037604E+00
       22 -1    0    0    0    0 0.00000000E+00 0.00000000E+00 0.16610215E+04 0.16610215E+04 0.00000000E+00 0.0000E+00 0.9000E+01
       -2 -1    0    0    0  502 0.00000000E+00 0.00000000E+00 -.33903352E+01 0.33903352E+01 0.00000000E+00 0.0000E+00 0.9000E+01
      -24  2    1    2    0    0 0.53962917E+01 -.16034540E+02 0.10692593E+04 0.10725005E+04 0.81581983E+02 0.0000E+00 0.0000E+00
  9900012  1    3    3    0    0 -.14976876E+01 0.11969418E+02 0.53609204E+03 0.53855379E+03 0.50000000E+02 0.0000E+00 0.9000E+01
       11  1    3    3    0    0 0.68939792E+01 -.28003957E+02 0.53316729E+03 0.53394673E+03 0.00000000E+00 0.0000E+00 0.9000E+01
       -1  1    1    2    0  501 -.29860294E+00 -.65076350E-01 0.54985444E+03 0.54985453E+03 0.00000000E+00 0.0000E+00 0.9000E+01
       21  1    1    2  501  502 -.50976887E+01 0.16099616E+02 0.38517396E+02 0.42056793E+02 0.00000000E+00 0.0000E+00 0.9000E+01
#aMCatNLO 2  0  0  2  5 0.35353464D+01 0.00000000D+00  -5  6  0 0.00000000D+00 0.00000000D+00 0.00000000D+00 0.00000000D+00 0.00000000D+00
  <mgrwgt>
 0.1400201643D-02    1    2    0
 0.505502253853373D+02 0.000000000000000D+00 0.000000000000000D+00 0.505502253853373D+02
 0.505502253853373D+02 0.000000000000000D+00 0.000000000000000D+00 -.505502253853373D+02
 0.586722600515367D+02 -.436669886416756D+01 0.210303828519618D+02 -.219337419900193D+02
 0.247938420136591D+02 0.554219482292399D+01 -.237347265083315D+02 0.454768467659659D+01
 0.176343487054787D+02 -.117549595875644D+01 0.270434365636960D+01 0.173860573134227D+02
 0.000000000000000D+00 -.000000000000000D+00 0.000000000000000D+00 -.000000000000000D+00
 0.525245250072688D+02 0.000000000000000D+00 0.000000000000000D+00 0.525245250072688D+02
 0.107215050949968D+03 0.000000000000000D+00 0.000000000000000D+00 -.107215050949968D+03
 0.559160000552130D+02 -.149768758608156D+01 0.119694175457431D+02 -.219337419900193D+02
 0.291964042283998D+02 0.689397924857811D+01 -.280039574715886D+02 0.454768467659659D+01
 0.173887431274361D+02 -.298602938751894D+00 -.650763498240474D-01 0.173860573134227D+02
 0.572384285461878D+02 -.509768872374465D+01 0.160996162756696D+02 -.546905259426992D+02
0.195582817811D-04 0.000000000000D+00 0.000000000000D+00 0.538507937920D-06 0.216513288905D-05  6 22 -2 9900012 11 -1 21 2 0.25554177D+00 0.52159003D-03 0.23749823D+04 0.23749823D+04 0.23749823D+04 0.12799819D+01  1  2  1  1  6  2       -2 0.140020164339D-02 0.100000000000D+01
  </mgrwgt>
  </event>
  <event>
  7     66 0.17582409E-05 0.58410653E+01 0.78161638E-02 0.13355878E+00
       22 -1    0    0    0    0 0.00000000E+00 0.00000000E+00 0.48346133E+03 0.48346133E+03 0.00000000E+00 0.0000E+00 0.9000E+01
       -4 -1    0    0    0  502 0.00000000E+00 0.00000000E+00 -.13218233E+02 0.13218233E+02 0.00000000E+00 0.0000E+00 0.9000E+01
      -24  2    1    2    0    0 0.56861407E+01 0.15130904E+01 0.30067733E+03 0.31165143E+03 0.81762707E+02 0.0000E+00 0.0000E+00
  9900012  1    3    3    0    0 0.10680555E+02 -.21246250E+02 0.16645520E+03 0.17542181E+03 0.50000000E+02 0.0000E+00 0.9000E+01
       11  1    3    3    0    0 -.49944144E+01 0.22759340E+02 0.13422212E+03 0.13622962E+03 0.00000000E+00 0.0000E+00 0.9000E+01
       -3  1    1    2    0  501 -.12742346E-01 -.39266967E-01 0.17618588E+03 0.17618588E+03 0.00000000E+00 0.0000E+00 0.9000E+01
       21  1    1    2  501  502 -.56733984E+01 -.14738234E+01 -.66201039E+01 0.88422497E+01 0.00000000E+00 0.0000E+00 0.9000E+01
#aMCatNLO 2  0  0  2  2 0.17412174D+03 0.00000000D+00  -5  6  0 0.00000000D+00 0.00000000D+00 0.00000000D+00 0.00000000D+00 0.00000000D+00
  <mgrwgt>
 0.1006298812D-01    1    2    0
 0.513623713263976D+02 0.000000000000000D+00 0.000000000000000D+00 0.513623713263976D+02
 0.513623713263976D+02 0.000000000000000D+00 0.000000000000000D+00 -.513623713263976D+02
 0.600796113369717D+02 0.735994688142378D+01 -.221088702706118D+02 -.238031244936764D+02
 0.238218550558572D+02 -.630933461622340D+01 0.224177528926041D+02 0.501172926732203D+01
 0.188232762599663D+02 -.105061226520038D+01 -.308882621992315D+00 0.187913952263544D+02
 0.000000000000000D+00 -.000000000000000D+00 -.000000000000000D+00 -.000000000000000D+00
 0.515644273919924D+02 0.000000000000000D+00 0.000000000000000D+00 0.515644273919924D+02
 0.123932427132173D+03 0.000000000000000D+00 0.000000000000000D+00 -.123932427132173D+03
 0.602666252483300D+02 0.106805551260705D+02 -.212462496775352D+02 -.238031244936764D+02
 0.238337820480287D+02 -.499441438306024D+01 0.227593400922409D+02 0.501172926732203D+01
 0.187914405731751D+02 -.127423460388638D-01 -.392669674968382D-01 0.187913952263544D+02
 0.726050066546318D+02 -.567339839697137D+01 -.147382344720887D+01 -.723679997401809D+02
0.891041471239D-04 0.000000000000D+00 0.000000000000D+00 0.362411856608D-05 0.929688645328D-03  6 22 -4 9900012 11 -3 21 2 0.74378666D-01 0.20335743D-02 0.17880482D+04 0.17880482D+04 0.17880482D+04 0.12955112D+01  1  2  1  1  6  2       -4 0.100629881195D-01 0.100000000000D+01
  </mgrwgt>
  </event>
  <event>
  6     66 0.17582409E-05 0.82792915E+01 0.78161638E-02 0.13246987E+00
       22 -1    0    0    0    0 0.00000000E+00 0.00000000E+00 0.25407711E+03 0.25407711E+03 0.00000000E+00 0.0000E+00 0.9000E+01
       -2 -1    0    0    0  501 0.00000000E+00 0.00000000E+00 -.12050971E+02 0.12050971E+02 0.00000000E+00 0.0000E+00 0.9000E+01
      -24  2    1    2    0    0 -.81209934E+01 0.16112526E+01 0.12370353E+03 0.14751617E+03 0.79936909E+02 0.0000E+00 0.0000E+00
  9900012  1    3    3    0    0 0.16948101E+02 0.10351922E+02 0.81448773E+02 0.97613027E+02 0.50000000E+02 0.0000E+00 0.9000E+01
       11  1    3    3    0    0 -.25069095E+02 -.87406699E+01 0.42254761E+02 0.49903142E+02 0.00000000E+00 0.0000E+00 0.9000E+01
       -1  1    1    2    0  501 0.81209934E+01 -.16112526E+01 0.11832260E+03 0.11861191E+03 0.00000000E+00 0.0000E+00 0.9000E+01
#aMCatNLO 1  0  0  5  2 0.15940441D+01 0.00000000D+00  -5  6  0 0.00000000D+00 0.00000000D+00 0.00000000D+00 0.00000000D+00 0.00000000D+00
  <mgrwgt>
 0.2329609807D-03    8    2    0
 0.553342196127683D+02 0.000000000000000D+00 0.000000000000000D+00 0.553342196127683D+02
 0.553342196127683D+02 -.000000000000000D+00 -.000000000000000D+00 -.553342196127683D+02
 0.566090524437379D+02 0.169481014264788D+02 0.103519224941308D+02 -.176120520465722D+02
 0.275947771879373D+02 -.250690947787964D+02 -.874066988677260D+01 -.752415476675574D+01
 0.264646095938614D+02 0.812099335231756D+01 -.161125260735816D+01 0.251362068133279D+02
 0.000000000000000D+00 0.000000000000000D+00 -.000000000000000D+00 0.000000000000000D+00
 0.553342196127683D+02 0.000000000000000D+00 0.000000000000000D+00 0.553342196127683D+02
 0.553342196127683D+02 -.000000000000000D+00 -.000000000000000D+00 -.553342196127683D+02
 0.565735554120487D+02 0.169991544876374D+02 0.103417932680205D+02 -.174540319315368D+02
 0.275528353676919D+02 -.250442194513067D+02 -.874560529732373D+01 -.744716032171632D+01
 0.480447322450884D+01 -.779427031849347D-01 0.263094242981862D-01 0.480376890724725D+01
 0.217375752212872D+02 0.812300766685422D+01 -.162249739499498D+01 0.200974233460058D+02
0.528120315691D-09 0.000000000000D+00 0.000000000000D+00 0.208535607398D-06 0.000000000000D+00  6 22 -2 9900012 11 -1 21 0 0.39088785D-01 0.18539956D-02 0.19637351D+04 0.19637351D+04 0.19637351D+04 0.12903169D+01  1  2  2  2  6  5       -1 0.171705730907D-06 0.100000000000D+01
-.232847289678D-10 0.000000000000D+00 -.101406053476D-11 0.208535607398D-06 0.000000000000D+00  6 22 -2 9900012 11 -1 21 2 0.39088785D-01 0.18539956D-02 0.19637351D+04 0.19637351D+04 0.19637351D+04 0.12903169D+01  1  2  3  2  6  5       -1 -.126042177986D-07 0.100000000000D+01
0.350095599968D-10 0.000000000000D+00 0.000000000000D+00 0.208535607398D-06 0.000000000000D+00  6 22 -2 9900012 11 -1 21 2 0.39088785D-01 0.18539956D-02 0.19637351D+04 0.19637351D+04 0.19637351D+04 0.12903169D+01  1  2 15  2  6  5       -1 0.189509665259D-07 0.100000000000D+01
0.161471508496D-12 0.000000000000D+00 0.000000000000D+00 0.208535607398D-06 0.000000000000D+00  6 22 -2 9900012 11 -1 21 2 0.39088785D-01 0.18539956D-02 0.19672255D+04 0.19672255D+04 0.19672255D+04 0.12902192D+01  1  2 12  2  6  5       -1 0.874141634280D-10 0.100000000000D+01
-.123600604500D-08 0.000000000000D+00 0.000000000000D+00 0.208535607398D-06 0.000000000000D+00  6 22 -2 9900012 11 -1 21 2 0.39088785D-01 0.18539956D-02 0.19637351D+04 0.19637351D+04 0.19637351D+04 0.12903169D+01  1  2  4  2  6  5       -1 -.669060370561D-06 0.100000000000D+01
-.553362795983D-09 0.000000000000D+00 0.000000000000D+00 0.208535607398D-06 0.000000000000D+00  6 22 -2 9900012 11 -1 21 2 0.39088785D-01 0.18539956D-02 0.19637351D+04 0.19637351D+04 0.19637351D+04 0.12903169D+01  1  2  5  2  6  5       -1 -.299539892084D-06 0.100000000000D+01
0.111165360526D-08 0.000000000000D+00 -.000000000000D+00 0.208535607398D-06 0.000000000000D+00  6 22 -2 9900012 11 -1 21 2 0.39088785D-01 0.18539956D-02 0.19637351D+04 0.19637351D+04 0.19637351D+04 0.12903169D+01  1  2  6  2  6  5       -1 0.601747358826D-06 0.100000000000D+01
0.430674289666D-06 0.000000000000D+00 0.000000000000D+00 0.208535607398D-06 0.519830035986D-04  6 22 -2 9900012 11 -1 21 2 0.39088785D-01 0.18539956D-02 0.19672255D+04 0.19672255D+04 0.19672255D+04 0.12902192D+01  1  2 11  2  6  5       -1 0.233149693662D-03 0.100000000000D+01
  </mgrwgt>
  </event>
  <event>
  7     66 0.17582409E-05 0.33044288E+02 0.78161638E-02 0.12639575E+00
       22 -1    0    0    0    0 0.00000000E+00 0.00000000E+00 0.17606650E+02 0.17606650E+02 0.00000000E+00 0.0000E+00 0.9000E+01
       21 -1    0    0  502  501 0.00000000E+00 0.00000000E+00 -.26734576E+03 0.26734576E+03 0.00000000E+00 0.0000E+00 0.9000E+01
      -24  2    1    2    0    0 0.60843448E+01 -.32625603E+02 -.17044161E+03 0.19243561E+03 0.82943804E+02 0.0000E+00 0.0000E+00
  9900012  1    3    3    0    0 0.78732278E+01 0.94659976E+00 -.13195333E+03 0.14133140E+03 0.50000000E+02 0.0000E+00 0.9000E+01
       11  1    3    3    0    0 -.17888830E+01 -.33572203E+02 -.38488273E+02 0.51104208E+02 0.00000000E+00 0.0000E+00 0.9000E+01
        2  1    1    2  502    0 -.58745004E+01 0.32624538E+02 -.82705960E+02 0.89101886E+02 0.00000000E+00 0.0000E+00 0.9000E+01
       -1  1    1    2    0  501 -.20984439E+00 0.10653079E-02 0.34084574E+01 0.34149110E+01 0.00000000E+00 0.0000E+00 0.9000E+01
#aMCatNLO 2  0  0  2  2 0.45607286D+02 0.00000000D+00  -5  6  0 0.00000000D+00 0.00000000D+00 0.00000000D+00 0.00000000D+00 0.00000000D+00
  <mgrwgt>
 0.1941710957D-02    1    2    0
 0.483696303568682D+02 0.000000000000000D+00 0.000000000000000D+00 0.483696303568682D+02
 0.483696303568682D+02 0.000000000000000D+00 0.000000000000000D+00 -.483696303568682D+02
 0.581344110082320D+02 0.452920016245880D+01 0.195179421027489D+02 -.218665503734852D+02
 0.257930403817443D+02 -.358373408529938D+01 -.236043450722416D+02 0.976077229786162D+01
 0.000000000000000D+00 -.000000000000000D+00 0.000000000000000D+00 -.000000000000000D+00
 0.128118093237601D+02 -.945466077159423D+00 0.408640296949268D+01 0.121057780756236D+02
 0.624788813283588D+02 0.000000000000000D+00 0.000000000000000D+00 0.624788813283588D+02
 0.753384696477419D+02 0.000000000000000D+00 0.000000000000000D+00 -.753384696477419D+02
 0.551455328471422D+02 0.787322784257441D+01 0.946599755958818D+00 -.218665503734852D+02
 0.350080791228233D+02 -.178888303148112D+01 -.335722031674842D+02 0.976077229786162D+01
 0.355561422743969D+02 -.587450042287129D+01 0.326245381036242D+02 -.128595883193831D+02
 0.121075967317382D+02 -.209844388221997D+00 0.106530790114689D-02 0.121057780756236D+02
0.726677737898D-06 0.000000000000D+00 0.000000000000D+00 0.960280587795D-07 0.205947437079D-07  6 22 21 9900012 11 2 -1 2 0.27087154D-02 0.41130117D-01 0.34576647D+04 0.34576647D+04 0.34576647D+04 0.12602920D+01  1  2  1  3  5  2       -2 0.194171095681D-02 0.100000000000D+01
  </mgrwgt>
  </event>
  <event>
  7     66 0.17582409E-05 0.17508859E+02 0.78161638E-02 0.12769664E+00
       22 -1    0    0    0    0 0.00000000E+00 0.00000000E+00 0.12806023E+03 0.12806023E+03 0.00000000E+00 0.0000E+00 0.9000E+01
       21 -1    0    0  502  501 0.00000000E+00 0.00000000E+00 -.55752051E+02 0.55752051E+02 0.00000000E+00 0.0000E+00 0.9000E+01
      -24  2    1    2    0    0 0.14635038E+02 -.20517230E+01 0.58144465E+02 0.99251139E+02 0.79067161E+02 0.0000E+00 0.0000E+00
  9900012  1    3    3    0    0 -.11624577E+02 0.33816550E+00 0.25595369E+02 0.57361730E+02 0.50000000E+02 0.0000E+00 0.9000E+01
       11  1    3    3    0    0 0.26259615E+02 -.23898885E+01 0.32549096E+02 0.41889409E+02 0.00000000E+00 0.0000E+00 0.9000E+01
        4  1    1    2  502    0 -.22053683E+02 -.48939775E+01 -.30949776E+02 0.38317158E+02 0.00000000E+00 0.0000E+00 0.9000E+01
       -3  1    1    2    0  501 0.74186454E+01 0.69457005E+01 0.45113491E+02 0.46243985E+02 0.00000000E+00 0.0000E+00 0.9000E+01
#aMCatNLO 2  0  0  2  5 0.13216892D+02 0.00000000D+00  -5  6  0 0.00000000D+00 0.00000000D+00 0.00000000D+00 0.00000000D+00 0.00000000D+00
  <mgrwgt>
 0.4772786974D-05    1    2    0
 0.499907730574900D+02 0.000000000000000D+00 0.000000000000000D+00 0.499907730574900D+02
 0.499907730574900D+02 0.000000000000000D+00 0.000000000000000D+00 -.499907730574900D+02
 0.595873588143273D+02 -.241743893995743D+02 -.244678880990362D+01 -.214537980820382D+02
 0.216672629896374D+02 0.209948830835131D+02 -.355819576610856D+01 0.400305041958902D+01
 0.000000000000000D+00 -.000000000000000D+00 -.000000000000000D+00 -.000000000000000D+00
 0.187269243110152D+02 0.317950631606120D+01 0.600498457601218D+01 0.174507476624492D+02
 0.527688270646210D+02 0.000000000000000D+00 0.000000000000000D+00 0.527688270646210D+02
 0.135299965656847D+03 0.000000000000000D+00 0.000000000000000D+00 -.135299965656847D+03
 0.556373129960631D+02 -.116245769545495D+02 0.338165499096742D+00 -.214537980820382D+02
 0.266702708845733D+02 0.262596147997781D+02 -.238988848317738D+01 0.400305041958902D+01
 0.855669609076610D+02 -.220536832634503D+02 -.489397753973791D+01 -.825311385922256D+02
 0.201942479331702D+02 0.741864541822168D+01 0.694570052381855D+01 0.174507476624492D+02
0.180408024680D-08 0.000000000000D+00 0.000000000000D+00 0.202156176638D-06 0.321033708338D-09  6 22 21 9900012 11 4 -3 2 0.19701574D-01 0.85772386D-02 0.30501091D+04 0.30501091D+04 0.30501091D+04 0.12667609D+01  1  2  1  3  5  2       -4 0.477278697399D-05 0.100000000000D+01
  </mgrwgt>
  </event>
  <event>
  6     66 0.17582409E-05 0.10352033E+02 0.78161638E-02 0.10297055E+00
       22 -1    0    0    0    0 0.00000000E+00 0.00000000E+00 0.36811047E+03 0.36811047E+03 0.00000000E+00 0.0000E+00 0.9000E+01
       -4 -1    0    0    0  502 0.00000000E+00 0.00000000E+00 -.21423405E+03 0.21423405E+03 0.00000000E+00 0.0000E+00 0.9000E+01
  9900012  1    1    2    0    0 0.14343968E+03 0.17480881E+03 0.14734249E+03 0.27448656E+03 0.50000000E+02 0.0000E+00 0.9000E+01
       11  1    1    2    0    0 -.14746887E+03 -.18522277E+03 -.18349713E+02 0.23746842E+03 0.00000000E+00 0.0000E+00 0.9000E+01
       -3  1    1    2    0  501 0.13188025E+01 -.27312912E+00 0.46290569E+02 0.46310157E+02 0.00000000E+00 0.0000E+00 0.9000E+01
       21  1    1    2  501  502 0.27103811E+01 0.10687090E+02 -.21406928E+02 0.24079382E+02 0.00000000E+00 0.0000E+00 0.9000E+01
#aMCatNLO 2  0  0  2  5 0.23891621D+01 0.00000000D+00  -5  6  0 0.00000000D+00 0.00000000D+00 0.00000000D+00 0.00000000D+00 0.00000000D+00
  <mgrwgt>
 0.3580750694D-02    1    2    0
 0.264959504574587D+03 0.000000000000000D+00 0.000000000000000D+00 0.264959504574587D+03
 0.264959504574587D+03 0.000000000000000D+00 0.000000000000000D+00 -.264959504574587D+03
 0.244691291805664D+03 0.144680048191209D+03 0.179699594066983D+03 0.644171392804416D+02
 0.251750835970312D+03 -.146170035006635D+03 -.180101448139703D+03 -.978584317056634D+02
 0.334768813731970D+02 0.148998681542668D+01 0.401854072720007D+00 0.334412924252218D+02
 0.000000000000000D+00 0.000000000000000D+00 0.000000000000000D+00 -.000000000000000D+00
 0.265982352467290D+03 0.000000000000000D+00 0.000000000000000D+00 0.265982352467290D+03
 0.296492595386266D+03 0.000000000000000D+00 0.000000000000000D+00 -.296492595386266D+03
 0.240380177335695D+03 0.143439682917570D+03 0.174808807522308D+03 0.644171392804416D+02
 0.256185115031658D+03 -.147468866529278D+03 -.185222768342506D+03 -.978584317056634D+02
 0.334684011979364D+02 0.131880254874088D+01 -.273129116474579D+00 0.334412924252218D+02
 0.324412542882661D+02 0.271038106296749D+01 0.106870899366721D+02 -.305102429189761D+02
0.166231829480D-02 0.000000000000D+00 0.000000000000D+00 0.593059226439D-09 0.433435351515D-10  6 22 -4 9900012 11 -3 21 2 0.56632381D-01 0.32959085D-01 0.57772628D+05 0.57772628D+05 0.57772628D+05 0.11375263D+01  1  2  1  1  6  2       -4 0.358075069438D-02 0.100000000000D+01
  </mgrwgt>
  </event>
  <event>
  7     66 0.17582409E-05 0.83510532E+01 0.78161638E-02 0.12919577E+00
       22 -1    0    0    0    0 0.00000000E+00 0.00000000E+00 0.12079760E+03 0.12079760E+03 0.00000000E+00 0.0000E+00 0.9000E+01
       21 -1    0    0  502  501 0.00000000E+00 0.00000000E+00 -.27173469E+02 0.27173469E+02 0.00000000E+00 0.0000E+00 0.9000E+01
      -24  2    1    2    0    0 0.47135988E+01 0.30227586E+01 0.72858112E+02 0.10931169E+03 0.81298125E+02 0.0000E+00 0.0000E+00
  9900012  1    3    3    0    0 0.71012497E+01 -.19156862E+02 0.67351261E+02 0.86334266E+02 0.50000000E+02 0.0000E+00 0.9000E+01
       11  1    3    3    0    0 -.23876509E+01 0.22179620E+02 0.55068510E+01 0.22977420E+02 0.00000000E+00 0.0000E+00 0.9000E+01
        2  1    1    2  502    0 -.13308583E+02 0.55902272E+01 -.17938052E+00 0.14436107E+02 0.00000000E+00 0.0000E+00 0.9000E+01
       -1  1    1    2    0  501 0.85949837E+01 -.86129858E+01 0.20945398E+02 0.24223273E+02 0.00000000E+00 0.0000E+00 0.9000E+01
#aMCatNLO 2  0  0  2  5 0.42505279D+01 0.00000000D+00  -5  6  0 0.00000000D+00 0.00000000D+00 0.00000000D+00 0.00000000D+00 0.00000000D+00
  <mgrwgt>
 0.3281899008D-04    1    2    0
 0.469683879842015D+02 0.000000000000000D+00 0.000000000000000D+00 0.469683879842015D+02
 0.469683879842015D+02 0.000000000000000D+00 0.000000000000000D+00 -.469683879842015D+02
 0.533258584808972D+02 -.515477031082700D+00 -.159574802806992D+02 0.942020643331138D+01
 0.288224954718191D+02 -.630830751519910D+01 0.238264795371178D+02 -.149412306850546D+02
 0.000000000000000D+00 -.000000000000000D+00 0.000000000000000D+00 -.000000000000000D+00
 0.117884220156868D+02 0.682378454628179D+01 -.786899925641865D+01 0.552102425174326D+01
 0.504997277412815D+02 0.000000000000000D+00 0.000000000000000D+00 0.504997277412815D+02
 0.650001467585799D+02 0.000000000000000D+00 0.000000000000000D+00 -.650001467585799D+02
 0.548283994872688D+02 0.710124970601069D+01 -.191568617915937D+02 0.942020643331138D+01
 0.268491491735299D+02 -.238765092493336D+01 0.221796203759015D+02 -.149412306850546D+02
 0.204604779974402D+02 -.133085825058849D+02 0.559022717700801D+01 -.145004190172984D+02
 0.133618478416226D+02 0.859498372480758D+01 -.861298576131583D+01 0.552102425174326D+01
0.369278980889D-08 0.000000000000D+00 0.000000000000D+00 0.132844366634D-07 0.100855775553D-09  6 22 21 9900012 11 2 -1 2 0.18584246D-01 0.41805336D-02 0.26483230D+04 0.26483230D+04 0.26483230D+04 0.12741750D+01  1  2  1  3  5  2       -2 0.328189900815D-04 0.100000000000D+01
  </mgrwgt>
  </event>
  <event>
  6     66 0.17582409E-05 0.78473495E+01 0.78161638E-02 0.13054462E+00
       22 -1    0    0    0    0 0.00000000E+00 0.00000000E+00 0.42339752E+02 0.42339752E+02 0.00000000E+00 0.0000E+00 0.9000E+01
       -4 -1    0    0    0  501 0.00000000E+00 0.00000000E+00 -.46146980E+02 0.46146980E+02 0.00000000E+00 0.0000E+00 0.9000E+01
      -24  2    1    2    0    0 -.65887174E+01 0.42625927E+01 -.12979186E+01 0.80247949E+02 0.79852789E+02 0.0000E+00 0.0000E+00
  9900012  1    3    3    0    0 -.51540133E+01 0.25862028E+02 -.90639527E+01 0.57250009E+02 0.50000000E+02 0.0000E+00 0.9000E+01
       11  1    3    3    0    0 -.14347041E+01 -.21599435E+02 0.77660341E+01 0.22997940E+02 0.00000000E+00 0.0000E+00 0.9000E+01
       -3  1    1    2    0  501 0.65887174E+01 -.42625927E+01 -.25093099E+01 0.82387820E+01 0.00000000E+00 0.0000E+00 0.9000E+01
#aMCatNLO 1  0  0  2  2 0.30884150D+02 0.00000000D+00  -5  6  0 0.00000000D+00 0.00000000D+00 0.00000000D+00 0.00000000D+00 0.00000000D+00
  <mgrwgt>
 0.1456281386D-04    4    2    0
 0.442023943430397D+02 0.000000000000000D+00 0.000000000000000D+00 0.442023943430397D+02
 0.442023943430397D+02 0.000000000000000D+00 0.000000000000000D+00 -.442023943430397D+02
 0.569127276795355D+02 -.515401333046886D+01 0.258620276593885D+02 -.660683311877514D+01
 0.233537079830466D+02 -.143470405647310D+01 -.215994349129739D+02 0.876365861201568D+01
 0.813835302349742D+01 0.658871738694196D+01 -.426259274641455D+01 -.215682549324054D+01
 0.000000000000000D+00 0.000000000000000D+00 -.000000000000000D+00 0.000000000000000D+00
 0.613279109096435D+02 0.000000000000000D+00 0.000000000000000D+00 0.613279109096435D+02
 0.460234935341660D+02 0.000000000000000D+00 0.000000000000000D+00 -.460234935341660D+02
 0.584459780202723D+02 -.116296295685388D+02 0.271483667830198D+02 -.660683311877514D+01
 0.231855163430920D+02 -.404716537809855D+01 -.210804864324842D+02 0.876365861201568D+01
 0.735432564743129D+01 0.571904187381914D+01 -.408983735198317D+01 -.215682549324054D+01
 0.183655844330139D+02 0.995775307281818D+01 -.197804299855240D+01 0.153044173754776D+02
0.317562902316D-07 0.000000000000D+00 0.000000000000D+00 0.104687045890D-06 0.000000000000D+00  6 22 -4 9900012 11 -3 21 0 0.65138079D-02 0.70995354D-02 0.18499600D+04 0.18499600D+04 0.18499600D+04 0.12936167D+01  1  2  2  1  6  2       -4 0.131546035377D-04 0.100000000000D+01
0.338340713075D-08 0.000000000000D+00 -.609762580563D-10 0.104687045890D-06 0.000000000000D+00  6 22 -4 9900012 11 -3 21 2 0.65138079D-02 0.70995354D-02 0.18499600D+04 0.18499600D+04 0.18499600D+04 0.12936167D+01  1  2  3  1  6  2       -4 0.234538156991D-05 0.100000000000D+01
-.120288561157D-08 0.000000000000D+00 0.000000000000D+00 0.104687045890D-06 0.000000000000D+00  6 22 -4 9900012 11 -3 21 2 0.65138079D-02 0.70995354D-02 0.18499600D+04 0.18499600D+04 0.18499600D+04 0.12936167D+01  1  2 15  1  6  2       -4 -.833841638048D-06 0.100000000000D+01
-.149061515009D-09 0.000000000000D+00 0.000000000000D+00 0.104687045890D-06 0.000000000000D+00  6 22 -4 9900012 11 -3 21 2 0.65138079D-02 0.70995354D-02 0.18499600D+04 0.18499600D+04 0.18499600D+04 0.12936167D+01  1  2  4  1  6  2       -4 -.103329607279D-06 0.100000000000D+01
  </mgrwgt>
  </event>
</LesHouchesEvents>
