<LesHouchesEvents version="3.0">
  <!--
  <scalesfunctionalform>
    muR  H_T/2 := sum_i mT(i)/2, i=final state
    muF1 H_T/2 := sum_i mT(i)/2, i=final state
    muF2 H_T/2 := sum_i mT(i)/2, i=final state
    QES  H_T/2 := sum_i mT(i)/2, i=final state
  </scalesfunctionalform>
PYTHIA8   
  -->
  <header>
       21
  </header>
  <init>
   2212   2212 0.65000000D+04 0.65000000D+04 -1 -1  82200  82200 -4   1
 0.14771718D-04 0.19752181D-06 0.98541418D-06     66
  </init>
  <event>
  6     66 -.98541418E-06 0.13902460E+02 0.78161638E-02 0.12246517E+00
       22 -1    0    0    0    0 0.00000000E+00 0.00000000E+00 0.92485305E+03 0.92485305E+03 0.00000000E+00 0.0000E+00 0.9000E+01
        1 -1    0    0  501    0 0.00000000E+00 0.00000000E+00 -.56193382E+01 0.56193382E+01 0.00000000E+00 0.0000E+00 0.9000E+01
      -24  2    1    2    0    0 0.49662774E+02 0.24173841E+01 0.60812338E+03 0.61541386E+03 0.80299093E+02 0.0000E+00 0.0000E+00
  9900012  1    3    3    0    0 0.34682508E+02 0.25586960E+02 0.38914843E+03 0.39470758E+03 0.50000000E+02 0.0000E+00 0.9000E+01
       13  1    3    3    0    0 0.14980266E+02 -.23169576E+02 0.21897495E+03 0.22070629E+03 0.00000000E+00 0.0000E+00 0.9000E+01
        2  1    1    2  501    0 -.49662774E+02 -.24173841E+01 0.31111033E+03 0.31505852E+03 0.00000000E+00 0.0000E+00 0.9000E+01
#aMCatNLO 1  0  0  5  2 0.11697331D+00 0.00000000D+00  -5  6  0 0.00000000D+00 0.00000000D+00 0.00000000D+00 0.00000000D+00 0.00000000D+00
  <mgrwgt>
 -.1285836366D-04    7    2    0
 0.720906516761936D+02 0.000000000000000D+00 0.000000000000000D+00 0.720906516761936D+02
 0.720906516761936D+02 -.000000000000000D+00 -.000000000000000D+00 -.720906516761936D+02
 0.662093047684276D+02 0.346825081177786D+02 0.255869603908679D+02 -.510912189470030D+01
 0.282418895813497D+02 0.149802655902277D+02 -.231695762879882D+02 0.603048129144616D+01
 0.497301090026100D+02 -.496627737080063D+02 -.241738410287973D+01 -.921359396745854D+00
 0.000000000000000D+00 0.000000000000000D+00 0.000000000000000D+00 -.000000000000000D+00
 0.720906516761936D+02 0.000000000000000D+00 0.000000000000000D+00 0.720906516761936D+02
 0.720906516761936D+02 -.000000000000000D+00 -.000000000000000D+00 -.720906516761936D+02
 0.662089121651786D+02 0.346817826960905D+02 0.255869250802575D+02 -.510913535295161D+01
 0.282417365823878D+02 0.149799561581240D+02 -.231695913498986D+02 0.603047555076446D+01
 0.449451957551197D+02 -.448824301829816D+02 -.225618395655560D+01 -.740078570147255D+00
 0.478545884970114D+01 -.477930867123292D+01 -.161149773803269D+00 -.181261627665593D+00
0.475041123694D-08 0.000000000000D+00 0.000000000000D+00 0.128864979907D-06 0.000000000000D+00  6 22 1 9900012 13 2 21 0 0.14228508D+00 0.86451357D-03 0.51354417D+04 0.51354417D+04 0.51354417D+04 0.12405406D+01  1  2  2  2  6  5        2 0.490053784196D-06 0.100000000000D+01
-.149564532801D-09 0.000000000000D+00 -.912141498093D-11 0.128864979907D-06 0.000000000000D+00  6 22 1 9900012 13 2 21 2 0.14228508D+00 0.86451357D-03 0.51354417D+04 0.51354417D+04 0.51354417D+04 0.12405406D+01  1  2  3  2  6  5        2 -.237445056759D-07 0.100000000000D+01
-.304506035581D-10 0.000000000000D+00 0.000000000000D+00 0.128864979907D-06 0.000000000000D+00  6 22 1 9900012 13 2 21 2 0.14228508D+00 0.86451357D-03 0.51354417D+04 0.51354417D+04 0.51354417D+04 0.12405406D+01  1  2 15  2  6  5        2 -.483426461796D-08 0.100000000000D+01
-.256044070874D-04 0.000000000000D+00 0.000000000000D+00 0.128864979907D-06 0.000000000000D+00  6 22 1 9900012 13 2 21 2 0.14228508D+00 0.86451357D-03 0.51354417D+04 0.51354417D+04 0.51354417D+04 0.12405406D+01  1  2  4  2  6  5        2 -.406489411648D-02 0.100000000000D+01
-.227518135181D-04 0.000000000000D+00 0.000000000000D+00 0.128864979907D-06 0.000000000000D+00  6 22 1 9900012 13 2 21 2 0.14228508D+00 0.86451357D-03 0.51354417D+04 0.51354417D+04 0.51354417D+04 0.12405406D+01  1  2  5  2  6  5        2 -.361202321902D-02 0.100000000000D+01
0.250459920733D-04 0.000000000000D+00 -.000000000000D+00 0.128864979907D-06 0.000000000000D+00  6 22 1 9900012 13 2 21 2 0.14228508D+00 0.86451357D-03 0.51354417D+04 0.51354417D+04 0.51354417D+04 0.12405406D+01  1  2  6  2  6  5        2 0.397624149126D-02 0.100000000000D+01
0.232263429316D-04 0.000000000000D+00 0.000000000000D+00 0.128864979907D-06 0.647851928305D-04  6 22 1 9900012 13 2 21 2 0.14228508D+00 0.86451357D-03 0.51353703D+04 0.51353703D+04 0.51353703D+04 0.12405413D+01  1  2 11  2  6  5        2 0.368735600557D-02 0.100000000000D+01
  </mgrwgt>
  </event>
  <event>
  7     66 0.98541418E-06 0.36961684E+02 0.78161638E-02 0.12292774E+00
       22 -1    0    0    0    0 0.00000000E+00 0.00000000E+00 0.12699382E+04 0.12699382E+04 0.00000000E+00 0.0000E+00 0.9000E+01
       21 -1    0    0  501  502 0.00000000E+00 0.00000000E+00 -.10333495E+02 0.10333495E+02 0.00000000E+00 0.0000E+00 0.9000E+01
      -24  2    1    2    0    0 -.37356750E+02 -.79958718E+01 0.75072037E+03 0.75616909E+03 0.82165395E+02 0.0000E+00 0.0000E+00
  9900012  1    3    3    0    0 -.60298030E+01 0.30394488E+01 0.58381383E+03 0.58598991E+03 0.50000000E+02 0.0000E+00 0.9000E+01
       13  1    3    3    0    0 -.31326947E+02 -.11035321E+02 0.16690655E+03 0.17017917E+03 0.00000000E+00 0.0000E+00 0.9000E+01
        4  1    1    2  501    0 -.75195553E+01 -.55987018E+01 0.44373215E+03 0.44383117E+03 0.00000000E+00 0.0000E+00 0.9000E+01
       -3  1    1    2    0  502 0.44876306E+02 0.13594574E+02 0.65152151E+02 0.80271403E+02 0.00000000E+00 0.0000E+00 0.9000E+01
#aMCatNLO 2  0  0  2  2 0.57399531D+02 0.00000000D+00  -5  6  0 0.00000000D+00 0.00000000D+00 0.00000000D+00 0.00000000D+00 0.00000000D+00
  <mgrwgt>
 0.9202223285D-05    1    2    0
 0.526429103228471D+02 0.000000000000000D+00 0.000000000000000D+00 0.526429103228471D+02
 0.526429103228471D+02 0.000000000000000D+00 0.000000000000000D+00 -.526429103228471D+02
 0.533868525762991D+02 0.151619067826014D+02 0.945914517069880D+01 0.554952100264900D+01
 0.313171274815238D+02 -.163863229683995D+02 -.650929251932080D+01 -.258820401855655D+02
 0.205818405878715D+02 0.122441618579814D+01 -.294985265137799D+01 0.203325191829165D+02
 0.000000000000000D+00 0.000000000000000D+00 0.000000000000000D+00 -.000000000000000D+00
 0.611276149656599D+02 0.000000000000000D+00 0.000000000000000D+00 0.611276149656599D+02
 0.214680384677978D+03 0.000000000000000D+00 0.000000000000000D+00 -.214680384677978D+03
 0.507581910304845D+02 -.602980302130309D+01 0.303944877446613D+01 0.554952100264900D+01
 0.421074332916597D+02 -.313269474138542D+02 -.110353205650748D+02 -.258820401855655D+02
 0.223897411717561D+02 -.751955528828425D+01 -.559870178532496D+01 0.203325191829165D+02
 0.160552634149737D+03 0.448763057234415D+02 0.135945735759336D+02 -.153552769712318D+03
0.155981540102D-07 0.000000000000D+00 0.000000000000D+00 0.188908658595D-05 0.156126693273D-09  6 22 21 9900012 13 4 -3 2 0.19537510D+00 0.15897685D-02 0.48953019D+04 0.48953019D+04 0.48953019D+04 0.12428820D+01  1  2  1  3  6  2        3 0.920222328475D-05 0.100000000000D+01
  </mgrwgt>
  </event>
  <event>
  7     66 0.98541418E-06 0.28158191E+02 0.78161638E-02 0.12818864E+00
       22 -1    0    0    0    0 0.00000000E+00 0.00000000E+00 0.83501753E+02 0.83501753E+02 0.00000000E+00 0.0000E+00 0.9000E+01
       21 -1    0    0  501  502 0.00000000E+00 0.00000000E+00 -.11321543E+03 0.11321543E+03 0.00000000E+00 0.0000E+00 0.9000E+01
      -24  2    1    2    0    0 0.26530045E+02 -.10188797E+02 -.14409620E+01 0.84467512E+02 0.79530053E+02 0.0000E+00 0.0000E+00
  9900012  1    3    3    0    0 -.15426649E+00 -.16750192E+01 0.14695837E+02 0.52142086E+02 0.50000000E+02 0.0000E+00 0.9000E+01
       13  1    3    3    0    0 0.26684312E+02 -.85137781E+01 -.16136799E+02 0.32325426E+02 0.00000000E+00 0.0000E+00 0.9000E+01
        4  1    1    2  501    0 -.12695216E+00 -.11321324E+01 0.39043327E+02 0.39059944E+02 0.00000000E+00 0.0000E+00 0.9000E+01
       -3  1    1    2    0  502 -.26403093E+02 0.11320930E+02 -.67316046E+02 0.73189732E+02 0.00000000E+00 0.0000E+00 0.9000E+01
#aMCatNLO 2  0  0  2  5 0.36398628D+02 0.00000000D+00  -5  6  0 0.00000000D+00 0.00000000D+00 0.00000000D+00 0.00000000D+00 0.00000000D+00
  <mgrwgt>
 0.6312179401D-03    1    2    0
 0.570521858626261D+02 0.000000000000000D+00 0.000000000000000D+00 0.570521858626261D+02
 0.570521858626261D+02 0.000000000000000D+00 0.000000000000000D+00 -.570521858626261D+02
 0.514747262403248D+02 -.117191849826953D+02 0.328370395549399D+01 -.123508428474459D+01
 0.332934410650845D+02 0.184381023367044D+02 -.497802736065495D+01 -.272710257191043D+02
 0.293362044198429D+02 -.671891735400910D+01 0.169432340516095D+01 0.285061100038488D+02
 0.000000000000000D+00 -.000000000000000D+00 0.000000000000000D+00 -.000000000000000D+00
 0.609772214438542D+02 0.000000000000000D+00 0.000000000000000D+00 0.609772214438542D+02
 0.155036372550580D+03 0.000000000000000D+00 0.000000000000000D+00 -.155036372550580D+03
 0.500435302590916D+02 -.154266492520227D+00 -.167501923913617D+01 -.123508428474459D+01
 0.390927838509758D+02 0.266843116376938D+02 -.851377811958419D+01 -.272710257191043D+02
 0.285288651739705D+02 -.126952161180898D+00 -.113213237380902D+01 0.285061100038488D+02
 0.983484147103962D+02 -.264030929839926D+02 0.113209297325294D+02 -.940591511067256D+02
0.417236877824D-06 0.000000000000D+00 0.000000000000D+00 0.271731404893D-05 0.113174948121D-06  6 22 21 9900012 13 4 -3 2 0.12846424D-01 0.17417759D-01 0.29108672D+04 0.29108672D+04 0.29108672D+04 0.12691989D+01  1  2  1  3  6  2        3 0.631217940109D-03 0.100000000000D+01
  </mgrwgt>
  </event>
  <event>
  7     66 0.98541418E-06 0.79101225E+02 0.78161638E-02 0.11658904E+00
       22 -1    0    0    0    0 0.00000000E+00 0.00000000E+00 0.21069510E+04 0.21069510E+04 0.00000000E+00 0.0000E+00 0.9000E+01
        1 -1    0    0  501    0 0.00000000E+00 0.00000000E+00 -.13865652E+03 0.13865652E+03 0.00000000E+00 0.0000E+00 0.9000E+01
      -24  2    1    2    0    0 -.45345402E+02 0.64081716E+02 -.10883122E+03 0.15633289E+03 0.80206400E+02 0.0000E+00 0.0000E+00
  9900012  1    3    3    0    0 -.42379196E+02 0.22706966E+02 -.55914515E+02 0.89095654E+02 0.50000000E+02 0.0000E+00 0.9000E+01
       13  1    3    3    0    0 -.29662059E+01 0.41374750E+02 -.52916710E+02 0.67237240E+02 0.00000000E+00 0.0000E+00 0.9000E+01
        2  1    1    2  502    0 0.15835356E+01 0.48566530E+01 0.18086222E+04 0.18086294E+04 0.00000000E+00 0.0000E+00 0.9000E+01
       21  1    1    2  501  502 0.43761867E+02 -.68938369E+02 0.26850350E+03 0.28064521E+03 0.00000000E+00 0.0000E+00 0.9000E+01
#aMCatNLO 2  0  0  5  2 0.78941967D+02 0.00000000D+00  -5  6  0 0.00000000D+00 0.00000000D+00 0.00000000D+00 0.00000000D+00 0.00000000D+00
  <mgrwgt>
 0.3554600758D-03    2    2    0
 0.540502074295093D+03 0.000000000000000D+00 0.000000000000000D+00 0.540502074295093D+03
 0.540502074295093D+03 -.000000000000000D+00 -.000000000000000D+00 -.540502074295093D+03
 0.298100899207858D+03 -.433804275863167D+02 0.241218970120277D+02 -.289655689907005D+03
 0.245376680107177D+03 -.379013990316531D+01 0.425391260600314D+02 -.241631481256030D+03
 0.537526569275150D+03 0.471705674894820D+02 -.666610230720590D+02 0.531287171163035D+03
 0.000000000000000D+00 0.000000000000000D+00 -.000000000000000D+00 0.000000000000000D+00
 0.540502074295093D+03 0.000000000000000D+00 0.000000000000000D+00 0.540502074295093D+03
 0.540502074295093D+03 -.000000000000000D+00 -.000000000000000D+00 -.540502074295093D+03
 0.286890765551400D+03 -.423791963293874D+02 0.227069659761966D+02 -.278378714655592D+03
 0.236025110101774D+03 -.296620590797361D+01 0.413747499249430D+02 -.232351424118111D+03
 0.463985934597814D+03 0.158353561220076D+01 0.485665304023647D+01 0.463957813643459D+03
 0.941023383391976D+02 0.437618666251602D+02 -.689383689413760D+02 0.467723251302437D+02
-.103686863593D-05 0.000000000000D+00 0.000000000000D+00 0.571659201657D-05 0.000000000000D+00  6 22 1 9900012 13 2 21 2 0.32414631D+00 0.21331772D-01 0.97624597D+04 0.97624597D+04 0.97624597D+04 0.12104136D+01  1  2 13  2  6  5        2 -.264176906820D-06 0.100000000000D+01
0.139618305431D-02 0.000000000000D+00 0.000000000000D+00 0.571659201657D-05 0.506680138469D-06  6 22 1 9900012 13 2 21 2 0.32414631D+00 0.21331772D-01 0.97624597D+04 0.97624597D+04 0.97624597D+04 0.12104136D+01  1  2  1  2  6  5        2 0.355724252677D-03 0.100000000000D+01
  </mgrwgt>
  </event>
  <event>
  6     66 0.98541418E-06 0.23312616E+02 0.78161638E-02 0.12816382E+00
       22 -1    0    0    0    0 0.00000000E+00 0.00000000E+00 0.73932385E+02 0.73932385E+02 0.00000000E+00 0.0000E+00 0.9000E+01
        3 -1    0    0  501    0 0.00000000E+00 0.00000000E+00 -.52030682E+02 0.52030682E+02 0.00000000E+00 0.0000E+00 0.9000E+01
      -24  2    1    2    0    0 -.13860546E+02 -.22652897E+02 -.69591315E+01 0.86742966E+02 0.82283924E+02 0.0000E+00 0.0000E+00
  9900012  1    3    3    0    0 -.14864574E+02 0.33836169E+01 0.13066314E+02 0.53880729E+02 0.50000000E+02 0.0000E+00 0.9000E+01
       13  1    3    3    0    0 0.10040276E+01 -.26036514E+02 -.20025446E+02 0.32862237E+02 0.00000000E+00 0.0000E+00 0.9000E+01
        4  1    1    2  501    0 0.13860546E+02 0.22652897E+02 0.28860835E+02 0.39220100E+02 0.00000000E+00 0.0000E+00 0.9000E+01
#aMCatNLO 1  0  0  5  2 0.73623680D+01 0.00000000D+00  -5  6  0 0.00000000D+00 0.00000000D+00 0.00000000D+00 0.00000000D+00 0.00000000D+00
  <mgrwgt>
 0.1639054211D-04    6    2    0
 0.620221926377874D+02 0.000000000000000D+00 0.000000000000000D+00 0.620221926377874D+02
 0.620221926377874D+02 -.000000000000000D+00 -.000000000000000D+00 -.620221926377874D+02
 0.524071068473502D+02 -.148645740035864D+02 0.338361685721566D+01 0.375505323065475D+01
 0.369063015538350D+02 0.100402756636364D+01 -.260365138653612D+02 -.261374629367013D+02
 0.347309768743896D+02 0.138605464372227D+02 0.226528970081456D+02 0.223824097060466D+02
 0.000000000000000D+00 0.000000000000000D+00 -.000000000000000D+00 0.000000000000000D+00
 0.620221926377874D+02 0.000000000000000D+00 0.000000000000000D+00 0.620221926377874D+02
 0.620221926377874D+02 -.000000000000000D+00 -.000000000000000D+00 -.620221926377874D+02
 0.524177175644593D+02 -.136739243023378D+02 0.532954771768518D+01 0.567774867058046D+01
 0.350619168401285D+02 0.182147646943577D+01 -.247005213852246D+02 -.248174228975018D+02
 0.315091791479798D+02 0.131629833430658D+02 0.234382699537983D+02 0.164381185560432D+02
 0.505557172300715D+01 -.131053551016378D+01 -.406729628625890D+01 0.270155567087813D+01
0.695644282336D-07 0.000000000000D+00 0.000000000000D+00 0.599052455628D-07 0.000000000000D+00  6 22 3 9900012 13 4 21 0 0.11374213D-01 0.80047202D-02 0.27502244D+04 0.27502244D+04 0.27502244D+04 0.12721806D+01  1  2  2  2  6  5        4 0.155824312651D-04 0.100000000000D+01
-.333167668674D-08 0.000000000000D+00 -.133572860576D-09 0.599052455628D-07 0.000000000000D+00  6 22 3 9900012 13 4 21 2 0.11374213D-01 0.80047202D-02 0.27502244D+04 0.27502244D+04 0.27502244D+04 0.12721806D+01  1  2  3  2  6  5        4 -.120783723683D-05 0.100000000000D+01
-.471449341375D-09 0.000000000000D+00 0.000000000000D+00 0.599052455628D-07 0.000000000000D+00  6 22 3 9900012 13 4 21 2 0.11374213D-01 0.80047202D-02 0.27502244D+04 0.27502244D+04 0.27502244D+04 0.12721806D+01  1  2 15  2  6  5        4 -.170915164745D-06 0.100000000000D+01
0.534750660999D-07 0.000000000000D+00 0.000000000000D+00 0.599052455628D-07 0.000000000000D+00  6 22 3 9900012 13 4 21 2 0.11374213D-01 0.80047202D-02 0.29177094D+04 0.29177094D+04 0.29177094D+04 0.12690761D+01  1  2 12  2  6  5        4 0.194399307867D-04 0.100000000000D+01
-.485073155633D-07 0.000000000000D+00 0.000000000000D+00 0.599052455628D-07 0.000000000000D+00  6 22 3 9900012 13 4 21 2 0.11374213D-01 0.80047202D-02 0.27502244D+04 0.27502244D+04 0.27502244D+04 0.12721806D+01  1  2  4  2  6  5        4 -.175854224479D-04 0.100000000000D+01
0.914236826894D-09 0.000000000000D+00 0.000000000000D+00 0.599052455628D-07 0.668354025956D-08  6 22 3 9900012 13 4 21 2 0.11374213D-01 0.80047202D-02 0.29177094D+04 0.29177094D+04 0.29177094D+04 0.12690761D+01  1  2 11  2  6  5        4 0.332354907318D-06 0.100000000000D+01
  </mgrwgt>
  </event>
  <event>
  6     66 0.98541418E-06 0.10615381E+03 0.78161638E-02 0.11049033E+00
       22 -1    0    0    0    0 0.00000000E+00 0.00000000E+00 0.15566571E+02 0.15566571E+02 0.00000000E+00 0.0000E+00 0.9000E+01
        1 -1    0    0  501    0 0.00000000E+00 0.00000000E+00 -.12139520E+04 0.12139520E+04 0.00000000E+00 0.0000E+00 0.9000E+01
      -24  2    1    2    0    0 -.12152409E+03 -.24965803E+02 -.52745321E+03 0.54721260E+03 0.76441770E+02 0.0000E+00 0.0000E+00
  9900012  1    3    3    0    0 -.83025698E+02 -.35254554E+02 -.32853024E+03 0.34433744E+03 0.50000000E+02 0.0000E+00 0.9000E+01
       13  1    3    3    0    0 -.38498393E+02 0.10288751E+02 -.19892296E+03 0.20287516E+03 0.00000000E+00 0.0000E+00 0.9000E+01
        2  1    1    2  501    0 0.12152409E+03 0.24965803E+02 -.67093227E+03 0.68230602E+03 0.00000000E+00 0.0000E+00 0.9000E+01
#aMCatNLO 1  0  0  2  5 0.18887287D+02 0.00000000D+00  -5  6  0 0.00000000D+00 0.00000000D+00 0.00000000D+00 0.00000000D+00 0.00000000D+00
  <mgrwgt>
 0.1598490657D-04    9    2    0
 0.137466614669788D+03 0.000000000000000D+00 0.000000000000000D+00 0.137466614669788D+03
 0.137466614669788D+03 0.000000000000000D+00 0.000000000000000D+00 -.137466614669788D+03
 0.107893170828469D+03 -.830256977211937D+02 -.352545542753305D+02 0.316983632413088D+02
 0.402002862441582D+02 -.384983934180867D+02 0.102887511748110D+02 -.529889777230096D+01
 0.126839772266949D+03 0.121524091139280D+03 0.249658031005195D+02 -.263994654690079D+02
 0.000000000000000D+00 -.000000000000000D+00 -.000000000000000D+00 -.000000000000000D+00
 0.139087490285754D+03 0.000000000000000D+00 0.000000000000000D+00 0.139087490285754D+03
 0.204153218573538D+03 0.000000000000000D+00 0.000000000000000D+00 -.204153218573538D+03
 0.104326932867385D+03 -.810930997337574D+02 -.283413455027944D+02 0.316983632413088D+02
 0.402614915038914D+02 -.377656623194143D+02 0.129098462458928D+02 -.529889777230096D+01
 0.130974629388243D+03 0.123871896955477D+03 0.333642759698155D+02 -.263994654690079D+02
 0.676776550997724D+02 -.501313490230497D+01 -.179327767129140D+02 -.650657282877846D+02
0.140391526365D-06 0.000000000000D+00 0.000000000000D+00 0.304707525045D-07 0.000000000000D+00  6 22 1 9900012 13 2 21 0 0.23948570D-02 0.18676185D+00 0.17828031D+05 0.17828031D+05 0.17828031D+05 0.11841329D+01  1  2  2  1  6  2        1 0.656176845973D-05 0.100000000000D+01
-.488621091363D-08 0.000000000000D+00 -.269570213590D-09 0.304707525045D-07 0.000000000000D+00  6 22 1 9900012 13 2 21 2 0.23948570D-02 0.18676185D+00 0.17828031D+05 0.17828031D+05 0.17828031D+05 0.11841329D+01  1  2  3  1  6  2        1 -.320223416825D-06 0.100000000000D+01
-.353996538894D-09 0.000000000000D+00 0.000000000000D+00 0.304707525045D-07 0.000000000000D+00  6 22 1 9900012 13 2 21 2 0.23948570D-02 0.18676185D+00 0.17828031D+05 0.17828031D+05 0.17828031D+05 0.11841329D+01  1  2 15  1  6  2        1 -.231995677699D-07 0.100000000000D+01
0.709901426369D-06 0.000000000000D+00 0.000000000000D+00 0.304707525045D-07 0.000000000000D+00  6 22 1 9900012 13 2 21 2 0.23948570D-02 0.28063252D+00 0.20479448D+05 0.20479448D+05 0.20479448D+05 0.11783304D+01  1  2 12  1  6  2        1 0.182939079004D-04 0.100000000000D+01
-.537629291577D-06 0.000000000000D+00 0.000000000000D+00 0.304707525045D-07 0.000000000000D+00  6 22 1 9900012 13 2 21 2 0.23948570D-02 0.18676185D+00 0.17828031D+05 0.17828031D+05 0.17828031D+05 0.11841329D+01  1  2  4  1  6  2        1 -.352341500965D-04 0.100000000000D+01
-.749085475781D-06 0.000000000000D+00 -.398235717888D-07 0.304707525045D-07 0.000000000000D+00  6 22 1 9900012 13 2 21 2 0.23948570D-02 0.27836160D+00 0.17828031D+05 0.17828031D+05 0.17828031D+05 0.11841329D+01  1  2  5  1  6  2        1 -.198348703072D-04 0.100000000000D+01
0.710607830621D-06 0.000000000000D+00 0.368498726433D-07 0.304707525045D-07 0.000000000000D+00  6 22 1 9900012 13 2 21 2 0.23948570D-02 0.18676185D+00 0.17828031D+05 0.17828031D+05 0.17828031D+05 0.11841329D+01  1  2  6  1  6  2        1 0.465704963552D-04 0.100000000000D+01
0.342380879670D-07 0.000000000000D+00 0.000000000000D+00 0.304707525045D-07 0.000000000000D+00  6 22 21 9900012 13 2 -1 2 0.23948570D-02 0.28063252D+00 0.20479448D+05 0.20479448D+05 0.20479448D+05 0.11783304D+01  1  2 12  3  6  2        1 0.659807352300D-06 0.100000000000D+01
-.342414894705D-07 0.000000000000D+00 -.189241619028D-08 0.304707525045D-07 0.000000000000D+00  6 22 21 9900012 13 2 -1 2 0.23948570D-02 0.27836160D+00 0.17828031D+05 0.17828031D+05 0.17828031D+05 0.11841329D+01  1  2  5  3  6  2        1 -.688630111917D-06 0.100000000000D+01
  </mgrwgt>
  </event>
  <event>
  6     66 0.98541418E-06 0.28135661E+02 0.78161638E-02 0.12411279E+00
       22 -1    0    0    0    0 0.00000000E+00 0.00000000E+00 0.38643902E+01 0.38643902E+01 0.00000000E+00 0.0000E+00 0.9000E+01
        1 -1    0    0  501    0 -.00000000E+00 -.00000000E+00 -.12138058E+04 0.12138058E+04 0.00000000E+00 0.0000E+00 0.9000E+01
      -24  2    1    2    0    0 0.23856306E+02 0.14916169E+02 -.11101623E+04 0.11140001E+04 0.88001662E+02 0.0000E+00 0.0000E+00
  9900012  1    3    3    0    0 0.36806202E+02 -.10584738E+02 -.69164291E+03 0.69450461E+03 0.50000000E+02 0.0000E+00 0.9000E+01
       13  1    3    3    0    0 -.12949897E+02 0.25500906E+02 -.41851937E+03 0.41949548E+03 0.00000000E+00 0.0000E+00 0.9000E+01
        2  1    1    2  501    0 -.23856306E+02 -.14916169E+02 -.99779135E+02 0.10367011E+03 0.00000000E+00 0.0000E+00 0.9000E+01
#aMCatNLO 1  0  0  5  2 0.21199767D+02 0.00000000D+00  -5  6  0 0.00000000D+00 0.00000000D+00 0.00000000D+00 0.00000000D+00 0.00000000D+00
  <mgrwgt>
 0.2969232368D-04    5    2    0
 0.684880956460239D+02 0.000000000000000D+00 0.000000000000000D+00 0.684880956460239D+02
 0.684880956460239D+02 -.000000000000000D+00 -.000000000000000D+00 -.684880956460239D+02
 0.644649142142599D+02 0.368062021491266D+02 -.105847376989546D+02 -.137474352463956D+02
 0.322919355071554D+02 -.129498965597397D+02 0.255009064305092D+02 -.149924330618061D+02
 0.402193415706324D+02 -.238563055893869D+02 -.149161687315546D+02 0.287398683082018D+02
 0.000000000000000D+00 0.000000000000000D+00 0.000000000000000D+00 0.000000000000000D+00
 0.684880956460239D+02 0.000000000000000D+00 0.000000000000000D+00 0.684880956460239D+02
 0.684880956460239D+02 -.000000000000000D+00 -.000000000000000D+00 -.684880956460239D+02
 0.596034313948817D+02 0.279954891233970D+02 -.160936410639231D+02 -.313310390694976D+01
 0.301970536474501D+02 -.173875518537311D+02 0.227262599166291D+02 -.964635681086957D+01
 0.292029306571865D+02 -.254101044638949D+02 0.349249211566062D+01 0.139621004481575D+02
 0.179727755925294D+02 0.148021671942290D+02 -.101251109683666D+02 -.118263973033811D+01
0.118900817175D-06 0.000000000000D+00 0.000000000000D+00 0.375172076521D-08 0.000000000000D+00  6 22 1 9900012 13 2 21 0 0.59452157D-03 0.18673935D+00 0.35831177D+04 0.35831177D+04 0.35831177D+04 0.12584729D+01  1  2  2  2  6  5        2 0.321119175209D-04 0.100000000000D+01
-.600624916232D-08 0.000000000000D+00 -.228305222629D-09 0.375172076521D-08 0.000000000000D+00  6 22 1 9900012 13 2 21 2 0.59452157D-03 0.18673935D+00 0.35831177D+04 0.35831177D+04 0.35831177D+04 0.12584729D+01  1  2  3  2  6  5        2 -.256904965070D-05 0.100000000000D+01
0.346817435606D-09 0.000000000000D+00 0.000000000000D+00 0.375172076521D-08 0.000000000000D+00  6 22 1 9900012 13 2 21 2 0.59452157D-03 0.18673935D+00 0.35831177D+04 0.35831177D+04 0.35831177D+04 0.12584729D+01  1  2 15  2  6  5        2 0.148344030978D-06 0.100000000000D+01
0.227784150894D-07 0.000000000000D+00 0.000000000000D+00 0.375172076521D-08 0.000000000000D+00  6 22 1 9900012 13 2 21 2 0.59452157D-03 0.18673935D+00 0.43374539D+04 0.43374539D+04 0.43374539D+04 0.12488584D+01  1  2 12  2  6  5        2 0.974668669147D-05 0.100000000000D+01
-.227844374801D-07 0.000000000000D+00 0.000000000000D+00 0.375172076521D-08 0.000000000000D+00  6 22 1 9900012 13 2 21 2 0.59452157D-03 0.18673935D+00 0.35831177D+04 0.35831177D+04 0.35831177D+04 0.12584729D+01  1  2  4  2  6  5        2 -.974557491168D-05 0.100000000000D+01
  </mgrwgt>
  </event>
  <event>
  6     66 0.98541418E-06 0.20153657E+02 0.78161638E-02 0.12945138E+00
       22 -1    0    0    0    0 0.00000000E+00 0.00000000E+00 0.28721194E+03 0.28721194E+03 0.00000000E+00 0.0000E+00 0.9000E+01
        3 -1    0    0  501    0 0.00000000E+00 0.00000000E+00 -.10352047E+02 0.10352047E+02 0.00000000E+00 0.0000E+00 0.9000E+01
      -24  2    1    2    0    0 0.19389211E+02 -.54980350E+01 0.25344676E+03 0.26667152E+03 0.80450409E+02 0.0000E+00 0.0000E+00
  9900012  1    3    3    0    0 0.29505104E+02 0.13882158E+02 0.20513487E+03 0.21364359E+03 0.50000000E+02 0.0000E+00 0.9000E+01
       13  1    3    3    0    0 -.10115892E+02 -.19380193E+02 0.48311885E+02 0.53027930E+02 0.00000000E+00 0.0000E+00 0.9000E+01
        4  1    1    2  501    0 -.19389211E+02 0.54980350E+01 0.23413136E+02 0.30892472E+02 0.00000000E+00 0.0000E+00 0.9000E+01
#aMCatNLO 1  0  0  5  2 0.64704991D+01 0.00000000D+00  -5  6  0 0.00000000D+00 0.00000000D+00 0.00000000D+00 0.00000000D+00 0.00000000D+00
  <mgrwgt>
 0.5303576668D-04    7    2    0
 0.545273462865834D+02 0.000000000000000D+00 0.000000000000000D+00 0.545273462865834D+02
 0.545273462865834D+02 -.000000000000000D+00 -.000000000000000D+00 -.545273462865834D+02
 0.621616355381752D+02 0.295051035201092D+02 0.138821581002623D+02 0.173436871952849D+02
 0.220401250277541D+02 -.101158923992790D+02 -.193801930853093D+02 -.280070494364748D+01
 0.248529320072375D+02 -.193892111208302D+02 0.549803498504695D+01 -.145429822516375D+02
 0.000000000000000D+00 0.000000000000000D+00 0.000000000000000D+00 -.000000000000000D+00
 0.545273462865834D+02 0.000000000000000D+00 0.000000000000000D+00 0.545273462865834D+02
 0.545273462865834D+02 -.000000000000000D+00 -.000000000000000D+00 -.545273462865834D+02
 0.612101182969160D+02 0.279308365409023D+02 0.143285597033778D+02 0.161628997668914D+02
 0.222234937009939D+02 -.106807117455129D+02 -.192200320294276D+02 -.322435073699474D+01
 0.130742145227714D+02 -.109126142083663D+02 -.360941315318160D+01 -.623073616970319D+01
 0.125468660524855D+02 -.633751058702310D+01 0.850088547923133D+01 -.670781286019347D+01
0.108824566969D-06 0.000000000000D+00 0.000000000000D+00 0.207513118433D-06 0.000000000000D+00  6 22 3 9900012 13 4 21 0 0.44186453D-01 0.15926226D-02 0.25861397D+04 0.25861397D+04 0.25861397D+04 0.12754348D+01  1  2  2  2  6  5        4 0.339809089091D-04 0.100000000000D+01
0.373649151313D-08 0.000000000000D+00 -.208957495664D-09 0.207513118433D-06 0.000000000000D+00  6 22 3 9900012 13 4 21 2 0.44186453D-01 0.15926226D-02 0.25861397D+04 0.25861397D+04 0.25861397D+04 0.12754348D+01  1  2  3  2  6  5        4 0.189796665438D-05 0.100000000000D+01
-.352759774999D-08 0.000000000000D+00 0.000000000000D+00 0.207513118433D-06 0.000000000000D+00  6 22 3 9900012 13 4 21 2 0.44186453D-01 0.15926226D-02 0.25861397D+04 0.25861397D+04 0.25861397D+04 0.12754348D+01  1  2 15  2  6  5        4 -.179185818461D-05 0.100000000000D+01
0.467360413146D-07 0.000000000000D+00 0.000000000000D+00 0.207513118433D-06 0.000000000000D+00  6 22 3 9900012 13 4 21 2 0.44186453D-01 0.15926226D-02 0.26586013D+04 0.26586013D+04 0.26586013D+04 0.12739700D+01  1  2 12  2  6  5        4 0.237800192102D-04 0.100000000000D+01
-.427341804454D-07 0.000000000000D+00 0.000000000000D+00 0.207513118433D-06 0.000000000000D+00  6 22 3 9900012 13 4 21 2 0.44186453D-01 0.15926226D-02 0.25861397D+04 0.25861397D+04 0.25861397D+04 0.12754348D+01  1  2  4  2  6  5        4 -.217070075504D-04 0.100000000000D+01
-.487665234811D-07 0.000000000000D+00 0.000000000000D+00 0.207513118433D-06 0.000000000000D+00  6 22 3 9900012 13 4 21 2 0.44186453D-01 0.15926226D-02 0.25861397D+04 0.25861397D+04 0.25861397D+04 0.12754348D+01  1  2  5  2  6  5        4 -.247711616878D-04 0.100000000000D+01
0.819894730738D-07 0.000000000000D+00 -.000000000000D+00 0.207513118433D-06 0.000000000000D+00  6 22 3 9900012 13 4 21 2 0.44186453D-01 0.15926226D-02 0.25861397D+04 0.25861397D+04 0.25861397D+04 0.12754348D+01  1  2  6  2  6  5        4 0.416468993324D-04 0.100000000000D+01
  </mgrwgt>
  </event>
  <event>
  6     66 0.98541418E-06 0.10692009E+03 0.78161638E-02 0.99863211E-01
       22 -1    0    0    0    0 0.00000000E+00 0.00000000E+00 0.61398572E+03 0.61398572E+03 0.00000000E+00 0.0000E+00 0.9000E+01
        3 -1    0    0  501    0 0.00000000E+00 0.00000000E+00 -.16312858E+03 0.16312858E+03 0.00000000E+00 0.0000E+00 0.9000E+01
      -24  2    1    2    0    0 -.92153750E+02 0.28899973E+03 0.14207899E+03 0.34426663E+03 0.79497889E+02 0.0000E+00 0.0000E+00
  9900012  1    3    3    0    0 -.42093911E+02 0.11254944E+03 0.60692040E+02 0.14360640E+03 0.50000000E+02 0.0000E+00 0.9000E+01
       13  1    3    3    0    0 -.50059839E+02 0.17645029E+03 0.81386952E+02 0.20066023E+03 0.00000000E+00 0.0000E+00 0.9000E+01
        4  1    1    2  501    0 0.92153750E+02 -.28899973E+03 0.30877816E+03 0.43284767E+03 0.00000000E+00 0.0000E+00 0.9000E+01
#aMCatNLO 1  0  0  5  2 0.33180704D+02 0.00000000D+00  -5  6  0 0.00000000D+00 0.00000000D+00 0.00000000D+00 0.00000000D+00 0.00000000D+00
  <mgrwgt>
 0.1208927312D-05    5    2    0
 0.316478461137000D+03 0.000000000000000D+00 0.000000000000000D+00 0.316478461137000D+03
 0.316478461137000D+03 -.000000000000000D+00 -.000000000000000D+00 -.316478461137000D+03
 0.133081952859198D+03 -.420939112806653D+02 0.112549436829692D+03 -.277764842849568D+02
 0.188388881449804D+03 -.500598391595353D+02 0.176450291460189D+03 -.430078806830107D+02
 0.311486087964998D+03 0.921537504402006D+02 -.288999728289881D+03 0.707843649679674D+02
 0.000000000000000D+00 0.000000000000000D+00 0.000000000000000D+00 0.000000000000000D+00
 0.316478461137000D+03 0.000000000000000D+00 0.000000000000000D+00 0.316478461137000D+03
 0.316478461137000D+03 -.000000000000000D+00 -.000000000000000D+00 -.316478461137000D+03
 0.131426859262384D+03 -.415643725676711D+02 0.110888771436875D+03 -.273697394552976D+02
 0.185857696518465D+03 -.493106087287974D+02 0.174100659569187D+03 -.424323880958818D+02
 0.929495735848614D+02 0.387913184166723D+02 -.838292938372262D+02 -.103685264071574D+02
 0.222722792908289D+03 0.520836628797961D+02 -.201160137168836D+03 0.801706539583368D+02
0.796065178279D-06 0.000000000000D+00 0.000000000000D+00 0.418341007271D-06 0.000000000000D+00  6 22 3 9900012 13 4 21 0 0.94459342D-01 0.25096704D-01 0.95141915D+05 0.95141915D+05 0.95141915D+05 0.11193921D+01  1  2  2  2  6  5        4 0.119832118471D-05 0.100000000000D+01
-.448423755167D-07 0.000000000000D+00 -.152854994668D-08 0.418341007271D-06 0.000000000000D+00  6 22 3 9900012 13 4 21 2 0.94459342D-01 0.25096704D-01 0.95141915D+05 0.95141915D+05 0.95141915D+05 0.11193921D+01  1  2  3  2  6  5        4 -.845819474566D-07 0.100000000000D+01
0.444726083183D-08 0.000000000000D+00 0.000000000000D+00 0.418341007271D-06 0.000000000000D+00  6 22 3 9900012 13 4 21 2 0.94459342D-01 0.25096704D-01 0.95141915D+05 0.95141915D+05 0.95141915D+05 0.11193921D+01  1  2 15  2  6  5        4 0.838844904334D-08 0.100000000000D+01
0.918299652132D-06 0.000000000000D+00 0.000000000000D+00 0.418341007271D-06 0.000000000000D+00  6 22 3 9900012 13 4 21 2 0.94459342D-01 0.25096704D-01 0.92920528D+05 0.92920528D+05 0.92920528D+05 0.11202313D+01  1  2 12  2  6  5        4 0.173264657840D-05 0.100000000000D+01
-.872570203472D-06 0.000000000000D+00 0.000000000000D+00 0.418341007271D-06 0.000000000000D+00  6 22 3 9900012 13 4 21 2 0.94459342D-01 0.25096704D-01 0.95141915D+05 0.95141915D+05 0.95141915D+05 0.11193921D+01  1  2  5  2  6  5        4 -.164584695284D-05 0.100000000000D+01
  </mgrwgt>
  </event>
  <event>
  7     66 0.98541418E-06 0.22197585E+02 0.78161638E-02 0.12207640E+00
       22 -1    0    0    0    0 0.00000000E+00 0.00000000E+00 0.11328300E+03 0.11328300E+03 0.00000000E+00 0.0000E+00 0.9000E+01
        1 -1    0    0  502    0 0.00000000E+00 0.00000000E+00 -.85955367E+02 0.85955367E+02 0.00000000E+00 0.0000E+00 0.9000E+01
      -24  2    1    2    0    0 0.54595650E+01 -.67230449E+01 0.57034586E+02 0.98102743E+02 0.79348586E+02 0.0000E+00 0.0000E+00
  9900012  1    3    3    0    0 0.25375819E+02 -.11353145E+02 0.31225835E+02 0.65175754E+02 0.50000000E+02 0.0000E+00 0.9000E+01
       13  1    3    3    0    0 -.19916254E+02 0.46301003E+01 0.25808751E+02 0.32926990E+02 0.00000000E+00 0.0000E+00 0.9000E+01
        2  1    1    2  501    0 0.30698370E+02 -.38267816E+01 0.21423343E+02 0.37629693E+02 0.00000000E+00 0.0000E+00 0.9000E+01
       21  1    1    2  502  501 -.36157935E+02 0.10549826E+02 -.51130301E+02 0.63505927E+02 0.00000000E+00 0.0000E+00 0.9000E+01
#aMCatNLO 2  0  0  2  5 0.16084717D+03 0.00000000D+00  -5  6  0 0.00000000D+00 0.00000000D+00 0.00000000D+00 0.00000000D+00 0.00000000D+00
  <mgrwgt>
 0.3231856361D-05    1    2    0
 0.520791526449081D+02 0.000000000000000D+00 0.000000000000000D+00 0.520791526449081D+02
 0.520791526449081D+02 0.000000000000000D+00 0.000000000000000D+00 -.520791526449081D+02
 0.514528203857145D+02 0.700315268660447D+01 -.599253915427054D+01 -.790177528010232D+01
 0.308505090672832D+02 -.288194913051404D+02 0.722780414964508D+01 0.830359426982289D+01
 0.218549758368184D+02 0.218163386185359D+02 -.123526499537454D+01 -.401818989720567D+00
 0.000000000000000D+00 -.000000000000000D+00 0.000000000000000D+00 -.000000000000000D+00
 0.585794703487588D+02 0.000000000000000D+00 0.000000000000000D+00 0.585794703487588D+02
 0.166223447587213D+03 0.000000000000000D+00 0.000000000000000D+00 -.166223447587213D+03
 0.577517459938257D+02 0.253758193223232D+02 -.113531452240750D+02 -.790177528010232D+01
 0.220690890772772D+02 -.199162543120363D+02 0.463010033166179D+01 0.830359426982289D+01
 0.309385783183719D+02 0.306983698665424D+02 -.382678159796126D+01 -.401818989720567D+00
 0.114043504546497D+03 -.361579348768293D+02 0.105498264903744D+02 -.107643977238454D+03
0.215628379036D-07 0.000000000000D+00 0.000000000000D+00 0.883147561862D-07 0.343521990848D-09  6 22 1 9900012 13 2 21 2 0.17428153D-01 0.13223903D-01 0.53478162D+04 0.53478162D+04 0.53478162D+04 0.12385707D+01  1  2  1  1  6  2        1 0.323185636084D-05 0.100000000000D+01
  </mgrwgt>
  </event>
  <event>
  6     66 0.98541418E-06 0.30808032E+02 0.78161638E-02 0.12500798E+00
       22 -1    0    0    0    0 0.00000000E+00 0.00000000E+00 0.95390865E+01 0.95390865E+01 0.00000000E+00 0.0000E+00 0.9000E+01
        1 -1    0    0  501    0 0.00000000E+00 0.00000000E+00 -.53336972E+03 0.53336972E+03 0.00000000E+00 0.0000E+00 0.9000E+01
      -24  2    1    2    0    0 0.30255094E+02 -.58106925E+01 -.44789622E+03 0.46096267E+03 0.10452952E+03 0.0000E+00 0.0000E+00
  9900012  1    3    3    0    0 0.34473903E+02 0.18685282E+02 -.16243201E+03 0.17441831E+03 0.50000000E+02 0.0000E+00 0.9000E+01
       13  1    3    3    0    0 -.42188091E+01 -.24495975E+02 -.28546421E+03 0.28654435E+03 0.00000000E+00 0.0000E+00 0.9000E+01
        2  1    1    2  501    0 -.30255094E+02 0.58106925E+01 -.75934409E+02 0.81946136E+02 0.00000000E+00 0.0000E+00 0.9000E+01
#aMCatNLO 1  0  0  2  5 0.73378622D+01 0.00000000D+00  -5  6  0 0.00000000D+00 0.00000000D+00 0.00000000D+00 0.00000000D+00 0.00000000D+00
  <mgrwgt>
 0.3711038387D-04   11    2    0
 0.713292358607946D+02 0.000000000000000D+00 0.000000000000000D+00 0.713292358607946D+02
 0.713292358607946D+02 0.000000000000000D+00 0.000000000000000D+00 -.713292358607946D+02
 0.673382720161049D+02 0.344739030632591D+02 0.186852824941665D+02 0.222902019688730D+02
 0.422866919193566D+02 -.421880908041838D+01 -.244959750374499D+02 -.342098402567183D+02
 0.330335077861277D+02 -.302550939828407D+02 0.581069254328342D+01 0.119196382878454D+02
 0.000000000000000D+00 -.000000000000000D+00 -.000000000000000D+00 -.000000000000000D+00
 0.728622356446333D+02 0.000000000000000D+00 0.000000000000000D+00 0.728622356446333D+02
 0.790814367231460D+02 0.000000000000000D+00 0.000000000000000D+00 -.790814367231460D+02
 0.690302791522836D+02 0.376660695098123D+02 0.186974207769692D+02 0.222902019688730D+02
 0.421310777210585D+02 -.224272610945361D+01 -.244884609386882D+02 -.342098402567183D+02
 0.316535428463476D+02 -.287408751194277D+02 0.581645039366403D+01 0.119196382878454D+02
 0.912877264808963D+01 -.668246828093099D+01 -.254102319449678D-01 -.621920107851267D+01
0.769791982623D-07 0.000000000000D+00 0.000000000000D+00 0.699074332173D-09 0.000000000000D+00  6 22 1 9900012 13 2 21 0 0.14675518D-02 0.82056880D-01 0.35525579D+04 0.35525579D+04 0.35525579D+04 0.12589093D+01  1  2  2  1  6  2        1 0.222333562402D-04 0.100000000000D+01
-.243871159399D-08 0.000000000000D+00 -.147810195208D-09 0.699074332173D-09 0.000000000000D+00  6 22 1 9900012 13 2 21 2 0.14675518D-02 0.82056880D-01 0.35525579D+04 0.35525579D+04 0.35525579D+04 0.12589093D+01  1  2  3  1  6  2        1 -.111630019664D-05 0.100000000000D+01
0.471810301659D-09 0.000000000000D+00 0.000000000000D+00 0.699074332173D-09 0.000000000000D+00  6 22 1 9900012 13 2 21 2 0.14675518D-02 0.82056880D-01 0.35525579D+04 0.35525579D+04 0.35525579D+04 0.12589093D+01  1  2 15  1  6  2        1 0.215967289375D-06 0.100000000000D+01
0.195873663102D-06 0.000000000000D+00 0.000000000000D+00 0.699074332173D-09 0.000000000000D+00  6 22 1 9900012 13 2 21 2 0.14675518D-02 0.92930206D-01 0.39645543D+04 0.39645543D+04 0.39645543D+04 0.12533541D+01  1  2 12  1  6  2        1 0.759721086102D-04 0.100000000000D+01
-.192879359210D-06 0.000000000000D+00 0.000000000000D+00 0.699074332173D-09 0.000000000000D+00  6 22 1 9900012 13 2 21 2 0.14675518D-02 0.82056880D-01 0.35525579D+04 0.35525579D+04 0.35525579D+04 0.12589093D+01  1  2  4  1  6  2        1 -.882889420567D-04 0.100000000000D+01
-.420710795645D-06 0.000000000000D+00 -.683257133373D-07 0.699074332173D-09 0.000000000000D+00  6 22 1 9900012 13 2 21 2 0.14675518D-02 0.92260631D-01 0.35525579D+04 0.35525579D+04 0.35525579D+04 0.12589093D+01  1  2  5  1  6  2        1 -.164644762555D-03 0.100000000000D+01
0.426254446983D-06 0.000000000000D+00 0.678590901745D-07 0.699074332173D-09 0.000000000000D+00  6 22 1 9900012 13 2 21 2 0.14675518D-02 0.82056880D-01 0.35525579D+04 0.35525579D+04 0.35525579D+04 0.12589093D+01  1  2  6  1  6  2        1 0.195114471166D-03 0.100000000000D+01
0.404222244702D-08 0.000000000000D+00 0.000000000000D+00 0.699074332173D-09 0.251919955660D-09  6 22 1 9900012 13 2 21 2 0.14990922D-02 0.90974982D-01 0.39645543D+04 0.39645543D+04 0.39645543D+04 0.12533541D+01  1  2 11  1  6  2        1 0.156892917834D-05 0.100000000000D+01
0.383130481851D-08 0.000000000000D+00 0.000000000000D+00 0.699074332173D-09 0.000000000000D+00  6 22 21 9900012 13 2 -1 2 0.14675518D-02 0.92930206D-01 0.39645543D+04 0.39645543D+04 0.39645543D+04 0.12533541D+01  1  2 12  3  6  2        1 0.403312848603D-05 0.100000000000D+01
-.752296675903D-08 0.000000000000D+00 -.127091160676D-08 0.699074332173D-09 0.000000000000D+00  6 22 21 9900012 13 2 -1 2 0.14675518D-02 0.92260631D-01 0.35525579D+04 0.35525579D+04 0.35525579D+04 0.12589093D+01  1  2  5  3  6  2        1 -.807793696055D-05 0.100000000000D+01
0.932647893613D-10 0.000000000000D+00 0.000000000000D+00 0.699074332173D-09 0.231108047081D-11  6 22 21 9900012 13 2 -1 2 0.14990922D-02 0.90974982D-01 0.39645543D+04 0.39645543D+04 0.39645543D+04 0.12533541D+01  1  2 11  3  6  2        1 0.100364665457D-06 0.100000000000D+01
  </mgrwgt>
  </event>
  <event>
  7     66 0.98541418E-06 0.27625390E+02 0.78161638E-02 0.11832051E+00
       22 -1    0    0    0    0 0.00000000E+00 0.00000000E+00 0.13677515E+03 0.13677515E+03 0.00000000E+00 0.0000E+00 0.9000E+01
        1 -1    0    0  501    0 0.00000000E+00 0.00000000E+00 -.70772136E+02 0.70772136E+02 0.00000000E+00 0.0000E+00 0.9000E+01
      -24  2    1    2    0    0 -.41108468E+02 -.34007009E+01 0.23193845E+00 0.90392146E+02 0.80431433E+02 0.0000E+00 0.0000E+00
  9900012  1    3    3    0    0 -.86622348E+01 -.17231110E+02 -.79704998E+01 0.54180018E+02 0.50000000E+02 0.0000E+00 0.9000E+01
       13  1    3    3    0    0 -.32446233E+02 0.13830409E+02 0.82024383E+01 0.36212129E+02 0.00000000E+00 0.0000E+00 0.9000E+01
        2  1    1    2  502    0 0.24633316E+02 0.41797865E+02 0.13740781E+02 0.50424903E+02 0.00000000E+00 0.0000E+00 0.9000E+01
       21  1    1    2  501  502 0.16475152E+02 -.38397164E+02 0.52030290E+02 0.66730232E+02 0.00000000E+00 0.0000E+00 0.9000E+01
#aMCatNLO 2  0  0  5  2 0.43828795D+02 0.00000000D+00  -5  6  0 0.00000000D+00 0.00000000D+00 0.00000000D+00 0.00000000D+00 0.00000000D+00
  <mgrwgt>
 0.1805403056D-05    2    2    0
 0.983863264809767D+02 0.000000000000000D+00 0.000000000000000D+00 0.983863264809767D+02
 0.983863264809767D+02 -.000000000000000D+00 -.000000000000000D+00 -.983863264809767D+02
 0.696160247686950D+02 -.239922485403527D+02 -.184992864481530D+02 -.377960224823020D+02
 0.452086007597684D+02 -.419984250639899D+02 0.130402033020475D+02 -.104834618634223D+02
 0.819480274334899D+02 0.659906736043426D+02 0.545908314610552D+01 0.482794843457243D+02
 0.000000000000000D+00 0.000000000000000D+00 -.000000000000000D+00 0.000000000000000D+00
 0.983863264809767D+02 0.000000000000000D+00 0.000000000000000D+00 0.983863264809767D+02
 0.983863264809767D+02 -.000000000000000D+00 -.000000000000000D+00 -.983863264809767D+02
 0.598202657465754D+02 -.866223480712256D+01 -.172311099766958D+02 -.265804200701982D+02
 0.354436611911759D+02 -.324462331833196D+02 0.138304090516779D+02 -.349497586712491D+01
 0.485769668404120D+02 0.246333155272130D+02 0.417978652044470D+02 -.242073086115271D+01
 0.529317591837900D+02 0.164751524632292D+02 -.383971642794291D+02 0.324961267984758D+02
-.121653231062D-07 0.000000000000D+00 0.000000000000D+00 0.186969927613D-06 0.000000000000D+00  6 22 1 9900012 13 2 21 2 0.21042330D-01 0.10888021D-01 0.80246232D+04 0.80246232D+04 0.80246232D+04 0.12193684D+01  1  2 13  2  6  5        2 -.178278354976D-05 0.100000000000D+01
0.244849967502D-07 0.000000000000D+00 0.000000000000D+00 0.186969927613D-06 0.284546001541D-09  6 22 1 9900012 13 2 21 2 0.21042330D-01 0.10888021D-01 0.80246232D+04 0.80246232D+04 0.80246232D+04 0.12193684D+01  1  2  1  2  6  5        2 0.358818660556D-05 0.100000000000D+01
  </mgrwgt>
  </event>
  <event>
  6     66 0.98541418E-06 0.25930323E+02 0.78161638E-02 0.12404411E+00
       22 -1    0    0    0    0 0.00000000E+00 0.00000000E+00 0.11472951E+03 0.11472951E+03 0.00000000E+00 0.0000E+00 0.9000E+01
        3 -1    0    0  501    0 0.00000000E+00 0.00000000E+00 -.47266784E+02 0.47266784E+02 0.00000000E+00 0.0000E+00 0.9000E+01
      -24  2    1    2    0    0 0.10097943E+02 -.49751646E+02 0.27662532E+02 0.97488543E+02 0.78495895E+02 0.0000E+00 0.0000E+00
  9900012  1    3    3    0    0 0.15184503E+02 -.28423913E+02 0.40609795E+02 0.72025297E+02 0.50000000E+02 0.0000E+00 0.9000E+01
       13  1    3    3    0    0 -.50865603E+01 -.21327733E+02 -.12947262E+02 0.25463246E+02 0.00000000E+00 0.0000E+00 0.9000E+01
        4  1    1    2  501    0 -.10097943E+02 0.49751646E+02 0.39800194E+02 0.64507753E+02 0.00000000E+00 0.0000E+00 0.9000E+01
#aMCatNLO 1  0  0  5  2 0.14713103D+02 0.00000000D+00  -5  6  0 0.00000000D+00 0.00000000D+00 0.00000000D+00 0.00000000D+00 0.00000000D+00
  <mgrwgt>
 0.6623425513D-04    7    2    0
 0.736403087809186D+02 0.000000000000000D+00 0.000000000000000D+00 0.736403087809186D+02
 0.736403087809186D+02 -.000000000000000D+00 -.000000000000000D+00 -.736403087809186D+02
 0.606202227160145D+02 0.151845034349656D+02 -.284239133687898D+02 0.116757614902093D+02
 0.339379964057668D+02 -.508656029901706D+01 -.213277326196754D+02 -.259044846631995D+02
 0.527223984400558D+02 -.100979431359486D+02 0.497516459884652D+02 0.142287231729902D+02
 0.000000000000000D+00 -.000000000000000D+00 0.000000000000000D+00 0.000000000000000D+00
 0.736403087809186D+02 0.000000000000000D+00 0.000000000000000D+00 0.736403087809186D+02
 0.736403087809186D+02 -.000000000000000D+00 -.000000000000000D+00 -.736403087809186D+02
 0.587870669410982D+02 0.143229365118032D+02 -.241790516202670D+02 0.128897708265305D+02
 0.320619481680293D+02 -.556277384794377D+01 -.189814718433824D+02 -.252334657569053D+02
 0.410679782118053D+02 0.599557293744136D+01 0.391569482621678D+02 0.108335286195703D+02
 0.153636242409044D+02 -.147557356013008D+02 0.400357520148165D+01 0.151016631080446D+01
0.389781985578D-06 0.000000000000D+00 0.000000000000D+00 0.818521713076D-07 0.000000000000D+00  6 22 3 9900012 13 4 21 0 0.17650694D-01 0.72718130D-02 0.43677013D+04 0.43677013D+04 0.43677013D+04 0.12485128D+01  1  2  2  2  6  5        4 0.570872786980D-04 0.100000000000D+01
-.194106238884D-07 0.000000000000D+00 -.748432728286D-09 0.818521713076D-07 0.000000000000D+00  6 22 3 9900012 13 4 21 2 0.17650694D-01 0.72718130D-02 0.43677013D+04 0.43677013D+04 0.43677013D+04 0.12485128D+01  1  2  3  2  6  5        4 -.443142190382D-05 0.100000000000D+01
-.728913419914D-08 0.000000000000D+00 0.000000000000D+00 0.818521713076D-07 0.000000000000D+00  6 22 3 9900012 13 4 21 2 0.17650694D-01 0.72718130D-02 0.43677013D+04 0.43677013D+04 0.43677013D+04 0.12485128D+01  1  2 15  2  6  5        4 -.166410050165D-05 0.100000000000D+01
0.239005030535D-06 0.000000000000D+00 0.000000000000D+00 0.818521713076D-07 0.000000000000D+00  6 22 3 9900012 13 4 21 2 0.17650694D-01 0.72718130D-02 0.43585659D+04 0.43585659D+04 0.43585659D+04 0.12486169D+01  1  2 12  2  6  5        4 0.545600558120D-04 0.100000000000D+01
-.243585634016D-06 0.000000000000D+00 0.000000000000D+00 0.818521713076D-07 0.000000000000D+00  6 22 3 9900012 13 4 21 2 0.17650694D-01 0.72718130D-02 0.43677013D+04 0.43677013D+04 0.43677013D+04 0.12485128D+01  1  2  4  2  6  5        4 -.556103049671D-04 0.100000000000D+01
-.215304824100D-06 0.000000000000D+00 0.000000000000D+00 0.818521713076D-07 0.000000000000D+00  6 22 3 9900012 13 4 21 2 0.17650694D-01 0.72718130D-02 0.43677013D+04 0.43677013D+04 0.43677013D+04 0.12485128D+01  1  2  5  2  6  5        4 -.491538303456D-04 0.100000000000D+01
0.286670722055D-06 0.000000000000D+00 -.000000000000D+00 0.818521713076D-07 0.000000000000D+00  6 22 3 9900012 13 4 21 2 0.17650694D-01 0.72718130D-02 0.43677013D+04 0.43677013D+04 0.43677013D+04 0.12485128D+01  1  2  6  2  6  5        4 0.654465783377D-04 0.100000000000D+01
  </mgrwgt>
  </event>
  <event>
  7     66 -.98541418E-06 0.28805508E+02 0.78161638E-02 0.12654793E+00
       22 -1    0    0    0    0 0.00000000E+00 0.00000000E+00 0.16529122E+03 0.16529122E+03 0.00000000E+00 0.0000E+00 0.9000E+01
        1 -1    0    0  502    0 0.00000000E+00 0.00000000E+00 -.31420660E+02 0.31420660E+02 0.00000000E+00 0.0000E+00 0.9000E+01
      -24  2    1    2    0    0 -.28489319E+02 -.14847173E+02 0.38014130E+02 0.94921036E+02 0.80826042E+02 0.0000E+00 0.0000E+00
  9900012  1    3    3    0    0 -.16698725E+02 -.32137541E+02 0.40513425E+02 0.73844476E+02 0.50000000E+02 0.0000E+00 0.9000E+01
       13  1    3    3    0    0 -.11790594E+02 0.17290367E+02 -.24992949E+01 0.21076560E+02 0.00000000E+00 0.0000E+00 0.9000E+01
        2  1    1    2  501    0 0.25550743E+02 0.16765552E+02 0.82405156E+02 0.87889328E+02 0.00000000E+00 0.0000E+00 0.9000E+01
       21  1    1    2  502  501 0.29385763E+01 -.19183788E+01 0.13451272E+02 0.13901516E+02 0.00000000E+00 0.0000E+00 0.9000E+01
#aMCatNLO 2  0  0  2  5 0.12431333D+02 0.00000000D+00  -5  6  0 0.00000000D+00 0.00000000D+00 0.00000000D+00 0.00000000D+00 0.00000000D+00
  <mgrwgt>
 -.1279669914D-04    3    2    0
 0.687504712182907D+02 0.000000000000000D+00 0.000000000000000D+00 0.687504712182907D+02
 0.687504712182907D+02 0.000000000000000D+00 0.000000000000000D+00 -.687504712182907D+02
 0.627888002158019D+02 -.153582600804056D+02 -.330126313316752D+02 -.108038628462883D+02
 0.297173229224035D+02 -.111504347386186D+02 0.168724548254400D+02 -.217740064062107D+02
 0.449948192983759D+02 0.265086948190242D+02 0.161401765062352D+02 0.325778692524990D+02
 0.000000000000000D+00 0.000000000000000D+00 -.000000000000000D+00 0.000000000000000D+00
 0.749765051750550D+02 0.000000000000000D+00 0.000000000000000D+00 0.749765051750550D+02
 0.692691562444747D+02 0.000000000000000D+00 0.000000000000000D+00 -.692691562444747D+02
 0.626768889733634D+02 -.166987253726883D+02 -.321375408191954D+02 -.108038628462883D+02
 0.302006998113090D+02 -.117905940552876D+02 0.172903674321429D+02 -.217740064062107D+02
 0.446681293568295D+02 0.255507431156321D+02 0.167655522260532D+02 0.325778692524990D+02
 0.669994327802782D+01 0.293857631234385D+01 -.191837883900072D+01 0.570734893058029D+01
-.476982345891D-07 0.000000000000D+00 0.000000000000D+00 0.144113500083D-06 0.000000000000D+00  6 22 1 9900012 13 2 21 2 0.23317765D-01 0.52717094D-02 0.34068276D+04 0.34068276D+04 0.34068276D+04 0.12610504D+01  1  2 13  1  6  2        1 -.151940597576D-04 0.100000000000D+01
-.102926341122D-09 0.000000000000D+00 0.000000000000D+00 0.144113500083D-06 0.000000000000D+00  6 22 1 9900012 13 2 21 2 0.23317765D-01 0.47977513D-02 0.31985863D+04 0.31985863D+04 0.31985863D+04 0.12642966D+01  1  2  8  1  6  2        1 -.370524849027D-07 0.100000000000D+01
0.776286604693D-08 0.000000000000D+00 0.000000000000D+00 0.144113500083D-06 0.555475728455D-07  6 22 1 9900012 13 2 21 2 0.25429418D-01 0.48339477D-02 0.34068276D+04 0.34068276D+04 0.34068276D+04 0.12610504D+01  1  2  1  1  6  2        1 0.243441310456D-05 0.100000000000D+01
  </mgrwgt>
  </event>
  <event>
  6     66 0.98541418E-06 0.74685579E+02 0.78161638E-02 0.11428656E+00
       22 -1    0    0    0    0 0.00000000E+00 0.00000000E+00 0.32215253E+02 0.32215253E+02 0.00000000E+00 0.0000E+00 0.9000E+01
        3 -1    0    0  501    0 0.00000000E+00 0.00000000E+00 -.27626077E+03 0.27626077E+03 0.00000000E+00 0.0000E+00 0.9000E+01
      -24  2    1    2    0    0 -.74594270E+02 0.36919712E+01 -.12069801E+03 0.16427983E+03 0.82715876E+02 0.0000E+00 0.0000E+00
  9900012  1    3    3    0    0 -.38196140E+02 0.25496027E+02 -.62660164E+02 0.92386626E+02 0.50000000E+02 0.0000E+00 0.9000E+01
       13  1    3    3    0    0 -.36398129E+02 -.21804056E+02 -.58037847E+02 0.71893201E+02 0.00000000E+00 0.0000E+00 0.9000E+01
        4  1    1    2  501    0 0.74594270E+02 -.36919712E+01 -.12334751E+03 0.14419620E+03 0.00000000E+00 0.0000E+00 0.9000E+01
#aMCatNLO 1  0  0  2  2 0.90132546D+02 0.00000000D+00  -5  6  0 0.00000000D+00 0.00000000D+00 0.00000000D+00 0.00000000D+00 0.00000000D+00
  <mgrwgt>
 0.5516113634D-05    4    2    0
 0.943388080315230D+02 0.000000000000000D+00 0.000000000000000D+00 0.943388080315230D+02
 0.943388080315230D+02 0.000000000000000D+00 0.000000000000000D+00 -.943388080315230D+02
 0.699983775826866D+02 -.381961404510935D+02 0.254960273863654D+02 0.170522815588532D+02
 0.424716646584047D+02 -.363981293589811D+02 -.218040561663952D+02 -.189779153637619D+01
 0.762075738219546D+02 0.745942698100746D+02 -.369197121997018D+01 -.151544900224770D+02
 0.000000000000000D+00 0.000000000000000D+00 0.000000000000000D+00 0.000000000000000D+00
 0.144619083000790D+03 0.000000000000000D+00 0.000000000000000D+00 0.144619083000790D+03
 0.103477395599861D+03 0.000000000000000D+00 0.000000000000000D+00 -.103477395599861D+03
 0.679958930289182D+02 -.410371624152332D+02 0.121906711605005D+02 0.170522815588532D+02
 0.490648606332929D+02 -.382826806357997D+02 -.306299738750505D+02 -.189779153637619D+01
 0.753209915231701D+02 0.714746041860449D+02 -.183022991080440D+02 -.151544900224770D+02
 0.557147334152700D+02 0.784523886498794D+01 0.367416018225941D+02 0.411416874009299D+02
0.133571487237D-06 0.000000000000D+00 0.000000000000D+00 0.423760296857D-07 0.000000000000D+00  6 22 3 9900012 13 4 21 0 0.49561928D-02 0.42501657D-01 0.85566555D+04 0.85566555D+04 0.85566555D+04 0.12164122D+01  1  2  2  1  6  2        3 0.623094429664D-05 0.100000000000D+01
-.400381426287D-08 0.000000000000D+00 -.256474840586D-09 0.423760296857D-07 0.000000000000D+00  6 22 3 9900012 13 4 21 2 0.49561928D-02 0.42501657D-01 0.85566555D+04 0.85566555D+04 0.85566555D+04 0.12164122D+01  1  2  3  1  6  2        3 -.276360260942D-06 0.100000000000D+01
-.202607195210D-08 0.000000000000D+00 0.000000000000D+00 0.423760296857D-07 0.000000000000D+00  6 22 3 9900012 13 4 21 2 0.49561928D-02 0.42501657D-01 0.85566555D+04 0.85566555D+04 0.85566555D+04 0.12164122D+01  1  2 15  1  6  2        3 -.139848088999D-06 0.100000000000D+01
-.432633936387D-08 0.000000000000D+00 0.000000000000D+00 0.423760296857D-07 0.000000000000D+00  6 22 3 9900012 13 4 21 2 0.49561928D-02 0.42501657D-01 0.85566555D+04 0.85566555D+04 0.85566555D+04 0.12164122D+01  1  2  4  1  6  2        3 -.298622312881D-06 0.100000000000D+01
  </mgrwgt>
  </event>
  <event>
  6     66 0.98541418E-06 0.38202866E+02 0.78161638E-02 0.12361676E+00
       22 -1    0    0    0    0 0.00000000E+00 0.00000000E+00 0.23482491E+02 0.23482491E+02 0.00000000E+00 0.0000E+00 0.9000E+01
        1 -1    0    0  501    0 0.00000000E+00 0.00000000E+00 -.22487851E+03 0.22487851E+03 0.00000000E+00 0.0000E+00 0.9000E+01
      -24  2    1    2    0    0 0.45506657E+02 -.91009974E+01 -.16332639E+03 0.18833617E+03 0.81494281E+02 0.0000E+00 0.0000E+00
  9900012  1    3    3    0    0 0.19297086E+02 -.22757971E+02 -.73474945E+02 0.93748975E+02 0.50000000E+02 0.0000E+00 0.9000E+01
       13  1    3    3    0    0 0.26209571E+02 0.13656973E+02 -.89851449E+02 0.94587195E+02 0.00000000E+00 0.0000E+00 0.9000E+01
        2  1    1    2  501    0 -.45506657E+02 0.91009974E+01 -.38069628E+02 0.60024833E+02 0.00000000E+00 0.0000E+00 0.9000E+01
#aMCatNLO 1  0  0  2  5 0.40010271D+01 0.00000000D+00  -5  6  0 0.00000000D+00 0.00000000D+00 0.00000000D+00 0.00000000D+00 0.00000000D+00
  <mgrwgt>
 0.3699895659D-04    8    2    0
 0.726684769388121D+02 0.000000000000000D+00 0.000000000000000D+00 0.726684769388121D+02
 0.726684769388121D+02 0.000000000000000D+00 0.000000000000000D+00 -.726684769388121D+02
 0.583886450328512D+02 0.192970861863820D+02 -.227579705589595D+02 0.435098948805633D+01
 0.371278332615998D+02 0.262095712764727D+02 0.136569731263354D+02 -.224726825552983D+02
 0.498204755831731D+02 -.455066574628547D+02 0.910099743262406D+01 0.181216930672419D+02
 0.000000000000000D+00 0.000000000000000D+00 0.000000000000000D+00 0.000000000000000D+00
 0.746419948103851D+02 0.000000000000000D+00 0.000000000000000D+00 0.746419948103851D+02
 0.727765040550690D+02 0.000000000000000D+00 0.000000000000000D+00 -.727765040550690D+02
 0.583344827307647D+02 0.189586759974233D+02 -.229030428189234D+02 0.435098948805633D+01
 0.369426459767596D+02 0.259948220202149D+02 0.135649127778373D+02 -.224726825552983D+02
 0.500627175268419D+02 -.457962443759352D+02 0.897685510680992D+01 0.181216930672419D+02
 0.207865263108794D+01 0.842746358296946D+00 0.361274934276175D+00 0.186549075531609D+01
0.144459804069D-06 0.000000000000D+00 0.000000000000D+00 0.750615440296D-07 0.000000000000D+00  6 22 1 9900012 13 2 21 0 0.36126908D-02 0.34596694D-01 0.45016298D+04 0.45016298D+04 0.45016298D+04 0.12470143D+01  1  2  2  1  6  2        1 0.378247683233D-04 0.100000000000D+01
-.709486039084D-08 0.000000000000D+00 -.277381842383D-09 0.750615440296D-07 0.000000000000D+00  6 22 1 9900012 13 2 21 2 0.36126908D-02 0.34596694D-01 0.45016298D+04 0.45016298D+04 0.45016298D+04 0.12470143D+01  1  2  3  1  6  2        1 -.288879010922D-05 0.100000000000D+01
-.682719802227D-09 0.000000000000D+00 0.000000000000D+00 0.750615440296D-07 0.000000000000D+00  6 22 1 9900012 13 2 21 2 0.36126908D-02 0.34596694D-01 0.45016298D+04 0.45016298D+04 0.45016298D+04 0.12470143D+01  1  2 15  1  6  2        1 -.277980693544D-06 0.100000000000D+01
0.392636896236D-08 0.000000000000D+00 0.000000000000D+00 0.750615440296D-07 0.000000000000D+00  6 22 1 9900012 13 2 21 2 0.36126908D-02 0.35589093D-01 0.45615136D+04 0.45615136D+04 0.45615136D+04 0.12463603D+01  1  2 12  1  6  2        1 0.154446789960D-05 0.100000000000D+01
-.646036672411D-07 0.000000000000D+00 0.000000000000D+00 0.750615440296D-07 0.000000000000D+00  6 22 1 9900012 13 2 21 2 0.36126908D-02 0.34596694D-01 0.45016298D+04 0.45016298D+04 0.45016298D+04 0.12470143D+01  1  2  4  1  6  2        1 -.263044548680D-04 0.100000000000D+01
0.626451363718D-07 0.000000000000D+00 0.000000000000D+00 0.750615440296D-07 0.512777104851D-07  6 22 1 9900012 13 2 21 2 0.37108037D-02 0.34648125D-01 0.45615136D+04 0.45615136D+04 0.45615136D+04 0.12463603D+01  1  2 11  1  6  2        1 0.245589705947D-04 0.100000000000D+01
0.153494101254D-09 0.000000000000D+00 0.000000000000D+00 0.750615440296D-07 0.000000000000D+00  6 22 21 9900012 13 2 -1 2 0.36126908D-02 0.35589093D-01 0.45615136D+04 0.45615136D+04 0.45615136D+04 0.12463603D+01  1  2 12  3  6  2        1 0.367811415506D-06 0.100000000000D+01
0.893862279002D-09 0.000000000000D+00 0.000000000000D+00 0.750615440296D-07 0.135350339895D-09  6 22 21 9900012 13 2 -1 2 0.37108037D-02 0.34648125D-01 0.45615136D+04 0.45615136D+04 0.45615136D+04 0.12463603D+01  1  2 11  3  6  2        1 0.217416402384D-05 0.100000000000D+01
  </mgrwgt>
  </event>
  <event>
  6     66 0.98541418E-06 0.41768918E+02 0.78161638E-02 0.11909026E+00
       22 -1    0    0    0    0 0.00000000E+00 0.00000000E+00 0.65220574E+03 0.65220574E+03 0.00000000E+00 0.0000E+00 0.9000E+01
        3 -1    0    0  501    0 0.00000000E+00 0.00000000E+00 -.29498531E+02 0.29498531E+02 0.00000000E+00 0.0000E+00 0.9000E+01
      -24  2    1    2    0    0 -.44911430E+02 -.49758643E+02 0.70503123E+02 0.12544686E+03 0.79203940E+02 0.0000E+00 0.0000E+00
  9900012  1    3    3    0    0 -.23646889E+02 -.10370739E+02 0.53252990E+02 0.77476503E+02 0.50000000E+02 0.0000E+00 0.9000E+01
       13  1    3    3    0    0 -.21264541E+02 -.39387903E+02 0.17250133E+02 0.47970352E+02 0.00000000E+00 0.0000E+00 0.9000E+01
        4  1    1    2  501    0 0.44911430E+02 0.49758643E+02 0.55220409E+03 0.55625742E+03 0.00000000E+00 0.0000E+00 0.9000E+01
#aMCatNLO 1  0  0  5  2 0.21162209D+02 0.00000000D+00  -5  6  0 0.00000000D+00 0.00000000D+00 0.00000000D+00 0.00000000D+00 0.00000000D+00
  <mgrwgt>
 0.5054448047D-05    5    2    0
 0.138705123158564D+03 0.000000000000000D+00 0.000000000000000D+00 0.138705123158564D+03
 0.138705123158564D+03 -.000000000000000D+00 -.000000000000000D+00 -.138705123158564D+03
 0.708518978604940D+02 -.236468890681831D+02 -.103707391919734D+02 -.430495509435695D+02
 0.791600610327307D+02 -.212645405398997D+02 -.393879034446435D+02 -.652895676243001D+02
 0.127398287423902D+03 0.449114296080828D+02 0.497586426366169D+02 0.108339118567870D+03
 0.000000000000000D+00 0.000000000000000D+00 0.000000000000000D+00 0.000000000000000D+00
 0.138705123158564D+03 0.000000000000000D+00 0.000000000000000D+00 0.138705123158564D+03
 0.138705123158564D+03 -.000000000000000D+00 -.000000000000000D+00 -.138705123158564D+03
 0.695466244345296D+02 -.229745267365035D+02 -.962580995511063D+01 -.414276221159178D+02
 0.770587577261892D+02 -.205164155061315D+02 -.385590345681096D+02 -.634848776501823D+02
 0.504580541578130D+02 0.125805438590667D+02 0.373136325968259D+02 0.315505620874174D+02
 0.803468099985954D+02 0.309103983835684D+02 0.108712119263943D+02 0.733619376786826D+02
0.270375399782D-06 0.000000000000D+00 0.000000000000D+00 0.494306241354D-06 0.000000000000D+00  6 22 3 9900012 13 4 21 0 0.10033935D+00 0.45382355D-02 0.70614338D+04 0.70614338D+04 0.70614338D+04 0.12253207D+01  1  2  2  2  6  5        4 0.493803607659D-05 0.100000000000D+01
-.161390650890D-07 0.000000000000D+00 -.519156363321D-09 0.494306241354D-06 0.000000000000D+00  6 22 3 9900012 13 4 21 2 0.10033935D+00 0.45382355D-02 0.70614338D+04 0.70614338D+04 0.70614338D+04 0.12253207D+01  1  2  3  2  6  5        4 -.442552713553D-06 0.100000000000D+01
0.102830021064D-07 0.000000000000D+00 0.000000000000D+00 0.494306241354D-06 0.000000000000D+00  6 22 3 9900012 13 4 21 2 0.10033935D+00 0.45382355D-02 0.70614338D+04 0.70614338D+04 0.70614338D+04 0.12253207D+01  1  2 15  2  6  5        4 0.281972373279D-06 0.100000000000D+01
0.203800182103D-06 0.000000000000D+00 0.000000000000D+00 0.494306241354D-06 0.000000000000D+00  6 22 3 9900012 13 4 21 2 0.10033935D+00 0.45382355D-02 0.73687236D+04 0.73687236D+04 0.73687236D+04 0.12233284D+01  1  2 12  2  6  5        4 0.559438168855D-05 0.100000000000D+01
-.193915189418D-06 0.000000000000D+00 0.000000000000D+00 0.494306241354D-06 0.000000000000D+00  6 22 3 9900012 13 4 21 2 0.10033935D+00 0.45382355D-02 0.70614338D+04 0.70614338D+04 0.70614338D+04 0.12253207D+01  1  2  5  2  6  5        4 -.531738937806D-05 0.100000000000D+01
  </mgrwgt>
  </event>
  <event>
  6     66 0.98541418E-06 0.31705742E+03 0.78161638E-02 0.98431374E-01
       22 -1    0    0    0    0 0.00000000E+00 0.00000000E+00 0.54212355E+03 0.54212355E+03 0.00000000E+00 0.0000E+00 0.9000E+01
        1 -1    0    0  501    0 0.00000000E+00 0.00000000E+00 -.31054814E+03 0.31054814E+03 0.00000000E+00 0.0000E+00 0.9000E+01
      -24  2    1    2    0    0 -.21713801E+03 -.23103352E+03 0.38131365E+03 0.50203377E+03 0.78181820E+02 0.0000E+00 0.0000E+00
  9900012  1    3    3    0    0 -.10205794E+03 -.10447681E+03 0.20174318E+03 0.25403058E+03 0.50000000E+02 0.0000E+00 0.9000E+01
       13  1    3    3    0    0 -.11508007E+03 -.12655671E+03 0.17957048E+03 0.24800319E+03 0.00000000E+00 0.0000E+00 0.9000E+01
        2  1    1    2  501    0 0.21713801E+03 0.23103352E+03 -.14973825E+03 0.35063792E+03 0.00000000E+00 0.0000E+00 0.9000E+01
#aMCatNLO 1  0  0  5  5 0.25333967D+03 0.00000000D+00  -5  6  0 0.00000000D+00 0.00000000D+00 0.00000000D+00 0.00000000D+00 0.00000000D+00
  <mgrwgt>
 0.7127432843D-04    3    2    0
 0.410311418345509D+03 0.000000000000000D+00 0.000000000000000D+00 0.410311418345509D+03
 0.410311418345509D+03 -.000000000000000D+00 -.000000000000000D+00 -.410311418345509D+03
 0.207020717480793D+03 -.102057938377336D+03 -.104476814405141D+03 0.137936035654879D+03
 0.207014943426785D+03 -.115080074562043D+03 -.126556710309699D+03 0.116598294654667D+03
 0.406587175783440D+03 0.217138012939380D+03 0.231033524714840D+03 -.254534330309546D+03
 0.000000000000000D+00 0.000000000000000D+00 0.000000000000000D+00 0.000000000000000D+00
 0.410311418345509D+03 0.000000000000000D+00 0.000000000000000D+00 0.410311418345509D+03
 0.410311418345509D+03 -.000000000000000D+00 -.000000000000000D+00 -.410311418345509D+03
 0.128893120983600D+03 -.579676242314227D+02 -.575649883963120D+02 0.862523233819818D+02
 0.125672997139104D+03 -.714131751000797D+02 -.800953949485673D+02 0.654109191196968D+02
 0.243890659842126D+03 -.160085515438364D+03 -.156218210366958D-01 -.183998047438062D+03
 0.322166058726190D+03 0.289466314769866D+03 0.137676005165916D+03 0.323348049363837D+02
0.417296234837D-04 0.000000000000D+00 0.000000000000D+00 0.718236846057D-06 0.000000000000D+00  6 22 1 9900012 13 2 21 0 0.83403623D-01 0.47776637D-01 0.10319729D+06 0.10319729D+06 0.10319729D+06 0.11165207D+01  1  2  2  2  6  5        2 0.740592789946D-04 0.100000000000D+01
-.596713852919D-06 0.000000000000D+00 -.801263709198D-07 0.718236846057D-06 0.000000000000D+00  6 22 1 9900012 13 2 21 2 0.83403623D-01 0.47776637D-01 0.10319729D+06 0.10319729D+06 0.10319729D+06 0.11165207D+01  1  2  3  2  6  5        2 -.132018461017D-05 0.100000000000D+01
-.662063569382D-06 0.000000000000D+00 0.000000000000D+00 0.718236846057D-06 0.000000000000D+00  6 22 1 9900012 13 2 21 2 0.83403623D-01 0.47776637D-01 0.10319729D+06 0.10319729D+06 0.10319729D+06 0.11165207D+01  1  2 15  2  6  5        2 -.146476595269D-05 0.100000000000D+01
  </mgrwgt>
  </event>
  <event>
  6     66 0.98541418E-06 0.49589533E+02 0.78161638E-02 0.11918983E+00
       22 -1    0    0    0    0 0.00000000E+00 0.00000000E+00 0.12011574E+02 0.12011574E+02 0.00000000E+00 0.0000E+00 0.9000E+01
        1 -1    0    0  501    0 0.00000000E+00 0.00000000E+00 -.53686742E+03 0.53686742E+03 0.00000000E+00 0.0000E+00 0.9000E+01
      -24  2    1    2    0    0 -.56540169E+02 -.61694347E+01 -.25272711E+03 0.27087017E+03 0.79150546E+02 0.0000E+00 0.0000E+00
  9900012  1    3    3    0    0 -.41204265E+02 0.18104511E+02 -.15399266E+03 0.16804554E+03 0.50000000E+02 0.0000E+00 0.9000E+01
       13  1    3    3    0    0 -.15335904E+02 -.24273945E+02 -.98734446E+02 0.10282463E+03 0.00000000E+00 0.0000E+00 0.9000E+01
        2  1    1    2  501    0 0.56540169E+02 0.61694347E+01 -.27212874E+03 0.27800882E+03 0.00000000E+00 0.0000E+00 0.9000E+01
#aMCatNLO 1  0  0  2  5 0.21592253D+02 0.00000000D+00  -5  6  0 0.00000000D+00 0.00000000D+00 0.00000000D+00 0.00000000D+00 0.00000000D+00
  <mgrwgt>
 0.5655992976D-04    9    2    0
 0.803033185588737D+02 0.000000000000000D+00 0.000000000000000D+00 0.803033185588737D+02
 0.803033185588737D+02 0.000000000000000D+00 0.000000000000000D+00 -.803033185588737D+02
 0.710600785450923D+02 -.412042651645029D+02 0.181045107200001D+02 0.228903907060894D+02
 0.287468205368729D+02 -.153359041928537D+02 -.242739454029806D+02 -.140189448244431D+01
 0.607997380357822D+02 0.565401693573566D+02 0.616943468298046D+01 -.214884962236451D+02
 0.000000000000000D+00 0.000000000000000D+00 0.000000000000000D+00 -.000000000000000D+00
 0.871277070625897D+02 0.000000000000000D+00 0.000000000000000D+00 0.871277070625897D+02
 0.923184923225561D+02 0.000000000000000D+00 0.000000000000000D+00 -.923184923225561D+02
 0.758261961870426D+02 -.490263609604415D+02 0.179459737126451D+02 0.228903907060894D+02
 0.306009475471514D+02 -.184963351321975D+02 -.243380005201956D+02 -.140189448244431D+01
 0.550933741342629D+02 0.503685442199044D+02 0.604434915535026D+01 -.214884962236451D+02
 0.179256815166890D+02 0.171541518727345D+02 0.347677652200293D+00 -.519078525996644D+01
0.105792272697D-06 0.000000000000D+00 0.000000000000D+00 0.198711580176D-06 0.000000000000D+00  6 22 1 9900012 13 2 21 0 0.18479345D-02 0.82594988D-01 0.58415984D+04 0.58415984D+04 0.58415984D+04 0.12343121D+01  1  2  2  1  6  2        1 0.232957067860D-04 0.100000000000D+01
-.198350379170D-08 0.000000000000D+00 -.203135091451D-09 0.198711580176D-06 0.000000000000D+00  6 22 1 9900012 13 2 21 2 0.18479345D-02 0.82594988D-01 0.58415984D+04 0.58415984D+04 0.58415984D+04 0.12343121D+01  1  2  3  1  6  2        1 -.665433949663D-06 0.100000000000D+01
-.313251388043D-08 0.000000000000D+00 0.000000000000D+00 0.198711580176D-06 0.000000000000D+00  6 22 1 9900012 13 2 21 2 0.18479345D-02 0.82594988D-01 0.58415984D+04 0.58415984D+04 0.58415984D+04 0.12343121D+01  1  2 15  1  6  2        1 -.105090854505D-05 0.100000000000D+01
0.745198109790D-07 0.000000000000D+00 0.000000000000D+00 0.198711580176D-06 0.000000000000D+00  6 22 1 9900012 13 2 21 2 0.18479345D-02 0.10302241D+00 0.72884648D+04 0.72884648D+04 0.72884648D+04 0.12238397D+01  1  2 12  1  6  2        1 0.184660246354D-04 0.100000000000D+01
-.458787947338D-08 0.000000000000D+00 0.000000000000D+00 0.198711580176D-06 0.000000000000D+00  6 22 1 9900012 13 2 21 2 0.18479345D-02 0.82594988D-01 0.58415984D+04 0.58415984D+04 0.58415984D+04 0.12343121D+01  1  2  4  1  6  2        1 -.153916053568D-05 0.100000000000D+01
-.213049571372D-06 0.000000000000D+00 -.571761376147D-07 0.198711580176D-06 0.000000000000D+00  6 22 1 9900012 13 2 21 2 0.18479345D-02 0.10122276D+00 0.58415984D+04 0.58415984D+04 0.58415984D+04 0.12343121D+01  1  2  5  1  6  2        1 -.541071339961D-04 0.100000000000D+01
0.221248790024D-06 0.000000000000D+00 0.560137402295D-07 0.198711580176D-06 0.000000000000D+00  6 22 1 9900012 13 2 21 2 0.18479345D-02 0.82594988D-01 0.58415984D+04 0.58415984D+04 0.58415984D+04 0.12343121D+01  1  2  6  1  6  2        1 0.742254473221D-04 0.100000000000D+01
0.230059665538D-08 0.000000000000D+00 0.000000000000D+00 0.198711580176D-06 0.000000000000D+00  6 22 21 9900012 13 2 -1 2 0.18479345D-02 0.10302241D+00 0.72884648D+04 0.72884648D+04 0.72884648D+04 0.12238397D+01  1  2 12  3  6  2        1 0.136516063382D-05 0.100000000000D+01
-.549775262893D-08 0.000000000000D+00 -.165729890583D-08 0.198711580176D-06 0.000000000000D+00  6 22 21 9900012 13 2 -1 2 0.18479345D-02 0.10122276D+00 0.58415984D+04 0.58415984D+04 0.58415984D+04 0.12343121D+01  1  2  5  3  6  2        1 -.342977258612D-05 0.100000000000D+01
  </mgrwgt>
  </event>
  <event>
  7     66 0.98541418E-06 0.21088477E+02 0.78161638E-02 0.12928610E+00
       22 -1    0    0    0    0 0.00000000E+00 0.00000000E+00 0.41355743E+03 0.41355743E+03 0.00000000E+00 0.0000E+00 0.9000E+01
       21 -1    0    0  501  502 0.00000000E+00 0.00000000E+00 -.15873326E+02 0.15873326E+02 0.00000000E+00 0.0000E+00 0.9000E+01
      -24  2    1    2    0    0 0.11373866E+02 -.17632151E+02 0.31236888E+03 0.32440433E+03 0.84991737E+02 0.0000E+00 0.0000E+00
  9900012  1    3    3    0    0 0.22467881E+02 0.58118134E+01 0.26215478E+03 0.26788750E+03 0.50000000E+02 0.0000E+00 0.9000E+01
       13  1    3    3    0    0 -.11094015E+02 -.23443964E+02 0.50214100E+02 0.56516833E+02 0.00000000E+00 0.0000E+00 0.9000E+01
        4  1    1    2  501    0 0.67623866E-01 -.21895209E+00 0.83766574E+02 0.83766888E+02 0.00000000E+00 0.0000E+00 0.9000E+01
       -3  1    1    2    0  502 -.11441490E+02 0.17851103E+02 0.15486485E+01 0.21259536E+02 0.00000000E+00 0.0000E+00 0.9000E+01
#aMCatNLO 2  0  0  2  5 0.27699338D+01 0.00000000D+00  -5  6  0 0.00000000D+00 0.00000000D+00 0.00000000D+00 0.00000000D+00 0.00000000D+00
  <mgrwgt>
 0.1740963311D-01    1    2    0
 0.480387245435390D+02 0.000000000000000D+00 0.000000000000000D+00 0.480387245435390D+02
 0.480387245435390D+02 0.000000000000000D+00 0.000000000000000D+00 -.480387245435390D+02
 0.555993623320448D+02 0.159106597430142D+02 0.160424410626133D+02 0.898777408620205D+01
 0.300319261831242D+02 -.147607205833419D+02 -.177231404188587D+02 -.192335127270748D+02
 0.104461605719089D+02 -.114993915967235D+01 0.168069935624544D+01 0.102457386408727D+02
 0.000000000000000D+00 -.000000000000000D+00 0.000000000000000D+00 -.000000000000000D+00
 0.505896684230544D+02 0.000000000000000D+00 0.000000000000000D+00 0.505896684230544D+02
 0.129760326028301D+03 0.000000000000000D+00 0.000000000000000D+00 -.129760326028301D+03
 0.558512570451743D+02 0.224678805181114D+02 0.581181344550874D+01 0.898777408620205D+01
 0.322896983712287D+02 -.110940146148227D+02 -.234439640165327D+02 -.192335127270748D+02
 0.102483009958255D+02 0.676238658152781D-01 -.218952087766613D+00 0.102457386408727D+02
 0.819607380391274D+02 -.114414897691039D+02 0.178511026587906D+02 -.791706576052471D+02
0.599092939194D-05 0.000000000000D+00 0.000000000000D+00 0.555414363435D-06 0.132018248451D-06  6 22 21 9900012 13 4 -3 2 0.63624219D-01 0.24420502D-02 0.26261499D+04 0.26261499D+04 0.26261499D+04 0.12746204D+01  1  2  1  3  6  2        3 0.174096331066D-01 0.100000000000D+01
  </mgrwgt>
  </event>
  <event>
  7     66 0.98541418E-06 0.15733508E+02 0.78161638E-02 0.12629966E+00
       22 -1    0    0    0    0 0.00000000E+00 0.00000000E+00 0.54382359E+02 0.54382359E+02 0.00000000E+00 0.0000E+00 0.9000E+01
        1 -1    0    0  502    0 0.00000000E+00 0.00000000E+00 -.77216488E+02 0.77216488E+02 0.00000000E+00 0.0000E+00 0.9000E+01
      -24  2    1    2    0    0 0.69162110E+01 0.54122316E+01 -.17233929E+02 0.82730392E+02 0.80437449E+02 0.0000E+00 0.0000E+00
  9900012  1    3    3    0    0 0.10548290E+02 -.20272609E+02 -.11775950E+02 0.56222043E+02 0.50000000E+02 0.0000E+00 0.9000E+01
       13  1    3    3    0    0 -.36320792E+01 0.25684840E+02 -.54579788E+01 0.26508349E+02 0.00000000E+00 0.0000E+00 0.9000E+01
        2  1    1    2  501    0 0.13310407E+02 0.53308749E+01 0.13007719E+02 0.19359388E+02 0.00000000E+00 0.0000E+00 0.9000E+01
       21  1    1    2  502  501 -.20226618E+02 -.10743106E+02 -.18607920E+02 0.29509068E+02 0.00000000E+00 0.0000E+00 0.9000E+01
#aMCatNLO 2  0  0  2  2 0.18091303D+00 0.00000000D+00  -5  6  0 0.00000000D+00 0.00000000D+00 0.00000000D+00 0.00000000D+00 0.00000000D+00
  <mgrwgt>
 0.2233019492D-04    1    2    0
 0.496989232381961D+02 0.000000000000000D+00 0.000000000000000D+00 0.496989232381961D+02
 0.496989232381961D+02 0.000000000000000D+00 0.000000000000000D+00 -.496989232381961D+02
 0.572885941856032D+02 -.807429292652800D+00 -.263040524066009D+02 -.945663305256612D+01
 0.249572271737153D+02 -.878034121445970D+01 0.229504075939034D+02 -.436435420558360D+01
 0.171520251170737D+02 0.958777050711250D+01 0.335364481269749D+01 0.138209872581497D+02
 0.000000000000000D+00 -.000000000000000D+00 -.000000000000000D+00 -.000000000000000D+00
 0.566822142563043D+02 0.000000000000000D+00 0.000000000000000D+00 0.566822142563043D+02
 0.740834643846029D+02 0.000000000000000D+00 0.000000000000000D+00 -.740834643846029D+02
 0.557823718025606D+02 0.105482902653188D+02 -.202726088036742D+02 -.945663305256612D+01
 0.263049541361020D+02 -.363207923759543D+01 0.256848403709749D+02 -.436435420558360D+01
 0.199149401214952D+02 0.133104066271429D+02 0.533087485061436D+01 0.138209872581497D+02
 0.287634125807493D+02 -.202266176548663D+02 -.107431064179151D+02 -.174012501282986D+02
0.461356368056D-07 0.000000000000D+00 0.000000000000D+00 0.316879266870D-06 0.262721808768D-08  6 22 1 9900012 13 2 21 2 0.83665168D-02 0.11879460D-01 0.34902215D+04 0.34902215D+04 0.34902215D+04 0.12598128D+01  1  2  1  1  6  2        1 0.223301949195D-04 0.100000000000D+01
  </mgrwgt>
  </event>
</LesHouchesEvents>
