<LesHouchesEvents version="3.0">
  <!--
  <scalesfunctionalform>
    muR  H_T/2 := sum_i mT(i)/2, i=final state
    muF1 H_T/2 := sum_i mT(i)/2, i=final state
    muF2 H_T/2 := sum_i mT(i)/2, i=final state
    QES  H_T/2 := sum_i mT(i)/2, i=final state
  </scalesfunctionalform>
PYTHIA8   
  -->
  <header>
        4
  </header>
  <init>
   2212   2212 0.65000000D+04 0.65000000D+04 -1 -1  82200  82200 -4   1
 0.91811908D-06 0.23671717D-07 0.46980863D-06     66
  </init>
  <event>
  5     66 0.46980863E-06 0.30647751E+02 0.78161638E-02 0.12534859E+00
       22 -1    0    0    0    0 0.00000000E+00 0.00000000E+00 0.22506314E+02 0.22506314E+02 0.00000000E+00 0.0000E+00 0.9000E+01
        1 -1    0    0  501    0 0.00000000E+00 0.00000000E+00 -.86217703E+03 0.86217703E+03 0.00000000E+00 0.0000E+00 0.9000E+01
  9900012  1    1    2    0    0 -.32977418E+02 -.59059643E+00 -.87264818E+02 0.10584426E+03 0.50000000E+02 0.0000E+00 0.9000E+01
       11  1    1    2    0    0 0.18484089E+02 -.26413627E+02 -.72381715E+01 0.33041373E+02 0.00000000E+00 0.0000E+00 0.9000E+01
        2  1    1    2  501    0 0.14493329E+02 0.27004223E+02 -.74516773E+03 0.74579771E+03 0.00000000E+00 0.0000E+00 0.9000E+01
#aMCatNLO 1  0  0  2  5 0.16176068D+01 0.00000000D+00  -5  6  0 0.00000000D+00 0.00000000D+00 0.00000000D+00 0.00000000D+00 0.00000000D+00
  <mgrwgt>
 0.2829328471D-05    7    2    0
 0.139299773418565D+03 0.000000000000000D+00 0.000000000000000D+00 0.139299773418565D+03
 0.139299773418565D+03 0.000000000000000D+00 0.000000000000000D+00 -.139299773418565D+03
 0.730975400977213D+02 -.329774177248163D+02 -.590596431501947D+00 0.418973923340826D+02
 0.831066387360772D+02 0.184840886356827D+02 -.264136269275802D+02 0.765987740231375D+02
 0.122395368003332D+03 0.144933290891336D+02 0.270042233590822D+02 -.118496166357220D+03
 0.000000000000000D+00 -.000000000000000D+00 0.000000000000000D+00 0.000000000000000D+00
 0.139939585991183D+03 0.000000000000000D+00 0.000000000000000D+00 0.139939585991183D+03
 0.139686731912028D+03 0.000000000000000D+00 0.000000000000000D+00 -.139686731912028D+03
 0.730274686698641D+02 -.328174612326267D+02 -.796199834832277D+00 0.418973923340826D+02
 0.832219646782085D+02 0.186661610966347D+02 -.266476575512331D+02 0.765987740231375D+02
 0.122351884287394D+03 0.147612429272893D+02 0.266598547362768D+02 -.118496166357220D+03
 0.102500026774441D+01 -.609942791297327D+00 0.784002649788591D+00 0.252854079154358D+00
0.639680686446D-07 0.000000000000D+00 0.000000000000D+00 0.347994536304D-07 0.000000000000D+00  6 22 1 9900012 11 2 21 0 0.34625098D-02 0.13264262D+00 0.37690578D+04 0.37690578D+04 0.37690578D+04 0.12559048D+01  1  2  2  1  6  2        1 0.299084520355D-05 0.100000000000D+01
0.497151419835D-08 0.000000000000D+00 -.122827113387D-09 0.347994536304D-07 0.000000000000D+00  6 22 1 9900012 11 2 21 2 0.34625098D-02 0.13264262D+00 0.37690578D+04 0.37690578D+04 0.37690578D+04 0.12559048D+01  1  2  3  1  6  2        1 0.366634098574D-06 0.100000000000D+01
-.984474783067D-08 0.000000000000D+00 0.000000000000D+00 0.347994536304D-07 0.000000000000D+00  6 22 1 9900012 11 2 21 2 0.34625098D-02 0.13264262D+00 0.37690578D+04 0.37690578D+04 0.37690578D+04 0.12559048D+01  1  2 15  1  6  2        1 -.726020303388D-06 0.100000000000D+01
-.100565325978D-07 0.000000000000D+00 0.000000000000D+00 0.347994536304D-07 0.000000000000D+00  6 22 1 9900012 11 2 21 2 0.34625098D-02 0.13264262D+00 0.37690578D+04 0.37690578D+04 0.37690578D+04 0.12559048D+01  1  2  4  1  6  2        1 -.741638787838D-06 0.100000000000D+01
0.101303561833D-07 0.000000000000D+00 0.000000000000D+00 0.347994536304D-07 0.314597253406D-08  6 22 1 9900012 11 2 21 2 0.34784134D-02 0.13301109D+00 0.38325456D+04 0.38325456D+04 0.38325456D+04 0.12550605D+01  1  2 11  1  6  2        1 0.739075003152D-06 0.100000000000D+01
0.370334615254D-12 0.000000000000D+00 0.000000000000D+00 0.347994536304D-07 0.000000000000D+00  6 22 21 9900012 11 2 -1 2 0.34625098D-02 0.13362201D+00 0.38325456D+04 0.38325456D+04 0.38325456D+04 0.12550605D+01  1  2 12  3  6  2        1 0.500795991678D-10 0.100000000000D+01
0.147311583081D-08 0.000000000000D+00 0.000000000000D+00 0.347994536304D-07 0.228153474261D-09  6 22 21 9900012 11 2 -1 2 0.34784134D-02 0.13301109D+00 0.38325456D+04 0.38325456D+04 0.38325456D+04 0.12550605D+01  1  2 11  3  6  2        1 0.200383176975D-06 0.100000000000D+01
  </mgrwgt>
  </event>
  <event>
  6     66 0.46980863E-06 0.15252059E+02 0.78161638E-02 0.12343679E+00
       22 -1    0    0    0    0 0.00000000E+00 0.00000000E+00 0.93236454E+02 0.93236454E+02 0.00000000E+00 0.0000E+00 0.9000E+01
       21 -1    0    0  501  502 0.00000000E+00 0.00000000E+00 -.30445306E+03 0.30445306E+03 0.00000000E+00 0.0000E+00 0.9000E+01
  9900012  1    1    2    0    0 0.31590875E+02 -.18460198E+02 0.44788434E+02 0.76451070E+02 0.50000000E+02 0.0000E+00 0.9000E+01
       11  1    1    2    0    0 -.17066981E+02 -.14420265E+02 0.25908158E+02 0.34211965E+02 0.00000000E+00 0.0000E+00 0.9000E+01
        2  1    1    2  501    0 -.25278501E+02 0.10851306E+02 -.11068023E+03 0.11404765E+03 0.00000000E+00 0.0000E+00 0.9000E+01
       -1  1    1    2    0  502 0.10754607E+02 0.22029157E+02 -.17123297E+03 0.17297883E+03 0.00000000E+00 0.0000E+00 0.9000E+01
#aMCatNLO 2  0  0  2  5 0.49598808D+02 0.00000000D+00  -5  6  0 0.00000000D+00 0.00000000D+00 0.00000000D+00 0.00000000D+00 0.00000000D+00
  <mgrwgt>
 0.6638327896D-05    1    2    0
 0.109880906684405D+03 0.000000000000000D+00 0.000000000000000D+00 0.109880906684405D+03
 0.109880906684405D+03 0.000000000000000D+00 0.000000000000000D+00 -.109880906684405D+03
 0.860170434383303D+02 0.357817737419540D+02 -.987578770022382D+01 0.593385645853633D+02
 0.374154233708871D+02 -.151919572612661D+02 -.105795671271565D+02 0.325144752379086D+02
 0.963293465595922D+02 -.205898164806879D+02 0.204553548273804D+02 -.918530398232719D+02
 0.000000000000000D+00 0.000000000000000D+00 0.000000000000000D+00 -.000000000000000D+00
 0.111607353518093D+03 0.000000000000000D+00 0.000000000000000D+00 0.111607353518093D+03
 0.254339184928321D+03 0.000000000000000D+00 0.000000000000000D+00 -.254339184928321D+03
 0.857894373261891D+02 0.315908754189922D+02 -.184601977225198D+02 0.593385645853633D+02
 0.394514509866689D+02 -.170669811451319D+02 -.144202648917652D+02 0.325144752379086D+02
 0.958839631550855D+02 -.252785012948439D+02 0.108513058125185D+02 -.918530398232719D+02
 0.144821686978471D+03 0.107546070209835D+02 0.220291568017665D+02 -.142731831410227D+03
0.322856035215D-07 0.000000000000D+00 0.000000000000D+00 0.476042292434D-06 0.123009790575D-08  6 22 21 9900012 11 2 -1 2 0.14344070D-01 0.46838932D-01 0.46460888D+04 0.46460888D+04 0.46460888D+04 0.12454527D+01  1  2  1  3  6  2        1 0.663832789647D-05 0.100000000000D+01
  </mgrwgt>
  </event>
  <event>
  5     66 0.46980863E-06 0.39851915E+02 0.78161638E-02 0.11634418E+00
       22 -1    0    0    0    0 0.00000000E+00 0.00000000E+00 0.69574338E+02 0.69574338E+02 0.00000000E+00 0.0000E+00 0.9000E+01
        3 -1    0    0  501    0 0.00000000E+00 0.00000000E+00 -.13472069E+03 0.13472069E+03 0.00000000E+00 0.0000E+00 0.9000E+01
  9900012  1    1    2    0    0 -.17842188E+02 0.82122917E+01 -.20887926E+02 0.57637582E+02 0.50000000E+02 0.0000E+00 0.9000E+01
       11  1    1    2    0    0 0.18535840E+02 -.64186805E+02 0.11334028E+02 0.67764175E+02 0.00000000E+00 0.0000E+00 0.9000E+01
        4  1    1    2  501    0 -.69365180E+00 0.55974513E+02 -.55592459E+02 0.78893274E+02 0.00000000E+00 0.0000E+00 0.9000E+01
#aMCatNLO 1  0  0  2  5 0.28470998D+02 0.00000000D+00  -5  6  0 0.00000000D+00 0.00000000D+00 0.00000000D+00 0.00000000D+00 0.00000000D+00
  <mgrwgt>
 0.1450966329D-05    9    2    0
 0.968147873191965D+02 0.000000000000000D+00 0.000000000000000D+00 0.968147873191965D+02
 0.968147873191965D+02 0.000000000000000D+00 0.000000000000000D+00 -.968147873191965D+02
 0.537846523886356D+02 -.178421879853055D+02 0.821229171617337D+01 -.264639853987508D+01
 0.753100604782283D+02 0.185358397877158D+02 -.641868046122223D+02 0.347574735311836D+02
 0.645348617715292D+02 -.693651802410297D+00 0.559745128960489D+02 -.321110749913086D+02
 0.000000000000000D+00 -.000000000000000D+00 0.000000000000000D+00 -.000000000000000D+00
 0.106019449503649D+03 0.000000000000000D+00 0.000000000000000D+00 0.106019449503649D+03
 0.112082406234883D+03 0.000000000000000D+00 0.000000000000000D+00 -.112082406234883D+03
 0.518783505502395D+02 -.125065239885318D+02 0.528646274043109D+01 -.264639853987508D+01
 0.812560406227700D+02 0.264419572131604D+02 -.685221502155012D+02 0.347574735311836D+02
 0.617838774474130D+02 0.568506477976239D+01 0.524767225900152D+02 -.321110749913086D+02
 0.231835871181094D+02 -.196204980043910D+02 0.107589648850549D+02 -.606295673123389D+01
0.133525481840D-07 0.000000000000D+00 0.000000000000D+00 0.990523061158D-09 0.000000000000D+00  6 22 3 9900012 11 4 21 0 0.10703744D-01 0.20726261D-01 0.77887616D+04 0.77887616D+04 0.77887616D+04 0.12207497D+01  1  2  2  1  6  2        3 0.776820934697D-06 0.100000000000D+01
-.481324295300D-10 0.000000000000D+00 -.256386504166D-10 0.990523061158D-09 0.000000000000D+00  6 22 3 9900012 11 4 21 2 0.10703744D-01 0.20726261D-01 0.77887616D+04 0.77887616D+04 0.77887616D+04 0.12207497D+01  1  2  3  1  6  2        3 -.417299411396D-08 0.100000000000D+01
-.185727287492D-08 0.000000000000D+00 0.000000000000D+00 0.990523061158D-09 0.000000000000D+00  6 22 3 9900012 11 4 21 2 0.10703744D-01 0.20726261D-01 0.77887616D+04 0.77887616D+04 0.77887616D+04 0.12207497D+01  1  2 15  1  6  2        3 -.161022180902D-06 0.100000000000D+01
0.961746129792D-08 0.000000000000D+00 0.000000000000D+00 0.990523061158D-09 0.000000000000D+00  6 22 3 9900012 11 4 21 2 0.10703744D-01 0.26276079D-01 0.10041878D+05 0.10041878D+05 0.10041878D+05 0.12091419D+01  1  2 12  1  6  2        3 0.551963821403D-06 0.100000000000D+01
-.227443990437D-08 0.000000000000D+00 0.000000000000D+00 0.990523061158D-09 0.000000000000D+00  6 22 3 9900012 11 4 21 2 0.10703744D-01 0.20726261D-01 0.77887616D+04 0.77887616D+04 0.77887616D+04 0.12207497D+01  1  2  4  1  6  2        3 -.197189803760D-06 0.100000000000D+01
-.267238203194D-07 0.000000000000D+00 -.804521706458D-08 0.990523061158D-09 0.000000000000D+00  6 22 3 9900012 11 4 21 2 0.10703744D-01 0.26135787D-01 0.77887616D+04 0.77887616D+04 0.77887616D+04 0.12207497D+01  1  2  5  1  6  2        3 -.154183631992D-05 0.100000000000D+01
0.280436561828D-07 0.000000000000D+00 0.783362720587D-08 0.990523061158D-09 0.000000000000D+00  6 22 3 9900012 11 4 21 2 0.10703744D-01 0.20726261D-01 0.77887616D+04 0.77887616D+04 0.77887616D+04 0.12207497D+01  1  2  6  1  6  2        3 0.243133399513D-05 0.100000000000D+01
0.313114252431D-09 0.000000000000D+00 0.000000000000D+00 0.990523061158D-09 0.000000000000D+00  6 22 21 9900012 11 4 -3 2 0.10703744D-01 0.26276079D-01 0.10041878D+05 0.10041878D+05 0.10041878D+05 0.12091419D+01  1  2 12  3  6  2        3 0.292899815600D-06 0.100000000000D+01
-.736296192828D-09 0.000000000000D+00 -.257509570477D-09 0.990523061158D-09 0.000000000000D+00  6 22 21 9900012 11 4 -3 2 0.10703744D-01 0.26135787D-01 0.77887616D+04 0.77887616D+04 0.77887616D+04 0.12207497D+01  1  2  5  3  6  2        3 -.697830939301D-06 0.100000000000D+01
  </mgrwgt>
  </event>
  <event>
  5     66 -.46980863E-06 0.62119809E+02 0.78161638E-02 0.10912161E+00
       22 -1    0    0    0    0 0.00000000E+00 0.00000000E+00 0.49083088E+03 0.49083088E+03 0.00000000E+00 0.0000E+00 0.9000E+01
        3 -1    0    0  501    0 0.00000000E+00 0.00000000E+00 -.24717927E+03 0.24717927E+03 0.00000000E+00 0.0000E+00 0.9000E+01
  9900012  1    1    2    0    0 -.11224039E+03 0.52496306E+02 -.87988726E+02 0.15998682E+03 0.50000000E+02 0.0000E+00 0.9000E+01
       11  1    1    2    0    0 -.21105679E+02 -.19843209E+02 0.41592278E+03 0.41693041E+03 0.00000000E+00 0.0000E+00 0.9000E+01
        4  1    1    2  501    0 0.13334607E+03 -.32653097E+02 -.84282446E+02 0.16109292E+03 0.00000000E+00 0.0000E+00 0.9000E+01
#aMCatNLO 1  0  0  2  5 0.94639455D+01 0.00000000D+00  -5  6  0 0.00000000D+00 0.00000000D+00 0.00000000D+00 0.00000000D+00 0.00000000D+00
  <mgrwgt>
 -.1627280940D-05   11    2    0
 0.348314826682391D+03 0.000000000000000D+00 0.000000000000000D+00 0.348314826682391D+03
 0.348314826682391D+03 0.000000000000000D+00 0.000000000000000D+00 -.348314826682391D+03
 0.200264935424677D+03 -.112240388644605D+03 0.524963055669189D+02 -.149171972633544D+03
 0.296224278227472D+03 -.211056793074652D+02 -.198432088132636D+02 0.294804376453862D+03
 0.200140439712633D+03 0.133346067952071D+03 -.326530967536553D+02 -.145632403820318D+03
 0.000000000000000D+00 0.000000000000000D+00 0.000000000000000D+00 -.000000000000000D+00
 0.348426548261999D+03 0.000000000000000D+00 0.000000000000000D+00 0.348426548261999D+03
 0.629515599899913D+03 0.000000000000000D+00 0.000000000000000D+00 -.629515599899913D+03
 0.201105851747788D+03 -.114454354366725D+03 0.509066494116117D+02 -.149171972633544D+03
 0.296641635806904D+03 -.243759342772693D+02 -.221912943731417D+02 0.294804376453862D+03
 0.198946415407329D+03 0.131144700424532D+03 -.342337072415607D+02 -.145632403820318D+03
 0.281248245199891D+03 0.768558821946148D+01 0.551835220309070D+01 -.281089051637914D+03
0.603089485807D-07 0.000000000000D+00 0.000000000000D+00 0.369346268222D-08 0.000000000000D+00  6 22 3 9900012 11 4 21 0 0.75512443D-01 0.38027580D-01 0.22480926D+05 0.22480926D+05 0.22480926D+05 0.11744765D+01  1  2  2  1  6  2        3 0.590535690535D-07 0.100000000000D+01
-.248721605962D-08 0.000000000000D+00 -.115801121130D-09 0.369346268222D-08 0.000000000000D+00  6 22 3 9900012 11 4 21 2 0.75512443D-01 0.38027580D-01 0.22480926D+05 0.22480926D+05 0.22480926D+05 0.11744765D+01  1  2  3  1  6  2        3 -.335943742875D-08 0.100000000000D+01
-.882354446031D-08 0.000000000000D+00 0.000000000000D+00 0.369346268222D-08 0.000000000000D+00  6 22 3 9900012 11 4 21 2 0.75512443D-01 0.38027580D-01 0.22480926D+05 0.22480926D+05 0.22480926D+05 0.11744765D+01  1  2 15  1  6  2        3 -.119178007876D-07 0.100000000000D+01
0.185921048933D-04 0.000000000000D+00 0.000000000000D+00 0.369346268222D-08 0.000000000000D+00  6 22 3 9900012 11 4 21 2 0.75512443D-01 0.68749968D-01 0.24467222D+05 0.24467222D+05 0.24467222D+05 0.11710092D+01  1  2 12  1  6  2        3 0.768161845761D-05 0.100000000000D+01
-.169486964510D-04 0.000000000000D+00 0.000000000000D+00 0.369346268222D-08 0.000000000000D+00  6 22 3 9900012 11 4 21 2 0.75512443D-01 0.38027580D-01 0.22480926D+05 0.22480926D+05 0.22480926D+05 0.11744765D+01  1  2  4  1  6  2        3 -.228922955872D-04 0.100000000000D+01
-.185614891836D-04 0.000000000000D+00 -.190071323208D-07 0.369346268222D-08 0.000000000000D+00  6 22 3 9900012 11 4 21 2 0.75512443D-01 0.68735280D-01 0.22480926D+05 0.22480926D+05 0.22480926D+05 0.11744765D+01  1  2  5  1  6  2        3 -.769263185059D-05 0.100000000000D+01
0.157370163603D-04 0.000000000000D+00 0.161025661108D-07 0.369346268222D-08 0.000000000000D+00  6 22 3 9900012 11 4 21 2 0.75512443D-01 0.38027580D-01 0.22480926D+05 0.22480926D+05 0.22480926D+05 0.11744765D+01  1  2  6  1  6  2        3 0.212557013586D-04 0.100000000000D+01
0.212611358927D-09 0.000000000000D+00 0.000000000000D+00 0.369346268222D-08 0.318534047045D-09  6 22 3 9900012 11 4 21 2 0.75536664D-01 0.68727923D-01 0.24467222D+05 0.24467222D+05 0.24467222D+05 0.11710092D+01  1  2 11  1  6  2        3 0.878522185312D-10 0.100000000000D+01
0.120631655641D-05 0.000000000000D+00 0.000000000000D+00 0.369346268222D-08 0.000000000000D+00  6 22 21 9900012 11 4 -3 2 0.75512443D-01 0.68749968D-01 0.24467222D+05 0.24467222D+05 0.24467222D+05 0.11710092D+01  1  2 12  3  6  2        3 0.718833276608D-05 0.100000000000D+01
-.120293407477D-05 0.000000000000D+00 -.123285656205D-08 0.369346268222D-08 0.000000000000D+00  6 22 21 9900012 11 4 -3 2 0.75512443D-01 0.68735280D-01 0.22480926D+05 0.22480926D+05 0.22480926D+05 0.11744765D+01  1  2  5  3  6  2        3 -.721194941156D-05 0.100000000000D+01
0.132797207857D-10 0.000000000000D+00 0.000000000000D+00 0.369346268222D-08 0.198871134576D-10  6 22 21 9900012 11 4 -3 2 0.75536664D-01 0.68727923D-01 0.24467222D+05 0.24467222D+05 0.24467222D+05 0.11710092D+01  1  2 11  3  6  2        3 0.791438508487D-10 0.100000000000D+01
  </mgrwgt>
  </event>
</LesHouchesEvents>
