<LesHouchesEvents version="3.0">
  <!--
  <scalesfunctionalform>
    muR  H_T/2 := sum_i mT(i)/2, i=final state
    muF1 H_T/2 := sum_i mT(i)/2, i=final state
    muF2 H_T/2 := sum_i mT(i)/2, i=final state
    QES  H_T/2 := sum_i mT(i)/2, i=final state
  </scalesfunctionalform>
PYTHIA8   
  -->
  <header>
        7
  </header>
  <init>
   2212   2212 0.65000000D+04 0.65000000D+04 -1 -1  82200  82200 -4   1
 0.38549181D-05 0.64806596D-07 0.11131852D-05     66
  </init>
  <event>
  5     66 0.11131852E-05 0.12737780E+03 0.78161638E-02 0.10759122E+00
        1 -1    0    0  501    0 0.00000000E+00 0.00000000E+00 0.17703192E+03 0.17703192E+03 0.00000000E+00 0.0000E+00 0.9000E+01
       22 -1    0    0    0    0 0.00000000E+00 0.00000000E+00 -.29506498E+03 0.29506498E+03 0.00000000E+00 0.0000E+00 0.9000E+01
  9900012  1    1    2    0    0 0.12192963E+02 0.13856176E+03 -.70770543E+02 0.16387953E+03 0.50000000E+02 0.0000E+00 0.9000E+01
       13  1    1    2    0    0 -.13584388E+02 0.16531158E+02 -.13046680E+03 0.13220969E+03 0.00000000E+00 0.0000E+00 0.9000E+01
        2  1    1    2  501    0 0.13914250E+01 -.15509292E+03 0.83204284E+02 0.17600768E+03 0.00000000E+00 0.0000E+00 0.9000E+01
#aMCatNLO 1  0  0  1  5 0.24877403D+02 0.00000000D+00  -5  6  0 0.00000000D+00 0.00000000D+00 0.00000000D+00 0.00000000D+00 0.00000000D+00
  <mgrwgt>
 0.5218781676D-05    9    2    0
 0.228551785554436D+03 0.000000000000000D+00 0.000000000000000D+00 0.228551785554436D+03
 0.228551785554436D+03 0.000000000000000D+00 0.000000000000000D+00 -.228551785554436D+03
 0.150980560156236D+03 0.121929633456196D+02 0.138561762775125D+03 -.307749750055667D+02
 0.102857185006576D+03 -.135843883624320D+02 0.165311578309738D+02 -.100607085839234D+03
 0.203265825946060D+03 0.139142501681244D+01 -.155092920606099D+03 0.131382060844801D+03
 0.000000000000000D+00 0.000000000000000D+00 0.000000000000000D+00 0.000000000000000D+00
 0.241118253430071D+03 0.000000000000000D+00 0.000000000000000D+00 0.241118253430071D+03
 0.236426490100301D+03 0.000000000000000D+00 0.000000000000000D+00 -.236426490100301D+03
 0.149690159673014D+03 0.586989508122820D+01 0.137570306200410D+03 -.307749750055667D+02
 0.103412985638949D+03 -.179222246859689D+02 0.158509854584519D+02 -.100607085839234D+03
 0.204414867471941D+03 -.718204983308435D+01 -.156437240745097D+03 0.131382060844801D+03
 0.200267307464689D+02 0.192343794378251D+02 0.301594908623572D+01 0.469176332976943D+01
0.177253925632D-06 0.000000000000D+00 0.000000000000D+00 0.603712555276D-08 0.000000000000D+00  6 1 22 9900012 13 2 21 0 0.27235680D-01 0.45394612D-01 0.26293687D+05 0.26293687D+05 0.26293687D+05 0.11680842D+01  1  2  2  1  6  1        1 0.176825635762D-05 0.100000000000D+01
-.326931481085D-08 0.000000000000D+00 -.340350873229D-09 0.603712555276D-08 0.000000000000D+00  6 1 22 9900012 13 2 21 2 0.27235680D-01 0.45394612D-01 0.26293687D+05 0.26293687D+05 0.26293687D+05 0.11680842D+01  1  2  3  1  6  1        1 -.444994262126D-07 0.100000000000D+01
-.308869979447D-07 0.000000000000D+00 0.000000000000D+00 0.603712555276D-08 0.000000000000D+00  6 1 22 9900012 13 2 21 2 0.27235680D-01 0.45394612D-01 0.26293687D+05 0.26293687D+05 0.26293687D+05 0.11680842D+01  1  2 15  1  6  1        1 -.420410320047D-06 0.100000000000D+01
0.311262324047D-06 0.000000000000D+00 0.000000000000D+00 0.603712555276D-08 0.000000000000D+00  6 1 22 9900012 13 2 21 2 0.29723175D-01 0.45394612D-01 0.30013833D+05 0.30013833D+05 0.30013833D+05 0.11627687D+01  1  2 12  1  6  1        1 0.378387989893D-05 0.100000000000D+01
-.614334407297D-07 0.000000000000D+00 0.000000000000D+00 0.603712555276D-08 0.000000000000D+00  6 1 22 9900012 13 2 21 2 0.27235680D-01 0.45394612D-01 0.26293687D+05 0.26293687D+05 0.26293687D+05 0.11680842D+01  1  2  4  1  6  1        1 -.836185262325D-06 0.100000000000D+01
-.121550942093D-05 0.000000000000D+00 -.251348036705D-06 0.603712555276D-08 0.000000000000D+00  6 1 22 9900012 13 2 21 2 0.29652857D-01 0.45394612D-01 0.26293687D+05 0.26293687D+05 0.26293687D+05 0.11680842D+01  1  2  5  1  6  1        1 -.148529142471D-04 0.100000000000D+01
0.123332633315D-05 0.000000000000D+00 0.250442116718D-06 0.603712555276D-08 0.000000000000D+00  6 1 22 9900012 13 2 21 2 0.27235680D-01 0.45394612D-01 0.26293687D+05 0.26293687D+05 0.26293687D+05 0.11680842D+01  1  2  6  1  6  1        1 0.167870998461D-04 0.100000000000D+01
0.466639118517D-08 0.000000000000D+00 0.000000000000D+00 0.603712555276D-08 0.000000000000D+00  6 21 22 9900012 13 2 -1 2 0.29723175D-01 0.45394612D-01 0.30013833D+05 0.30013833D+05 0.30013833D+05 0.11627687D+01  1  2 12  3  6  1        1 0.375465931664D-06 0.100000000000D+01
-.165248401426D-07 0.000000000000D+00 -.354347807519D-08 0.603712555276D-08 0.000000000000D+00  6 21 22 9900012 13 2 -1 2 0.29652857D-01 0.45394612D-01 0.26293687D+05 0.26293687D+05 0.26293687D+05 0.11680842D+01  1  2  5  3  6  1        1 -.134191110253D-05 0.100000000000D+01
  </mgrwgt>
  </event>
  <event>
  5     66 0.11131852E-05 0.21335158E+02 0.78161638E-02 0.12607347E+00
        1 -1    0    0  501    0 0.00000000E+00 0.00000000E+00 0.71038165E+03 0.71038165E+03 0.00000000E+00 0.0000E+00 0.9000E+01
       22 -1    0    0    0    0 0.00000000E+00 0.00000000E+00 -.12431897E+02 0.12431897E+02 0.00000000E+00 0.0000E+00 0.9000E+01
  9900012  1    1    2    0    0 0.20349258E+02 -.42197485E+02 0.10156421E+03 0.12251534E+03 0.50000000E+02 0.0000E+00 0.9000E+01
       13  1    1    2    0    0 -.47168516E+01 0.27677952E+02 0.11278449E+03 0.11622676E+03 0.00000000E+00 0.0000E+00 0.9000E+01
        2  1    1    2  501    0 -.15632407E+02 0.14519533E+02 0.48360106E+03 0.48407146E+03 0.00000000E+00 0.0000E+00 0.9000E+01
#aMCatNLO 1  0  0  5  1 0.32213173D+01 0.00000000D+00  -5  6  0 0.00000000D+00 0.00000000D+00 0.00000000D+00 0.00000000D+00 0.00000000D+00
  <mgrwgt>
 0.1259847936D-05    8    2    0
 0.939754837427681D+02 0.000000000000000D+00 0.000000000000000D+00 0.939754837427681D+02
 0.939754837427681D+02 -.000000000000000D+00 -.000000000000000D+00 -.939754837427681D+02
 0.940087390439151D+02 0.203492583582085D+02 -.421974850979421D+02 -.643655416531762D+02
 0.281582333192405D+02 -.471685164391264D+01 0.276779524784981D+02 0.213737241212340D+01
 0.657839951223805D+02 -.156324067142959D+02 0.145195326194441D+02 0.622281692410529D+02
 0.000000000000000D+00 0.000000000000000D+00 0.000000000000000D+00 0.000000000000000D+00
 0.939754837427681D+02 0.000000000000000D+00 0.000000000000000D+00 0.939754837427681D+02
 0.939754837427681D+02 -.000000000000000D+00 -.000000000000000D+00 -.939754837427681D+02
 0.935368544810628D+02 0.202085670452006D+02 -.420668096270549D+02 -.638054895129899D+02
 0.282172074933262D+02 -.475914287902110D+01 0.277172329922985D+02 0.230572180219755D+01
 0.614276793643020D+02 -.160990398296790D+02 0.109015276524022D+02 0.582695237966625D+02
 0.476922614684511D+01 0.649615663499578D+00 0.344804898235420D+01 0.323024391412990D+01
0.477130736279D-08 0.000000000000D+00 0.000000000000D+00 0.187332042431D-08 0.000000000000D+00  6 1 22 9900012 13 2 21 0 0.10928948D+00 0.19125995D-02 0.34768820D+04 0.34768820D+04 0.34768820D+04 0.12600085D+01  1  2  2  2  6  5        2 0.653946986798D-06 0.100000000000D+01
0.472398139615D-09 0.000000000000D+00 -.916153829359D-11 0.187332042431D-08 0.000000000000D+00  6 1 22 9900012 13 2 21 2 0.10928948D+00 0.19125995D-02 0.34768820D+04 0.34768820D+04 0.34768820D+04 0.12600085D+01  1  2  3  2  6  5        2 0.102792235374D-06 0.100000000000D+01
-.773376647192D-09 0.000000000000D+00 0.000000000000D+00 0.187332042431D-08 0.000000000000D+00  6 1 22 9900012 13 2 21 2 0.10928948D+00 0.19125995D-02 0.34768820D+04 0.34768820D+04 0.34768820D+04 0.12600085D+01  1  2 15  2  6  5        2 -.168284139339D-06 0.100000000000D+01
0.477247738099D-09 0.000000000000D+00 0.000000000000D+00 0.187332042431D-08 0.000000000000D+00  6 1 22 9900012 13 2 21 2 0.10928948D+00 0.19125995D-02 0.35682869D+04 0.35682869D+04 0.35682869D+04 0.12586842D+01  1  2 12  2  6  5        2 0.103842623621D-06 0.100000000000D+01
-.425459346548D-08 0.000000000000D+00 0.000000000000D+00 0.187332042431D-08 0.000000000000D+00  6 1 22 9900012 13 2 21 2 0.10928948D+00 0.19125995D-02 0.34768820D+04 0.34768820D+04 0.34768820D+04 0.12600085D+01  1  2  4  2  6  5        2 -.925785129637D-06 0.100000000000D+01
-.363429823862D-07 0.000000000000D+00 0.000000000000D+00 0.187332042431D-08 0.000000000000D+00  6 1 22 9900012 13 2 21 2 0.10928948D+00 0.19125995D-02 0.34768820D+04 0.34768820D+04 0.34768820D+04 0.12600085D+01  1  2  5  2  6  5        2 -.790810988941D-05 0.100000000000D+01
0.390730254066D-07 0.000000000000D+00 -.000000000000D+00 0.187332042431D-08 0.000000000000D+00  6 1 22 9900012 13 2 21 2 0.10928948D+00 0.19125995D-02 0.34768820D+04 0.34768820D+04 0.34768820D+04 0.12600085D+01  1  2  6  2  6  5        2 0.850215800519D-05 0.100000000000D+01
0.413301193701D-08 0.000000000000D+00 0.000000000000D+00 0.187332042431D-08 0.211231350738D-09  6 1 22 9900012 13 2 21 2 0.10928948D+00 0.19125995D-02 0.35682869D+04 0.35682869D+04 0.35682869D+04 0.12586842D+01  1  2 11  2  6  5        2 0.899287243777D-06 0.100000000000D+01
  </mgrwgt>
  </event>
  <event>
  5     66 0.11131852E-05 0.15900580E+02 0.78161638E-02 0.11527507E+00
        1 -1    0    0  501    0 0.00000000E+00 0.00000000E+00 0.28385483E+03 0.28385483E+03 0.00000000E+00 0.0000E+00 0.9000E+01
       22 -1    0    0    0    0 0.00000000E+00 0.00000000E+00 -.32323653E+02 0.32323653E+02 0.00000000E+00 0.0000E+00 0.9000E+01
  9900012  1    1    2    0    0 0.29999417E+02 0.62675280E+01 0.99662483E+01 0.59485906E+02 0.50000000E+02 0.0000E+00 0.9000E+01
       13  1    1    2    0    0 -.14744836E+02 -.10753755E+02 0.41112335E+01 0.18707102E+02 0.00000000E+00 0.0000E+00 0.9000E+01
        2  1    1    2  501    0 -.15254581E+02 0.44862270E+01 0.23745369E+03 0.23798547E+03 0.00000000E+00 0.0000E+00 0.9000E+01
#aMCatNLO 1  0  0  1  5 0.19486396D+01 0.00000000D+00  -5  6  0 0.00000000D+00 0.00000000D+00 0.00000000D+00 0.00000000D+00 0.00000000D+00
  <mgrwgt>
 0.1329960104D-04    3    2    0
 0.957873936841155D+02 0.000000000000000D+00 0.000000000000000D+00 0.957873936841155D+02
 0.957873936841155D+02 0.000000000000000D+00 0.000000000000000D+00 -.957873936841155D+02
 0.850912655268364D+02 0.299994165288027D+02 0.626752801722456D+01 -.616544935056909D+02
 0.254766289362910D+02 -.147448360241327D+02 -.107537550316897D+02 -.177765346819144D+02
 0.810068929051036D+02 -.152545805046701D+02 0.448622701446517D+01 0.794310281876053D+02
 0.000000000000000D+00 -.000000000000000D+00 0.000000000000000D+00 -.000000000000000D+00
 0.115629658814612D+03 0.000000000000000D+00 0.000000000000000D+00 0.115629658814612D+03
 0.301929869683924D+03 0.000000000000000D+00 0.000000000000000D+00 -.301929869683924D+03
 0.101171448251559D+03 0.580592834981573D+02 -.237382596572543D+02 -.616544935056909D+02
 0.270542349129262D+02 -.683123366382348D+01 -.192161569533748D+02 -.177765346819144D+02
 0.829407235264002D+02 0.944359023326941D+01 -.219247345171777D+02 0.794310281876053D+02
 0.206393121807651D+03 -.606716400676032D+02 0.648791511278068D+02 -.186300210869312D+03
0.114016418857D-06 0.000000000000D+00 0.000000000000D+00 0.155618024365D-06 0.000000000000D+00  6 1 22 9900012 13 2 21 0 0.43669973D-01 0.49728696D-02 0.21527477D+04 0.21527477D+04 0.21527477D+04 0.12852891D+01  1  2  2  1  6  1        1 0.136080388838D-04 0.100000000000D+01
0.165169305529D-07 0.000000000000D+00 -.218926534811D-09 0.155618024365D-06 0.000000000000D+00  6 1 22 9900012 13 2 21 2 0.43669973D-01 0.49728696D-02 0.21527477D+04 0.21527477D+04 0.21527477D+04 0.12852891D+01  1  2  3  1  6  1        1 0.325656031395D-05 0.100000000000D+01
-.180812947787D-07 0.000000000000D+00 0.000000000000D+00 0.155618024365D-06 0.000000000000D+00  6 1 22 9900012 13 2 21 2 0.43669973D-01 0.49728696D-02 0.21527477D+04 0.21527477D+04 0.21527477D+04 0.12852891D+01  1  2 15  1  6  1        1 -.356499815826D-05 0.100000000000D+01
  </mgrwgt>
  </event>
  <event>
  6     66 -.11131852E-05 0.41402777E+02 0.78161638E-02 0.12343389E+00
        1 -1    0    0  501    0 0.00000000E+00 0.00000000E+00 0.15793617E+02 0.15793617E+02 0.00000000E+00 0.0000E+00 0.9000E+01
       22 -1    0    0    0    0 -.00000000E+00 -.00000000E+00 -.87595235E+03 0.87595235E+03 0.00000000E+00 0.0000E+00 0.9000E+01
  9900012  1    1    2    0    0 -.71676687E+01 0.52004296E+02 -.66521279E+03 0.66915161E+03 0.50000000E+02 0.0000E+00 0.9000E+01
       13  1    1    2    0    0 0.34996175E+01 -.79870349E+01 -.15318341E+03 0.15343141E+03 0.00000000E+00 0.0000E+00 0.9000E+01
        2  1    1    2  502    0 -.53317442E+01 -.45667507E+02 -.34549884E+02 0.57512114E+02 0.00000000E+00 0.0000E+00 0.9000E+01
       21  1    1    2  501  502 0.89997954E+01 0.16502468E+01 -.72126490E+01 0.11650834E+02 0.00000000E+00 0.0000E+00 0.9000E+01
#aMCatNLO 2  0  0  5  1 0.12171556D+02 0.00000000D+00  -5  6  0 0.00000000D+00 0.00000000D+00 0.00000000D+00 0.00000000D+00 0.00000000D+00
  <mgrwgt>
 -.1491031720D-04    2    2    0
 0.117619964270246D+03 0.000000000000000D+00 0.000000000000000D+00 0.117619964270246D+03
 0.117619964270246D+03 -.000000000000000D+00 -.000000000000000D+00 -.117619964270246D+03
 0.106248786209178D+03 -.724855732247357D+01 0.529749731646696D+02 -.770059426659336D+02
 0.218275445359302D+02 0.348296483803736D+01 -.778719946052950D+01 -.200915450119432D+02
 0.107163597795384D+03 0.376559248443621D+01 -.451877737041401D+02 0.970974876778768D+02
 0.000000000000000D+00 0.000000000000000D+00 0.000000000000000D+00 0.000000000000000D+00
 0.117619964270246D+03 0.000000000000000D+00 0.000000000000000D+00 0.117619964270246D+03
 0.117619964270246D+03 -.000000000000000D+00 -.000000000000000D+00 -.117619964270246D+03
 0.104253813461756D+03 -.716766870673848D+01 0.520042955148215D+02 -.749201935037286D+02
 0.215090699772712D+02 0.349961754809462D+01 -.798703491716428D+01 -.196621474294192D+02
 0.916843115165263D+02 -.533174424197923D+01 -.456675074015505D+02 0.793225330491083D+02
 0.177927335849394D+02 0.899979540062309D+01 0.165024680389333D+01 0.152598078840395D+02
-.413638730414D-06 0.000000000000D+00 0.000000000000D+00 0.124325931795D-06 0.000000000000D+00  6 1 22 9900012 13 2 21 2 0.24297872D-02 0.13476190D+00 0.46474683D+04 0.46474683D+04 0.46474683D+04 0.12454381D+01  1  2 13  2  6  5        2 -.181630296246D-04 0.100000000000D+01
0.740761792163D-07 0.000000000000D+00 0.000000000000D+00 0.124325931795D-06 0.300225703816D-08  6 1 22 9900012 13 2 21 2 0.24297872D-02 0.13476190D+00 0.46474683D+04 0.46474683D+04 0.46474683D+04 0.12454381D+01  1  2  1  2  6  5        2 0.325271242428D-05 0.100000000000D+01
  </mgrwgt>
  </event>
  <event>
  5     66 0.11131852E-05 0.13942920E+03 0.78161638E-02 0.96295687E-01
        1 -1    0    0  501    0 0.00000000E+00 0.00000000E+00 0.15535630E+03 0.15535630E+03 0.00000000E+00 0.0000E+00 0.9000E+01
       22 -1    0    0    0    0 0.00000000E+00 0.00000000E+00 -.12938386E+04 0.12938386E+04 0.00000000E+00 0.0000E+00 0.9000E+01
  9900012  1    1    2    0    0 0.38581041E+02 -.92665781E+02 -.31480612E+03 0.33418309E+03 0.50000000E+02 0.0000E+00 0.9000E+01
       13  1    1    2    0    0 0.50520299E+01 -.39760258E+02 -.93545185E+03 0.93631008E+03 0.00000000E+00 0.0000E+00 0.9000E+01
        2  1    1    2  501    0 -.43633071E+02 0.13242604E+03 0.11177568E+03 0.17870172E+03 0.00000000E+00 0.0000E+00 0.9000E+01
#aMCatNLO 1  0  0  1  5 0.17088556D+01 0.00000000D+00  -5  6  0 0.00000000D+00 0.00000000D+00 0.00000000D+00 0.00000000D+00 0.00000000D+00
  <mgrwgt>
 0.4155551148D-05    5    2    0
 0.448336899159488D+03 0.000000000000000D+00 0.000000000000000D+00 0.448336899159488D+03
 0.448336899159488D+03 0.000000000000000D+00 0.000000000000000D+00 -.448336899159488D+03
 0.140402488100494D+03 0.385810412939090D+02 -.926657813984548D+02 -.844832224486077D+02
 0.325536909617490D+03 0.505202993771071D+01 -.397602583611680D+02 -.323060177632384D+03
 0.430734400600992D+03 -.436330712316197D+02 0.132426039759623D+03 0.407543400080991D+03
 0.000000000000000D+00 -.000000000000000D+00 -.000000000000000D+00 0.000000000000000D+00
 0.116597270620515D+04 0.000000000000000D+00 0.000000000000000D+00 0.116597270620515D+04
 0.526474341352656D+03 0.000000000000000D+00 0.000000000000000D+00 -.526474341352656D+03
 0.162379821588699D+03 0.954798813026851D+02 -.872547067515675D+02 -.844832224486077D+02
 0.350089325420251D+03 0.132015686079330D+03 -.276860259037386D+02 -.323060177632384D+03
 0.450468734986609D+03 0.121962588166378D+03 0.148174172306172D+03 0.407543400080991D+03
 0.729509165562243D+03 -.349458155548393D+03 -.332334396508659D+02 0.639498364852489D+03
0.907583604934D-05 0.000000000000D+00 0.000000000000D+00 0.125518445517D-06 0.000000000000D+00  6 1 22 9900012 13 2 21 0 0.23900969D-01 0.19905209D+00 0.21264846D+05 0.21264846D+05 0.21264846D+05 0.11767704D+01  1  2  2  1  6  1        1 0.578196039274D-05 0.100000000000D+01
0.206260548400D-07 0.000000000000D+00 -.174268000760D-07 0.125518445517D-06 0.000000000000D+00  6 1 22 9900012 13 2 21 2 0.23900969D-01 0.19905209D+00 0.21264846D+05 0.21264846D+05 0.21264846D+05 0.11767704D+01  1  2  3  1  6  1        1 0.181965102312D-07 0.100000000000D+01
-.165124584791D-05 0.000000000000D+00 0.000000000000D+00 0.125518445517D-06 0.000000000000D+00  6 1 22 9900012 13 2 21 2 0.23900969D-01 0.19905209D+00 0.21264846D+05 0.21264846D+05 0.21264846D+05 0.11767704D+01  1  2 15  1  6  1        1 -.145674547065D-05 0.100000000000D+01
-.920260917683D-06 0.000000000000D+00 -.260818782229D-05 0.125518445517D-06 0.000000000000D+00  6 1 22 9900012 13 2 21 2 0.70388175D-01 0.19905209D+00 0.21264846D+05 0.21264846D+05 0.21264846D+05 0.11767704D+01  1  2  5  1  6  1        1 -.204496951184D-06 0.100000000000D+01
0.221573319218D-07 0.000000000000D+00 -.319406348276D-06 0.125518445517D-06 0.000000000000D+00  6 21 22 9900012 13 2 -1 2 0.70388175D-01 0.19905209D+00 0.21264846D+05 0.21264846D+05 0.21264846D+05 0.11767704D+01  1  2  5  3  6  1        1 0.166366667234D-07 0.100000000000D+01
  </mgrwgt>
  </event>
  <event>
  5     66 0.11131852E-05 0.25680142E+02 0.78161638E-02 0.12729598E+00
        3 -1    0    0  501    0 0.00000000E+00 0.00000000E+00 0.21526950E+02 0.21526950E+02 0.00000000E+00 0.0000E+00 0.9000E+01
       22 -1    0    0    0    0 -.00000000E+00 -.00000000E+00 -.38825525E+03 0.38825525E+03 0.00000000E+00 0.0000E+00 0.9000E+01
  9900012  1    1    2    0    0 0.32540490E+02 -.14737265E+01 -.26376128E+03 0.27042756E+03 0.50000000E+02 0.0000E+00 0.9000E+01
       13  1    1    2    0    0 0.33810989E+01 -.66252538E+01 -.10225429E+03 0.10252446E+03 0.00000000E+00 0.0000E+00 0.9000E+01
        4  1    1    2  501    0 -.35921589E+02 0.80989803E+01 -.71273775E+00 0.36830178E+02 0.00000000E+00 0.0000E+00 0.9000E+01
#aMCatNLO 1  0  0  5  1 0.94900550D+01 0.00000000D+00  -5  6  0 0.00000000D+00 0.00000000D+00 0.00000000D+00 0.00000000D+00 0.00000000D+00
  <mgrwgt>
 0.9816840666D-05    8    2    0
 0.914218316417005D+02 0.000000000000000D+00 0.000000000000000D+00 0.914218316417005D+02
 0.914218316417005D+02 -.000000000000000D+00 -.000000000000000D+00 -.914218316417005D+02
 0.770476617953787D+02 0.325404900272429D+02 -.147372650474912D+01 -.487369144192691D+02
 0.246831529872128D+02 0.338109890780487D+01 -.662525379702320D+01 -.235357647781164D+02
 0.811128485008094D+02 -.359215889350478D+02 0.809898030177232D+01 0.722726791973856D+02
 0.000000000000000D+00 0.000000000000000D+00 0.000000000000000D+00 0.000000000000000D+00
 0.914218316417005D+02 0.000000000000000D+00 0.000000000000000D+00 0.914218316417005D+02
 0.914218316417005D+02 -.000000000000000D+00 -.000000000000000D+00 -.914218316417005D+02
 0.748439737297725D+02 0.312287313103630D+02 -.117797377432570D+01 -.460977127653318D+02
 0.237994963677514D+02 0.296239554939462D+01 -.653085178551468D+01 -.226933517780688D+02
 0.768401492380753D+02 -.395790133523683D+02 0.371623673467962D+01 0.657578879033881D+02
 0.736004394780174D+01 0.538788649261067D+01 0.399258882516075D+01 0.303317664001258D+01
0.435872649530D-07 0.000000000000D+00 0.000000000000D+00 0.284598474276D-07 0.000000000000D+00  6 3 22 9900012 13 4 21 0 0.33118384D-02 0.59731577D-01 0.27006726D+04 0.27006726D+04 0.27006726D+04 0.12731399D+01  1  2  2  2  6  5        4 0.290642938637D-05 0.100000000000D+01
0.105635601713D-08 0.000000000000D+00 -.836932871050D-10 0.284598474276D-07 0.000000000000D+00  6 3 22 9900012 13 4 21 2 0.33118384D-02 0.59731577D-01 0.27006726D+04 0.27006726D+04 0.27006726D+04 0.12731399D+01  1  2  3  2  6  5        4 0.114172819568D-06 0.100000000000D+01
-.779315809517D-08 0.000000000000D+00 0.000000000000D+00 0.284598474276D-07 0.000000000000D+00  6 3 22 9900012 13 4 21 2 0.33118384D-02 0.59731577D-01 0.27006726D+04 0.27006726D+04 0.27006726D+04 0.12731399D+01  1  2 15  2  6  5        4 -.842298258008D-06 0.100000000000D+01
0.682618936997D-07 0.000000000000D+00 0.000000000000D+00 0.284598474276D-07 0.000000000000D+00  6 3 22 9900012 13 4 21 2 0.33118384D-02 0.59731577D-01 0.31693111D+04 0.31693111D+04 0.31693111D+04 0.12647721D+01  1  2 12  2  6  5        4 0.742870822213D-05 0.100000000000D+01
-.461489609174D-08 0.000000000000D+00 0.000000000000D+00 0.284598474276D-07 0.000000000000D+00  6 3 22 9900012 13 4 21 2 0.33118384D-02 0.59731577D-01 0.27006726D+04 0.27006726D+04 0.27006726D+04 0.12731399D+01  1  2  4  2  6  5        4 -.498786100768D-06 0.100000000000D+01
-.691319554728D-07 0.000000000000D+00 0.000000000000D+00 0.284598474276D-07 0.000000000000D+00  6 3 22 9900012 13 4 21 2 0.33118384D-02 0.59731577D-01 0.27006726D+04 0.27006726D+04 0.27006726D+04 0.12731399D+01  1  2  5  2  6  5        4 -.747190355391D-05 0.100000000000D+01
0.756881875707D-07 0.000000000000D+00 -.000000000000D+00 0.284598474276D-07 0.000000000000D+00  6 3 22 9900012 13 4 21 2 0.33118384D-02 0.59731577D-01 0.27006726D+04 0.27006726D+04 0.27006726D+04 0.12731399D+01  1  2  6  2  6  5        4 0.818051267074D-05 0.100000000000D+01
0.503528773437D-13 0.000000000000D+00 0.000000000000D+00 0.284598474276D-07 0.395407874964D-09  6 3 22 9900012 13 4 21 2 0.33118384D-02 0.59731577D-01 0.31693111D+04 0.31693111D+04 0.31693111D+04 0.12647721D+01  1  2 11  2  6  5        4 0.547973127697D-11 0.100000000000D+01
  </mgrwgt>
  </event>
  <event>
  5     66 0.11131852E-05 0.27760244E+02 0.78161638E-02 0.12884302E+00
        1 -1    0    0  501    0 0.00000000E+00 0.00000000E+00 0.10459511E+04 0.10459511E+04 0.00000000E+00 0.0000E+00 0.9000E+01
       22 -1    0    0    0    0 0.00000000E+00 0.00000000E+00 -.67401088E+02 0.67401088E+02 0.00000000E+00 0.0000E+00 0.9000E+01
  9900012  1    1    2    0    0 0.15776236E+01 0.36822442E+02 -.46307591E+02 0.77477572E+02 0.50000000E+02 0.0000E+00 0.9000E+01
       13  1    1    2    0    0 -.32076621E+01 -.91100964E+01 -.93772877E+00 0.97037255E+01 0.00000000E+00 0.0000E+00 0.9000E+01
        2  1    1    2  501    0 0.16300385E+01 -.27712346E+02 0.10257953E+04 0.10261709E+04 0.00000000E+00 0.0000E+00 0.9000E+01
#aMCatNLO 1  0  0  5  1 0.57156828D+01 0.00000000D+00  -5  6  0 0.00000000D+00 0.00000000D+00 0.00000000D+00 0.00000000D+00 0.00000000D+00
  <mgrwgt>
 0.1511188125D-03    8    2    0
 0.265515049915005D+03 0.000000000000000D+00 0.000000000000000D+00 0.265515049915005D+03
 0.265515049915005D+03 -.000000000000000D+00 -.000000000000000D+00 -.265515049915005D+03
 0.247771489041879D+03 0.157762356936834D+01 0.368224420258512D+02 -.239858978671127D+03
 0.220727196358633D+02 -.320766208676770D+01 -.911009643258073D+01 -.198474683284700D+02
 0.261185891152267D+03 0.163003851739936D+01 -.277123455932704D+02 0.259706446999597D+03
 0.000000000000000D+00 0.000000000000000D+00 0.000000000000000D+00 0.000000000000000D+00
 0.265515049915005D+03 0.000000000000000D+00 0.000000000000000D+00 0.265515049915005D+03
 0.265515049915005D+03 -.000000000000000D+00 -.000000000000000D+00 -.265515049915005D+03
 0.247130251434088D+03 0.158171443983250D+01 0.367528929846046D+02 -.239207199328466D+03
 0.220230267343912D+02 -.320729759019865D+01 -.911629325233763D+01 -.197893947873349D+02
 0.249646988938959D+03 0.712522024109233D+01 -.262814237525332D+02 0.248157484449582D+03
 0.122298327225711D+02 -.549963709072619D+01 -.135517597973372D+01 0.108391096662195D+02
0.133140417226D-05 0.000000000000D+00 0.000000000000D+00 0.321930251434D-05 0.000000000000D+00  6 1 22 9900012 13 2 21 0 0.16091555D+00 0.10369398D-01 0.24767753D+04 0.24767753D+04 0.24767753D+04 0.12777354D+01  1  2  2  2  6  5        2 0.992759350836D-05 0.100000000000D+01
0.106088305740D-06 0.000000000000D+00 -.255647129412D-08 0.321930251434D-05 0.000000000000D+00  6 1 22 9900012 13 2 21 2 0.16091555D+00 0.10369398D-01 0.24767753D+04 0.24767753D+04 0.24767753D+04 0.12777354D+01  1  2  3  2  6  5        2 0.129146733116D-05 0.100000000000D+01
-.228796529792D-06 0.000000000000D+00 0.000000000000D+00 0.321930251434D-05 0.000000000000D+00  6 1 22 9900012 13 2 21 2 0.16091555D+00 0.10369398D-01 0.24767753D+04 0.24767753D+04 0.24767753D+04 0.12777354D+01  1  2 15  2  6  5        2 -.278525744799D-05 0.100000000000D+01
0.103198974000D-04 0.000000000000D+00 0.000000000000D+00 0.321930251434D-05 0.000000000000D+00  6 1 22 9900012 13 2 21 2 0.16091555D+00 0.10369398D-01 0.27370221D+04 0.27370221D+04 0.27370221D+04 0.12724343D+01  1  2 12  2  6  5        2 0.125066831982D-03 0.100000000000D+01
-.530542975277D-06 0.000000000000D+00 0.000000000000D+00 0.321930251434D-05 0.000000000000D+00  6 1 22 9900012 13 2 21 2 0.16091555D+00 0.10369398D-01 0.24767753D+04 0.24767753D+04 0.24767753D+04 0.12777354D+01  1  2  4  2  6  5        2 -.645857161695D-05 0.100000000000D+01
-.355107874102D-04 0.000000000000D+00 0.000000000000D+00 0.321930251434D-05 0.000000000000D+00  6 1 22 9900012 13 2 21 2 0.16091555D+00 0.10369398D-01 0.24767753D+04 0.24767753D+04 0.24767753D+04 0.12777354D+01  1  2  5  2  6  5        2 -.432291019485D-03 0.100000000000D+01
0.372124374562D-04 0.000000000000D+00 -.000000000000D+00 0.321930251434D-05 0.000000000000D+00  6 1 22 9900012 13 2 21 2 0.16091555D+00 0.10369398D-01 0.24767753D+04 0.24767753D+04 0.24767753D+04 0.12777354D+01  1  2  6  2  6  5        2 0.453006077834D-03 0.100000000000D+01
0.277390095300D-06 0.000000000000D+00 0.000000000000D+00 0.321930251434D-05 0.382643800161D-07  6 1 22 9900012 13 2 21 2 0.16091555D+00 0.10369398D-01 0.27370221D+04 0.27370221D+04 0.27370221D+04 0.12724343D+01  1  2 11  2  6  5        2 0.336169044106D-05 0.100000000000D+01
  </mgrwgt>
  </event>
</LesHouchesEvents>
