<LesHouchesEvents version="3.0">
  <!--
  <scalesfunctionalform>
    muR  H_T/2 := sum_i mT(i)/2, i=final state
    muF1 H_T/2 := sum_i mT(i)/2, i=final state
    muF2 H_T/2 := sum_i mT(i)/2, i=final state
    QES  H_T/2 := sum_i mT(i)/2, i=final state
  </scalesfunctionalform>
PYTHIA8   
  -->
  <header>
       48
  </header>
  <init>
   2212   2212 0.65000000D+04 0.65000000D+04 -1 -1  82200  82200 -4   1
 0.42495795D-04 0.96575756D-06 0.11307692D-05     66
  </init>
  <event>
  7     66 0.11307692E-05 0.16997919E+02 0.78161638E-02 0.12389480E+00
       21 -1    0    0  502  501 0.00000000E+00 0.00000000E+00 0.19339173E+02 0.19339173E+02 0.00000000E+00 0.0000E+00 0.9000E+01
       22 -1    0    0    0    0 0.00000000E+00 0.00000000E+00 -.50236241E+03 0.50236241E+03 0.00000000E+00 0.0000E+00 0.9000E+01
       24  2    1    2    0    0 -.23684383E+01 0.21550612E+02 -.31363984E+03 0.33024460E+03 0.10110146E+03 0.0000E+00 0.0000E+00
  9900012  1    3    3    0    0 0.29788850E+02 -.89884126E+01 -.16972265E+03 0.17964951E+03 0.50000000E+02 0.0000E+00 0.9000E+01
      -11  1    3    3    0    0 -.32157289E+02 0.30539024E+02 -.14391719E+03 0.15059509E+03 0.00000000E+00 0.0000E+00 0.9000E+01
        3  1    1    2  502    0 0.10465619E+02 -.18566208E+02 0.53512943E+00 0.21319466E+02 0.00000000E+00 0.0000E+00 0.9000E+01
       -4  1    1    2    0  501 -.80971811E+01 -.29844043E+01 -.16991852E+03 0.17013751E+03 0.00000000E+00 0.0000E+00 0.9000E+01
#aMCatNLO 2  0  0  1  5 0.34554150D+02 0.00000000D+00  -5  6  0 0.00000000D+00 0.00000000D+00 0.00000000D+00 0.00000000D+00 0.00000000D+00
  <mgrwgt>
 0.2128807754D-04    1    2    0
 0.634415804205012D+02 0.000000000000000D+00 0.000000000000000D+00 0.634415804205012D+02
 0.634415804205012D+02 0.000000000000000D+00 0.000000000000000D+00 -.634415804205012D+02
 0.654242247430726D+02 0.349582828289033D+02 -.181590840319357D+02 0.151160613920283D+02
 0.382965579960077D+02 -.287545314454332D+02 0.245024685179308D+02 0.627951528567162D+01
 0.000000000000000D+00 0.000000000000000D+00 -.000000000000000D+00 0.000000000000000D+00
 0.231623781019222D+02 -.620375138347012D+01 -.634338448599508D+01 -.213955766776999D+02
 0.147897521243885D+03 0.000000000000000D+00 0.000000000000000D+00 0.147897521243885D+03
 0.656892248537684D+02 0.000000000000000D+00 0.000000000000000D+00 -.656892248537684D+02
 0.608001848291713D+02 0.297888503140409D+02 -.898841255291994D+01 0.151160613920283D+02
 0.447901276224750D+02 -.321572886113719D+02 0.305390243684952D+02 0.627951528567162D+01
 0.849260692944835D+02 0.104656193502289D+02 -.185662075304092D+02 0.822082963901169D+02
 0.230703643515239D+02 -.809718105289799D+01 -.298440428516606D+01 -.213955766776999D+02
0.136356176613D-07 0.000000000000D+00 0.000000000000D+00 0.243507072932D-08 0.446823578986D-11  6 21 22 9900012 -11 3 -4 2 0.29752574D-02 0.77286524D-01 0.44343152D+04 0.44343152D+04 0.44343152D+04 0.12477612D+01  1  2  1  3  5  1       -3 0.212880775364D-04 0.100000000000D+01
  </mgrwgt>
  </event>
  <event>
  7     66 0.11307692E-05 0.11358298E+02 0.78161638E-02 0.13269511E+00
       21 -1    0    0  502  501 0.00000000E+00 0.00000000E+00 0.32662590E+02 0.32662590E+02 0.00000000E+00 0.0000E+00 0.9000E+01
       22 -1    0    0    0    0 0.00000000E+00 0.00000000E+00 -.11816788E+03 0.11816788E+03 0.00000000E+00 0.0000E+00 0.9000E+01
       24  2    1    2    0    0 0.92476175E+01 -.68135745E+01 -.56333504E+02 0.98096128E+02 0.79482346E+02 0.0000E+00 0.0000E+00
  9900012  1    3    3    0    0 -.70414546E+01 -.19912333E+02 -.54810927E+02 0.77138322E+02 0.50000000E+02 0.0000E+00 0.9000E+01
      -11  1    3    3    0    0 0.16289072E+02 0.13098759E+02 -.15225776E+01 0.20957805E+02 0.00000000E+00 0.0000E+00 0.9000E+01
        3  1    1    2  502    0 -.89840229E+01 0.76324548E+01 0.88262951E+01 0.14726524E+02 0.00000000E+00 0.0000E+00 0.9000E+01
       -4  1    1    2    0  501 -.26359464E+00 -.81888028E+00 -.37998083E+02 0.38007819E+02 0.00000000E+00 0.0000E+00 0.9000E+01
#aMCatNLO 2  0  0  1  5 0.40251363D+02 0.00000000D+00  -5  6  0 0.00000000D+00 0.00000000D+00 0.00000000D+00 0.00000000D+00 0.00000000D+00
  <mgrwgt>
 0.2277103145D-03    1    2    0
 0.487002799585734D+02 0.000000000000000D+00 0.000000000000000D+00 0.487002799585734D+02
 0.487002799585734D+02 0.000000000000000D+00 0.000000000000000D+00 -.487002799585734D+02
 0.537954716760731D+02 -.120090403523079D+02 -.156920777763367D+02 -.186933617341097D+01
 0.273350290838693D+02 0.137642969665992D+02 0.152437036569508D+02 0.180382217208437D+02
 0.000000000000000D+00 -.000000000000000D+00 0.000000000000000D+00 0.000000000000000D+00
 0.162700591572043D+02 -.175525661429123D+01 0.448374119385887D+00 -.161688855474327D+02
 0.767150962568912D+02 0.000000000000000D+00 0.000000000000000D+00 0.767150962568912D+02
 0.503117277601611D+02 0.000000000000000D+00 0.000000000000000D+00 -.503117277601611D+02
 0.543100131037932D+02 -.704145462909269D+01 -.199123334220627D+02 -.186933617341097D+01
 0.276095780548967D+02 0.162890721576636D+02 0.130987589397447D+02 0.180382217208437D+02
 0.289154785711774D+02 -.898402289002856D+01 0.763245476485397D+01 0.264033684967301D+02
 0.161917542871850D+02 -.263594638542365D+00 -.818880282536027D+00 -.161688855474327D+02
0.334154618183D-07 0.000000000000D+00 0.000000000000D+00 0.159713104284D-04 0.266371180967D-06  6 21 22 9900012 -11 3 -4 2 0.50250138D-02 0.18179674D-01 0.19284809D+04 0.19284809D+04 0.19284809D+04 0.12913156D+01  1  2  1  3  5  1       -3 0.227710314542D-03 0.100000000000D+01
  </mgrwgt>
  </event>
  <event>
  6     66 0.11307692E-05 0.19587649E+02 0.78161638E-02 0.12127523E+00
       -1 -1    0    0    0  501 0.00000000E+00 0.00000000E+00 0.13636629E+03 0.13636629E+03 0.00000000E+00 0.0000E+00 0.9000E+01
       22 -1    0    0    0    0 0.00000000E+00 0.00000000E+00 -.24259176E+02 0.24259176E+02 0.00000000E+00 0.0000E+00 0.9000E+01
       24  2    1    2    0    0 -.19587559E+02 0.59331067E-01 0.11499282E+03 0.14082639E+03 0.78898973E+02 0.0000E+00 0.0000E+00
  9900012  1    3    3    0    0 0.87523229E+01 -.77206275E+01 0.80873116E+02 0.95794948E+02 0.50000000E+02 0.0000E+00 0.9000E+01
      -11  1    3    3    0    0 -.28339882E+02 0.77799586E+01 0.34119704E+02 0.45031443E+02 0.00000000E+00 0.0000E+00 0.9000E+01
       -2  1    1    2    0  501 0.19587559E+02 -.59331067E-01 -.28857079E+01 0.19799073E+02 0.00000000E+00 0.0000E+00 0.9000E+01
#aMCatNLO 1  0  0  1  5 0.22395893D+02 0.00000000D+00  -5  6  0 0.00000000D+00 0.00000000D+00 0.00000000D+00 0.00000000D+00 0.00000000D+00
  <mgrwgt>
 0.4775066224D-04    3    2    0
 0.575163789814484D+02 0.000000000000000D+00 0.000000000000000D+00 0.575163789814484D+02
 0.575163789814484D+02 0.000000000000000D+00 0.000000000000000D+00 -.575163789814484D+02
 0.549465800844019D+02 0.875232285593722D+01 -.772062752054749D+01 0.195682247096153D+02
 0.296275171784372D+02 -.283398820986018D+02 0.777995858744283D+01 0.375674076476089D+01
 0.304586607000576D+02 0.195875592426646D+02 -.593310668953388D-01 -.233249654743762D+02
 0.000000000000000D+00 -.000000000000000D+00 -.000000000000000D+00 -.000000000000000D+00
 0.731404997267603D+02 0.000000000000000D+00 0.000000000000000D+00 0.731404997267603D+02
 0.973602560882516D+02 0.000000000000000D+00 0.000000000000000D+00 -.973602560882516D+02
 0.599661665798201D+02 0.266585965796244D+02 0.153132112816748D+01 0.195682247096153D+02
 0.236883634982878D+02 -.200319373237152D+02 0.120725701949561D+02 0.375674076476089D+01
 0.386805479701436D+02 0.303611734101624D+02 0.550726121114523D+01 -.233249654743762D+02
 0.481656777667604D+02 -.369878326660716D+02 -.191111525342688D+02 -.242197563614913D+02
0.162258116067D-06 0.000000000000D+00 0.000000000000D+00 0.113727461100D-06 0.000000000000D+00  6 -1 22 9900012 -11 -2 21 0 0.20979429D-01 0.37321810D-02 0.25160293D+04 0.25160293D+04 0.25160293D+04 0.12768967D+01  1  2  2  1  6  1       -1 0.478259665622D-04 0.100000000000D+01
-.737253854709D-08 0.000000000000D+00 -.311556944621D-09 0.113727461100D-06 0.000000000000D+00  6 -1 22 9900012 -11 -2 21 2 0.20979429D-01 0.37321810D-02 0.25160293D+04 0.25160293D+04 0.25160293D+04 0.12768967D+01  1  2  3  1  6  1       -1 -.354312046269D-05 0.100000000000D+01
0.721584503312D-08 0.000000000000D+00 0.000000000000D+00 0.113727461100D-06 0.000000000000D+00  6 -1 22 9900012 -11 -2 21 2 0.20979429D-01 0.37321810D-02 0.25160293D+04 0.25160293D+04 0.25160293D+04 0.12768967D+01  1  2 15  1  6  1       -1 0.346781614354D-05 0.100000000000D+01
  </mgrwgt>
  </event>
  <event>
  7     66 0.11307692E-05 0.11023528E+02 0.78161638E-02 0.12844313E+00
       -3 -1    0    0    0  501 0.00000000E+00 0.00000000E+00 0.20134083E+03 0.20134083E+03 0.00000000E+00 0.0000E+00 0.9000E+01
       22 -1    0    0    0    0 0.00000000E+00 0.00000000E+00 -.33587435E+02 0.33587435E+02 0.00000000E+00 0.0000E+00 0.9000E+01
       24  2    1    2    0    0 -.59561109E+01 -.21768406E+01 0.18649821E+03 0.20357887E+03 0.81379116E+02 0.0000E+00 0.0000E+00
  9900012  1    3    3    0    0 0.39526165E+01 -.25435477E+02 0.12373194E+03 0.13591240E+03 0.50000000E+02 0.0000E+00 0.9000E+01
      -11  1    3    3    0    0 -.99087274E+01 0.23258636E+02 0.62766270E+02 0.67666474E+02 0.00000000E+00 0.0000E+00 0.9000E+01
       -4  1    1    2    0  502 -.85623844E+01 -.38380782E+01 -.77496669E+01 0.12169741E+02 0.00000000E+00 0.0000E+00 0.9000E+01
       21  1    1    2  502  501 0.14518495E+02 0.60149188E+01 -.10995146E+02 0.19179656E+02 0.00000000E+00 0.0000E+00 0.9000E+01
#aMCatNLO 2  0  0  5  1 0.58417644D+00 0.00000000D+00  -5  6  0 0.00000000D+00 0.00000000D+00 0.00000000D+00 0.00000000D+00 0.00000000D+00
  <mgrwgt>
 0.3616281833D-05    1    2    0
 0.822345559787558D+02 0.000000000000000D+00 0.000000000000000D+00 0.822345559787558D+02
 0.822345559787558D+02 -.000000000000000D+00 -.000000000000000D+00 -.822345559787558D+02
 0.691050258923508D+02 0.374777092346456D+01 -.255103441390166D+02 0.401332923966705D+02
 0.332626735995814D+02 -.100072309417469D+02 0.232226354101569D+02 0.216094883900049D+02
 0.621014124655795D+02 0.625946001828237D+01 0.228770872885974D+01 -.617427807866754D+02
 0.000000000000000D+00 0.000000000000000D+00 0.000000000000000D+00 0.000000000000000D+00
 0.822345559787558D+02 0.000000000000000D+00 0.000000000000000D+00 0.822345559787558D+02
 0.822345559787558D+02 -.000000000000000D+00 -.000000000000000D+00 -.822345559787558D+02
 0.679350098607553D+02 0.395261650901605D+01 -.254354771324752D+02 0.381127129781770D+02
 0.326353831827023D+02 -.990872742082994D+01 0.232586364971463D+02 0.206378580447466D+02
 0.252877221778236D+02 -.856238435273251D+01 -.383807815580003D+01 -.234824109326288D+02
 0.386109967362304D+02 0.145184952645464D+02 0.601491879112888D+01 -.352681600902948D+02
0.318347416398D-07 0.000000000000D+00 0.000000000000D+00 0.223153315152D-05 0.934974631191D-08  6 -3 22 9900012 -11 -4 21 2 0.30975513D-01 0.51672978D-02 0.28417766D+04 0.28417766D+04 0.28417766D+04 0.12704582D+01  1  2  1  2  6  5       -4 0.361628183346D-05 0.100000000000D+01
  </mgrwgt>
  </event>
  <event>
  6     66 0.11307692E-05 0.14826432E+02 0.78161638E-02 0.13578889E+00
       -3 -1    0    0    0  501 0.00000000E+00 0.00000000E+00 0.15984391E+03 0.15984391E+03 0.00000000E+00 0.0000E+00 0.9000E+01
       22 -1    0    0    0    0 0.00000000E+00 0.00000000E+00 -.51884115E+02 0.51884115E+02 0.00000000E+00 0.0000E+00 0.9000E+01
       24  2    1    2    0    0 0.14804609E+02 -.80414659E+00 0.14826293E+03 0.16878427E+03 0.79286886E+02 0.0000E+00 0.0000E+00
  9900012  1    3    3    0    0 0.44999553E+01 -.60001316E+01 0.54602865E+02 0.74415885E+02 0.50000000E+02 0.0000E+00 0.9000E+01
      -11  1    3    3    0    0 0.10304654E+02 0.51959850E+01 0.93660068E+02 0.94368387E+02 0.00000000E+00 0.0000E+00 0.9000E+01
       -4  1    1    2    0  501 -.14804609E+02 0.80414659E+00 -.40303137E+02 0.42943754E+02 0.00000000E+00 0.0000E+00 0.9000E+01
#aMCatNLO 1  0  0  5  1 0.25809225D+01 0.00000000D+00  -5  6  0 0.00000000D+00 0.00000000D+00 0.00000000D+00 0.00000000D+00 0.00000000D+00
  <mgrwgt>
 0.1523004876D-01    6    2    0
 0.910678863377294D+02 0.000000000000000D+00 0.000000000000000D+00 0.910678863377294D+02
 0.910678863377294D+02 -.000000000000000D+00 -.000000000000000D+00 -.910678863377294D+02
 0.541410086844956D+02 0.449995525882693D+01 -.600013163945347D+01 0.193648559083824D+02
 0.541843616589937D+02 0.103046535828156D+02 0.519598504464410D+01 0.529411078685234D+02
 0.738104023319694D+02 -.148046088416426D+02 0.804146594809366D+00 -.723059637769058D+02
 0.000000000000000D+00 -.000000000000000D+00 0.000000000000000D+00 0.000000000000000D+00
 0.910678863377294D+02 0.000000000000000D+00 0.000000000000000D+00 0.910678863377294D+02
 0.910678863377294D+02 -.000000000000000D+00 -.000000000000000D+00 -.910678863377294D+02
 0.541071275353951D+02 0.448146473551593D+01 -.599912728388313D+01 0.192745478750502D+02
 0.540926819872913D+02 0.102861581216511D+02 0.519698966842538D+01 0.528507757186297D+02
 0.130827286914582D+02 -.545327503728950D-01 0.304469755275009D-01 -.130825796070623D+02
 0.608532344613142D+02 -.147130901067941D+02 0.771690639930245D+00 -.590427439866176D+02
0.200803798006D-07 0.000000000000D+00 0.000000000000D+00 0.321307150318D-05 0.000000000000D+00  6 -3 22 9900012 -11 -4 21 0 0.24591371D-01 0.79821716D-02 0.14794162D+04 0.14794162D+04 0.14794162D+04 0.13062102D+01  1  2  2  2  6  5       -4 0.109338778441D-05 0.100000000000D+01
-.659749672920D-09 0.000000000000D+00 -.385569728600D-10 0.321307150318D-05 0.000000000000D+00  6 -3 22 9900012 -11 -4 21 2 0.24591371D-01 0.79821716D-02 0.14794162D+04 0.14794162D+04 0.14794162D+04 0.13062102D+01  1  2  3  2  6  5       -4 -.612925433835D-07 0.100000000000D+01
0.109624304172D-08 0.000000000000D+00 0.000000000000D+00 0.321307150318D-05 0.000000000000D+00  6 -3 22 9900012 -11 -4 21 2 0.24591371D-01 0.79821716D-02 0.14794162D+04 0.14794162D+04 0.14794162D+04 0.13062102D+01  1  2 15  2  6  5       -4 0.101843967419D-06 0.100000000000D+01
0.547607242349D-09 0.000000000000D+00 0.000000000000D+00 0.321307150318D-05 0.000000000000D+00  6 -3 22 9900012 -11 -4 21 2 0.24591371D-01 0.79821716D-02 0.14775520D+04 0.14775520D+04 0.14775520D+04 0.13062823D+01  1  2 12  2  6  5       -4 0.508722685999D-07 0.100000000000D+01
-.881309900854D-07 0.000000000000D+00 0.000000000000D+00 0.321307150318D-05 0.000000000000D+00  6 -3 22 9900012 -11 -4 21 2 0.24591371D-01 0.79821716D-02 0.14794162D+04 0.14794162D+04 0.14794162D+04 0.13062102D+01  1  2  5  2  6  5       -4 -.818760926297D-05 0.100000000000D+01
0.164017057140D-03 0.000000000000D+00 0.000000000000D+00 0.321307150318D-05 0.741297401634D-03  6 -3 22 9900012 -11 -4 21 2 0.24591371D-01 0.79821716D-02 0.14775520D+04 0.14775520D+04 0.14775520D+04 0.13062823D+01  1  2 11  2  6  5       -4 0.152370515591D-01 0.100000000000D+01
  </mgrwgt>
  </event>
  <event>
  6     66 0.11307692E-05 0.42847727E+02 0.78161638E-02 0.11465248E+00
       -1 -1    0    0    0  501 0.00000000E+00 0.00000000E+00 0.18290154E+04 0.18290154E+04 0.00000000E+00 0.0000E+00 0.9000E+01
       22 -1    0    0    0    0 0.00000000E+00 0.00000000E+00 -.10077903E+02 0.10077903E+02 0.00000000E+00 0.0000E+00 0.9000E+01
       24  2    1    2    0    0 -.27918519E+02 -.79747408E+02 0.16071071E+04 0.16110336E+04 0.74142319E+02 0.0000E+00 0.0000E+00
  9900012  1    3    3    0    0 -.28190844E+02 -.35634647E+02 0.10600531E+04 0.10622039E+04 0.50000000E+02 0.0000E+00 0.9000E+01
      -11  1    3    3    0    0 0.27232515E+00 -.44112761E+02 0.54705391E+03 0.54882965E+03 0.00000000E+00 0.0000E+00 0.9000E+01
       -2  1    1    2    0  501 0.27918519E+02 0.79747408E+02 0.21183047E+03 0.22805973E+03 0.00000000E+00 0.0000E+00 0.9000E+01
#aMCatNLO 1  0  0  5  1 0.39157954D+02 0.00000000D+00  -5  6  0 0.00000000D+00 0.00000000D+00 0.00000000D+00 0.00000000D+00 0.00000000D+00
  <mgrwgt>
 0.1579511328D-04    5    2    0
 0.135766862024832D+03 0.000000000000000D+00 0.000000000000000D+00 0.135766862024832D+03
 0.135766862024832D+03 -.000000000000000D+00 -.000000000000000D+00 -.135766862024832D+03
 0.932545289929175D+02 -.281908444340484D+02 -.356346472567104D+02 0.642795098198173D+02
 0.526346178680133D+02 0.272325147879212D+00 -.441127609006153D+02 0.287122476105713D+02
 0.125644577188733D+03 0.279185192861692D+02 0.797474081573257D+02 -.929917574303886D+02
 0.000000000000000D+00 0.000000000000000D+00 -.000000000000000D+00 0.000000000000000D+00
 0.135766862024832D+03 0.000000000000000D+00 0.000000000000000D+00 0.135766862024832D+03
 0.135766862024832D+03 -.000000000000000D+00 -.000000000000000D+00 -.135766862024832D+03
 0.819677690743340D+02 -.250213200458507D+02 -.265811099806337D+02 0.537223724567699D+02
 0.452749731180894D+02 0.204337164077365D+01 -.390538834549042D+02 0.228131981596654D+02
 0.117448552822721D+03 0.218724682070528D+02 0.916686211226037D+02 -.700900962773161D+02
 0.268424290345197D+02 0.110548019802430D+01 -.260336276870658D+02 -.644547433911921D+01
0.596538807990D-05 0.000000000000D+00 0.000000000000D+00 0.839222160568D-08 0.000000000000D+00  6 -1 22 9900012 -11 -2 21 0 0.28138699D+00 0.15504467D-02 0.96204927D+04 0.96204927D+04 0.96204927D+04 0.12110754D+01  1  2  2  2  6  5       -2 0.146204618014D-04 0.100000000000D+01
-.394583166446D-06 0.000000000000D+00 -.114543304748D-07 0.839222160568D-08 0.000000000000D+00  6 -1 22 9900012 -11 -2 21 2 0.28138699D+00 0.15504467D-02 0.96204927D+04 0.96204927D+04 0.96204927D+04 0.12110754D+01  1  2  3  2  6  5       -2 -.141841502941D-05 0.100000000000D+01
0.136722981097D-06 0.000000000000D+00 0.000000000000D+00 0.839222160568D-08 0.000000000000D+00  6 -1 22 9900012 -11 -2 21 2 0.28138699D+00 0.15504467D-02 0.96204927D+04 0.96204927D+04 0.96204927D+04 0.12110754D+01  1  2 15  2  6  5       -2 0.491480498270D-06 0.100000000000D+01
0.278329208484D-05 0.000000000000D+00 0.000000000000D+00 0.839222160568D-08 0.000000000000D+00  6 -1 22 9900012 -11 -2 21 2 0.28138699D+00 0.15504467D-02 0.12245026D+05 0.12245026D+05 0.12245026D+05 0.12003189D+01  1  2 12  2  6  5       -2 0.988714450676D-05 0.100000000000D+01
-.216583317434D-05 0.000000000000D+00 0.000000000000D+00 0.839222160568D-08 0.000000000000D+00  6 -1 22 9900012 -11 -2 21 2 0.28138699D+00 0.15504467D-02 0.96204927D+04 0.96204927D+04 0.96204927D+04 0.12110754D+01  1  2  4  2  6  5       -2 -.778555850051D-05 0.100000000000D+01
  </mgrwgt>
  </event>
  <event>
  6     66 0.11307692E-05 0.23821594E+02 0.78161638E-02 0.12850626E+00
       -1 -1    0    0    0  501 0.00000000E+00 0.00000000E+00 0.38189022E+02 0.38189022E+02 0.00000000E+00 0.0000E+00 0.9000E+01
       22 -1    0    0    0    0 -.00000000E+00 -.00000000E+00 -.37829005E+03 0.37829005E+03 0.00000000E+00 0.0000E+00 0.9000E+01
       24  2    1    2    0    0 0.18731700E+02 -.14717056E+02 -.81334128E+01 0.83657849E+02 0.79781044E+02 0.0000E+00 0.0000E+00
  9900012  1    3    3    0    0 -.10125659E+02 -.17473056E+02 -.89272078E+01 0.54658318E+02 0.50000000E+02 0.0000E+00 0.9000E+01
      -11  1    3    3    0    0 0.28857359E+02 0.27559992E+01 0.79379505E+00 0.28999532E+02 0.00000000E+00 0.0000E+00 0.9000E+01
       -2  1    1    2    0  501 -.18731700E+02 0.14717056E+02 -.33196761E+03 0.33282122E+03 0.00000000E+00 0.0000E+00 0.9000E+01
#aMCatNLO 1  0  0  5  1 0.82366087D+01 0.00000000D+00  -5  6  0 0.00000000D+00 0.00000000D+00 0.00000000D+00 0.00000000D+00 0.00000000D+00
  <mgrwgt>
 0.2983151340D-04    6    2    0
 0.120193705231664D+03 0.000000000000000D+00 0.000000000000000D+00 0.120193705231664D+03
 0.120193705231664D+03 -.000000000000000D+00 -.000000000000000D+00 -.120193705231664D+03
 0.820670791836982D+02 -.101256594106614D+02 -.174730556933733D+02 0.618641158667846D+02
 0.513657033586674D+02 0.288573594873978D+02 0.275599922665910D+01 0.424039237949551D+02
 0.106954627920962D+03 -.187317000767365D+02 0.147170564667142D+02 -.104268039661740D+03
 0.000000000000000D+00 0.000000000000000D+00 0.000000000000000D+00 -.000000000000000D+00
 0.120193705231664D+03 0.000000000000000D+00 0.000000000000000D+00 0.120193705231664D+03
 0.120193705231664D+03 -.000000000000000D+00 -.000000000000000D+00 -.120193705231664D+03
 0.808041850598112D+02 -.104254314014400D+02 -.172375318862786D+02 0.601954665879717D+02
 0.504098142534959D+02 0.286700370050138D+02 0.290317409810364D+01 0.413612128854945D+02
 0.745179285245058D+01 -.438987152190327D+01 0.591345819180809D+01 -.113545451285045D+01
 0.101721618297570D+03 -.138547340816705D+02 0.842089959636688D+01 -.100421224960616D+03
0.750127250056D-06 0.000000000000D+00 0.000000000000D+00 0.210757314524D-05 0.000000000000D+00  6 -1 22 9900012 -11 -2 21 0 0.58752341D-02 0.58198469D-01 0.28480698D+04 0.28480698D+04 0.28480698D+04 0.12703421D+01  1  2  2  2  6  5       -2 0.261187512940D-04 0.100000000000D+01
-.270614501125D-07 0.000000000000D+00 -.144034307663D-08 0.210757314524D-05 0.000000000000D+00  6 -1 22 9900012 -11 -2 21 2 0.58752341D-02 0.58198469D-01 0.28480698D+04 0.28480698D+04 0.28480698D+04 0.12703421D+01  1  2  3  2  6  5       -2 -.152058218279D-05 0.100000000000D+01
0.446066317449D-07 0.000000000000D+00 0.000000000000D+00 0.210757314524D-05 0.000000000000D+00  6 -1 22 9900012 -11 -2 21 2 0.58752341D-02 0.58198469D-01 0.28480698D+04 0.28480698D+04 0.28480698D+04 0.12703421D+01  1  2 15  2  6  5       -2 0.250644548549D-05 0.100000000000D+01
0.161263043279D-06 0.000000000000D+00 0.000000000000D+00 0.210757314524D-05 0.000000000000D+00  6 -1 22 9900012 -11 -2 21 2 0.58752341D-02 0.58198469D-01 0.28249346D+04 0.28249346D+04 0.28249346D+04 0.12707703D+01  1  2 12  2  6  5       -2 0.905962886427D-05 0.100000000000D+01
-.113296349866D-06 0.000000000000D+00 0.000000000000D+00 0.210757314524D-05 0.000000000000D+00  6 -1 22 9900012 -11 -2 21 2 0.58752341D-02 0.58198469D-01 0.28480698D+04 0.28480698D+04 0.28480698D+04 0.12703421D+01  1  2  5  2  6  5       -2 -.636611897239D-05 0.100000000000D+01
0.594328786849D-09 0.000000000000D+00 0.000000000000D+00 0.210757314524D-05 0.123124313084D-07  6 -1 22 9900012 -11 -2 21 2 0.58752341D-02 0.58198469D-01 0.28249346D+04 0.28249346D+04 0.28249346D+04 0.12707703D+01  1  2 11  2  6  5       -2 0.333889161628D-07 0.100000000000D+01
  </mgrwgt>
  </event>
  <event>
  6     66 0.11307692E-05 0.30115584E+02 0.78161638E-02 0.12557131E+00
       -1 -1    0    0    0  501 0.00000000E+00 0.00000000E+00 0.11524932E+03 0.11524932E+03 0.00000000E+00 0.0000E+00 0.9000E+01
       22 -1    0    0    0    0 0.00000000E+00 0.00000000E+00 -.43479195E+02 0.43479195E+02 0.00000000E+00 0.0000E+00 0.9000E+01
       24  2    1    2    0    0 -.37730473E+01 -.29878295E+02 -.20990969E+01 0.78956274E+02 0.72957101E+02 0.0000E+00 0.0000E+00
  9900012  1    3    3    0    0 -.13750115E+02 -.32741889E+02 -.14264070E+02 0.62964757E+02 0.50000000E+02 0.0000E+00 0.9000E+01
      -11  1    3    3    0    0 0.99770672E+01 0.28635941E+01 0.12164973E+02 0.15991517E+02 0.00000000E+00 0.0000E+00 0.9000E+01
       -2  1    1    2    0  501 0.37730473E+01 0.29878295E+02 0.73869226E+02 0.79772244E+02 0.00000000E+00 0.0000E+00 0.9000E+01
#aMCatNLO 1  0  0  5  5 0.25556099D+02 0.00000000D+00  -5  6  0 0.00000000D+00 0.00000000D+00 0.00000000D+00 0.00000000D+00 0.00000000D+00
  <mgrwgt>
 0.1051042786D-03    4    2    0
 0.707880483725093D+02 0.000000000000000D+00 0.000000000000000D+00 0.707880483725093D+02
 0.707880483725093D+02 -.000000000000000D+00 -.000000000000000D+00 -.707880483725093D+02
 0.778241317056673D+02 -.137501145276351D+02 -.327418894077028D+02 -.479113609098273D+02
 0.117620709759382D+02 0.997706721087581D+01 0.286359408704508D+01 0.553211283483212D+01
 0.519898940634131D+02 0.377304731675930D+01 0.298782953206577D+02 0.423792480749951D+02
 0.000000000000000D+00 -.000000000000000D+00 0.000000000000000D+00 0.000000000000000D+00
 0.707880483725093D+02 0.000000000000000D+00 0.000000000000000D+00 0.707880483725093D+02
 0.707880483725093D+02 -.000000000000000D+00 -.000000000000000D+00 -.707880483725093D+02
 0.665728070929719D+02 -.125916205233924D+02 -.235679185878228D+02 -.348990393889387D+02
 0.135929569186489D+02 0.101804901368580D+02 0.447447509309295D+01 0.781697966012923D+01
 0.351126813692366D+02 0.238973096465397D+02 0.225808498143284D+02 0.123257537805070D+02
 0.262976513641611D+02 -.214861792600053D+02 -.348740631959856D+01 0.147563059483024D+02
0.605340914872D-06 0.000000000000D+00 0.000000000000D+00 0.236434336587D-07 0.000000000000D+00  6 -1 22 9900012 -11 -2 21 0 0.17730665D-01 0.66891069D-02 0.25919937D+04 0.25919937D+04 0.25919937D+04 0.12753148D+01  1  2  2  2  6  5       -2 0.104535469153D-03 0.100000000000D+01
0.143293103792D-07 0.000000000000D+00 -.116233425152D-08 0.236434336587D-07 0.000000000000D+00  6 -1 22 9900012 -11 -2 21 2 0.17730665D-01 0.66891069D-02 0.25919937D+04 0.25919937D+04 0.25919937D+04 0.12753148D+01  1  2  3  2  6  5       -2 0.402460917353D-05 0.100000000000D+01
0.218979762182D-08 0.000000000000D+00 0.000000000000D+00 0.236434336587D-07 0.000000000000D+00  6 -1 22 9900012 -11 -2 21 2 0.17730665D-01 0.66891069D-02 0.25919937D+04 0.25919937D+04 0.25919937D+04 0.12753148D+01  1  2 15  2  6  5       -2 0.615038642037D-06 0.100000000000D+01
-.144939058689D-07 0.000000000000D+00 0.000000000000D+00 0.236434336587D-07 0.000000000000D+00  6 -1 22 9900012 -11 -2 21 2 0.17730665D-01 0.66891069D-02 0.25919937D+04 0.25919937D+04 0.25919937D+04 0.12753148D+01  1  2  4  2  6  5       -2 -.407083837090D-05 0.100000000000D+01
  </mgrwgt>
  </event>
  <event>
  7     66 0.11307692E-05 0.18960035E+02 0.78161638E-02 0.12982705E+00
       21 -1    0    0  502  501 0.00000000E+00 0.00000000E+00 0.18326972E+03 0.18326972E+03 0.00000000E+00 0.0000E+00 0.9000E+01
       22 -1    0    0    0    0 0.00000000E+00 0.00000000E+00 -.28638874E+02 0.28638874E+02 0.00000000E+00 0.0000E+00 0.9000E+01
       24  2    1    2    0    0 -.19143754E+02 -.46244740E+01 0.95239768E+02 0.12469781E+03 0.78045255E+02 0.0000E+00 0.0000E+00
  9900012  1    3    3    0    0 -.23763197E+02 -.23915382E+02 0.66429210E+02 0.89718867E+02 0.50000000E+02 0.0000E+00 0.9000E+01
      -11  1    3    3    0    0 0.46194425E+01 0.19290908E+02 0.28810557E+02 0.34978945E+02 0.00000000E+00 0.0000E+00 0.9000E+01
        1  1    1    2  502    0 0.18622513E+02 0.48556552E+01 0.72031186E+02 0.74557810E+02 0.00000000E+00 0.0000E+00 0.9000E+01
       -2  1    1    2    0  501 0.52124130E+00 -.23118118E+00 -.12640113E+02 0.12652967E+02 0.00000000E+00 0.0000E+00 0.9000E+01
#aMCatNLO 2  0  0  1  5 0.10829444D+03 0.00000000D+00  -5  6  0 0.00000000D+00 0.00000000D+00 0.00000000D+00 0.00000000D+00 0.00000000D+00
  <mgrwgt>
 0.1044881253D-02    1    2    0
 0.540188814311782D+02 0.000000000000000D+00 0.000000000000000D+00 0.540188814311782D+02
 0.540188814311782D+02 0.000000000000000D+00 0.000000000000000D+00 -.540188814311782D+02
 0.581025646734482D+02 -.134679239179864D+02 -.212309813057401D+02 0.156130868109697D+02
 0.241058205335913D+02 0.857015154420109D+01 0.203210207971212D+02 0.973135138971504D+01
 0.000000000000000D+00 0.000000000000000D+00 0.000000000000000D+00 0.000000000000000D+00
 0.258293776553170D+02 0.489777237378534D+01 0.909960508618934D+00 -.253444382006847D+02
 0.914375990641457D+02 0.000000000000000D+00 0.000000000000000D+00 0.914375990641457D+02
 0.574013144449243D+02 0.000000000000000D+00 0.000000000000000D+00 -.574013144449243D+02
 0.622928849789805D+02 -.237631967697028D+02 -.239153824665633D+02 0.156130868109697D+02
 0.220947413851637D+02 0.461944250802609D+01 0.192909084265671D+02 0.973135138971504D+01
 0.391004353852295D+02 0.186225129608029D+02 0.485565522443539D+01 0.340362846192214D+02
 0.253508517596964D+02 0.521241300873846D+00 -.231181184439137D+00 -.253444382006847D+02
0.368600186445D-06 0.000000000000D+00 0.000000000000D+00 0.532142134916D-06 0.860160146155D-07  6 21 22 9900012 -11 1 -2 2 0.28195341D-01 0.44059807D-02 0.24978083D+04 0.24978083D+04 0.24978083D+04 0.12772842D+01  1  2  1  3  5  1       -1 0.104488125265D-02 0.100000000000D+01
  </mgrwgt>
  </event>
  <event>
  6     66 0.11307692E-05 0.12981819E+02 0.78161638E-02 0.13341873E+00
       -1 -1    0    0    0  501 0.00000000E+00 0.00000000E+00 0.83975648E+01 0.83975648E+01 0.00000000E+00 0.0000E+00 0.9000E+01
       22 -1    0    0    0    0 0.00000000E+00 0.00000000E+00 -.27111406E+03 0.27111406E+03 0.00000000E+00 0.0000E+00 0.9000E+01
       24  2    1    2    0    0 0.61352714E+01 -.11440545E+02 -.21119770E+03 0.22638240E+03 0.80473583E+02 0.0000E+00 0.0000E+00
  9900012  1    3    3    0    0 0.20681037E+02 -.16712386E+02 -.19833751E+03 0.20626386E+03 0.50000000E+02 0.0000E+00 0.9000E+01
      -11  1    3    3    0    0 -.14545765E+02 0.52718406E+01 -.12860183E+02 0.20118546E+02 0.00000000E+00 0.0000E+00 0.9000E+01
       -2  1    1    2    0  501 -.61352714E+01 0.11440545E+02 -.51518800E+02 0.53129224E+02 0.00000000E+00 0.0000E+00 0.9000E+01
#aMCatNLO 1  0  0  1  1 0.86486999D+00 0.00000000D+00  -5  6  0 0.00000000D+00 0.00000000D+00 0.00000000D+00 0.00000000D+00 0.00000000D+00
  <mgrwgt>
 0.1441107372D-01    9    4    0
 0.477147553973438D+02 0.000000000000000D+00 0.000000000000000D+00 0.477147553973438D+02
 0.477147553973438D+02 0.000000000000000D+00 0.000000000000000D+00 -.477147553973438D+02
 0.581225778045352D+02 0.206810367653394D+02 -.167123859667766D+02 -.130852941981605D+02
 0.235229683350338D+02 -.145457653975162D+02 0.527184059670292D+01 0.177188725661194D+02
 0.137839646551187D+02 -.613527136782315D+01 0.114405453700737D+02 -.463357836795889D+01
 0.000000000000000D+00 -.000000000000000D+00 0.000000000000000D+00 -.000000000000000D+00
 0.477147647701676D+02 0.000000000000000D+00 0.000000000000000D+00 0.477147647701676D+02
 0.481491496660753D+02 0.000000000000000D+00 0.000000000000000D+00 -.481491496660753D+02
 0.581235407034199D+02 0.206834649100742D+02 -.167127298477366D+02 -.130852941981605D+02
 0.235223295026535D+02 -.145447827170301D+02 0.527170142661802D+01 0.177188725661194D+02
 0.137836406735576D+02 -.613469553667637D+01 0.114404638191823D+02 -.463357836795889D+01
 0.434403556611896D+00 -.398665636764209D-02 0.564601936240361D-03 -.434384895907678D+00
 0.477147553973438D+02 0.000000000000000D+00 0.000000000000000D+00 0.477147553973438D+02
 0.477147553973438D+02 0.000000000000000D+00 0.000000000000000D+00 -.477147553973438D+02
 0.581225778045352D+02 0.206810367653394D+02 -.167123859667766D+02 -.130852941981605D+02
 0.235229683350338D+02 -.145457653975162D+02 0.527184059670292D+01 0.177188725661194D+02
 0.000000000000000D+00 -.000000000000000D+00 0.000000000000000D+00 -.000000000000000D+00
 0.137839646551187D+02 -.613527136782315D+01 0.114405453700737D+02 -.463357836795889D+01
 0.477147647701676D+02 0.000000000000000D+00 0.000000000000000D+00 0.477147647701676D+02
 0.481491496660753D+02 0.000000000000000D+00 0.000000000000000D+00 -.481491496660753D+02
 0.581235407034199D+02 0.206834649100742D+02 -.167127298477366D+02 -.130852941981605D+02
 0.235223295026535D+02 -.145447827170301D+02 0.527170142661802D+01 0.177188725661194D+02
 0.434403556611896D+00 -.398665636764209D-02 0.564601936240361D-03 -.434384895907678D+00
 0.137836406735576D+02 -.613469553667637D+01 0.114404638191823D+02 -.463357836795889D+01
0.128123331073D-06 0.000000000000D+00 0.000000000000D+00 0.342000334668D-06 0.000000000000D+00  6 -1 22 9900012 -11 -2 21 0 0.12919330D-02 0.41709855D-01 0.18098183D+04 0.18098183D+04 0.18098183D+04 0.12948366D+01  1  2  2  1  6  1       -1 0.603459852384D-04 0.100000000000D+01
0.182055335856D-08 0.000000000000D+00 -.246013663484D-09 0.342000334668D-06 0.000000000000D+00  6 -1 22 9900012 -11 -2 21 2 0.12919330D-02 0.41709855D-01 0.18098183D+04 0.18098183D+04 0.18098183D+04 0.12948366D+01  1  2  3  1  6  1       -1 0.143765110244D-05 0.100000000000D+01
0.177422639865D-08 0.000000000000D+00 0.000000000000D+00 0.342000334668D-06 0.000000000000D+00  6 -1 22 9900012 -11 -2 21 2 0.12919330D-02 0.41709855D-01 0.18098183D+04 0.18098183D+04 0.18098183D+04 0.12948366D+01  1  2 15  1  6  1       -1 0.140106771713D-05 0.100000000000D+01
-.399700586343D-07 0.000000000000D+00 0.000000000000D+00 0.342000334668D-06 0.000000000000D+00  6 -1 22 9900012 -11 -2 21 2 0.12919330D-02 0.41709855D-01 0.18098183D+04 0.18098183D+04 0.18098183D+04 0.12948366D+01  1  2  4  1  6  1       -1 -.315634796366D-04 0.100000000000D+01
0.175900239513D-11 0.000000000000D+00 0.000000000000D+00 0.342000334668D-06 0.000000000000D+00  6 -1 22 9900012 -11 -2 21 2 0.13041957D-02 0.41709855D-01 0.18098183D+04 0.18098183D+04 0.18098183D+04 0.12948366D+01  1  2  5  1  6  1       -1 0.137123571620D-08 0.100000000000D+01
-.175892390722D-11 0.000000000000D+00 0.000000000000D+00 0.342000334668D-06 0.000000000000D+00  6 -1 22 9900012 -11 -2 21 2 0.12919330D-02 0.41709855D-01 0.18098183D+04 0.18098183D+04 0.18098183D+04 0.12948366D+01  1  2  6  1  6  1       -1 -.138898367490D-08 0.100000000000D+01
0.392027402051D-07 0.000000000000D+00 0.000000000000D+00 0.342000334668D-06 0.813432244090D-05  6 -1 22 9900012 -11 -2 21 2 0.12919333D-02 0.42089581D-01 0.18099757D+04 0.18099757D+04 0.18099757D+04 0.12948318D+01  1  2 11  1  6  1       -1 0.305120100529D-04 0.100000000000D+01
0.294885317772D-14 0.000000000000D+00 0.000000000000D+00 0.342000334668D-06 0.000000000000D+00  6 21 22 9900012 -11 1 -2 2 0.13036950D-02 0.41709855D-01 0.18099757D+04 0.18099757D+04 0.18099757D+04 0.12948318D+01  3  4 12  3  5  1       -1 0.426121725444D-10 0.100000000000D+01
0.994308215358D-06 0.000000000000D+00 0.000000000000D+00 0.342000334668D-06 0.594216710712D-05  6 21 22 9900012 -11 1 -2 2 0.12919333D-02 0.42089581D-01 0.18099757D+04 0.18099757D+04 0.18099757D+04 0.12948318D+01  3  4 11  3  5  1       -1 0.143489404617D-01 0.100000000000D+01
  </mgrwgt>
  </event>
  <event>
  7     66 0.11307692E-05 0.40635848E+02 0.78161638E-02 0.12388893E+00
       -3 -1    0    0    0  501 0.00000000E+00 0.00000000E+00 0.24276428E+03 0.24276428E+03 0.00000000E+00 0.0000E+00 0.9000E+01
       22 -1    0    0    0    0 0.00000000E+00 0.00000000E+00 -.27208312E+02 0.27208312E+02 0.00000000E+00 0.0000E+00 0.9000E+01
       24  2    1    2    0    0 0.15819727E+02 0.35268119E+02 0.18677080E+03 0.20644013E+03 0.78994243E+02 0.0000E+00 0.0000E+00
  9900012  1    3    3    0    0 -.43231780E+01 0.38912421E+02 0.16375948E+03 0.17564178E+03 0.50000000E+02 0.0000E+00 0.9000E+01
      -11  1    3    3    0    0 0.20142905E+02 -.36443023E+01 0.23011319E+02 0.30798350E+02 0.00000000E+00 0.0000E+00 0.9000E+01
       -4  1    1    2    0  502 -.10304674E+01 0.56470138E+01 -.56449969E+01 0.80508768E+01 0.00000000E+00 0.0000E+00 0.9000E+01
       21  1    1    2  502  501 -.14789259E+02 -.40915132E+02 0.34430165E+02 0.55481587E+02 0.00000000E+00 0.0000E+00 0.9000E+01
#aMCatNLO 2  0  0  5  1 0.19140539D+02 0.00000000D+00  -5  6  0 0.00000000D+00 0.00000000D+00 0.00000000D+00 0.00000000D+00 0.00000000D+00
  <mgrwgt>
 0.1451047674D-04    2    2    0
 0.812724195541071D+02 0.000000000000000D+00 0.000000000000000D+00 0.812724195541071D+02
 0.812724195541071D+02 -.000000000000000D+00 -.000000000000000D+00 -.812724195541071D+02
 0.795803143224386D+02 -.222284731148429D+01 0.435948476043700D+02 0.439041528769172D+02
 0.208870870548163D+02 0.207087244030861D+02 -.238287738662776D+01 -.131948269893819D+01
 0.620774377309593D+02 -.184858770916018D+02 -.412119702177422D+02 -.425846701779790D+02
 0.000000000000000D+00 0.000000000000000D+00 -.000000000000000D+00 0.000000000000000D+00
 0.812724195541071D+02 0.000000000000000D+00 0.000000000000000D+00 0.812724195541071D+02
 0.812724195541071D+02 -.000000000000000D+00 -.000000000000000D+00 -.812724195541071D+02
 0.745587028906540D+02 -.432317796203231D+01 0.389124209178310D+02 0.390657625979446D+02
 0.206372787822464D+02 0.201429046652349D+02 -.364430231493303D+01 -.262292352553169D+01
 0.208578069453392D+02 -.103046740808926D+01 0.564701380189596D+01 -.200523685037729D+02
 0.464910504899746D+02 -.147892592951134D+02 -.409151324047939D+02 -.163904705686401D+02
-.176075422029D-07 0.000000000000D+00 0.000000000000D+00 0.383785854420D-07 0.000000000000D+00  6 -3 22 9900012 -11 -4 21 2 0.37348351D-01 0.41858941D-02 0.44369597D+04 0.44369597D+04 0.44369597D+04 0.12477316D+01  1  2 13  2  6  5       -4 -.190141831601D-05 0.100000000000D+01
0.151977674962D-06 0.000000000000D+00 0.000000000000D+00 0.383785854420D-07 0.120931546922D-08  6 -3 22 9900012 -11 -4 21 2 0.37348351D-01 0.41858941D-02 0.44369597D+04 0.44369597D+04 0.44369597D+04 0.12477316D+01  1  2  1  2  6  5       -4 0.164118950542D-04 0.100000000000D+01
  </mgrwgt>
  </event>
  <event>
  7     66 0.11307692E-05 0.39680532E+02 0.78161638E-02 0.12403887E+00
       -1 -1    0    0    0  502 0.00000000E+00 0.00000000E+00 0.44048688E+02 0.44048688E+02 0.00000000E+00 0.0000E+00 0.9000E+01
       22 -1    0    0    0    0 0.00000000E+00 0.00000000E+00 -.39929615E+03 0.39929615E+03 0.00000000E+00 0.0000E+00 0.9000E+01
       24  2    1    2    0    0 -.16466321E+02 -.38407287E+02 -.26312797E+03 0.27708067E+03 0.76099352E+02 0.0000E+00 0.0000E+00
  9900012  1    3    3    0    0 -.21146541E+02 -.49540180E+02 -.20676205E+03 0.21943553E+03 0.50000000E+02 0.0000E+00 0.9000E+01
      -11  1    3    3    0    0 0.46802201E+01 0.11132894E+02 -.56365920E+02 0.57645144E+02 0.00000000E+00 0.0000E+00 0.9000E+01
       -2  1    1    2    0  501 -.42473359E+01 0.18694646E+01 -.11723506E+03 0.11732687E+03 0.00000000E+00 0.0000E+00 0.9000E+01
       21  1    1    2  501  502 0.20713657E+02 0.36537822E+02 0.25115563E+02 0.48937302E+02 0.00000000E+00 0.0000E+00 0.9000E+01
#aMCatNLO 2  0  0  1  1 0.10596372D+00 0.00000000D+00  -5  6  0 0.00000000D+00 0.00000000D+00 0.00000000D+00 0.00000000D+00 0.00000000D+00
  <mgrwgt>
 0.3492230949D-04    1    2    0
 0.477420309557027D+02 0.000000000000000D+00 0.000000000000000D+00 0.477420309557027D+02
 0.477420309557027D+02 0.000000000000000D+00 0.000000000000000D+00 -.477420309557027D+02
 0.592169489063477D+02 -.715342458184481D+01 -.248570448033521D+02 0.183739728467471D+02
 0.188500976616836D+02 0.792268670555902D+01 0.168524375542782D+02 -.292447699592968D+01
 0.174170153433742D+02 -.769262123714215D+00 0.800460724907390D+01 -.154494958508174D+02
 0.000000000000000D+00 0.000000000000000D+00 0.000000000000000D+00 0.000000000000000D+00
 0.327164532735365D+03 0.000000000000000D+00 0.000000000000000D+00 0.327164532735365D+03
 0.537603252800596D+02 0.000000000000000D+00 0.000000000000000D+00 -.537603252800596D+02
 0.757562444268632D+02 -.211465413233466D+02 -.495401804755457D+02 0.183739728467471D+02
 0.124257132681535D+02 0.468022008890334D+01 0.111328938035926D+02 -.292447699592968D+01
 0.161313881088568D+02 -.424733591307133D+01 0.186946460669297D+01 -.154494958508174D+02
 0.276611512211551D+03 0.207136571475146D+02 0.365378220652601D+02 0.273404207455305D+03
0.829590989375D-06 0.000000000000D+00 0.000000000000D+00 0.212895998948D-07 0.202022164622D-08  6 -1 22 9900012 -11 -2 21 2 0.67767213D-02 0.61430177D-01 0.43700221D+04 0.43700221D+04 0.43700221D+04 0.12484864D+01  1  2  1  1  6  1       -1 0.349223094867D-04 0.100000000000D+01
  </mgrwgt>
  </event>
  <event>
  7     66 0.11307692E-05 0.19729602E+02 0.78161638E-02 0.12480548E+00
       -1 -1    0    0    0  501 0.00000000E+00 0.00000000E+00 0.21063470E+03 0.21063470E+03 0.00000000E+00 0.0000E+00 0.9000E+01
       22 -1    0    0    0    0 0.00000000E+00 0.00000000E+00 -.23855970E+02 0.23855970E+02 0.00000000E+00 0.0000E+00 0.9000E+01
       24  2    1    2    0    0 -.37329797E+02 0.56212334E+01 0.15052236E+03 0.17557413E+03 0.82122968E+02 0.0000E+00 0.0000E+00
  9900012  1    3    3    0    0 -.42204402E+02 0.22944286E+02 0.13518273E+03 0.15192769E+03 0.50000000E+02 0.0000E+00 0.9000E+01
      -11  1    3    3    0    0 0.48746050E+01 -.17323052E+02 0.15339627E+02 0.23646439E+02 0.00000000E+00 0.0000E+00 0.9000E+01
       -2  1    1    2    0  502 0.24563995E+02 -.97955178E+01 0.79968832E+01 0.27627743E+02 0.00000000E+00 0.0000E+00 0.9000E+01
       21  1    1    2  502  501 0.12765802E+02 0.41742844E+01 0.28259488E+02 0.31288800E+02 0.00000000E+00 0.0000E+00 0.9000E+01
#aMCatNLO 2  0  0  5  1 0.12301101D+02 0.00000000D+00  -5  6  0 0.00000000D+00 0.00000000D+00 0.00000000D+00 0.00000000D+00 0.00000000D+00
  <mgrwgt>
 0.2789451154D-04    2    2    0
 0.708864949048741D+02 0.000000000000000D+00 0.000000000000000D+00 0.708864949048741D+02
 0.708864949048741D+02 -.000000000000000D+00 -.000000000000000D+00 -.708864949048741D+02
 0.762703512553069D+02 -.460951352579933D+02 0.235301639149064D+02 0.252732343061357D+02
 0.184012875305906D+02 0.390353783500936D+01 -.171768259360635D+02 -.532225759582287D+01
 0.471013510238507D+02 0.421915974229840D+02 -.635333797884285D+01 -.199509767103128D+02
 0.000000000000000D+00 0.000000000000000D+00 0.000000000000000D+00 0.000000000000000D+00
 0.708864949048741D+02 0.000000000000000D+00 0.000000000000000D+00 0.708864949048741D+02
 0.708864949048741D+02 -.000000000000000D+00 -.000000000000000D+00 -.708864949048741D+02
 0.731900117080132D+02 -.422044019175354D+02 0.229442855550599D+02 0.234334383514267D+02
 0.189017191217926D+02 0.487460500495441D+01 -.173230521590000D+02 -.578144235475710D+01
 0.351604364698103D+02 0.245639950252240D+02 -.979551779570537D+01 -.231714106662144D+02
 0.145208225101320D+02 0.127658018873570D+02 0.417428439964549D+01 0.551941466954476D+01
-.926459342223D-07 0.000000000000D+00 0.000000000000D+00 0.112855183671D-07 0.000000000000D+00  6 -1 22 9900012 -11 -2 21 2 0.32405339D-01 0.36701493D-02 0.40455379D+04 0.40455379D+04 0.40455379D+04 0.12523386D+01  1  2 13  2  6  5       -2 -.234379145566D-04 0.100000000000D+01
0.202908008728D-06 0.000000000000D+00 0.000000000000D+00 0.112855183671D-07 0.984732577448D-09  6 -1 22 9900012 -11 -2 21 2 0.32405339D-01 0.36701493D-02 0.40455379D+04 0.40455379D+04 0.40455379D+04 0.12523386D+01  1  2  1  2  6  5       -2 0.513324260946D-04 0.100000000000D+01
  </mgrwgt>
  </event>
  <event>
  7     66 0.11307692E-05 0.40616550E+02 0.78161638E-02 0.11915266E+00
       21 -1    0    0  502  501 0.00000000E+00 0.00000000E+00 0.16495150E+03 0.16495150E+03 0.00000000E+00 0.0000E+00 0.9000E+01
       22 -1    0    0    0    0 0.00000000E+00 0.00000000E+00 -.13949796E+03 0.13949796E+03 0.00000000E+00 0.0000E+00 0.9000E+01
       24  2    1    2    0    0 -.61277745E+02 0.21351618E+02 -.48057400E+02 0.12843776E+03 0.99879376E+02 0.0000E+00 0.0000E+00
  9900012  1    3    3    0    0 -.27061877E+02 -.11464296E+02 -.55704268E+02 0.80416047E+02 0.50000000E+02 0.0000E+00 0.9000E+01
      -11  1    3    3    0    0 -.34215868E+02 0.32815914E+02 0.76468672E+01 0.48021708E+02 0.00000000E+00 0.0000E+00 0.9000E+01
        3  1    1    2  502    0 0.44601944E+02 -.20225354E+02 0.11839105E+03 0.12812041E+03 0.00000000E+00 0.0000E+00 0.9000E+01
       -4  1    1    2    0  501 0.16675801E+02 -.11262645E+01 -.44880119E+02 0.47891292E+02 0.00000000E+00 0.0000E+00 0.9000E+01
#aMCatNLO 2  0  0  1  1 0.50103203D+02 0.00000000D+00  -5  6  0 0.00000000D+00 0.00000000D+00 0.00000000D+00 0.00000000D+00 0.00000000D+00
  <mgrwgt>
 0.3975382054D-04    1    2    0
 0.708098726471098D+02 0.000000000000000D+00 0.000000000000000D+00 0.708098726471098D+02
 0.708098726471098D+02 0.000000000000000D+00 0.000000000000000D+00 -.708098726471098D+02
 0.566836618751592D+02 -.919433595154719D+01 -.195665735154364D+02 -.156732546349660D+02
 0.493468985857407D+02 -.172916789874382D+02 0.251414119414390D+02 0.387817436871737D+02
 0.000000000000000D+00 0.000000000000000D+00 -.000000000000000D+00 0.000000000000000D+00
 0.355891848333197D+02 0.264860149389854D+02 -.557483842600256D+01 -.231084890522077D+02
 0.296405670860117D+03 0.000000000000000D+00 0.000000000000000D+00 0.296405670860117D+03
 0.776314351812021D+02 0.000000000000000D+00 0.000000000000000D+00 -.776314351812021D+02
 0.600784999653087D+02 -.270618766199229D+02 -.114642959241805D+02 -.156732546349660D+02
 0.612505797097027D+02 -.342158683833454D+02 0.328159141596054D+02 0.387817436871737D+02
 0.224188680650486D+03 0.446019439102858D+02 -.202253537505793D+02 0.218774235678915D+03
 0.285193457158215D+02 0.166758010929825D+02 -.112626448484565D+01 -.231084890522077D+02
0.109148989624D-06 0.000000000000D+00 0.000000000000D+00 0.151622869401D-08 0.323238221346D-11  6 21 22 9900012 -11 3 -4 2 0.25377153D-01 0.21461225D-01 0.73183117D+04 0.73183117D+04 0.73183117D+04 0.12236488D+01  1  2  1  3  5  1       -3 0.397538205425D-04 0.100000000000D+01
  </mgrwgt>
  </event>
  <event>
  6     66 0.11307692E-05 0.30615771E+02 0.78161638E-02 0.12669550E+00
       -1 -1    0    0    0  501 0.00000000E+00 0.00000000E+00 0.19632372E+02 0.19632372E+02 0.00000000E+00 0.0000E+00 0.9000E+01
       22 -1    0    0    0    0 0.00000000E+00 0.00000000E+00 -.21178144E+03 0.21178144E+03 0.00000000E+00 0.0000E+00 0.9000E+01
       24  2    1    2    0    0 0.13876982E+02 -.27787924E+02 -.83144062E+02 0.11806995E+03 0.77864235E+02 0.0000E+00 0.0000E+00
  9900012  1    3    3    0    0 0.14789228E+02 -.15441338E+01 -.73426981E+02 0.90070124E+02 0.50000000E+02 0.0000E+00 0.9000E+01
      -11  1    3    3    0    0 -.91224605E+00 -.26243790E+02 -.97170802E+01 0.27999828E+02 0.00000000E+00 0.0000E+00 0.9000E+01
       -2  1    1    2    0  501 -.13876982E+02 0.27787924E+02 -.10900501E+03 0.11334386E+03 0.00000000E+00 0.0000E+00 0.9000E+01
#aMCatNLO 1  0  0  1  5 0.77025920D+01 0.00000000D+00  -5  6  0 0.00000000D+00 0.00000000D+00 0.00000000D+00 0.00000000D+00 0.00000000D+00
  <mgrwgt>
 0.2909911168D-04   11    4    0
 0.644807882053418D+02 0.000000000000000D+00 0.000000000000000D+00 0.644807882053418D+02
 0.644807882053418D+02 0.000000000000000D+00 0.000000000000000D+00 -.644807882053418D+02
 0.522213274559755D+02 0.147892284072439D+02 -.154413377245245D+01 0.244160096562980D+01
 0.357658387456053D+02 -.912246045919269D+00 -.262437897842920D+02 0.242822265471319D+02
 0.409744102091028D+02 -.138769823613247D+02 0.277879235567445D+02 -.267238275127617D+02
 0.000000000000000D+00 0.000000000000000D+00 0.000000000000000D+00 0.000000000000000D+00
 0.689180650427132D+02 0.000000000000000D+00 0.000000000000000D+00 0.689180650427132D+02
 0.667830981926498D+02 0.000000000000000D+00 0.000000000000000D+00 -.667830981926498D+02
 0.522973914016061D+02 0.145798547991783D+02 -.405999583402484D+01 0.244160096562980D+01
 0.370754153046247D+02 -.105816283808073D+01 -.279971460211977D+02 0.242822265471319D+02
 0.397393356470810D+02 -.140386694579052D+02 0.258450691736586D+02 -.267238275127617D+02
 0.658902088205123D+01 0.516977496807703D+00 0.621207268156389D+01 0.213496685006330D+01
 0.644807882053418D+02 0.000000000000000D+00 0.000000000000000D+00 0.644807882053418D+02
 0.644807882053418D+02 0.000000000000000D+00 0.000000000000000D+00 -.644807882053418D+02
 0.522213274559755D+02 0.147892284072439D+02 -.154413377245245D+01 0.244160096562980D+01
 0.357658387456053D+02 -.912246045919269D+00 -.262437897842920D+02 0.242822265471319D+02
 0.000000000000000D+00 0.000000000000000D+00 0.000000000000000D+00 0.000000000000000D+00
 0.409744102091028D+02 -.138769823613247D+02 0.277879235567445D+02 -.267238275127617D+02
 0.689180650427132D+02 0.000000000000000D+00 0.000000000000000D+00 0.689180650427132D+02
 0.667830981926498D+02 0.000000000000000D+00 0.000000000000000D+00 -.667830981926498D+02
 0.522973914016061D+02 0.145798547991783D+02 -.405999583402484D+01 0.244160096562980D+01
 0.370754153046247D+02 -.105816283808073D+01 -.279971460211977D+02 0.242822265471319D+02
 0.658902088205123D+01 0.516977496807703D+00 0.621207268156389D+01 0.213496685006330D+01
 0.397393356470810D+02 -.140386694579052D+02 0.258450691736586D+02 -.267238275127617D+02
0.120594824361D-06 0.000000000000D+00 0.000000000000D+00 0.620055991334D-07 0.000000000000D+00  6 -1 22 9900012 -11 -2 21 0 0.30203649D-02 0.32581760D-01 0.29966927D+04 0.29966927D+04 0.29966927D+04 0.12676810D+01  1  2  2  1  6  1       -1 0.277130477641D-04 0.100000000000D+01
-.655301834597D-08 0.000000000000D+00 -.231557939446D-09 0.620055991334D-07 0.000000000000D+00  6 -1 22 9900012 -11 -2 21 2 0.30203649D-02 0.32581760D-01 0.29966927D+04 0.29966927D+04 0.29966927D+04 0.12676810D+01  1  2  3  1  6  1       -1 -.242000881586D-05 0.100000000000D+01
0.432290273103D-08 0.000000000000D+00 0.000000000000D+00 0.620055991334D-07 0.000000000000D+00  6 -1 22 9900012 -11 -2 21 2 0.30203649D-02 0.32581760D-01 0.29966927D+04 0.29966927D+04 0.29966927D+04 0.12676810D+01  1  2 15  1  6  1       -1 0.159643421808D-05 0.100000000000D+01
0.182384652765D-06 0.000000000000D+00 0.000000000000D+00 0.620055991334D-07 0.000000000000D+00  6 -1 22 9900012 -11 -2 21 2 0.33434773D-02 0.32581760D-01 0.33583654D+04 0.33583654D+04 0.33583654D+04 0.12617855D+01  1  2 12  1  6  1       -1 0.586650122959D-04 0.100000000000D+01
-.146718277289D-06 0.000000000000D+00 0.000000000000D+00 0.620055991334D-07 0.000000000000D+00  6 -1 22 9900012 -11 -2 21 2 0.30203649D-02 0.32581760D-01 0.29966927D+04 0.29966927D+04 0.29966927D+04 0.12676810D+01  1  2  4  1  6  1       -1 -.541825927751D-04 0.100000000000D+01
-.636660965855D-06 0.000000000000D+00 -.127323222912D-06 0.620055991334D-07 0.000000000000D+00  6 -1 22 9900012 -11 -2 21 2 0.33425970D-02 0.32581760D-01 0.29966927D+04 0.29966927D+04 0.29966927D+04 0.12676810D+01  1  2  5  1  6  1       -1 -.203891551874D-03 0.100000000000D+01
0.646892596924D-06 0.000000000000D+00 0.126671828528D-06 0.620055991334D-07 0.000000000000D+00  6 -1 22 9900012 -11 -2 21 2 0.30203649D-02 0.32581760D-01 0.29966927D+04 0.29966927D+04 0.29966927D+04 0.12676810D+01  1  2  6  1  6  1       -1 0.238895376881D-03 0.100000000000D+01
0.144446585339D-08 0.000000000000D+00 0.000000000000D+00 0.620055991334D-07 0.240189420164D-07  6 -1 22 9900012 -11 -2 21 2 0.32282128D-02 0.33745104D-01 0.33583654D+04 0.33583654D+04 0.33583654D+04 0.12617855D+01  1  2 11  1  6  1       -1 0.462234749701D-06 0.100000000000D+01
0.300769252941D-08 0.000000000000D+00 0.000000000000D+00 0.620055991334D-07 0.000000000000D+00  6 21 22 9900012 -11 1 -2 2 0.33434773D-02 0.32581760D-01 0.33583654D+04 0.33583654D+04 0.33583654D+04 0.12617855D+01  3  4 12  3  5  1       -1 0.163553468555D-04 0.100000000000D+01
-.100322800646D-07 0.000000000000D+00 -.209245739126D-08 0.620055991334D-07 0.000000000000D+00  6 21 22 9900012 -11 1 -2 2 0.33425970D-02 0.32581760D-01 0.29966927D+04 0.29966927D+04 0.29966927D+04 0.12676810D+01  3  4  5  3  5  1       -1 -.543092437292D-04 0.100000000000D+01
0.395875993519D-10 0.000000000000D+00 0.000000000000D+00 0.620055991334D-07 0.190057329224D-09  6 21 22 9900012 -11 1 -2 2 0.32282128D-02 0.33745104D-01 0.33583654D+04 0.33583654D+04 0.33583654D+04 0.12617855D+01  3  4 11  3  5  1       -1 0.215056113783D-06 0.100000000000D+01
  </mgrwgt>
  </event>
  <event>
  6     66 -.11307692E-05 0.44897384E+02 0.78161638E-02 0.12379103E+00
       -1 -1    0    0    0  501 0.00000000E+00 0.00000000E+00 0.48535422E+02 0.48535422E+02 0.00000000E+00 0.0000E+00 0.9000E+01
       22 -1    0    0    0    0 0.00000000E+00 0.00000000E+00 -.99402271E+02 0.99402271E+02 0.00000000E+00 0.0000E+00 0.9000E+01
       24  2    1    2    0    0 0.51168721E+01 -.44604850E+02 -.21287411E+02 0.94172294E+02 0.79996825E+02 0.0000E+00 0.0000E+00
  9900012  1    3    3    0    0 -.18479755E+02 -.32977191E+02 -.25237060E+02 0.67571486E+02 0.50000000E+02 0.0000E+00 0.9000E+01
      -11  1    3    3    0    0 0.23596628E+02 -.11627659E+02 0.39496482E+01 0.26600809E+02 0.00000000E+00 0.0000E+00 0.9000E+01
       -2  1    1    2    0  501 -.51168721E+01 0.44604850E+02 -.29579437E+02 0.53765399E+02 0.00000000E+00 0.0000E+00 0.9000E+01
#aMCatNLO 1  0  0  1  5 0.77025920D+01 0.00000000D+00  -5  6  0 0.00000000D+00 0.00000000D+00 0.00000000D+00 0.00000000D+00 0.00000000D+00
  <mgrwgt>
 -.1493047170D-05    1    2    0
 0.694588454949324D+02 0.000000000000000D+00 0.000000000000000D+00 0.694588454949324D+02
 0.694588454949324D+02 0.000000000000000D+00 0.000000000000000D+00 -.694588454949324D+02
 0.627180021269736D+02 -.184797554929172D+02 -.329771910468733D+02 -.213337722381285D+01
 0.297742381800785D+02 0.235966275618988D+02 -.116276593037055D+02 0.139463961662516D+02
 0.464254506828126D+02 -.511687206898153D+01 0.446048503505788D+02 -.118130189424388D+02
 0.000000000000000D+00 0.000000000000000D+00 0.000000000000000D+00 -.000000000000000D+00
 0.108917064794769D+03 0.000000000000000D+00 0.000000000000000D+00 0.108917064794769D+03
 0.131266732528291D+03 0.000000000000000D+00 0.000000000000000D+00 -.131266732528291D+03
 0.928435151802413D+02 -.330642688995999D+02 -.708669255349741D+02 -.213337722381285D+01
 0.354571558991896D+02 0.174809238971752D+02 -.275159088189826D+02 0.139463961662516D+02
 0.309250439170779D+02 -.123687897992370D+02 0.257647814592142D+02 -.118130189424388D+02
 0.809580823265516D+02 0.279521348016618D+02 0.726180528947425D+02 -.223496677335215D+02
-.468049904229D-08 0.000000000000D+00 0.000000000000D+00 0.180432035209D-06 0.000000000000D+00  6 -1 22 9900012 -11 -2 21 2 0.74669881D-02 0.15292657D-01 0.44813014D+04 0.44813014D+04 0.44813014D+04 0.12472385D+01  1  2 14  1  6  1       -1 -.149304717010D-05 0.100000000000D+01
  </mgrwgt>
  </event>
  <event>
  7     66 0.11307692E-05 0.17198193E+02 0.78161638E-02 0.13040904E+00
       -3 -1    0    0    0  502 0.00000000E+00 0.00000000E+00 0.37704094E+03 0.37704094E+03 0.00000000E+00 0.0000E+00 0.9000E+01
       22 -1    0    0    0    0 0.00000000E+00 0.00000000E+00 -.22198190E+02 0.22198190E+02 0.00000000E+00 0.0000E+00 0.9000E+01
       24  2    1    2    0    0 -.84709251E+01 0.14452191E+02 0.96552301E+02 0.12559644E+03 0.78558879E+02 0.0000E+00 0.0000E+00
  9900012  1    3    3    0    0 -.14961266E+02 -.99495483E+01 0.77507281E+02 0.93969205E+02 0.50000000E+02 0.0000E+00 0.9000E+01
      -11  1    3    3    0    0 0.64903410E+01 0.24401740E+02 0.19045020E+02 0.31627239E+02 0.00000000E+00 0.0000E+00 0.9000E+01
       -4  1    1    2    0  501 -.33218544E-01 0.11608644E+01 -.73332610E+01 0.74246499E+01 0.00000000E+00 0.0000E+00 0.9000E+01
       21  1    1    2  501  502 0.85041437E+01 -.15613056E+02 0.26562371E+03 0.26621804E+03 0.00000000E+00 0.0000E+00 0.9000E+01
#aMCatNLO 2  0  0  1  5 0.32699966D+02 0.00000000D+00  -5  6  0 0.00000000D+00 0.00000000D+00 0.00000000D+00 0.00000000D+00 0.00000000D+00
  <mgrwgt>
 0.3214270268D-04    1    2    0
 0.485244431783672D+02 0.000000000000000D+00 0.000000000000000D+00 0.485244431783672D+02
 0.485244431783672D+02 0.000000000000000D+00 0.000000000000000D+00 -.485244431783672D+02
 0.578355055493727D+02 -.998862897026269D+01 -.190789873542362D+02 0.195234534594380D+02
 0.224847559200760D+02 0.857185017796275D+01 0.205802239247406D+02 -.292267283825691D+01
 0.167286248872856D+02 0.141677879229994D+01 -.150123657050446D+01 -.166007806211811D+02
 0.000000000000000D+00 0.000000000000000D+00 -.000000000000000D+00 0.000000000000000D+00
 0.167388071702417D+03 0.000000000000000D+00 0.000000000000000D+00 0.167388071702417D+03
 0.500013328801441D+02 0.000000000000000D+00 0.000000000000000D+00 -.500013328801441D+02
 0.566038711584311D+02 -.149612661219879D+02 -.994954828946952D+01 0.195234534594380D+02
 0.254187223084430D+02 0.649034097729483D+01 0.244017397181574D+02 -.292267283825691D+01
 0.166413529174645D+02 -.332185439126809D-01 0.116086442764182D+01 -.166007806211811D+02
 0.118725458198222D+03 0.850414368860579D+01 -.156130558563297D+02 0.117386738822273D+03
0.548278053249D-06 0.000000000000D+00 0.000000000000D+00 0.161205221430D-05 0.195628729945D-06  6 -3 22 9900012 -11 -4 21 2 0.58006299D-01 0.34151062D-02 0.23678287D+04 0.23678287D+04 0.23678287D+04 0.12801438D+01  1  2  1  1  6  1       -3 0.321427026816D-04 0.100000000000D+01
  </mgrwgt>
  </event>
  <event>
  6     66 -.11307692E-05 0.12604949E+02 0.78161638E-02 0.13036643E+00
       -3 -1    0    0    0  501 0.00000000E+00 0.00000000E+00 0.89013144E+02 0.89013144E+02 0.00000000E+00 0.0000E+00 0.9000E+01
       22 -1    0    0    0    0 0.00000000E+00 0.00000000E+00 -.35350113E+02 0.35350113E+02 0.00000000E+00 0.0000E+00 0.9000E+01
       24  2    1    2    0    0 0.92225156E+01 -.85924357E+01 0.11963668E+02 0.80800410E+02 0.78909392E+02 0.0000E+00 0.0000E+00
  9900012  1    3    3    0    0 0.19718366E+02 0.52378130E+01 -.77227569E+01 0.54551715E+02 0.50000000E+02 0.0000E+00 0.9000E+01
      -11  1    3    3    0    0 -.10495850E+02 -.13830249E+02 0.19686425E+02 0.26248695E+02 0.00000000E+00 0.0000E+00 0.9000E+01
       -4  1    1    2    0  501 -.92225156E+01 0.85924357E+01 0.41699363E+02 0.43562847E+02 0.00000000E+00 0.0000E+00 0.9000E+01
#aMCatNLO 1  0  0  1  1 0.12861777D+02 0.00000000D+00  -5  6  0 0.00000000D+00 0.00000000D+00 0.00000000D+00 0.00000000D+00 0.00000000D+00
  <mgrwgt>
 -.2148858493D-03    5    4    0
 0.560947831572242D+02 0.000000000000000D+00 0.000000000000000D+00 0.560947831572242D+02
 0.560947831572242D+02 0.000000000000000D+00 0.000000000000000D+00 -.560947831572242D+02
 0.641651069598817D+02 0.197183660717566D+02 0.523781304999349D+01 -.346541816392564D+02
 0.196804394051664D+02 -.104958504692173D+02 -.138302487424698D+02 0.926720226549904D+01
 0.283440199494003D+02 -.922251560253925D+01 0.859243569247630D+01 0.253869793737574D+02
 0.000000000000000D+00 0.000000000000000D+00 0.000000000000000D+00 0.000000000000000D+00
 0.321974937323814D+03 0.000000000000000D+00 0.000000000000000D+00 0.321974937323814D+03
 0.566162383850127D+02 0.000000000000000D+00 0.000000000000000D+00 -.566162383850127D+02
 0.627967842336294D+02 0.155578922206152D+02 -.689778696495524D+00 -.346541816392564D+02
 0.217946821373130D+02 -.118549682094169D+02 -.157666375740218D+02 0.926720226549904D+01
 0.283305237571134D+02 -.110797103473539D+02 0.594641684105002D+01 0.253869793737574D+02
 0.265669185580771D+03 0.737678633615557D+01 0.105099994294673D+02 0.265358698938801D+03
 0.560947831572242D+02 0.000000000000000D+00 0.000000000000000D+00 0.560947831572242D+02
 0.560947831572242D+02 0.000000000000000D+00 0.000000000000000D+00 -.560947831572242D+02
 0.641651069598817D+02 0.197183660717566D+02 0.523781304999349D+01 -.346541816392564D+02
 0.196804394051664D+02 -.104958504692173D+02 -.138302487424698D+02 0.926720226549904D+01
 0.000000000000000D+00 0.000000000000000D+00 0.000000000000000D+00 0.000000000000000D+00
 0.283440199494003D+02 -.922251560253925D+01 0.859243569247630D+01 0.253869793737574D+02
 0.321974937323814D+03 0.000000000000000D+00 0.000000000000000D+00 0.321974937323814D+03
 0.566162383850127D+02 0.000000000000000D+00 0.000000000000000D+00 -.566162383850127D+02
 0.627967842336294D+02 0.155578922206152D+02 -.689778696495524D+00 -.346541816392564D+02
 0.217946821373130D+02 -.118549682094169D+02 -.157666375740218D+02 0.926720226549904D+01
 0.265669185580771D+03 0.737678633615557D+01 0.105099994294673D+02 0.265358698938801D+03
 0.283305237571134D+02 -.110797103473539D+02 0.594641684105002D+01 0.253869793737574D+02
0.579431713721D-07 0.000000000000D+00 0.000000000000D+00 0.240694413879D-06 0.000000000000D+00  6 -3 22 9900012 -11 -4 21 0 0.13694330D-01 0.54384789D-02 0.17627083D+04 0.17627083D+04 0.17627083D+04 0.12963082D+01  1  2  2  1  6  1       -3 0.145471801164D-04 0.100000000000D+01
0.515682694633D-08 0.000000000000D+00 -.111258517428D-09 0.240694413879D-06 0.000000000000D+00  6 -3 22 9900012 -11 -4 21 2 0.13694330D-01 0.54384789D-02 0.17627083D+04 0.17627083D+04 0.17627083D+04 0.12963082D+01  1  2  3  1  6  1       -3 0.217558292201D-05 0.100000000000D+01
-.882215713374D-09 0.000000000000D+00 0.000000000000D+00 0.240694413879D-06 0.000000000000D+00  6 -3 22 9900012 -11 -4 21 2 0.13694330D-01 0.54384789D-02 0.17627083D+04 0.17627083D+04 0.17627083D+04 0.12963082D+01  1  2 15  1  6  1       -3 -.372192718415D-06 0.100000000000D+01
-.307107393794D-05 0.000000000000D+00 -.208111389755D-07 0.240694413879D-06 0.000000000000D+00  6 -3 22 9900012 -11 -4 21 2 0.78737280D-01 0.54384789D-02 0.17627083D+04 0.17627083D+04 0.17627083D+04 0.12963082D+01  1  2  5  1  6  1       -3 -.498233806338D-04 0.100000000000D+01
-.659230945558D-06 0.000000000000D+00 -.445944843140D-08 0.240694413879D-06 0.000000000000D+00  6 21 22 9900012 -11 3 -4 2 0.78737280D-01 0.54384789D-02 0.17627083D+04 0.17627083D+04 0.17627083D+04 0.12963082D+01  3  4  5  3  5  1       -3 -.181413039026D-03 0.100000000000D+01
  </mgrwgt>
  </event>
  <event>
  6     66 0.11307692E-05 0.17854721E+02 0.78161638E-02 0.12641499E+00
       -3 -1    0    0    0  501 0.00000000E+00 0.00000000E+00 0.42785018E+02 0.42785018E+02 0.00000000E+00 0.0000E+00 0.9000E+01
       22 -1    0    0    0    0 0.00000000E+00 0.00000000E+00 -.65620150E+02 0.65620150E+02 0.00000000E+00 0.0000E+00 0.9000E+01
       24  2    1    2    0    0 0.17849785E+02 0.41978129E+00 -.32153246E+02 0.88265200E+02 0.80237917E+02 0.0000E+00 0.0000E+00
  9900012  1    3    3    0    0 -.39047596E+00 0.11188920E+02 -.40688047E+02 0.65428293E+02 0.50000000E+02 0.0000E+00 0.9000E+01
      -11  1    3    3    0    0 0.18240261E+02 -.10769139E+02 0.85348009E+01 0.22836907E+02 0.00000000E+00 0.0000E+00 0.9000E+01
       -4  1    1    2    0  501 -.17849785E+02 -.41978129E+00 0.93181140E+01 0.20139968E+02 0.00000000E+00 0.0000E+00 0.9000E+01
#aMCatNLO 1  0  0  1  1 0.59475964D+02 0.00000000D+00  -5  6  0 0.00000000D+00 0.00000000D+00 0.00000000D+00 0.00000000D+00 0.00000000D+00
  <mgrwgt>
 0.4284630630D-04    4    2    0
 0.529864067018554D+02 0.000000000000000D+00 0.000000000000000D+00 0.529864067018554D+02
 0.529864067018554D+02 0.000000000000000D+00 0.000000000000000D+00 -.529864067018554D+02
 0.581625418893865D+02 -.390475955694571D+00 0.111889199616637D+02 -.275233878302463D+02
 0.252001615791618D+02 0.182402614276311D+02 -.107691386720492D+02 0.136516174473836D+02
 0.226101099351625D+02 -.178497854719365D+02 -.419781289614511D+00 0.138717703828627D+02
 0.000000000000000D+00 -.000000000000000D+00 0.000000000000000D+00 -.000000000000000D+00
 0.587854851649332D+02 0.000000000000000D+00 0.000000000000000D+00 0.587854851649332D+02
 0.874841088852847D+02 0.000000000000000D+00 0.000000000000000D+00 -.874841088852847D+02
 0.573770622381171D+02 0.587608686778274D+01 -.248991053831631D+00 -.275233878302463D+02
 0.300144982766894D+02 0.212349586777773D+02 -.162351463752185D+02 0.136516174473836D+02
 0.213166796610455D+02 -.154673124773560D+02 -.476833964232753D+01 0.138717703828627D+02
 0.375613538743659D+02 -.116437330682041D+02 0.212524770713776D+02 -.286986237203515D+02
0.118193559030D-06 0.000000000000D+00 0.000000000000D+00 0.316682415588D-06 0.000000000000D+00  6 -3 22 9900012 -11 -4 21 0 0.65823105D-02 0.10095408D-01 0.20373911D+04 0.20373911D+04 0.20373911D+04 0.12882948D+01  1  2  2  1  6  1       -3 0.406830962428D-04 0.100000000000D+01
0.351421749805D-08 0.000000000000D+00 -.226947193876D-09 0.316682415588D-06 0.000000000000D+00  6 -3 22 9900012 -11 -4 21 2 0.65823105D-02 0.10095408D-01 0.20373911D+04 0.20373911D+04 0.20373911D+04 0.12882948D+01  1  2  3  1  6  1       -3 0.200760980472D-05 0.100000000000D+01
0.100307072165D-08 0.000000000000D+00 0.000000000000D+00 0.316682415588D-06 0.000000000000D+00  6 -3 22 9900012 -11 -4 21 2 0.65823105D-02 0.10095408D-01 0.20373911D+04 0.20373911D+04 0.20373911D+04 0.12882948D+01  1  2 15  1  6  1       -3 0.573036420407D-06 0.100000000000D+01
-.730700501993D-09 0.000000000000D+00 0.000000000000D+00 0.316682415588D-06 0.000000000000D+00  6 -3 22 9900012 -11 -4 21 2 0.65823105D-02 0.10095408D-01 0.20373911D+04 0.20373911D+04 0.20373911D+04 0.12882948D+01  1  2  4  1  6  1       -3 -.417436169766D-06 0.100000000000D+01
  </mgrwgt>
  </event>
  <event>
  6     66 0.11307692E-05 0.19819966E+02 0.78161638E-02 0.12899546E+00
       -1 -1    0    0    0  501 0.00000000E+00 0.00000000E+00 0.50796570E+02 0.50796570E+02 0.00000000E+00 0.0000E+00 0.9000E+01
       22 -1    0    0    0    0 0.00000000E+00 0.00000000E+00 -.55090656E+02 0.55090656E+02 0.00000000E+00 0.0000E+00 0.9000E+01
       24  2    1    2    0    0 0.19529683E+02 0.33797193E+01 -.13424430E+02 0.84065351E+02 0.80584967E+02 0.0000E+00 0.0000E+00
  9900012  1    3    3    0    0 0.16949414E+02 0.24176566E+02 -.21049944E+02 0.61764789E+02 0.50000000E+02 0.0000E+00 0.9000E+01
      -11  1    3    3    0    0 0.25802689E+01 -.20796847E+02 0.76255144E+01 0.22300563E+02 0.00000000E+00 0.0000E+00 0.9000E+01
       -2  1    1    2    0  501 -.19529683E+02 -.33797193E+01 0.91303441E+01 0.21821875E+02 0.00000000E+00 0.0000E+00 0.9000E+01
#aMCatNLO 1  0  0  1  5 0.65309629D+01 0.00000000D+00  -5  6  0 0.00000000D+00 0.00000000D+00 0.00000000D+00 0.00000000D+00 0.00000000D+00
  <mgrwgt>
 0.7211353172D-04   11    4    0
 0.529000601928991D+02 0.000000000000000D+00 0.000000000000000D+00 0.529000601928991D+02
 0.529000601928991D+02 0.000000000000000D+00 0.000000000000000D+00 -.529000601928991D+02
 0.609612907175607D+02 0.169494144495351D+02 0.241765660420729D+02 -.185604410018226D+02
 0.226284177130736D+02 0.258026885494403D+01 -.207968466976497D+02 0.853690038995443D+01
 0.222104119551639D+02 -.195296833044791D+02 -.337971934442315D+01 0.100235406118681D+02
 0.000000000000000D+00 0.000000000000000D+00 -.000000000000000D+00 0.000000000000000D+00
 0.558247755901768D+02 0.000000000000000D+00 0.000000000000000D+00 0.558247755901768D+02
 0.550817675044375D+02 0.000000000000000D+00 0.000000000000000D+00 -.550817675044375D+02
 0.616742546993378D+02 0.156529073624890D+02 0.267247116661338D+02 -.185604410018226D+02
 0.217337292346613D+02 0.211127075395470D+01 -.198750812320620D+02 0.853690038995443D+01
 0.225072040174876D+02 -.200024394358866D+02 -.245056787311206D+01 0.100235406118681D+02
 0.499135514312760D+01 0.223826131944292D+01 -.439906256095979D+01 0.743008085739260D+00
 0.529000601928991D+02 0.000000000000000D+00 0.000000000000000D+00 0.529000601928991D+02
 0.529000601928991D+02 0.000000000000000D+00 0.000000000000000D+00 -.529000601928991D+02
 0.609612907175607D+02 0.169494144495351D+02 0.241765660420729D+02 -.185604410018226D+02
 0.226284177130736D+02 0.258026885494403D+01 -.207968466976497D+02 0.853690038995443D+01
 0.000000000000000D+00 0.000000000000000D+00 -.000000000000000D+00 0.000000000000000D+00
 0.222104119551639D+02 -.195296833044791D+02 -.337971934442315D+01 0.100235406118681D+02
 0.558247755901768D+02 0.000000000000000D+00 0.000000000000000D+00 0.558247755901768D+02
 0.550817675044375D+02 0.000000000000000D+00 0.000000000000000D+00 -.550817675044375D+02
 0.616742546993378D+02 0.156529073624890D+02 0.267247116661338D+02 -.185604410018226D+02
 0.217337292346613D+02 0.211127075395470D+01 -.198750812320620D+02 0.853690038995443D+01
 0.499135514312760D+01 0.223826131944292D+01 -.439906256095979D+01 0.743008085739260D+00
 0.225072040174876D+02 -.200024394358866D+02 -.245056787311206D+01 0.100235406118681D+02
0.718239175743D-07 0.000000000000D+00 0.000000000000D+00 0.196573433026D-06 0.000000000000D+00  6 -1 22 9900012 -11 -2 21 0 0.78148570D-02 0.84754855D-02 0.24425032D+04 0.24425032D+04 0.24425032D+04 0.12784799D+01  1  2  2  1  6  1       -1 0.295514360610D-04 0.100000000000D+01
0.176327995981D-08 0.000000000000D+00 -.137911377579D-09 0.196573433026D-06 0.000000000000D+00  6 -1 22 9900012 -11 -2 21 2 0.78148570D-02 0.84754855D-02 0.24425032D+04 0.24425032D+04 0.24425032D+04 0.12784799D+01  1  2  3  1  6  1       -1 0.118581954575D-05 0.100000000000D+01
0.162112497477D-08 0.000000000000D+00 0.000000000000D+00 0.196573433026D-06 0.000000000000D+00  6 -1 22 9900012 -11 -2 21 2 0.78148570D-02 0.84754855D-02 0.24425032D+04 0.24425032D+04 0.24425032D+04 0.12784799D+01  1  2 15  1  6  1       -1 0.109021920796D-05 0.100000000000D+01
0.845596817640D-07 0.000000000000D+00 0.000000000000D+00 0.196573433026D-06 0.000000000000D+00  6 -1 22 9900012 -11 -2 21 2 0.85870414D-02 0.84754855D-02 0.26982730D+04 0.26982730D+04 0.26982730D+04 0.12731869D+01  1  2 12  1  6  1       -1 0.498398152859D-04 0.100000000000D+01
-.132734895291D-07 0.000000000000D+00 0.000000000000D+00 0.196573433026D-06 0.000000000000D+00  6 -1 22 9900012 -11 -2 21 2 0.78148570D-02 0.84754855D-02 0.24425032D+04 0.24425032D+04 0.24425032D+04 0.12784799D+01  1  2  4  1  6  1       -1 -.892652538608D-05 0.100000000000D+01
-.413219711825D-06 0.000000000000D+00 -.814704644786D-07 0.196573433026D-06 0.000000000000D+00  6 -1 22 9900012 -11 -2 21 2 0.85804841D-02 0.84754855D-02 0.24425032D+04 0.24425032D+04 0.24425032D+04 0.12784799D+01  1  2  5  1  6  1       -1 -.242826070809D-03 0.100000000000D+01
0.419355824449D-06 0.000000000000D+00 0.811159141850D-07 0.196573433026D-06 0.000000000000D+00  6 -1 22 9900012 -11 -2 21 2 0.78148570D-02 0.84754855D-02 0.24425032D+04 0.24425032D+04 0.24425032D+04 0.12784799D+01  1  2  6  1  6  1       -1 0.282020067483D-03 0.100000000000D+01
0.124393103890D-08 0.000000000000D+00 0.000000000000D+00 0.196573433026D-06 0.171634205553D-07  6 -1 22 9900012 -11 -2 21 2 0.82469214D-02 0.88250320D-02 0.26982730D+04 0.26982730D+04 0.26982730D+04 0.12731869D+01  1  2 11  1  6  1       -1 0.734891366747D-06 0.100000000000D+01
0.132078544551D-08 0.000000000000D+00 0.000000000000D+00 0.196573433026D-06 0.000000000000D+00  6 21 22 9900012 -11 1 -2 2 0.85870414D-02 0.84754855D-02 0.26982730D+04 0.26982730D+04 0.26982730D+04 0.12731869D+01  3  4 12  3  5  1       -1 0.115643931466D-04 0.100000000000D+01
-.609248443205D-08 0.000000000000D+00 -.124787386188D-08 0.196573433026D-06 0.000000000000D+00  6 21 22 9900012 -11 1 -2 2 0.85804841D-02 0.84754855D-02 0.24425032D+04 0.24425032D+04 0.24425032D+04 0.12784799D+01  3  4  5  3  5  1       -1 -.532295632769D-04 0.100000000000D+01
0.125555542026D-09 0.000000000000D+00 0.000000000000D+00 0.196573433026D-06 0.642526584360D-09  6 21 22 9900012 -11 1 -2 2 0.82469214D-02 0.88250320D-02 0.26982730D+04 0.26982730D+04 0.26982730D+04 0.12731869D+01  3  4 11  3  5  1       -1 0.110904909019D-05 0.100000000000D+01
  </mgrwgt>
  </event>
  <event>
  7     66 0.11307692E-05 0.10410227E+02 0.78161638E-02 0.13386808E+00
       -3 -1    0    0    0  502 0.00000000E+00 0.00000000E+00 0.31824949E+02 0.31824949E+02 0.00000000E+00 0.0000E+00 0.9000E+01
       22 -1    0    0    0    0 0.00000000E+00 0.00000000E+00 -.99672032E+02 0.99672032E+02 0.00000000E+00 0.0000E+00 0.9000E+01
       24  2    1    2    0    0 0.88767069E+01 0.60194623E+01 -.23165920E+02 0.81660790E+02 0.77568002E+02 0.0000E+00 0.0000E+00
  9900012  1    3    3    0    0 0.20047473E+02 -.82566747E+01 -.30093404E+02 0.62255014E+02 0.50000000E+02 0.0000E+00 0.9000E+01
      -11  1    3    3    0    0 -.11170766E+02 0.14276137E+02 0.69274847E+01 0.19405776E+02 0.00000000E+00 0.0000E+00 0.9000E+01
       -4  1    1    2    0  501 -.35710246E-01 -.26967802E+00 -.36468204E+02 0.36469219E+02 0.00000000E+00 0.0000E+00 0.9000E+01
       21  1    1    2  501  502 -.88409967E+01 -.57497843E+01 -.82129590E+01 0.13366972E+02 0.00000000E+00 0.0000E+00 0.9000E+01
#aMCatNLO 2  0  0  1  5 0.11338985D+02 0.00000000D+00  -5  6  0 0.00000000D+00 0.00000000D+00 0.00000000D+00 0.00000000D+00 0.00000000D+00
  <mgrwgt>
 0.3457261741D-03    1    2    0
 0.507130335663152D+02 0.000000000000000D+00 0.000000000000000D+00 0.507130335663152D+02
 0.507130335663152D+02 0.000000000000000D+00 0.000000000000000D+00 -.507130335663152D+02
 0.535348183555749D+02 0.153507186396671D+02 -.113112309660184D+02 0.154540209769747D+01
 0.268392045021384D+02 -.134906025915432D+02 0.127674199867264D+02 0.193736812946634D+02
 0.210520442749171D+02 -.186011604812392D+01 -.145618902070799D+01 -.209190833923609D+02
 0.000000000000000D+00 -.000000000000000D+00 -.000000000000000D+00 -.000000000000000D+00
 0.554788088698260D+02 0.000000000000000D+00 0.000000000000000D+00 0.554788088698260D+02
 0.571760174409716D+02 0.000000000000000D+00 0.000000000000000D+00 -.571760174409716D+02
 0.545202907404102D+02 0.200474726212063D+02 -.825667465007973D+01 0.154540209769747D+01
 0.265317473889962D+02 -.111707656778572D+02 0.142761369696681D+02 0.193736812946634D+02
 0.209208520723369D+02 -.357102455201512D-01 -.269678019901372D+00 -.209190833923609D+02
 0.106819361090543D+02 -.884099669782893D+01 -.574978429968698D+01 -.169720857114559D+01
0.707935587102D-06 0.000000000000D+00 0.000000000000D+00 0.220772901957D-05 0.116868155510D-04  6 -3 22 9900012 -11 -4 21 2 0.48961460D-02 0.15334159D-01 0.17407179D+04 0.17407179D+04 0.17407179D+04 0.12970104D+01  1  2  1  1  6  1       -3 0.345726174050D-03 0.100000000000D+01
  </mgrwgt>
  </event>
  <event>
  6     66 0.11307692E-05 0.37421523E+02 0.78161638E-02 0.12244851E+00
       -1 -1    0    0    0  501 0.00000000E+00 0.00000000E+00 0.83616417E+01 0.83616417E+01 0.00000000E+00 0.0000E+00 0.9000E+01
       22 -1    0    0    0    0 0.00000000E+00 0.00000000E+00 -.48452934E+03 0.48452934E+03 0.00000000E+00 0.0000E+00 0.9000E+01
       24  2    1    2    0    0 -.13854881E+02 -.36913166E+02 -.30725535E+03 0.31943805E+03 0.77976121E+02 0.0000E+00 0.0000E+00
  9900012  1    3    3    0    0 0.11369678E+02 -.15590296E+02 -.16912485E+03 0.17741348E+03 0.50000000E+02 0.0000E+00 0.9000E+01
      -11  1    3    3    0    0 -.25224558E+02 -.21322871E+02 -.13813050E+03 0.14202457E+03 0.00000000E+00 0.0000E+00 0.9000E+01
       -2  1    1    2    0  501 0.13854881E+02 0.36913166E+02 -.16891235E+03 0.17345293E+03 0.00000000E+00 0.0000E+00 0.9000E+01
#aMCatNLO 1  0  0  1  5 0.24088804D+02 0.00000000D+00  -5  6  0 0.00000000D+00 0.00000000D+00 0.00000000D+00 0.00000000D+00 0.00000000D+00
  <mgrwgt>
 0.1327070412D-04    6    4    0
 0.636510859602557D+02 0.000000000000000D+00 0.000000000000000D+00 0.636510859602557D+02
 0.636510859602557D+02 0.000000000000000D+00 0.000000000000000D+00 -.636510859602557D+02
 0.543094603239851D+02 0.113696778709955D+02 -.155902955466006D+02 0.878581758073510D+01
 0.332228973259614D+02 -.252245583984359D+02 -.213228706266151D+02 -.358018834363663D+01
 0.397698142705648D+02 0.138548805274404D+02 0.369131661732157D+02 -.520562923709847D+01
 0.000000000000000D+00 0.000000000000000D+00 -.000000000000000D+00 -.000000000000000D+00
 0.716586037794353D+02 0.000000000000000D+00 0.000000000000000D+00 0.716586037794353D+02
 0.731067497384371D+02 0.000000000000000D+00 0.000000000000000D+00 -.731067497384371D+02
 0.522774933065887D+02 0.746200010080112D+01 -.100032130015369D+02 0.878581758073510D+01
 0.331084602862966D+02 -.276563904639869D+02 -.178459087876427D+02 -.358018834363663D+01
 0.429622751962899D+02 0.108217668500211D+02 0.412498227454542D+02 -.520562923709847D+01
 0.164171247286972D+02 0.937262351316473D+01 -.134007009562747D+02 -.144814595900181D+01
 0.636510859602557D+02 0.000000000000000D+00 0.000000000000000D+00 0.636510859602557D+02
 0.636510859602557D+02 0.000000000000000D+00 0.000000000000000D+00 -.636510859602557D+02
 0.543094603239851D+02 0.113696778709955D+02 -.155902955466006D+02 0.878581758073510D+01
 0.332228973259614D+02 -.252245583984359D+02 -.213228706266151D+02 -.358018834363663D+01
 0.000000000000000D+00 0.000000000000000D+00 -.000000000000000D+00 -.000000000000000D+00
 0.397698142705648D+02 0.138548805274404D+02 0.369131661732157D+02 -.520562923709847D+01
 0.716586037794353D+02 0.000000000000000D+00 0.000000000000000D+00 0.716586037794353D+02
 0.731067497384371D+02 0.000000000000000D+00 0.000000000000000D+00 -.731067497384371D+02
 0.522774933065887D+02 0.746200010080112D+01 -.100032130015369D+02 0.878581758073510D+01
 0.331084602862966D+02 -.276563904639869D+02 -.178459087876427D+02 -.358018834363663D+01
 0.164171247286972D+02 0.937262351316473D+01 -.134007009562747D+02 -.144814595900181D+01
 0.429622751962899D+02 0.108217668500211D+02 0.412498227454542D+02 -.520562923709847D+01
0.465633340549D-07 0.000000000000D+00 0.000000000000D+00 0.340535287483D-07 0.000000000000D+00  6 -1 22 9900012 -11 -2 21 0 0.12864064D-02 0.74542976D-01 0.39722245D+04 0.39722245D+04 0.39722245D+04 0.12532570D+01  1  2  2  1  6  1       -1 0.924237651874D-05 0.100000000000D+01
-.152378228674D-08 0.000000000000D+00 -.894077315892D-10 0.340535287483D-07 0.000000000000D+00  6 -1 22 9900012 -11 -2 21 2 0.12864064D-02 0.74542976D-01 0.39722245D+04 0.39722245D+04 0.39722245D+04 0.12532570D+01  1  2  3  1  6  1       -1 -.475053753452D-06 0.100000000000D+01
0.600619107511D-09 0.000000000000D+00 0.000000000000D+00 0.340535287483D-07 0.000000000000D+00  6 -1 22 9900012 -11 -2 21 2 0.12864064D-02 0.74542976D-01 0.39722245D+04 0.39722245D+04 0.39722245D+04 0.12532570D+01  1  2 15  1  6  1       -1 0.187248771626D-06 0.100000000000D+01
0.175658044314D-07 0.000000000000D+00 0.000000000000D+00 0.340535287483D-07 0.000000000000D+00  6 -1 22 9900012 -11 -2 21 2 0.16633835D-02 0.74542976D-01 0.51442683D+04 0.51442683D+04 0.51442683D+04 0.12404569D+01  1  2 12  1  6  1       -1 0.387915505819D-05 0.100000000000D+01
-.645111983780D-08 0.000000000000D+00 0.000000000000D+00 0.340535287483D-07 0.000000000000D+00  6 -1 22 9900012 -11 -2 21 2 0.12864064D-02 0.74542976D-01 0.39722245D+04 0.39722245D+04 0.39722245D+04 0.12532570D+01  1  2  4  1  6  1       -1 -.201119852855D-05 0.100000000000D+01
0.606695395532D-09 0.000000000000D+00 0.000000000000D+00 0.340535287483D-07 0.000000000000D+00  6 21 22 9900012 -11 1 -2 2 0.16633835D-02 0.74542976D-01 0.51442683D+04 0.51442683D+04 0.51442683D+04 0.12404569D+01  3  4 12  3  5  1       -1 0.244817605498D-05 0.100000000000D+01
  </mgrwgt>
  </event>
  <event>
  6     66 0.11307692E-05 0.15623671E+02 0.78161638E-02 0.12800907E+00
       -3 -1    0    0    0  501 0.00000000E+00 0.00000000E+00 0.21428621E+03 0.21428621E+03 0.00000000E+00 0.0000E+00 0.9000E+01
       22 -1    0    0    0    0 0.00000000E+00 0.00000000E+00 -.14366938E+02 0.14366938E+02 0.00000000E+00 0.0000E+00 0.9000E+01
       24  2    1    2    0    0 0.36112896E+01 0.15200581E+02 0.18205949E+03 0.20492403E+03 0.92758303E+02 0.0000E+00 0.0000E+00
  9900012  1    3    3    0    0 0.12046107E+02 0.84158981E+01 0.49347323E+02 0.71771125E+02 0.50000000E+02 0.0000E+00 0.9000E+01
      -11  1    3    3    0    0 -.84348178E+01 0.67846833E+01 0.13271216E+03 0.13315291E+03 0.00000000E+00 0.0000E+00 0.9000E+01
       -4  1    1    2    0  501 -.36112896E+01 -.15200581E+02 0.17859785E+02 0.23729117E+02 0.00000000E+00 0.0000E+00 0.9000E+01
#aMCatNLO 1  0  0  1  5 0.28273512D+02 0.00000000D+00  -5  6  0 0.00000000D+00 0.00000000D+00 0.00000000D+00 0.00000000D+00 0.00000000D+00
  <mgrwgt>
 0.1379525457D-03    3    2    0
 0.554854643300248D+02 0.000000000000000D+00 0.000000000000000D+00 0.554854643300248D+02
 0.554854643300248D+02 0.000000000000000D+00 0.000000000000000D+00 -.554854643300248D+02
 0.589813278748287D+02 0.120461073387071D+02 0.841589806383548D+01 -.276199383714288D+02
 0.352715091667406D+02 -.843481775964312D+01 0.678468325107165D+01 0.335693503279956D+02
 0.167180916184803D+02 -.361128957906394D+01 -.152005813149071D+02 -.594941195656687D+01
 0.000000000000000D+00 0.000000000000000D+00 0.000000000000000D+00 -.000000000000000D+00
 0.594328313687960D+02 0.000000000000000D+00 0.000000000000000D+00 0.594328313687960D+02
 0.120141156941920D+03 0.000000000000000D+00 0.000000000000000D+00 -.120141156941920D+03
 0.571954241932626D+02 0.279354680053392D+01 -.807247966215318D+00 -.276199383714288D+02
 0.364446694436312D+02 -.141464448480815D+02 0.109121380674609D+01 0.335693503279956D+02
 0.201733374622452D+02 -.654940047330786D+01 -.181293517583205D+02 -.594941195656687D+01
 0.657605572115772D+02 0.179022985208555D+02 0.178453859177898D+02 -.607083255731241D+02
0.743355690930D-06 0.000000000000D+00 0.000000000000D+00 0.423624781390D-08 0.000000000000D+00  6 -3 22 9900012 -11 -4 21 0 0.32967109D-01 0.22102982D-02 0.15430440D+04 0.15430440D+04 0.15430440D+04 0.13038097D+01  1  2  2  1  6  1       -3 0.134984004285D-03 0.100000000000D+01
-.671194777947D-08 0.000000000000D+00 -.142734079161D-08 0.423624781390D-08 0.000000000000D+00  6 -3 22 9900012 -11 -4 21 2 0.32967109D-01 0.22102982D-02 0.15430440D+04 0.15430440D+04 0.15430440D+04 0.13038097D+01  1  2  3  1  6  1       -3 -.207187054967D-05 0.100000000000D+01
0.163287142009D-07 0.000000000000D+00 0.000000000000D+00 0.423624781390D-08 0.000000000000D+00  6 -3 22 9900012 -11 -4 21 2 0.32967109D-01 0.22102982D-02 0.15430440D+04 0.15430440D+04 0.15430440D+04 0.13038097D+01  1  2 15  1  6  1       -3 0.504041199043D-05 0.100000000000D+01
  </mgrwgt>
  </event>
  <event>
  7     66 0.11307692E-05 0.30512306E+02 0.78161638E-02 0.12546011E+00
       21 -1    0    0  502  501 0.00000000E+00 0.00000000E+00 0.41106576E+02 0.41106576E+02 0.00000000E+00 0.0000E+00 0.9000E+01
       22 -1    0    0    0    0 0.00000000E+00 0.00000000E+00 -.11626676E+03 0.11626676E+03 0.00000000E+00 0.0000E+00 0.9000E+01
       24  2    1    2    0    0 -.25957342E+02 0.31304650E+02 -.46640638E+02 0.10031489E+03 0.78955456E+02 0.0000E+00 0.0000E+00
  9900012  1    3    3    0    0 -.15204517E+02 0.42171493E+02 -.20818452E+02 0.70306615E+02 0.50000000E+02 0.0000E+00 0.9000E+01
      -11  1    3    3    0    0 -.10752825E+02 -.10866843E+02 -.25822185E+02 0.30008279E+02 0.00000000E+00 0.0000E+00 0.9000E+01
        3  1    1    2  502    0 0.22051017E+02 -.25755288E+02 -.71687432E+01 0.34655059E+02 0.00000000E+00 0.0000E+00 0.9000E+01
       -4  1    1    2    0  501 0.39063249E+01 -.55493612E+01 -.21350801E+02 0.22403381E+02 0.00000000E+00 0.0000E+00 0.9000E+01
#aMCatNLO 2  0  0  1  1 0.42047945D+02 0.00000000D+00  -5  6  0 0.00000000D+00 0.00000000D+00 0.00000000D+00 0.00000000D+00 0.00000000D+00
  <mgrwgt>
 0.5228381423D-04    1    2    0
 0.481854670497815D+02 0.000000000000000D+00 0.000000000000000D+00 0.481854670497815D+02
 0.481854670497815D+02 0.000000000000000D+00 0.000000000000000D+00 -.481854670497815D+02
 0.600908974682606D+02 -.688829155336768D+00 0.252173661081329D+02 0.217836158500870D+02
 0.204381600379314D+02 -.638784703342664D+01 -.159650777189201D+02 -.110467230182747D+02
 0.000000000000000D+00 0.000000000000000D+00 -.000000000000000D+00 0.000000000000000D+00
 0.158418765933710D+02 0.707667618876340D+01 -.925228838921282D+01 -.107368928318123D+02
 0.767357142052525D+02 0.000000000000000D+00 0.000000000000000D+00 0.767357142052525D+02
 0.622829715870364D+02 0.000000000000000D+00 0.000000000000000D+00 -.622829715870364D+02
 0.705984281258781D+02 -.152045174528017D+02 0.421714925437560D+02 0.217836158500870D+02
 0.188611136695726D+02 -.107528248528582D+02 -.108668430143172D+02 -.110467230182747D+02
 0.368573468054956D+02 0.220510174033523D+02 -.257552883080200D+02 0.144527426182161D+02
 0.127017971913426D+02 0.390632490230758D+01 -.554936122141880D+01 -.107368928318123D+02
0.104781999348D-07 0.000000000000D+00 0.000000000000D+00 0.475239825654D-07 0.261218646702D-09  6 21 22 9900012 -11 3 -4 2 0.63240886D-02 0.17887194D-01 0.37904419D+04 0.37904419D+04 0.37904419D+04 0.12556187D+01  1  2  1  3  5  1       -3 0.522838142279D-04 0.100000000000D+01
  </mgrwgt>
  </event>
  <event>
  7     66 0.11307692E-05 0.74409809E+01 0.78161638E-02 0.12882411E+00
       21 -1    0    0  502  501 0.00000000E+00 0.00000000E+00 0.21891088E+02 0.21891088E+02 0.00000000E+00 0.0000E+00 0.9000E+01
       22 -1    0    0    0    0 0.00000000E+00 0.00000000E+00 -.16061013E+03 0.16061013E+03 0.00000000E+00 0.0000E+00 0.9000E+01
       24  2    1    2    0    0 0.84649477E+01 -.16224356E+02 -.71481413E+02 0.10891076E+03 0.80106650E+02 0.0000E+00 0.0000E+00
  9900012  1    3    3    0    0 -.13117795E+02 -.12210118E+02 -.27630317E+02 0.59871512E+02 0.50000000E+02 0.0000E+00 0.9000E+01
      -11  1    3    3    0    0 0.21582743E+02 -.40142379E+01 -.43851096E+02 0.49039245E+02 0.00000000E+00 0.0000E+00 0.9000E+01
        1  1    1    2  502    0 -.14565411E+02 0.26888457E+01 -.28808000E+02 0.32392622E+02 0.00000000E+00 0.0000E+00 0.9000E+01
       -2  1    1    2    0  501 0.61004628E+01 0.13535510E+02 -.38429631E+02 0.41197843E+02 0.00000000E+00 0.0000E+00 0.9000E+01
#aMCatNLO 2  0  0  1  5 0.76918952D+00 0.00000000D+00  -5  6  0 0.00000000D+00 0.00000000D+00 0.00000000D+00 0.00000000D+00 0.00000000D+00
  <mgrwgt>
 0.8492664640D-05    1    2    0
 0.505785846530926D+02 0.000000000000000D+00 0.000000000000000D+00 0.505785846530926D+02
 0.505785846530926D+02 0.000000000000000D+00 0.000000000000000D+00 -.505785846530926D+02
 0.603870868846180D+02 -.216102347252780D+02 -.106423725550152D+02 0.237978554481081D+02
 0.219098400620723D+02 0.182335152129392D+02 -.339595416640176D+01 -.116639405787583D+02
 0.000000000000000D+00 -.000000000000000D+00 0.000000000000000D+00 -.000000000000000D+00
 0.188602423594949D+02 0.337671951233883D+01 0.140383267214170D+02 -.121339148693497D+02
 0.556763318616210D+02 0.000000000000000D+00 0.000000000000000D+00 0.556763318616210D+02
 0.631494657948847D+02 0.000000000000000D+00 0.000000000000000D+00 -.631494657948847D+02
 0.582022461774264D+02 -.131177950733578D+02 -.122101182869820D+02 0.237978554481081D+02
 0.248591311684663D+02 0.215827427994535D+02 -.401423789514820D+01 -.116639405787583D+02
 0.165900212546701D+02 -.145654105006892D+02 0.268884573605852D+01 -.747313393326373D+01
 0.191743990559429D+02 0.610046277459358D+01 0.135355104460717D+02 -.121339148693497D+02
0.104484638661D-08 0.000000000000D+00 0.000000000000D+00 0.688533363003D-07 0.115208289843D-09  6 21 22 9900012 -11 1 -2 2 0.33678598D-02 0.24709251D-01 0.27418714D+04 0.27418714D+04 0.27418714D+04 0.12723410D+01  1  2  1  3  5  1       -1 0.849266464002D-05 0.100000000000D+01
  </mgrwgt>
  </event>
  <event>
  6     66 0.11307692E-05 0.17118636E+02 0.78161638E-02 0.11557995E+00
       -1 -1    0    0    0  501 0.00000000E+00 0.00000000E+00 0.45422991E+01 0.45422991E+01 0.00000000E+00 0.0000E+00 0.9000E+01
       22 -1    0    0    0    0 0.00000000E+00 0.00000000E+00 -.61061181E+03 0.61061181E+03 0.00000000E+00 0.0000E+00 0.9000E+01
       24  2    1    2    0    0 -.16732282E+02 -.36164111E+01 -.39379150E+03 0.40218698E+03 0.79934768E+02 0.0000E+00 0.0000E+00
  9900012  1    3    3    0    0 -.35819533E+02 0.18311980E+00 -.32094884E+03 0.32678927E+03 0.50000000E+02 0.0000E+00 0.9000E+01
      -11  1    3    3    0    0 0.19087250E+02 -.37995309E+01 -.72842664E+02 0.75397701E+02 0.00000000E+00 0.0000E+00 0.9000E+01
       -2  1    1    2    0  501 0.16732282E+02 0.36164111E+01 -.21227801E+03 0.21296714E+03 0.00000000E+00 0.0000E+00 0.9000E+01
#aMCatNLO 1  0  0  1  5 0.14827421D+03 0.00000000D+00  -5  6  0 0.00000000D+00 0.00000000D+00 0.00000000D+00 0.00000000D+00 0.00000000D+00
  <mgrwgt>
 0.5534607146D-04    3    2    0
 0.526648031040155D+02 0.000000000000000D+00 0.000000000000000D+00 0.526648031040155D+02
 0.526648031040155D+02 0.000000000000000D+00 0.000000000000000D+00 -.526648031040155D+02
 0.617913535589706D+02 -.358195325123871D+02 0.183119797735462D+00 0.592443519531053D+01
 0.212047462857168D+02 0.190872500804498D+02 -.379953090118522D+01 0.841912788469968D+01
 0.223335063633435D+02 0.167322824319373D+02 0.361641110344975D+01 -.143435630800102D+02
 0.000000000000000D+00 0.000000000000000D+00 0.000000000000000D+00 -.000000000000000D+00
 0.885699849901823D+02 0.000000000000000D+00 0.000000000000000D+00 0.885699849901823D+02
 0.145954752563531D+03 0.000000000000000D+00 0.000000000000000D+00 -.145954752563531D+03
 0.867768121335001D+02 -.510960038630462D+02 -.488294437905747D+02 0.592443519531053D+01
 0.253447041096944D+02 0.143008185993855D+02 -.191561713151794D+02 0.841912788469968D+01
 0.217730306055061D+02 0.121970426970930D+02 -.109343133924067D+02 -.143435630800102D+02
 0.100630190705013D+03 0.245981425665678D+02 0.789199284981608D+02 -.573847675733491D+02
0.197883051050D-06 0.000000000000D+00 0.000000000000D+00 0.236317093747D-06 0.000000000000D+00  6 -1 22 9900012 -11 -2 21 0 0.69881525D-03 0.93940279D-01 0.24052682D+04 0.24052682D+04 0.24052682D+04 0.12793023D+01  1  2  2  1  6  1       -1 0.552424668469D-04 0.100000000000D+01
-.479739435737D-08 0.000000000000D+00 -.379961509918D-09 0.236317093747D-06 0.000000000000D+00  6 -1 22 9900012 -11 -2 21 2 0.69881525D-03 0.93940279D-01 0.24052682D+04 0.24052682D+04 0.24052682D+04 0.12793023D+01  1  2  3  1  6  1       -1 -.219187743582D-05 0.100000000000D+01
0.502415529600D-08 0.000000000000D+00 0.000000000000D+00 0.236317093747D-06 0.000000000000D+00  6 -1 22 9900012 -11 -2 21 2 0.69881525D-03 0.93940279D-01 0.24052682D+04 0.24052682D+04 0.24052682D+04 0.12793023D+01  1  2 15  1  6  1       -1 0.229548204859D-05 0.100000000000D+01
  </mgrwgt>
  </event>
  <event>
  6     66 0.11307692E-05 0.17206455E+02 0.78161638E-02 0.12035725E+00
       -3 -1    0    0    0  501 0.00000000E+00 0.00000000E+00 0.97969920E+03 0.97969920E+03 0.00000000E+00 0.0000E+00 0.9000E+01
       22 -1    0    0    0    0 0.00000000E+00 0.00000000E+00 -.24238516E+01 0.24238516E+01 0.00000000E+00 0.0000E+00 0.9000E+01
       24  2    1    2    0    0 0.16914483E+02 -.31563217E+01 0.84689579E+03 0.85061301E+03 0.77549660E+02 0.0000E+00 0.0000E+00
  9900012  1    3    3    0    0 -.33967533E+01 -.17258395E+02 0.48904152E+03 0.49190547E+03 0.50000000E+02 0.0000E+00 0.9000E+01
      -11  1    3    3    0    0 0.20311236E+02 0.14102073E+02 0.35785427E+03 0.35870753E+03 0.00000000E+00 0.0000E+00 0.9000E+01
       -4  1    1    2    0  501 -.16914483E+02 0.31563217E+01 0.13037956E+03 0.13151005E+03 0.00000000E+00 0.0000E+00 0.9000E+01
#aMCatNLO 1  0  0  1  5 0.72369290D-01 0.00000000D+00  -5  6  0 0.00000000D+00 0.00000000D+00 0.00000000D+00 0.00000000D+00 0.00000000D+00
  <mgrwgt>
 0.7835660424D-04    3    2    0
 0.487303346121504D+02 0.000000000000000D+00 0.000000000000000D+00 0.487303346121504D+02
 0.487303346121504D+02 0.000000000000000D+00 0.000000000000000D+00 -.487303346121504D+02
 0.531854185946171D+02 -.339675326116957D+01 -.172583951637849D+02 -.439301886383615D+01
 0.263981296551063D+02 0.203112363889652D+02 0.141020734956225D+02 0.924372483165961D+01
 0.178771209745774D+02 -.169144831277956D+02 0.315632166816248D+01 -.485070596782346D+01
 0.000000000000000D+00 0.000000000000000D+00 -.000000000000000D+00 -.000000000000000D+00
 0.631096654605440D+02 0.000000000000000D+00 0.000000000000000D+00 0.631096654605440D+02
 0.140810046899986D+03 0.000000000000000D+00 0.000000000000000D+00 -.140810046899986D+03
 0.547481680116637D+02 -.217164680443971D+02 0.254131886468707D+01 -.439301886383615D+01
 0.280797939364477D+02 0.110646241567571D+02 0.240956940348194D+02 0.924372483165961D+01
 0.276186479886868D+02 -.246365420110137D+02 0.115022243968840D+02 -.485070596782346D+01
 0.934731024237320D+02 0.352883858986537D+02 -.381392372963905D+02 -.777003814394422D+02
0.114465292403D-05 0.000000000000D+00 0.000000000000D+00 0.340803847774D-07 0.000000000000D+00  6 -3 22 9900012 -11 -4 21 0 0.15072295D+00 0.37290025D-03 0.22532556D+04 0.22532556D+04 0.22532556D+04 0.12828156D+01  1  2  2  1  6  1       -3 0.757740113615D-04 0.100000000000D+01
0.150692816887D-08 0.000000000000D+00 -.219788431115D-08 0.340803847774D-07 0.000000000000D+00  6 -3 22 9900012 -11 -4 21 2 0.15072295D+00 0.37290025D-03 0.22532556D+04 0.22532556D+04 0.22532556D+04 0.12828156D+01  1  2  3  1  6  1       -3 0.164160040976D-06 0.100000000000D+01
0.222003146921D-07 0.000000000000D+00 0.000000000000D+00 0.340803847774D-07 0.000000000000D+00  6 -3 22 9900012 -11 -4 21 2 0.15072295D+00 0.37290025D-03 0.22532556D+04 0.22532556D+04 0.22532556D+04 0.12828156D+01  1  2 15  1  6  1       -3 0.241843283895D-05 0.100000000000D+01
  </mgrwgt>
  </event>
  <event>
  6     66 0.11307692E-05 0.37892694E+02 0.78161638E-02 0.12416773E+00
       -3 -1    0    0    0  501 0.00000000E+00 0.00000000E+00 0.29289664E+02 0.29289664E+02 0.00000000E+00 0.0000E+00 0.9000E+01
       22 -1    0    0    0    0 0.00000000E+00 0.00000000E+00 -.14788968E+03 0.14788968E+03 0.00000000E+00 0.0000E+00 0.9000E+01
       24  2    1    2    0    0 -.41601335E+02 0.65801144E+00 -.70267584E+02 0.11340530E+03 0.78690059E+02 0.0000E+00 0.0000E+00
  9900012  1    3    3    0    0 -.21241141E+02 0.12098412E+02 -.70785611E+02 0.90045324E+02 0.50000000E+02 0.0000E+00 0.9000E+01
      -11  1    3    3    0    0 -.20360194E+02 -.11440401E+02 0.51802733E+00 0.23359979E+02 0.00000000E+00 0.0000E+00 0.9000E+01
       -4  1    1    2    0  501 0.41601335E+02 -.65801144E+00 -.48332430E+02 0.63774038E+02 0.00000000E+00 0.0000E+00 0.9000E+01
#aMCatNLO 1  0  0  1  5 0.15103711D+02 0.00000000D+00  -5  6  0 0.00000000D+00 0.00000000D+00 0.00000000D+00 0.00000000D+00 0.00000000D+00
  <mgrwgt>
 0.5164156260D-04    9    4    0
 0.658151874201193D+02 0.000000000000000D+00 0.000000000000000D+00 0.658151874201193D+02
 0.658151874201193D+02 0.000000000000000D+00 0.000000000000000D+00 -.658151874201193D+02
 0.574259302251021D+02 -.212411411263339D+02 0.120984121844638D+02 -.141484913854542D+02
 0.319101406343927D+02 -.203601942008395D+02 -.114404007457034D+02 0.217448108335881D+02
 0.422943039807439D+02 0.416013353271735D+02 -.658011438760352D+00 -.759631944813389D+01
 0.000000000000000D+00 -.000000000000000D+00 -.000000000000000D+00 0.000000000000000D+00
 0.719034990955213D+02 0.000000000000000D+00 0.000000000000000D+00 0.719034990955213D+02
 0.711985353595040D+02 0.000000000000000D+00 0.000000000000000D+00 -.711985353595040D+02
 0.568064125584115D+02 -.174224144788678D+02 0.149414916590920D+02 -.141484913854542D+02
 0.300870966083878D+02 -.182876594338956D+02 -.989737826718650D+01 0.217448108335881D+02
 0.451949374295388D+02 0.445260542762824D+02 0.151947052863454D+01 -.759631944813389D+01
 0.110135878586872D+02 -.881598036351891D+01 -.656358392054007D+01 0.704963736017248D+00
 0.658151874201193D+02 0.000000000000000D+00 0.000000000000000D+00 0.658151874201193D+02
 0.658151874201193D+02 0.000000000000000D+00 0.000000000000000D+00 -.658151874201193D+02
 0.574259302251021D+02 -.212411411263339D+02 0.120984121844638D+02 -.141484913854542D+02
 0.319101406343927D+02 -.203601942008395D+02 -.114404007457034D+02 0.217448108335881D+02
 0.000000000000000D+00 -.000000000000000D+00 -.000000000000000D+00 0.000000000000000D+00
 0.422943039807439D+02 0.416013353271735D+02 -.658011438760352D+00 -.759631944813389D+01
 0.719034990955213D+02 0.000000000000000D+00 0.000000000000000D+00 0.719034990955213D+02
 0.711985353595040D+02 0.000000000000000D+00 0.000000000000000D+00 -.711985353595040D+02
 0.568064125584115D+02 -.174224144788678D+02 0.149414916590920D+02 -.141484913854542D+02
 0.300870966083878D+02 -.182876594338956D+02 -.989737826718650D+01 0.217448108335881D+02
 0.110135878586872D+02 -.881598036351891D+01 -.656358392054007D+01 0.704963736017248D+00
 0.451949374295388D+02 0.445260542762824D+02 0.151947052863454D+01 -.759631944813389D+01
0.164010372532D-06 0.000000000000D+00 0.000000000000D+00 0.981545294377D-07 0.000000000000D+00  6 -3 22 9900012 -11 -4 21 0 0.45061021D-02 0.22752258D-01 0.36370838D+04 0.36370838D+04 0.36370838D+04 0.12577124D+01  1  2  2  1  6  1       -3 0.334102486324D-04 0.100000000000D+01
-.672917234312D-08 0.000000000000D+00 -.314921507722D-09 0.981545294377D-07 0.000000000000D+00  6 -3 22 9900012 -11 -4 21 2 0.45061021D-02 0.22752258D-01 0.36370838D+04 0.36370838D+04 0.36370838D+04 0.12577124D+01  1  2  3  1  6  1       -3 -.216836668461D-05 0.100000000000D+01
0.350959185558D-08 0.000000000000D+00 0.000000000000D+00 0.981545294377D-07 0.000000000000D+00  6 -3 22 9900012 -11 -4 21 2 0.45061021D-02 0.22752258D-01 0.36370838D+04 0.36370838D+04 0.36370838D+04 0.12577124D+01  1  2 15  1  6  1       -3 0.113090907294D-05 0.100000000000D+01
0.115139847240D-06 0.000000000000D+00 0.000000000000D+00 0.981545294377D-07 0.000000000000D+00  6 -3 22 9900012 -11 -4 21 2 0.53256162D-02 0.22752258D-01 0.43134278D+04 0.43134278D+04 0.43134278D+04 0.12491348D+01  1  2 12  1  6  1       -3 0.291105105607D-04 0.100000000000D+01
-.435688425506D-07 0.000000000000D+00 0.000000000000D+00 0.981545294377D-07 0.000000000000D+00  6 -3 22 9900012 -11 -4 21 2 0.45061021D-02 0.22752258D-01 0.36370838D+04 0.36370838D+04 0.36370838D+04 0.12577124D+01  1  2  4  1  6  1       -3 -.140393531116D-04 0.100000000000D+01
-.413152987409D-06 0.000000000000D+00 -.109702589489D-06 0.981545294377D-07 0.000000000000D+00  6 -3 22 9900012 -11 -4 21 2 0.53216984D-02 0.22752258D-01 0.36370838D+04 0.36370838D+04 0.36370838D+04 0.12577124D+01  1  2  5  1  6  1       -3 -.103814792564D-03 0.100000000000D+01
0.426981707247D-06 0.000000000000D+00 0.108201854876D-06 0.981545294377D-07 0.000000000000D+00  6 -3 22 9900012 -11 -4 21 2 0.45061021D-02 0.22752258D-01 0.36370838D+04 0.36370838D+04 0.36370838D+04 0.12577124D+01  1  2  6  1  6  1       -3 0.137587932322D-03 0.100000000000D+01
0.286379478386D-08 0.000000000000D+00 0.000000000000D+00 0.981545294377D-07 0.000000000000D+00  6 21 22 9900012 -11 3 -4 2 0.53256162D-02 0.22752258D-01 0.43134278D+04 0.43134278D+04 0.43134278D+04 0.12491348D+01  3  4 12  3  5  1       -3 0.131903898014D-04 0.100000000000D+01
-.932427163189D-08 0.000000000000D+00 -.271901298846D-08 0.981545294377D-07 0.000000000000D+00  6 21 22 9900012 -11 3 -4 2 0.53216984D-02 0.22752258D-01 0.36370838D+04 0.36370838D+04 0.36370838D+04 0.12577124D+01  3  4  5  3  5  1       -3 -.427659154315D-04 0.100000000000D+01
  </mgrwgt>
  </event>
  <event>
  6     66 -.11307692E-05 0.10009142E+02 0.78161638E-02 0.13241758E+00
       -1 -1    0    0    0  501 0.00000000E+00 0.00000000E+00 0.44596081E+01 0.44596081E+01 0.00000000E+00 0.0000E+00 0.9000E+01
       22 -1    0    0    0    0 -.00000000E+00 -.00000000E+00 -.44836062E+03 0.44836062E+03 0.00000000E+00 0.0000E+00 0.9000E+01
       24  2    1    2    0    0 0.33289579E+01 -.94393310E+01 -.40735245E+03 0.41492590E+03 0.78277063E+02 0.0000E+00 0.0000E+00
  9900012  1    3    3    0    0 -.36355902E+01 -.29155155E+02 -.29629417E+03 0.30191634E+03 0.50000000E+02 0.0000E+00 0.9000E+01
      -11  1    3    3    0    0 0.69645481E+01 0.19715824E+02 -.11105829E+03 0.11300956E+03 0.00000000E+00 0.0000E+00 0.9000E+01
       -2  1    1    2    0  501 -.33289579E+01 0.94393310E+01 -.36548557E+02 0.37894326E+02 0.00000000E+00 0.0000E+00 0.9000E+01
#aMCatNLO 1  0  0  5  5 0.48258326D-01 0.00000000D+00  -5  6  0 0.00000000D+00 0.00000000D+00 0.00000000D+00 0.00000000D+00 0.00000000D+00
  <mgrwgt>
 -.1563000471D-02    6    2    0
 0.447159102253486D+02 0.000000000000000D+00 0.000000000000000D+00 0.447159102253486D+02
 0.447159102253486D+02 -.000000000000000D+00 -.000000000000000D+00 -.447159102253486D+02
 0.580167501956531D+02 -.363559018896597D+01 -.291551552434719D+02 -.164399208384931D+01
 0.209559748343315D+02 0.696454810320788D+01 0.197158242424632D+02 -.139076432782127D+01
 0.104590954207127D+02 -.332895791424191D+01 0.943933100100872D+01 0.303475641167058D+01
 0.000000000000000D+00 0.000000000000000D+00 0.000000000000000D+00 0.000000000000000D+00
 0.447159102253486D+02 0.000000000000000D+00 0.000000000000000D+00 0.447159102253486D+02
 0.447159102253486D+02 -.000000000000000D+00 -.000000000000000D+00 -.447159102253486D+02
 0.580074160368899D+02 -.364231682454912D+01 -.291360817251432D+02 -.163785992447967D+01
 0.209615039316440D+02 0.696211788876739D+01 0.197227151672204D+02 -.138854888712031D+01
 0.104269746667124D+02 -.332193325176760D+01 0.942015471650055D+01 0.299119462560635D+01
 0.359258154509492D-01 0.213218754932687D-02 -.678815857773322D-02 0.352141859936262D-01
0.300596438252D-07 0.000000000000D+00 0.000000000000D+00 0.532058837266D-07 0.000000000000D+00  6 -1 22 9900012 -11 -2 21 0 0.68609355D-03 0.68978557D-01 0.19763524D+04 0.19763524D+04 0.19763524D+04 0.12899645D+01  1  2  2  2  6  5       -2 0.146321003071D-04 0.100000000000D+01
0.241972894376D-08 0.000000000000D+00 -.577184735873D-10 0.532058837266D-07 0.000000000000D+00  6 -1 22 9900012 -11 -2 21 2 0.68609355D-03 0.68978557D-01 0.19763524D+04 0.19763524D+04 0.19763524D+04 0.12899645D+01  1  2  3  2  6  5       -2 0.195995029354D-05 0.100000000000D+01
0.224423946098D-09 0.000000000000D+00 0.000000000000D+00 0.532058837266D-07 0.000000000000D+00  6 -1 22 9900012 -11 -2 21 2 0.68609355D-03 0.68978557D-01 0.19763524D+04 0.19763524D+04 0.19763524D+04 0.12899645D+01  1  2 15  2  6  5       -2 0.181780599916D-06 0.100000000000D+01
-.196210007667D-05 0.000000000000D+00 0.000000000000D+00 0.532058837266D-07 0.000000000000D+00  6 -1 22 9900012 -11 -2 21 2 0.68609355D-03 0.68978557D-01 0.19763524D+04 0.19763524D+04 0.19763524D+04 0.12899645D+01  1  2  4  2  6  5       -2 -.158927661346D-02 0.100000000000D+01
-.193610799376D-05 0.000000000000D+00 0.000000000000D+00 0.532058837266D-07 0.000000000000D+00  6 -1 22 9900012 -11 -2 21 2 0.68609355D-03 0.68978557D-01 0.19763524D+04 0.19763524D+04 0.19763524D+04 0.12899645D+01  1  2  5  2  6  5       -2 -.156822335017D-02 0.100000000000D+01
0.194783942292D-05 0.000000000000D+00 -.000000000000D+00 0.532058837266D-07 0.000000000000D+00  6 -1 22 9900012 -11 -2 21 2 0.68609355D-03 0.68978557D-01 0.19763524D+04 0.19763524D+04 0.19763524D+04 0.12899645D+01  1  2  6  2  6  5       -2 0.157772566162D-02 0.100000000000D+01
  </mgrwgt>
  </event>
  <event>
  6     66 -.11307692E-05 0.16750856E+02 0.78161638E-02 0.12893327E+00
       -1 -1    0    0    0  501 0.00000000E+00 0.00000000E+00 0.75994283E+02 0.75994283E+02 0.00000000E+00 0.0000E+00 0.9000E+01
       22 -1    0    0    0    0 0.00000000E+00 0.00000000E+00 -.44330716E+02 0.44330716E+02 0.00000000E+00 0.0000E+00 0.9000E+01
       24  2    1    2    0    0 -.16419287E+02 -.33163525E+01 -.18717758E+01 0.82838863E+02 0.81105996E+02 0.0000E+00 0.0000E+00
  9900012  1    3    3    0    0 -.31356276E+00 -.45379637E+01 -.23834129E+02 0.55576588E+02 0.50000000E+02 0.0000E+00 0.9000E+01
      -11  1    3    3    0    0 -.16105724E+02 0.12216112E+01 0.21962353E+02 0.27262275E+02 0.00000000E+00 0.0000E+00 0.9000E+01
       -2  1    1    2    0  501 0.16419287E+02 0.33163525E+01 0.33535343E+02 0.37486136E+02 0.00000000E+00 0.0000E+00 0.9000E+01
#aMCatNLO 1  0  0  1  5 0.13154147D+02 0.00000000D+00  -5  6  0 0.00000000D+00 0.00000000D+00 0.00000000D+00 0.00000000D+00 0.00000000D+00
  <mgrwgt>
 -.1596577289D-04    5    4    0
 0.580420620001656D+02 0.000000000000000D+00 0.000000000000000D+00 0.580420620001656D+02
 0.580420620001656D+02 0.000000000000000D+00 0.000000000000000D+00 -.580420620001656D+02
 0.641080465566273D+02 -.313562758114703D+00 -.453796374808684D+01 -.398641467577630D+02
 0.222677026130047D+02 -.161057237954245D+02 0.122161120784507D+01 0.153285324393295D+02
 0.297083748306992D+02 0.164192865535392D+02 0.331635254024177D+01 0.245356143184335D+02
 0.000000000000000D+00 -.000000000000000D+00 -.000000000000000D+00 0.000000000000000D+00
 0.122624904511368D+03 0.000000000000000D+00 0.000000000000000D+00 0.122624904511368D+03
 0.601087222466807D+02 0.000000000000000D+00 0.000000000000000D+00 -.601087222466807D+02
 0.643799286370834D+02 0.703414714155419D+01 0.247907010438219D+01 -.398641467577630D+02
 0.208285598623071D+02 -.136412220865979D+02 0.357520057874330D+01 0.153285324393295D+02
 0.323364590569858D+02 0.199673807584059D+02 0.670476845312647D+01 0.245356143184335D+02
 0.651886792016721D+02 -.133603058133622D+02 -.127590391362520D+02 0.625161822646868D+02
 0.580420620001656D+02 0.000000000000000D+00 0.000000000000000D+00 0.580420620001656D+02
 0.580420620001656D+02 0.000000000000000D+00 0.000000000000000D+00 -.580420620001656D+02
 0.641080465566273D+02 -.313562758114703D+00 -.453796374808684D+01 -.398641467577630D+02
 0.222677026130047D+02 -.161057237954245D+02 0.122161120784507D+01 0.153285324393295D+02
 0.000000000000000D+00 -.000000000000000D+00 -.000000000000000D+00 0.000000000000000D+00
 0.297083748306992D+02 0.164192865535392D+02 0.331635254024177D+01 0.245356143184335D+02
 0.122624904511368D+03 0.000000000000000D+00 0.000000000000000D+00 0.122624904511368D+03
 0.601087222466807D+02 0.000000000000000D+00 0.000000000000000D+00 -.601087222466807D+02
 0.643799286370834D+02 0.703414714155419D+01 0.247907010438219D+01 -.398641467577630D+02
 0.208285598623071D+02 -.136412220865979D+02 0.357520057874330D+01 0.153285324393295D+02
 0.651886792016721D+02 -.133603058133622D+02 -.127590391362520D+02 0.625161822646868D+02
 0.323364590569858D+02 0.199673807584059D+02 0.670476845312647D+01 0.245356143184335D+02
0.309504119177D-07 0.000000000000D+00 0.000000000000D+00 0.234360699802D-06 0.000000000000D+00  6 -1 22 9900012 -11 -2 21 0 0.11691428D-01 0.68201101D-02 0.17267902D+04 0.17267902D+04 0.17267902D+04 0.12974603D+01  1  2  2  1  6  1       -1 0.917487135771D-05 0.100000000000D+01
0.125827356921D-08 0.000000000000D+00 -.594288655974D-10 0.234360699802D-06 0.000000000000D+00  6 -1 22 9900012 -11 -2 21 2 0.11691428D-01 0.68201101D-02 0.17267902D+04 0.17267902D+04 0.17267902D+04 0.12974603D+01  1  2  3  1  6  1       -1 0.627909082665D-06 0.100000000000D+01
-.783780784402D-10 0.000000000000D+00 0.000000000000D+00 0.234360699802D-06 0.000000000000D+00  6 -1 22 9900012 -11 -2 21 2 0.11691428D-01 0.68201101D-02 0.17267902D+04 0.17267902D+04 0.17267902D+04 0.12974603D+01  1  2 15  1  6  1       -1 -.391125654536D-07 0.100000000000D+01
-.840018466018D-07 0.000000000000D+00 -.758286705290D-08 0.234360699802D-06 0.000000000000D+00  6 -1 22 9900012 -11 -2 21 2 0.25317446D-01 0.68201101D-02 0.17267902D+04 0.17267902D+04 0.17267902D+04 0.12974603D+01  1  2  5  1  6  1       -1 -.132727532883D-04 0.100000000000D+01
-.655218111704D-08 0.000000000000D+00 -.634396595423D-09 0.234360699802D-06 0.000000000000D+00  6 21 22 9900012 -11 1 -2 2 0.25317446D-01 0.68201101D-02 0.17267902D+04 0.17267902D+04 0.17267902D+04 0.12974603D+01  3  4  5  3  5  1       -1 -.124566874769D-04 0.100000000000D+01
  </mgrwgt>
  </event>
  <event>
  7     66 0.11307692E-05 0.22578346E+02 0.78161638E-02 0.12960976E+00
       -3 -1    0    0    0  502 0.00000000E+00 0.00000000E+00 0.25709626E+02 0.25709626E+02 0.00000000E+00 0.0000E+00 0.9000E+01
       22 -1    0    0    0    0 0.00000000E+00 0.00000000E+00 -.24727454E+03 0.24727454E+03 0.00000000E+00 0.0000E+00 0.9000E+01
       24  2    1    2    0    0 0.51978279E+01 0.23879390E+02 -.10833249E+03 0.13621906E+03 0.78882573E+02 0.0000E+00 0.0000E+00
  9900012  1    3    3    0    0 -.96270894E+01 0.36697167E+01 -.94955544E+02 0.10780864E+03 0.50000000E+02 0.0000E+00 0.9000E+01
      -11  1    3    3    0    0 0.14824917E+02 0.20209674E+02 -.13376948E+02 0.28410417E+02 0.00000000E+00 0.0000E+00 0.9000E+01
       -4  1    1    2    0  501 -.12299633E+01 -.88362438E+00 -.11341868E+03 0.11342879E+03 0.00000000E+00 0.0000E+00 0.9000E+01
       21  1    1    2  501  502 -.39678647E+01 -.22995766E+02 0.18625390E+00 0.23336321E+02 0.00000000E+00 0.0000E+00 0.9000E+01
#aMCatNLO 2  0  0  1  5 0.15591161D+02 0.00000000D+00  -5  6  0 0.00000000D+00 0.00000000D+00 0.00000000D+00 0.00000000D+00 0.00000000D+00
  <mgrwgt>
 0.9239167138D-04    1    2    0
 0.561380374626203D+02 0.000000000000000D+00 0.000000000000000D+00 0.561380374626203D+02
 0.561380374626203D+02 0.000000000000000D+00 0.000000000000000D+00 -.561380374626203D+02
 0.517608325963635D+02 -.114250981473897D+02 -.675064557291568D+01 0.175490961025253D+01
 0.320877402891731D+02 0.136348340741754D+02 0.133125439858474D+02 0.258164782505284D+02
 0.284275020397041D+02 -.220973592678562D+01 -.656189841293177D+01 -.275713878607809D+02
 0.000000000000000D+00 -.000000000000000D+00 -.000000000000000D+00 0.000000000000000D+00
 0.105685124161624D+03 0.000000000000000D+00 0.000000000000000D+00 0.105685124161624D+03
 0.601535563909778D+02 0.000000000000000D+00 0.000000000000000D+00 -.601535563909778D+02
 0.510805969026226D+02 -.962708944491628D+01 0.366971674760363D+01 0.175490961025253D+01
 0.359819348435827D+02 0.148249173787296D+02 0.202096736871645D+02 0.258164782505284D+02
 0.276129504080589D+02 -.122996326432354D+01 -.883624375353556D+00 -.275713878607809D+02
 0.511631983983377D+02 -.396786466948979D+01 -.229957660594145D+02 0.455315677706464D+02
0.528875014337D-06 0.000000000000D+00 0.000000000000D+00 0.140048864861D-05 0.406539715828D-06  6 -3 22 9900012 -11 -4 21 2 0.39553271D-02 0.38042237D-01 0.25484618D+04 0.25484618D+04 0.25484618D+04 0.12762148D+01  1  2  1  1  6  1       -3 0.923916713787D-04 0.100000000000D+01
  </mgrwgt>
  </event>
  <event>
  6     66 0.11307692E-05 0.12462131E+02 0.78161638E-02 0.13210558E+00
       -3 -1    0    0    0  501 0.00000000E+00 0.00000000E+00 0.37649695E+01 0.37649695E+01 0.00000000E+00 0.0000E+00 0.9000E+01
       22 -1    0    0    0    0 -.00000000E+00 -.00000000E+00 -.72163951E+03 0.72163951E+03 0.00000000E+00 0.0000E+00 0.9000E+01
       24  2    1    2    0    0 0.12316700E+02 0.18983189E+01 -.45424126E+03 0.46147681E+03 0.80438952E+02 0.0000E+00 0.0000E+00
  9900012  1    3    3    0    0 0.29364263E+02 -.81109994E+01 -.27595344E+03 0.28209635E+03 0.50000000E+02 0.0000E+00 0.9000E+01
      -11  1    3    3    0    0 -.17047563E+02 0.10009318E+02 -.17828781E+03 0.17938046E+03 0.00000000E+00 0.0000E+00 0.9000E+01
       -4  1    1    2    0  501 -.12316700E+02 -.18983189E+01 -.26363328E+03 0.26392766E+03 0.00000000E+00 0.0000E+00 0.9000E+01
#aMCatNLO 1  0  0  5  1 0.29293107D+01 0.00000000D+00  -5  6  0 0.00000000D+00 0.00000000D+00 0.00000000D+00 0.00000000D+00 0.00000000D+00
  <mgrwgt>
 0.1823535230D+00    8    2    0
 0.521243773475490D+02 0.000000000000000D+00 0.000000000000000D+00 0.521243773475490D+02
 0.521243773475490D+02 -.000000000000000D+00 -.000000000000000D+00 -.521243773475490D+02
 0.626770573238868D+02 0.293642631821916D+02 -.811099943532837D+01 0.223688455381337D+02
 0.204809044442188D+02 -.170475631680728D+02 0.100093183494529D+02 -.535365137668621D+01
 0.210907929269924D+02 -.123167000141188D+02 -.189831891412458D+01 -.170151941614475D+02
 0.000000000000000D+00 -.000000000000000D+00 0.000000000000000D+00 0.000000000000000D+00
 0.521243773475490D+02 0.000000000000000D+00 0.000000000000000D+00 0.521243773475490D+02
 0.521243773475490D+02 -.000000000000000D+00 -.000000000000000D+00 -.521243773475490D+02
 0.622874871891477D+02 0.289474976848844D+02 -.817523367220886D+01 0.217930950653329D+02
 0.206349969347005D+02 -.171846875752572D+02 0.998818396642438D+01 -.554308510567543D+01
 0.481395722591265D+01 0.108057138149600D-01 -.887271185905436D-02 -.481393692152794D+01
 0.165123133453372D+02 -.117736158234421D+02 -.180407758235647D+01 -.114360730381296D+02
0.110738618502D-07 0.000000000000D+00 0.000000000000D+00 0.127661341795D-06 0.000000000000D+00  6 -3 22 9900012 -11 -4 21 0 0.57922607D-03 0.11102146D+00 0.20602738D+04 0.20602738D+04 0.20602738D+04 0.12876834D+01  1  2  2  2  6  5       -4 0.266471668580D-05 0.100000000000D+01
-.302064431635D-09 0.000000000000D+00 -.212632726597D-10 0.127661341795D-06 0.000000000000D+00  6 -3 22 9900012 -11 -4 21 2 0.57922607D-03 0.11102146D+00 0.20602738D+04 0.20602738D+04 0.20602738D+04 0.12876834D+01  1  2  3  2  6  5       -4 -.120522945214D-06 0.100000000000D+01
0.601389797352D-09 0.000000000000D+00 0.000000000000D+00 0.127661341795D-06 0.000000000000D+00  6 -3 22 9900012 -11 -4 21 2 0.57922607D-03 0.11102146D+00 0.20602738D+04 0.20602738D+04 0.20602738D+04 0.12876834D+01  1  2 15  2  6  5       -4 0.239953010045D-06 0.100000000000D+01
0.701329920485D-10 0.000000000000D+00 0.000000000000D+00 0.127661341795D-06 0.000000000000D+00  6 -3 22 9900012 -11 -4 21 2 0.57922607D-03 0.11102146D+00 0.20318531D+04 0.20318531D+04 0.20318531D+04 0.12884439D+01  1  2 12  2  6  5       -4 0.279548096205D-07 0.100000000000D+01
-.165967220008D-07 0.000000000000D+00 0.000000000000D+00 0.127661341795D-06 0.000000000000D+00  6 -3 22 9900012 -11 -4 21 2 0.57922607D-03 0.11102146D+00 0.20602738D+04 0.20602738D+04 0.20602738D+04 0.12876834D+01  1  2  4  2  6  5       -4 -.662205015532D-05 0.100000000000D+01
-.483594388656D-08 0.000000000000D+00 0.000000000000D+00 0.127661341795D-06 0.000000000000D+00  6 -3 22 9900012 -11 -4 21 2 0.57922607D-03 0.11102146D+00 0.20602738D+04 0.20602738D+04 0.20602738D+04 0.12876834D+01  1  2  5  2  6  5       -4 -.192952939524D-05 0.100000000000D+01
0.107671435667D-07 0.000000000000D+00 -.000000000000D+00 0.127661341795D-06 0.000000000000D+00  6 -3 22 9900012 -11 -4 21 2 0.57922607D-03 0.11102146D+00 0.20602738D+04 0.20602738D+04 0.20602738D+04 0.12876834D+01  1  2  6  2  6  5       -4 0.429606308554D-05 0.100000000000D+01
0.457491915728D-03 0.000000000000D+00 0.000000000000D+00 0.127661341795D-06 0.140757763217D-02  6 -3 22 9900012 -11 -4 21 2 0.57922607D-03 0.11102146D+00 0.20318531D+04 0.20318531D+04 0.20318531D+04 0.12884439D+01  1  2 11  2  6  5       -4 0.182354966379D+00 0.100000000000D+01
  </mgrwgt>
  </event>
  <event>
  6     66 0.11307692E-05 0.29555574E+02 0.78161638E-02 0.12006037E+00
       -1 -1    0    0    0  501 0.00000000E+00 0.00000000E+00 0.11614177E+04 0.11614177E+04 0.00000000E+00 0.0000E+00 0.9000E+01
       22 -1    0    0    0    0 0.00000000E+00 0.00000000E+00 -.59283511E+01 0.59283511E+01 0.00000000E+00 0.0000E+00 0.9000E+01
       24  2    1    2    0    0 -.17787207E+02 0.23603966E+02 0.11077061E+04 0.11111609E+04 0.82414886E+02 0.0000E+00 0.0000E+00
  9900012  1    3    3    0    0 -.31000552E+02 0.24853864E+02 0.62130990E+03 0.62458365E+03 0.50000000E+02 0.0000E+00 0.9000E+01
      -11  1    3    3    0    0 0.13213345E+02 -.12498976E+01 0.48639620E+03 0.48657725E+03 0.00000000E+00 0.0000E+00 0.9000E+01
       -2  1    1    2    0  501 0.17787207E+02 -.23603966E+02 0.47783239E+02 0.56185139E+02 0.00000000E+00 0.0000E+00 0.9000E+01
#aMCatNLO 1  0  0  1  5 0.74767709D+01 0.00000000D+00  -5  6  0 0.00000000D+00 0.00000000D+00 0.00000000D+00 0.00000000D+00 0.00000000D+00
  <mgrwgt>
 0.1988888715D-04    4    2    0
 0.829776586165649D+02 0.000000000000000D+00 0.000000000000000D+00 0.829776586165649D+02
 0.829776586165649D+02 0.000000000000000D+00 0.000000000000000D+00 -.829776586165649D+02
 0.674174844777282D+02 -.310005523689657D+02 0.248538638870592D+02 0.215955647299920D+02
 0.360241566923947D+02 0.132133450104402D+02 -.124989757255578D+01 0.334900751729733D+02
 0.625136760630069D+02 0.177872073585255D+02 -.236039663145034D+02 -.550856399029653D+02
 0.000000000000000D+00 -.000000000000000D+00 -.000000000000000D+00 -.000000000000000D+00
 0.103116702527778D+03 0.000000000000000D+00 0.000000000000000D+00 0.103116702527778D+03
 0.111280001240260D+03 0.000000000000000D+00 0.000000000000000D+00 -.111280001240260D+03
 0.643818141678700D+02 -.154940083265220D+02 0.306363392969287D+02 0.215955647299920D+02
 0.402258906113566D+02 0.221843693550642D+02 0.209544665966905D+01 0.334900751729733D+02
 0.666646915961783D+02 0.329853917800102D+02 -.179364799002935D+02 -.550856399029653D+02
 0.431243073926330D+02 -.396757528085525D+02 -.147953060563043D+02 -.816329871248287D+01
0.859944788581D-06 0.000000000000D+00 0.000000000000D+00 0.729352584378D-07 0.000000000000D+00  6 -1 22 9900012 -11 -2 21 0 0.17867964D+00 0.91205402D-03 0.28458483D+04 0.28458483D+04 0.28458483D+04 0.12703830D+01  1  2  2  1  6  1       -1 0.256923226872D-04 0.100000000000D+01
-.522209993364D-07 0.000000000000D+00 -.165120720841D-08 0.729352584378D-07 0.000000000000D+00  6 -1 22 9900012 -11 -2 21 2 0.17867964D+00 0.91205402D-03 0.28458483D+04 0.28458483D+04 0.28458483D+04 0.12703830D+01  1  2  3  1  6  1       -1 -.251795140145D-05 0.100000000000D+01
0.522106027797D-07 0.000000000000D+00 0.000000000000D+00 0.729352584378D-07 0.000000000000D+00  6 -1 22 9900012 -11 -2 21 2 0.17867964D+00 0.91205402D-03 0.28458483D+04 0.28458483D+04 0.28458483D+04 0.12703830D+01  1  2 15  1  6  1       -1 0.251745010839D-05 0.100000000000D+01
-.120349830926D-06 0.000000000000D+00 0.000000000000D+00 0.729352584378D-07 0.000000000000D+00  6 -1 22 9900012 -11 -2 21 2 0.17867964D+00 0.91205402D-03 0.28458483D+04 0.28458483D+04 0.28458483D+04 0.12703830D+01  1  2  4  1  6  1       -1 -.580293424666D-05 0.100000000000D+01
  </mgrwgt>
  </event>
  <event>
  6     66 0.11307692E-05 0.55056280E+02 0.78161638E-02 0.10687044E+00
       -3 -1    0    0    0  501 0.00000000E+00 0.00000000E+00 0.11168411E+03 0.11168411E+03 0.00000000E+00 0.0000E+00 0.9000E+01
       22 -1    0    0    0    0 0.00000000E+00 0.00000000E+00 -.61610584E+03 0.61610584E+03 0.00000000E+00 0.0000E+00 0.9000E+01
       24  2    1    2    0    0 0.15468094E+02 -.52838736E+02 0.89068623E+02 0.13175136E+03 0.79962543E+02 0.0000E+00 0.0000E+00
  9900012  1    3    3    0    0 0.91901522E+01 -.76984805E+01 0.44356248E+02 0.67905833E+02 0.50000000E+02 0.0000E+00 0.9000E+01
      -11  1    3    3    0    0 0.62779417E+01 -.45140255E+02 0.44712375E+02 0.63845530E+02 0.00000000E+00 0.0000E+00 0.9000E+01
       -4  1    1    2    0  501 -.15468094E+02 0.52838736E+02 -.59349035E+03 0.59603858E+03 0.00000000E+00 0.0000E+00 0.9000E+01
#aMCatNLO 1  0  0  1  1 0.46046132D+02 0.00000000D+00  -5  6  0 0.00000000D+00 0.00000000D+00 0.00000000D+00 0.00000000D+00 0.00000000D+00
  <mgrwgt>
 0.8212954106D-05    7    4    0
 0.262315137292074D+03 0.000000000000000D+00 0.000000000000000D+00 0.262315137292074D+03
 0.262315137292074D+03 0.000000000000000D+00 0.000000000000000D+00 -.262315137292074D+03
 0.136849590137265D+03 0.919015224255479D+01 -.769848049334296D+01 0.126823045305614D+03
 0.131559370325527D+03 0.627794168649870D+01 -.451402554580592D+02 0.123413178817382D+03
 0.256221314121356D+03 -.154680939290535D+02 0.528387359514022D+02 -.250236224122996D+03
 0.000000000000000D+00 -.000000000000000D+00 -.000000000000000D+00 0.000000000000000D+00
 0.370188524894809D+03 0.000000000000000D+00 0.000000000000000D+00 0.370188524894809D+03
 0.335822679051648D+03 0.000000000000000D+00 0.000000000000000D+00 -.335822679051648D+03
 0.141243611432674D+03 0.199764229405600D+02 0.310904402743716D+02 0.126823045305614D+03
 0.124827643578809D+03 0.162223046547890D+02 -.937895129074005D+01 0.123413178817382D+03
 0.281021857271644D+03 0.536970521377211D+01 0.127774342757014D+03 -.250236224122996D+03
 0.158918091663331D+03 -.415684328091211D+02 -.149485831740646D+03 0.343658458431604D+02
 0.262315137292074D+03 0.000000000000000D+00 0.000000000000000D+00 0.262315137292074D+03
 0.262315137292074D+03 0.000000000000000D+00 0.000000000000000D+00 -.262315137292074D+03
 0.136849590137265D+03 0.919015224255479D+01 -.769848049334296D+01 0.126823045305614D+03
 0.131559370325527D+03 0.627794168649870D+01 -.451402554580592D+02 0.123413178817382D+03
 0.000000000000000D+00 -.000000000000000D+00 -.000000000000000D+00 0.000000000000000D+00
 0.256221314121356D+03 -.154680939290535D+02 0.528387359514022D+02 -.250236224122996D+03
 0.370188524894809D+03 0.000000000000000D+00 0.000000000000000D+00 0.370188524894809D+03
 0.335822679051648D+03 0.000000000000000D+00 0.000000000000000D+00 -.335822679051648D+03
 0.141243611432674D+03 0.199764229405600D+02 0.310904402743716D+02 0.126823045305614D+03
 0.124827643578809D+03 0.162223046547890D+02 -.937895129074005D+01 0.123413178817382D+03
 0.158918091663331D+03 -.415684328091211D+02 -.149485831740646D+03 0.343658458431604D+02
 0.281021857271644D+03 0.536970521377211D+01 0.127774342757014D+03 -.250236224122996D+03
0.322361256669D-05 0.000000000000D+00 0.000000000000D+00 0.348190507932D-05 0.000000000000D+00  6 -3 22 9900012 -11 -4 21 0 0.17182171D-01 0.94785514D-01 0.57796617D+04 0.57796617D+04 0.57796617D+04 0.12348236D+01  1  2  2  1  6  1       -3 0.786084963840D-05 0.100000000000D+01
0.725356297225D-07 0.000000000000D+00 -.618976052638D-08 0.348190507932D-05 0.000000000000D+00  6 -3 22 9900012 -11 -4 21 2 0.17182171D-01 0.94785514D-01 0.57796617D+04 0.57796617D+04 0.57796617D+04 0.12348236D+01  1  2  3  1  6  1       -3 0.269704308195D-06 0.100000000000D+01
0.184028868305D-06 0.000000000000D+00 0.000000000000D+00 0.348190507932D-05 0.000000000000D+00  6 -3 22 9900012 -11 -4 21 2 0.17182171D-01 0.94785514D-01 0.57796617D+04 0.57796617D+04 0.57796617D+04 0.12348236D+01  1  2 15  1  6  1       -3 0.684262048928D-06 0.100000000000D+01
-.857695341772D-06 0.000000000000D+00 0.000000000000D+00 0.348190507932D-05 0.000000000000D+00  6 -3 22 9900012 -11 -4 21 2 0.17182171D-01 0.94785514D-01 0.57796617D+04 0.57796617D+04 0.57796617D+04 0.12348236D+01  1  2  4  1  6  1       -3 -.318911036796D-05 0.100000000000D+01
0.910062218690D-06 0.000000000000D+00 -.855845398995D-06 0.348190507932D-05 0.000000000000D+00  6 -3 22 9900012 -11 -4 21 2 0.30773904D-01 0.94785514D-01 0.57796617D+04 0.57796617D+04 0.57796617D+04 0.12348236D+01  1  2  5  1  6  1       -3 0.121172359253D-05 0.100000000000D+01
-.241773536145D-06 0.000000000000D+00 0.728573518050D-06 0.348190507932D-05 0.000000000000D+00  6 -3 22 9900012 -11 -4 21 2 0.17182171D-01 0.94785514D-01 0.57796617D+04 0.57796617D+04 0.57796617D+04 0.12348236D+01  1  2  6  1  6  1       -3 -.898970127579D-06 0.100000000000D+01
0.103386763789D-06 0.000000000000D+00 -.547662904326D-07 0.348190507932D-05 0.000000000000D+00  6 21 22 9900012 -11 3 -4 2 0.30773904D-01 0.94785514D-01 0.57796617D+04 0.57796617D+04 0.57796617D+04 0.12348236D+01  3  4  5  3  5  1       -3 0.227449501314D-05 0.100000000000D+01
  </mgrwgt>
  </event>
  <event>
  7     66 -.11307692E-05 0.92597061E+01 0.78161638E-02 0.13303665E+00
       -3 -1    0    0    0  501 0.00000000E+00 0.00000000E+00 0.35744384E+03 0.35744384E+03 0.00000000E+00 0.0000E+00 0.9000E+01
       22 -1    0    0    0    0 0.00000000E+00 0.00000000E+00 -.84973951E+01 0.84973951E+01 0.00000000E+00 0.0000E+00 0.9000E+01
       24  2    1    2    0    0 0.19793769E+02 0.25757001E+01 0.15416074E+03 0.16905161E+03 0.66441610E+02 0.0000E+00 0.0000E+00
  9900012  1    3    3    0    0 0.21269233E+02 -.86443975E+01 0.10429163E+03 0.11791459E+03 0.50000000E+02 0.0000E+00 0.9000E+01
      -11  1    3    3    0    0 -.14754643E+01 0.11220098E+02 0.49869102E+02 0.51137021E+02 0.00000000E+00 0.0000E+00 0.9000E+01
       -4  1    1    2    0  502 -.12899263E+02 -.22833088E+00 0.17944121E+03 0.17990439E+03 0.00000000E+00 0.0000E+00 0.9000E+01
       21  1    1    2  502  501 -.68945060E+01 -.23473692E+01 0.15344500E+02 0.16985230E+02 0.00000000E+00 0.0000E+00 0.9000E+01
#aMCatNLO 2  0  0  5  1 0.84185942D+01 0.00000000D+00  -5  6  0 0.00000000D+00 0.00000000D+00 0.00000000D+00 0.00000000D+00 0.00000000D+00
  <mgrwgt>
 -.1983099394D-04    2    2    0
 0.551120813650816D+02 0.000000000000000D+00 0.000000000000000D+00 0.551120813650816D+02
 0.551120813650816D+02 -.000000000000000D+00 -.000000000000000D+00 -.551120813650816D+02
 0.633828323156853D+02 0.236246093963832D+02 -.833789995423260D+01 -.298285213776985D+02
 0.117542937239203D+02 -.102866986167258D+01 0.112782375153625D+02 0.314747800801665D+01
 0.350870366905576D+02 -.225959395347106D+02 -.294033756112990D+01 0.266810433696819D+02
 0.000000000000000D+00 0.000000000000000D+00 -.000000000000000D+00 0.000000000000000D+00
 0.551120813650816D+02 0.000000000000000D+00 0.000000000000000D+00 0.551120813650816D+02
 0.551120813650816D+02 -.000000000000000D+00 -.000000000000000D+00 -.551120813650816D+02
 0.613079387206189D+02 0.212692334684595D+02 -.864439751326599D+01 -.270473187112505D+02
 0.118984689535381D+02 -.147546433873260D+01 0.112200975747335D+02 0.367504814075933D+01
 0.292047015672448D+02 -.128992631730606D+02 -.228330882755874D+00 0.262006005318949D+02
 0.781305348876137D+01 -.689450595666628D+01 -.234736917871161D+01 -.282832996140375D+01
-.946375518596D-07 0.000000000000D+00 0.000000000000D+00 0.356826839214D-08 0.000000000000D+00  6 -3 22 9900012 -11 -4 21 2 0.54991359D-01 0.13072916D-02 0.18714395D+04 0.18714395D+04 0.18714395D+04 0.12929763D+01  1  2 13  2  6  5       -4 -.218977998516D-04 0.100000000000D+01
0.893228783438D-08 0.000000000000D+00 0.000000000000D+00 0.356826839214D-08 0.313204259640D-10  6 -3 22 9900012 -11 -4 21 2 0.54991359D-01 0.13072916D-02 0.18714395D+04 0.18714395D+04 0.18714395D+04 0.12929763D+01  1  2  1  2  6  5       -4 0.206680590707D-05 0.100000000000D+01
  </mgrwgt>
  </event>
  <event>
  6     66 -.11307692E-05 0.49617354E+02 0.78161638E-02 0.11159083E+00
       -3 -1    0    0    0  501 0.00000000E+00 0.00000000E+00 0.66744369E+02 0.66744369E+02 0.00000000E+00 0.0000E+00 0.9000E+01
       22 -1    0    0    0    0 -.00000000E+00 -.00000000E+00 -.45392499E+03 0.45392499E+03 0.00000000E+00 0.0000E+00 0.9000E+01
       24  2    1    2    0    0 -.92469732E+02 0.78950121E+02 -.37043172E+03 0.39793265E+03 0.79667828E+02 0.0000E+00 0.0000E+00
  9900012  1    3    3    0    0 -.46899188E+02 0.71612064E+02 -.25848313E+03 0.27684174E+03 0.50000000E+02 0.0000E+00 0.9000E+01
      -11  1    3    3    0    0 -.45570544E+02 0.73380575E+01 -.11194859E+03 0.12109091E+03 0.00000000E+00 0.0000E+00 0.9000E+01
       -4  1    1    2    0  501 0.92469732E+02 -.78950121E+02 -.16748898E+02 0.12273670E+03 0.00000000E+00 0.0000E+00 0.9000E+01
#aMCatNLO 1  0  0  5  1 0.84185942D+01 0.00000000D+00  -5  6  0 0.00000000D+00 0.00000000D+00 0.00000000D+00 0.00000000D+00 0.00000000D+00
  <mgrwgt>
 -.1260349190D-05    1    2    0
 0.174060152865453D+03 0.000000000000000D+00 0.000000000000000D+00 0.174060152865453D+03
 0.174060152865453D+03 -.000000000000000D+00 -.000000000000000D+00 -.174060152865453D+03
 0.126575073739618D+03 -.468991882182034D+02 0.716120636207958D+02 -.786983340397642D+02
 0.566011271418212D+02 -.455705442806441D+02 0.733805753214471D+01 -.327592124347548D+02
 0.164944104849467D+03 0.924697324988476D+02 -.789501211529405D+02 0.111457546474519D+03
 0.000000000000000D+00 -.000000000000000D+00 0.000000000000000D+00 0.000000000000000D+00
 0.174060152865453D+03 0.000000000000000D+00 0.000000000000000D+00 0.174060152865453D+03
 0.174060152865453D+03 -.000000000000000D+00 -.000000000000000D+00 -.174060152865453D+03
 0.859987064155694D+02 -.199485577336796D+02 0.486017716646921D+02 -.462136380363034D+02
 0.382986656844031D+02 -.335389134386359D+02 -.293447908037168D+01 -.182569962230435D+02
 0.885212935634638D+02 0.463888991199692D+02 -.289622636203525D+02 -.696080220848967D+02
 0.135301640067470D+03 0.709857205234623D+01 -.167050289639679D+02 0.134078656344244D+03
-.821263685699D-07 0.000000000000D+00 0.000000000000D+00 0.166160501790D-05 0.000000000000D+00  6 -3 22 9900012 -11 -4 21 2 0.10268364D-01 0.69834613D-01 0.17806432D+05 0.17806432D+05 0.17806432D+05 0.11841840D+01  1  2 14  2  6  5       -4 -.126034918972D-05 0.100000000000D+01
  </mgrwgt>
  </event>
  <event>
  6     66 0.11307692E-05 0.21710309E+02 0.78161638E-02 0.12399058E+00
       -1 -1    0    0    0  501 0.00000000E+00 0.00000000E+00 0.32770368E+02 0.32770368E+02 0.00000000E+00 0.0000E+00 0.9000E+01
       22 -1    0    0    0    0 0.00000000E+00 0.00000000E+00 -.17694937E+03 0.17694937E+03 0.00000000E+00 0.0000E+00 0.9000E+01
       24  2    1    2    0    0 0.16089185E+02 -.14576545E+02 -.16169611E+03 0.18182374E+03 0.80267697E+02 0.0000E+00 0.0000E+00
  9900012  1    3    3    0    0 0.35291452E+02 -.47680416E+01 -.12505686E+03 0.13931058E+03 0.50000000E+02 0.0000E+00 0.9000E+01
      -11  1    3    3    0    0 -.19202267E+02 -.98085031E+01 -.36639257E+02 0.42513162E+02 0.00000000E+00 0.0000E+00 0.9000E+01
       -2  1    1    2    0  501 -.16089185E+02 0.14576545E+02 0.17517109E+02 0.27895997E+02 0.00000000E+00 0.0000E+00 0.9000E+01
#aMCatNLO 1  0  0  1  5 0.35825557D+02 0.00000000D+00  -5  6  0 0.00000000D+00 0.00000000D+00 0.00000000D+00 0.00000000D+00 0.00000000D+00
  <mgrwgt>
 0.1881821850D-04    7    4    0
 0.761491697595399D+02 0.000000000000000D+00 0.000000000000000D+00 0.761491697595399D+02
 0.761491697595399D+02 0.000000000000000D+00 0.000000000000000D+00 -.761491697595399D+02
 0.734453574529131D+02 0.352914522436061D+02 -.476804160786288D+01 -.403236867008604D+02
 0.238560560246627D+02 -.192022672994432D+02 -.980850308152603D+01 -.102067432079127D+02
 0.549969260415040D+02 -.160891849441628D+02 0.145765446893889D+02 0.505304299087731D+02
 0.000000000000000D+00 -.000000000000000D+00 -.000000000000000D+00 0.000000000000000D+00
 0.949623896385127D+02 0.000000000000000D+00 0.000000000000000D+00 0.949623896385127D+02
 0.883428551544647D+02 0.000000000000000D+00 0.000000000000000D+00 -.883428551544647D+02
 0.809775915890793D+02 0.491802138667675D+02 -.356050480095070D+01 -.403236867008604D+02
 0.206109831646842D+02 -.152029128562078D+02 -.946078542136826D+01 -.102067432079127D+02
 0.532127208016133D+02 -.635683622492001D+01 0.154227086322268D+02 0.505304299087731D+02
 0.285039492376006D+02 -.276204647856397D+02 -.240141840990787D+01 0.661953448404799D+01
 0.761491697595399D+02 0.000000000000000D+00 0.000000000000000D+00 0.761491697595399D+02
 0.761491697595399D+02 0.000000000000000D+00 0.000000000000000D+00 -.761491697595399D+02
 0.734453574529131D+02 0.352914522436061D+02 -.476804160786288D+01 -.403236867008604D+02
 0.238560560246627D+02 -.192022672994432D+02 -.980850308152603D+01 -.102067432079127D+02
 0.000000000000000D+00 -.000000000000000D+00 -.000000000000000D+00 0.000000000000000D+00
 0.549969260415040D+02 -.160891849441628D+02 0.145765446893889D+02 0.505304299087731D+02
 0.949623896385127D+02 0.000000000000000D+00 0.000000000000000D+00 0.949623896385127D+02
 0.883428551544647D+02 0.000000000000000D+00 0.000000000000000D+00 -.883428551544647D+02
 0.809775915890793D+02 0.491802138667675D+02 -.356050480095070D+01 -.403236867008604D+02
 0.206109831646842D+02 -.152029128562078D+02 -.946078542136826D+01 -.102067432079127D+02
 0.285039492376006D+02 -.276204647856397D+02 -.240141840990787D+01 0.661953448404799D+01
 0.532127208016133D+02 -.635683622492001D+01 0.154227086322268D+02 0.505304299087731D+02
0.903537587821D-07 0.000000000000D+00 0.000000000000D+00 0.787636233146D-06 0.000000000000D+00  6 -1 22 9900012 -11 -2 21 0 0.50415951D-02 0.27222980D-01 0.27383488D+04 0.27383488D+04 0.27383488D+04 0.12724088D+01  1  2  2  1  6  1       -1 0.131174595680D-04 0.100000000000D+01
0.719569075932D-08 0.000000000000D+00 -.173491112207D-09 0.787636233146D-06 0.000000000000D+00  6 -1 22 9900012 -11 -2 21 2 0.50415951D-02 0.27222980D-01 0.27383488D+04 0.27383488D+04 0.27383488D+04 0.12724088D+01  1  2  3  1  6  1       -1 0.169133370340D-05 0.100000000000D+01
0.199456133670D-09 0.000000000000D+00 0.000000000000D+00 0.787636233146D-06 0.000000000000D+00  6 -1 22 9900012 -11 -2 21 2 0.50415951D-02 0.27222980D-01 0.27383488D+04 0.27383488D+04 0.27383488D+04 0.12724088D+01  1  2 15  1  6  1       -1 0.468817925214D-07 0.100000000000D+01
-.141419714253D-08 0.000000000000D+00 0.000000000000D+00 0.787636233146D-06 0.000000000000D+00  6 -1 22 9900012 -11 -2 21 2 0.50415951D-02 0.27222980D-01 0.27383488D+04 0.27383488D+04 0.27383488D+04 0.12724088D+01  1  2  4  1  6  1       -1 -.332404402916D-06 0.100000000000D+01
-.549321593829D-07 0.000000000000D+00 -.317298799646D-07 0.787636233146D-06 0.000000000000D+00  6 -1 22 9900012 -11 -2 21 2 0.72791272D-02 0.27222980D-01 0.27383488D+04 0.27383488D+04 0.27383488D+04 0.12724088D+01  1  2  5  1  6  1       -1 -.763475474378D-05 0.100000000000D+01
0.642310007165D-07 0.000000000000D+00 0.297037269233D-07 0.787636233146D-06 0.000000000000D+00  6 -1 22 9900012 -11 -2 21 2 0.50415951D-02 0.27222980D-01 0.27383488D+04 0.27383488D+04 0.27383488D+04 0.12724088D+01  1  2  6  1  6  1       -1 0.150973770203D-04 0.100000000000D+01
-.149528742613D-08 0.000000000000D+00 -.141930106550D-08 0.787636233146D-06 0.000000000000D+00  6 21 22 9900012 -11 1 -2 2 0.72791272D-02 0.27222980D-01 0.27383488D+04 0.27383488D+04 0.27383488D+04 0.12724088D+01  3  4  5  3  5  1       -1 -.316767443880D-05 0.100000000000D+01
  </mgrwgt>
  </event>
  <event>
  7     66 0.11307692E-05 0.13566333E+02 0.78161638E-02 0.13275676E+00
       -1 -1    0    0    0  502 0.00000000E+00 0.00000000E+00 0.64833315E+01 0.64833315E+01 0.00000000E+00 0.0000E+00 0.9000E+01
       22 -1    0    0    0    0 0.00000000E+00 0.00000000E+00 -.50846749E+03 0.50846749E+03 0.00000000E+00 0.0000E+00 0.9000E+01
       24  2    1    2    0    0 -.13528046E+02 0.38645416E+00 -.39772957E+03 0.40542270E+03 0.77431285E+02 0.0000E+00 0.0000E+00
  9900012  1    3    3    0    0 -.82194947E+01 -.18777750E+02 -.34218590E+03 0.34642655E+03 0.50000000E+02 0.0000E+00 0.9000E+01
      -11  1    3    3    0    0 -.53085512E+01 0.19164204E+02 -.55543667E+02 0.58996155E+02 0.00000000E+00 0.0000E+00 0.9000E+01
       -2  1    1    2    0  501 -.65830105E-01 0.10622588E-01 -.89355448E+02 0.89355473E+02 0.00000000E+00 0.0000E+00 0.9000E+01
       21  1    1    2  501  502 0.13593876E+02 -.39707675E+00 -.14899149E+02 0.20172649E+02 0.00000000E+00 0.0000E+00 0.9000E+01
#aMCatNLO 2  0  0  1  5 0.39513357D+01 0.00000000D+00  -5  6  0 0.00000000D+00 0.00000000D+00 0.00000000D+00 0.00000000D+00 0.00000000D+00
  <mgrwgt>
 0.2383538086D+00    1    2    0
 0.429205146722852D+02 0.000000000000000D+00 0.000000000000000D+00 0.429205146722852D+02
 0.429205146722852D+02 0.000000000000000D+00 0.000000000000000D+00 -.429205146722852D+02
 0.538949043228268D+02 0.304637325711796D+00 -.190267394054574D+02 -.652312008652699D+01
 0.239483269062296D+02 -.149055927868338D+01 0.190526804611111D+02 0.144324620869471D+02
 0.799779811551393D+01 0.118592195297158D+01 -.259410556537395D-01 -.790934200042012D+01
 0.000000000000000D+00 0.000000000000000D+00 -.000000000000000D+00 0.000000000000000D+00
 0.732438653698161D+02 0.000000000000000D+00 0.000000000000000D+00 0.732438653698161D+02
 0.450080470414211D+02 0.000000000000000D+00 0.000000000000000D+00 -.450080470414211D+02
 0.544308283455140D+02 -.821949471806218D+01 -.187777497399263D+02 -.652312008652699D+01
 0.245711902183271D+02 -.530855118588927D+01 0.191642039010454D+02 0.144324620869471D+02
 0.790962308341433D+01 -.658301047850784D-01 0.106225879627680D-01 -.790934200042012D+01
 0.313402707639818D+02 0.135938760087365D+02 -.397076749081771D+00 0.282358183283950D+02
0.612056893725D-03 0.000000000000D+00 0.000000000000D+00 0.335139385672D-05 0.547652084337D-04  6 -1 22 9900012 -11 -2 21 2 0.99743562D-03 0.78225768D-01 0.19180352D+04 0.19180352D+04 0.19180352D+04 0.12916155D+01  1  2  1  1  6  1       -1 0.238353808634D+00 0.100000000000D+01
  </mgrwgt>
  </event>
  <event>
  6     66 -.11307692E-05 0.59037569E+02 0.78161638E-02 0.11732517E+00
       -1 -1    0    0    0  501 0.00000000E+00 0.00000000E+00 0.36006378E+02 0.36006378E+02 0.00000000E+00 0.0000E+00 0.9000E+01
       22 -1    0    0    0    0 0.00000000E+00 0.00000000E+00 -.29973967E+03 0.29973967E+03 0.00000000E+00 0.0000E+00 0.9000E+01
       24  2    1    2    0    0 -.68213525E+02 0.41860935E+02 -.21172665E+03 0.24029914E+03 0.80685046E+02 0.0000E+00 0.0000E+00
  9900012  1    3    3    0    0 -.24310129E+02 0.13629112E+02 -.78035118E+02 0.96779206E+02 0.50000000E+02 0.0000E+00 0.9000E+01
      -11  1    3    3    0    0 -.43903396E+02 0.28231823E+02 -.13369153E+03 0.14351993E+03 0.00000000E+00 0.0000E+00 0.9000E+01
       -2  1    1    2    0  501 0.68213525E+02 -.41860935E+02 -.52006644E+02 0.95446916E+02 0.00000000E+00 0.0000E+00 0.9000E+01
#aMCatNLO 1  0  0  1  5 0.39513357D+01 0.00000000D+00  -5  6  0 0.00000000D+00 0.00000000D+00 0.00000000D+00 0.00000000D+00 0.00000000D+00
  <mgrwgt>
 -.2598356412D-05    1    2    0
 0.103887150567461D+03 0.000000000000000D+00 0.000000000000000D+00 0.103887150567461D+03
 0.103887150567461D+03 0.000000000000000D+00 0.000000000000000D+00 -.103887150567461D+03
 0.573351824280731D+02 -.243101286561673D+02 0.136291123499231D+02 -.325393382449392D+01
 0.622181901382774D+02 -.439033962715552D+02 0.282318225179137D+02 -.338608797467322D+02
 0.882209285685724D+02 0.682135249277225D+02 -.418609348678368D+02 0.371148135712261D+02
 0.000000000000000D+00 0.000000000000000D+00 0.000000000000000D+00 -.000000000000000D+00
 0.109488505448144D+03 0.000000000000000D+00 0.000000000000000D+00 0.109488505448144D+03
 0.112905891179383D+03 0.000000000000000D+00 0.000000000000000D+00 -.112905891179383D+03
 0.585500531498603D+02 -.277947045602586D+02 0.120405579989140D+02 -.325393382449392D+01
 0.642225479987727D+02 -.477053676548000D+02 0.264985733795683D+02 -.338608797467322D+02
 0.854560025002945D+02 0.629911991838005D+02 -.442416975520858D+02 0.371148135712261D+02
 0.141657929785996D+02 0.125088730312581D+02 0.570256617360345D+01 -.341738573123949D+01
-.280760506904D-07 0.000000000000D+00 0.000000000000D+00 0.467912678898D-06 0.000000000000D+00  6 -1 22 9900012 -11 -2 21 2 0.55394428D-02 0.46113796D-01 0.89750824D+04 0.89750824D+04 0.89750824D+04 0.12142288D+01  1  2 14  1  6  1       -1 -.259835641179D-05 0.100000000000D+01
  </mgrwgt>
  </event>
  <event>
  6     66 0.11307692E-05 0.16030613E+02 0.78161638E-02 0.12887447E+00
       -3 -1    0    0    0  501 0.00000000E+00 0.00000000E+00 0.22318092E+01 0.22318092E+01 0.00000000E+00 0.0000E+00 0.9000E+01
       22 -1    0    0    0    0 -.00000000E+00 -.00000000E+00 -.16374661E+04 0.16374661E+04 0.00000000E+00 0.0000E+00 0.9000E+01
       24  2    1    2    0    0 0.49825563E+01 0.18011648E+02 -.78981806E+03 0.79407516E+03 0.79959569E+02 0.0000E+00 0.0000E+00
  9900012  1    3    3    0    0 0.97125092E+01 0.33213591E+02 -.71505112E+03 0.71763192E+03 0.50000000E+02 0.0000E+00 0.9000E+01
      -11  1    3    3    0    0 -.47299529E+01 -.15201944E+02 -.74766944E+02 0.76443231E+02 0.00000000E+00 0.0000E+00 0.9000E+01
       -4  1    1    2    0  501 -.49825563E+01 -.18011648E+02 -.84541621E+03 0.84562274E+03 0.00000000E+00 0.0000E+00 0.9000E+01
#aMCatNLO 1  0  0  5  1 0.10252936D+02 0.00000000D+00  -5  6  0 0.00000000D+00 0.00000000D+00 0.00000000D+00 0.00000000D+00 0.00000000D+00
  <mgrwgt>
 0.4790819451D-04    5    2    0
 0.604525585712540D+02 0.000000000000000D+00 0.000000000000000D+00 0.604525585712540D+02
 0.604525585712540D+02 -.000000000000000D+00 -.000000000000000D+00 -.604525585712540D+02
 0.613990203477235D+02 0.971250918234938D+01 0.332135914914219D+02 0.850671530521011D+01
 0.254938281694748D+02 -.472995290248964D+01 -.152019438216828D+02 0.199113968449563D+02
 0.340122686253096D+02 -.498255627985974D+01 -.180116476697391D+02 -.284181121501664D+02
 0.000000000000000D+00 0.000000000000000D+00 0.000000000000000D+00 0.000000000000000D+00
 0.604525585712540D+02 0.000000000000000D+00 0.000000000000000D+00 0.604525585712540D+02
 0.604525585712540D+02 -.000000000000000D+00 -.000000000000000D+00 -.604525585712540D+02
 0.595773254464128D+02 0.903439648778589D+01 0.307622540154710D+02 0.463908561431191D+01
 0.249636611660674D+02 -.501278392891573D+01 -.162243613342856D+02 0.182982642726234D+02
 0.890001691280284D+01 -.453162775216482D+01 0.602135969993751D+01 -.473475219287712D+01
 0.274641136172248D+02 0.510015193294660D+00 -.205592523811229D+02 -.182025976940582D+02
0.876603943526D-06 0.000000000000D+00 0.000000000000D+00 0.376178186888D-06 0.000000000000D+00  6 -3 22 9900012 -11 -4 21 0 0.34335526D-03 0.25191786D+00 0.22760421D+04 0.22760421D+04 0.22760421D+04 0.12822721D+01  1  2  2  2  6  5       -4 0.653478299949D-04 0.100000000000D+01
-.458877843424D-07 0.000000000000D+00 -.168319497913D-08 0.376178186888D-06 0.000000000000D+00  6 -3 22 9900012 -11 -4 21 2 0.34335526D-03 0.25191786D+00 0.22760421D+04 0.22760421D+04 0.22760421D+04 0.12822721D+01  1  2  3  2  6  5       -4 -.562451732100D-05 0.100000000000D+01
0.445829186221D-07 0.000000000000D+00 0.000000000000D+00 0.376178186888D-06 0.000000000000D+00  6 -3 22 9900012 -11 -4 21 2 0.34335526D-03 0.25191786D+00 0.22760421D+04 0.22760421D+04 0.22760421D+04 0.12822721D+01  1  2 15  2  6  5       -4 0.546457846253D-05 0.100000000000D+01
0.135550024602D-06 0.000000000000D+00 0.000000000000D+00 0.376178186888D-06 0.000000000000D+00  6 -3 22 9900012 -11 -4 21 2 0.34335526D-03 0.25191786D+00 0.27289754D+04 0.27289754D+04 0.27289754D+04 0.12725896D+01  1  2 12  2  6  5       -4 0.168194279854D-04 0.100000000000D+01
-.278198676843D-06 0.000000000000D+00 0.000000000000D+00 0.376178186888D-06 0.000000000000D+00  6 -3 22 9900012 -11 -4 21 2 0.34335526D-03 0.25191786D+00 0.22760421D+04 0.22760421D+04 0.22760421D+04 0.12822721D+01  1  2  4  2  6  5       -4 -.340991246146D-04 0.100000000000D+01
  </mgrwgt>
  </event>
  <event>
  7     66 0.11307692E-05 0.10401449E+02 0.78161638E-02 0.13445007E+00
       -3 -1    0    0    0  502 0.00000000E+00 0.00000000E+00 0.56069522E+02 0.56069522E+02 0.00000000E+00 0.0000E+00 0.9000E+01
       22 -1    0    0    0    0 0.00000000E+00 0.00000000E+00 -.51890901E+03 0.51890901E+03 0.00000000E+00 0.0000E+00 0.9000E+01
       24  2    1    2    0    0 0.99823532E+01 -.62395386E+01 -.46415272E+02 0.93811018E+02 0.80669390E+02 0.0000E+00 0.0000E+00
  9900012  1    3    3    0    0 0.23355379E+02 -.37074878E+01 -.54771073E+02 0.77840154E+02 0.50000000E+02 0.0000E+00 0.9000E+01
      -11  1    3    3    0    0 -.13373025E+02 -.25320508E+01 0.83558012E+01 0.15970864E+02 0.00000000E+00 0.0000E+00 0.9000E+01
       -4  1    1    2    0  501 -.22663794E-01 0.13698262E+01 -.44784558E+03 0.44784767E+03 0.00000000E+00 0.0000E+00 0.9000E+01
       21  1    1    2  501  502 -.99596894E+01 0.48697124E+01 0.31421364E+02 0.33319838E+02 0.00000000E+00 0.0000E+00 0.9000E+01
#aMCatNLO 2  0  0  1  1 0.37669374D+02 0.00000000D+00  -5  6  0 0.00000000D+00 0.00000000D+00 0.00000000D+00 0.00000000D+00 0.00000000D+00
  <mgrwgt>
 0.1272406770D-01    1    2    0
 0.110654237628651D+03 0.000000000000000D+00 0.000000000000000D+00 0.110654237628651D+03
 0.110654237628651D+03 0.000000000000000D+00 0.000000000000000D+00 -.110654237628651D+03
 0.670599366004704D+02 0.203157771829495D+02 -.222129844722215D+01 0.397412899579295D+02
 0.582967439747810D+02 -.159810402509150D+02 -.125688227918590D+01 0.560494153180572D+02
 0.959517946820509D+02 -.433473693203449D+01 0.347818072640806D+01 -.957907052759867D+02
 0.000000000000000D+00 -.000000000000000D+00 0.000000000000000D+00 0.000000000000000D+00
 0.262126291953540D+03 0.000000000000000D+00 0.000000000000000D+00 0.262126291953540D+03
 0.110996039137198D+03 0.000000000000000D+00 0.000000000000000D+00 -.110996039137198D+03
 0.681071897707700D+02 0.233553785086371D+02 -.370748778416598D+01 0.397412899579295D+02
 0.576782978577323D+02 -.133730252670603D+02 -.253205084383898D+01 0.560494153180572D+02
 0.958005018505810D+02 -.226637941961076D-01 0.136982623155417D+01 -.957907052759867D+02
 0.151536341611654D+03 -.995968944738076D+01 0.486971239645080D+01 0.151130252816342D+03
0.830361054450D-03 0.000000000000D+00 0.000000000000D+00 0.304835614900D-04 0.559038133837D-04  6 -3 22 9900012 -11 -4 21 2 0.86260804D-02 0.79832155D-01 0.16555663D+04 0.16555663D+04 0.16555663D+04 0.12998267D+01  1  2  1  1  6  1       -3 0.127240676965D-01 0.100000000000D+01
  </mgrwgt>
  </event>
  <event>
  7     66 0.11307692E-05 0.11107734E+02 0.78161638E-02 0.13234388E+00
       -1 -1    0    0    0  501 0.00000000E+00 0.00000000E+00 0.16522068E+02 0.16522068E+02 0.00000000E+00 0.0000E+00 0.9000E+01
       22 -1    0    0    0    0 -.00000000E+00 -.00000000E+00 -.14472945E+03 0.14472945E+03 0.00000000E+00 0.0000E+00 0.9000E+01
       24  2    1    2    0    0 -.43115852E+01 0.10237825E+02 -.94492429E+02 0.12402886E+03 0.79567178E+02 0.0000E+00 0.0000E+00
  9900012  1    3    3    0    0 -.16055650E+02 0.25832499E+02 -.82387148E+02 0.10105812E+03 0.50000000E+02 0.0000E+00 0.9000E+01
      -11  1    3    3    0    0 0.11744065E+02 -.15594674E+02 -.12105281E+02 0.22970737E+02 0.00000000E+00 0.0000E+00 0.9000E+01
       -2  1    1    2    0  502 0.20537268E-01 0.25229313E-01 -.17829856E+02 0.17829886E+02 0.00000000E+00 0.0000E+00 0.9000E+01
       21  1    1    2  502  501 0.42910479E+01 -.10263054E+02 -.15885094E+02 0.19392772E+02 0.00000000E+00 0.0000E+00 0.9000E+01
#aMCatNLO 2  0  0  5  1 0.53444287D+01 0.00000000D+00  -5  6  0 0.00000000D+00 0.00000000D+00 0.00000000D+00 0.00000000D+00 0.00000000D+00
  <mgrwgt>
 0.4372742492D-01    2    2    0
 0.489002028321916D+02 0.000000000000000D+00 0.000000000000000D+00 0.489002028321916D+02
 0.489002028321916D+02 -.000000000000000D+00 -.000000000000000D+00 -.489002028321916D+02
 0.597124370762112D+02 -.169057793330948D+02 0.278511238896815D+02 -.202105536856379D+01
 0.215543790285367D+02 0.114311270097990D+02 -.148516052314271D+02 0.106466150790528D+02
 0.165335895596354D+02 0.547465232329586D+01 -.129995186582544D+02 -.862555971048897D+01
 0.000000000000000D+00 0.000000000000000D+00 -.000000000000000D+00 0.000000000000000D+00
 0.489002028321916D+02 0.000000000000000D+00 0.000000000000000D+00 0.489002028321916D+02
 0.489002028321916D+02 -.000000000000000D+00 -.000000000000000D+00 -.489002028321916D+02
 0.586207698971782D+02 -.160556500966842D+02 0.258324987390722D+02 -.336047202139652D+01
 0.220048140606237D+02 0.117440648951710D+02 -.155946737661099D+02 0.101535674375678D+02
 0.602427963869205D+01 0.205372683256935D-01 0.252293129218342D-01 -.602419180202115D+01
 0.111505420678894D+02 0.429104793318751D+01 -.102630542858842D+02 -.768903614150157D+00
-.730503890404D-09 0.000000000000D+00 0.000000000000D+00 0.277684260653D-06 0.000000000000D+00  6 -1 22 9900012 -11 -2 21 2 0.25418567D-02 0.22266069D-01 0.19892990D+04 0.19892990D+04 0.19892990D+04 0.12896055D+01  1  2 13  2  6  5       -2 -.598743940452D-06 0.100000000000D+01
0.533508387267D-04 0.000000000000D+00 0.000000000000D+00 0.277684260653D-06 0.123621430079D-02  6 -1 22 9900012 -11 -2 21 2 0.25418567D-02 0.22266069D-01 0.19892990D+04 0.19892990D+04 0.19892990D+04 0.12896055D+01  1  2  1  2  6  5       -2 0.437280236632D-01 0.100000000000D+01
  </mgrwgt>
  </event>
  <event>
  7     66 0.11307692E-05 0.12989244E+02 0.78161638E-02 0.13261409E+00
       21 -1    0    0  502  501 0.00000000E+00 0.00000000E+00 0.13161038E+02 0.13161038E+02 0.00000000E+00 0.0000E+00 0.9000E+01
       22 -1    0    0    0    0 0.00000000E+00 0.00000000E+00 -.90130282E+03 0.90130282E+03 0.00000000E+00 0.0000E+00 0.9000E+01
       24  2    1    2    0    0 -.32226352E+01 -.14701236E+02 -.83562746E+03 0.83963245E+03 0.80516306E+02 0.0000E+00 0.0000E+00
  9900012  1    3    3    0    0 -.14084313E+02 -.25242111E+02 -.77482426E+03 0.77697372E+03 0.50000000E+02 0.0000E+00 0.9000E+01
      -11  1    3    3    0    0 0.10861678E+02 0.10540875E+02 -.60803203E+02 0.62658723E+02 0.00000000E+00 0.0000E+00 0.9000E+01
        1  1    1    2  502    0 0.36450521E+01 0.13251901E+02 0.69131559E+01 0.15384765E+02 0.00000000E+00 0.0000E+00 0.9000E+01
       -2  1    1    2    0  501 -.42241686E+00 0.14493352E+01 -.59427478E+02 0.59446649E+02 0.00000000E+00 0.0000E+00 0.9000E+01
#aMCatNLO 2  0  0  1  5 0.27386835D+02 0.00000000D+00  -5  6  0 0.00000000D+00 0.00000000D+00 0.00000000D+00 0.00000000D+00 0.00000000D+00
  <mgrwgt>
 0.1781875354D-01    1    2    0
 0.419254496007652D+02 0.000000000000000D+00 0.000000000000000D+00 0.419254496007652D+02
 0.419254496007652D+02 0.000000000000000D+00 0.000000000000000D+00 -.419254496007652D+02
 0.556309550628422D+02 -.115998007385086D+02 -.162094527683129D+02 -.140535200210728D+02
 0.249516564562388D+02 0.118865031733189D+02 0.142667160826667D+02 0.166660437548155D+02
 0.000000000000000D+00 0.000000000000000D+00 0.000000000000000D+00 0.000000000000000D+00
 0.326828768244943D+01 -.286702434810229D+00 0.194273668564617D+01 -.261252373374272D+01
 0.277894694318233D+03 0.000000000000000D+00 0.000000000000000D+00 0.277894694318233D+03
 0.426855235164172D+02 0.000000000000000D+00 0.000000000000000D+00 -.426855235164172D+02
 0.594393257460947D+02 -.140843129007542D+02 -.252421106542481D+02 -.140535200210728D+02
 0.225131761452769D+02 0.108616777097118D+02 0.105408748707681D+02 0.166660437548155D+02
 0.235610384539074D+03 0.364505205149106D+01 0.132519005774506D+02 0.235209170801816D+03
 0.301733140420415D+01 -.422416860448625D+00 0.144933520602940D+01 -.261252373374272D+01
0.206264302180D-04 0.000000000000D+00 0.000000000000D+00 0.365476784018D-05 0.276748404321D-06  6 21 22 9900012 -11 1 -2 2 0.20247750D-02 0.13866197D+00 0.19423128D+04 0.19423128D+04 0.19423128D+04 0.12909213D+01  1  2  1  3  5  1       -1 0.178187535354D-01 0.100000000000D+01
  </mgrwgt>
  </event>
  <event>
  7     66 0.11307692E-05 0.35313173E+02 0.78161638E-02 0.12549672E+00
       21 -1    0    0  502  501 0.00000000E+00 0.00000000E+00 0.10795511E+02 0.10795511E+02 0.00000000E+00 0.0000E+00 0.9000E+01
       22 -1    0    0    0    0 0.00000000E+00 0.00000000E+00 -.55065239E+03 0.55065239E+03 0.00000000E+00 0.0000E+00 0.9000E+01
       24  2    1    2    0    0 0.35850983E+02 -.50146217E+01 -.43315700E+03 0.44205217E+03 0.80465486E+02 0.0000E+00 0.0000E+00
  9900012  1    3    3    0    0 0.11424813E+02 -.23128319E+02 -.23933210E+03 0.24585626E+03 0.50000000E+02 0.0000E+00 0.9000E+01
      -11  1    3    3    0    0 0.24426170E+02 0.18113698E+02 -.19382490E+03 0.19619591E+03 0.00000000E+00 0.0000E+00 0.9000E+01
        1  1    1    2  502    0 -.35307019E+02 0.47237047E+01 -.43638435E+02 0.56331270E+02 0.00000000E+00 0.0000E+00 0.9000E+01
       -2  1    1    2    0  501 -.54396349E+00 0.29091697E+00 -.63061451E+02 0.63064468E+02 0.00000000E+00 0.0000E+00 0.9000E+01
#aMCatNLO 2  0  0  1  5 0.90233517D+01 0.00000000D+00  -5  6  0 0.00000000D+00 0.00000000D+00 0.00000000D+00 0.00000000D+00 0.00000000D+00
  <mgrwgt>
 0.7675117056D-03    1    2    0
 0.437068856613677D+02 0.000000000000000D+00 0.000000000000000D+00 0.437068856613677D+02
 0.437068856613677D+02 0.000000000000000D+00 0.000000000000000D+00 -.437068856613677D+02
 0.561977239171240D+02 -.106501653261980D+02 -.201749214874129D+02 0.117358721434183D+02
 0.245439126837960D+02 0.136474483349545D+02 0.195557763834380D+02 -.580710029322040D+01
 0.000000000000000D+00 -.000000000000000D+00 0.000000000000000D+00 0.000000000000000D+00
 0.667213472181542D+01 -.299728300875648D+01 0.619145103974947D+00 -.592877185019785D+01
 0.114520217381622D+03 0.000000000000000D+00 0.000000000000000D+00 0.114520217381622D+03
 0.519085108303940D+02 0.000000000000000D+00 0.000000000000000D+00 -.519085108303940D+02
 0.574732651607802D+02 0.114248129992482D+02 -.231283194635257D+02 0.117358721434183D+02
 0.309591057977383D+02 0.244261698004377D+02 0.181136977688218D+02 -.580710029322040D+01
 0.720355800716011D+02 -.353070193118020D+02 0.472370472309140D+01 0.626117065512285D+02
 0.596077718189680D+01 -.543963487883878D+00 0.290916971612483D+00 -.592877185019785D+01
0.243023143757D-06 0.000000000000D+00 0.000000000000D+00 0.839793349862D-06 0.217674944698D-07  6 21 22 9900012 -11 1 -2 2 0.16608478D-02 0.84715753D-01 0.37767399D+04 0.37767399D+04 0.37767399D+04 0.12558018D+01  1  2  1  3  5  1       -1 0.767511705649D-03 0.100000000000D+01
  </mgrwgt>
  </event>
  <event>
  7     66 0.11307692E-05 0.11653594E+02 0.78161638E-02 0.13559640E+00
       -1 -1    0    0    0  502 0.00000000E+00 0.00000000E+00 0.17867971E+03 0.17867971E+03 0.00000000E+00 0.0000E+00 0.9000E+01
       22 -1    0    0    0    0 0.00000000E+00 0.00000000E+00 -.23261170E+02 0.23261170E+02 0.00000000E+00 0.0000E+00 0.9000E+01
       24  2    1    2    0    0 0.61418808E+01 0.79042755E+01 0.82062851E+02 0.11452741E+03 0.79259169E+02 0.0000E+00 0.0000E+00
  9900012  1    3    3    0    0 0.56180727E+01 -.25985817E+01 0.24520158E+02 0.56031719E+02 0.50000000E+02 0.0000E+00 0.9000E+01
      -11  1    3    3    0    0 0.52380807E+00 0.10502857E+02 0.57542692E+02 0.58495691E+02 0.00000000E+00 0.0000E+00 0.9000E+01
       -2  1    1    2    0  501 0.22191501E+01 0.24447024E+01 -.60546255E+01 0.68963531E+01 0.00000000E+00 0.0000E+00 0.9000E+01
       21  1    1    2  501  502 -.83610308E+01 -.10348978E+02 0.79410317E+02 0.80517120E+02 0.00000000E+00 0.0000E+00 0.9000E+01
#aMCatNLO 2  0  0  1  1 0.14304897D+03 0.00000000D+00  -5  6  0 0.00000000D+00 0.00000000D+00 0.00000000D+00 0.00000000D+00 0.00000000D+00
  <mgrwgt>
 0.1324028014D-04    1    2    0
 0.468760912252919D+02 0.000000000000000D+00 0.000000000000000D+00 0.468760912252919D+02
 0.468760912252919D+02 0.000000000000000D+00 0.000000000000000D+00 -.468760912252919D+02
 0.524763062053677D+02 0.975132664198460D+00 -.834544290799146D+01 -.135338616778871D+02
 0.279030896448088D+02 -.199294934670989D+01 0.738770698089271D+01 0.268334185334660D+02
 0.133727866004072D+02 0.101781668251143D+01 0.957735927098758D+00 -.132995568555789D+02
 0.000000000000000D+00 -.000000000000000D+00 -.000000000000000D+00 0.000000000000000D+00
 0.856976113834414D+02 0.000000000000000D+00 0.000000000000000D+00 0.856976113834414D+02
 0.484995927282174D+02 0.000000000000000D+00 0.000000000000000D+00 -.484995927282174D+02
 0.521678136348961D+02 0.561807270420487D+01 -.259858165531451D+01 -.135338616778871D+02
 0.288204221744373D+02 0.523808065339372D+00 0.105028571937034D+02 0.268334185334660D+02
 0.137032627281960D+02 0.221915005647316D+01 0.244470240930188D+01 -.132995568555789D+02
 0.395057055741294D+02 -.836103082601740D+01 -.103489779476908D+02 0.371980186552240D+02
0.399692307474D-07 0.000000000000D+00 0.000000000000D+00 0.271276005576D-04 0.269536005875D-06  6 -1 22 9900012 -11 -2 21 2 0.27489187D-01 0.35786416D-02 0.15017077D+04 0.15017077D+04 0.15017077D+04 0.13053561D+01  1  2  1  1  6  1       -1 0.132402801351D-04 0.100000000000D+01
  </mgrwgt>
  </event>
  <event>
  6     66 0.11307692E-05 0.11429504E+02 0.78161638E-02 0.12036409E+00
       -3 -1    0    0    0  501 0.00000000E+00 0.00000000E+00 0.12171778E+02 0.12171778E+02 0.00000000E+00 0.0000E+00 0.9000E+01
       22 -1    0    0    0    0 -.00000000E+00 -.00000000E+00 -.59257158E+03 0.59257158E+03 0.00000000E+00 0.0000E+00 0.9000E+01
       24  2    1    2    0    0 -.29639675E+01 0.11038499E+02 -.11507547E+03 0.13927868E+03 0.77624435E+02 0.0000E+00 0.0000E+00
  9900012  1    3    3    0    0 -.19097704E+01 0.30065355E+02 -.95729130E+02 0.11212332E+03 0.50000000E+02 0.0000E+00 0.9000E+01
      -11  1    3    3    0    0 -.10541971E+01 -.19026855E+02 -.19346337E+02 0.27155355E+02 0.00000000E+00 0.0000E+00 0.9000E+01
       -4  1    1    2    0  501 0.29639675E+01 -.11038499E+02 -.46532433E+03 0.46546468E+03 0.00000000E+00 0.0000E+00 0.9000E+01
#aMCatNLO 1  0  0  5  1 0.33637824D+01 0.00000000D+00  -5  6  0 0.00000000D+00 0.00000000D+00 0.00000000D+00 0.00000000D+00 0.00000000D+00
  <mgrwgt>
 0.6157046381D-05    3    2    0
 0.849273205856737D+02 0.000000000000000D+00 0.000000000000000D+00 0.849273205856737D+02
 0.849273205856737D+02 -.000000000000000D+00 -.000000000000000D+00 -.849273205856737D+02
 0.720890839545579D+02 -.190977041849804D+01 0.300653545094574D+02 0.422996839299843D+02
 0.305756176129193D+02 -.105419707151692D+01 -.190268554701904D+02 0.239109981360535D+02
 0.671899396038701D+02 0.296396749001496D+01 -.110384990392670D+02 -.662106820660379D+02
 0.000000000000000D+00 0.000000000000000D+00 0.000000000000000D+00 0.000000000000000D+00
 0.849273205856737D+02 0.000000000000000D+00 0.000000000000000D+00 0.849273205856737D+02
 0.849273205856737D+02 -.000000000000000D+00 -.000000000000000D+00 -.849273205856737D+02
 0.558847511813173D+02 -.307384986447495D+00 0.240977013176418D+02 0.650474598071073D+01
 0.232872004274452D+02 -.379770186791366D+00 -.215385768518110D+02 0.884529171660607D+01
 0.469529553164216D+02 0.589336866165050D+00 0.402832728597418D+02 -.241141166686996D+02
 0.437297342461633D+02 0.978183070738041D-01 -.428423973255726D+02 0.876407897138280D+01
0.888528056274D-07 0.000000000000D+00 0.000000000000D+00 0.387290303552D-06 0.000000000000D+00  6 -3 22 9900012 -11 -4 21 0 0.18725813D-02 0.91164858D-01 0.19740231D+04 0.19740231D+04 0.19740231D+04 0.12900293D+01  1  2  2  2  6  5       -4 0.608326137276D-05 0.100000000000D+01
-.450323874480D-08 0.000000000000D+00 -.170609084545D-09 0.387290303552D-06 0.000000000000D+00  6 -3 22 9900012 -11 -4 21 2 0.18725813D-02 0.91164858D-01 0.19740231D+04 0.19740231D+04 0.19740231D+04 0.12900293D+01  1  2  3  2  6  5       -4 -.513085194911D-06 0.100000000000D+01
0.515083394371D-08 0.000000000000D+00 0.000000000000D+00 0.387290303552D-06 0.000000000000D+00  6 -3 22 9900012 -11 -4 21 2 0.18725813D-02 0.91164858D-01 0.19740231D+04 0.19740231D+04 0.19740231D+04 0.12900293D+01  1  2 15  2  6  5       -4 0.586870203365D-06 0.100000000000D+01
  </mgrwgt>
  </event>
  <event>
  7     66 0.11307692E-05 0.23408044E+02 0.78161638E-02 0.13120852E+00
       21 -1    0    0  502  501 0.00000000E+00 0.00000000E+00 0.24522524E+01 0.24522524E+01 0.00000000E+00 0.0000E+00 0.9000E+01
       22 -1    0    0    0    0 0.00000000E+00 0.00000000E+00 -.23153566E+04 0.23153566E+04 0.00000000E+00 0.0000E+00 0.9000E+01
       24  2    1    2    0    0 -.19483972E+02 0.13097255E+02 -.12155458E+04 0.12183607E+04 0.79373188E+02 0.0000E+00 0.0000E+00
  9900012  1    3    3    0    0 -.23291399E+02 0.22948246E+02 -.11731182E+04 0.11746384E+04 0.50000000E+02 0.0000E+00 0.9000E+01
      -11  1    3    3    0    0 0.38074274E+01 -.98509914E+01 -.42427572E+02 0.43722276E+02 0.00000000E+00 0.0000E+00 0.9000E+01
        3  1    1    2  502    0 0.19415050E+02 -.13159123E+02 -.13058647E+03 0.13267604E+03 0.00000000E+00 0.0000E+00 0.9000E+01
       -4  1    1    2    0  501 0.68922034E-01 0.61868644E-01 -.96677211E+03 0.96677212E+03 0.00000000E+00 0.0000E+00 0.9000E+01
#aMCatNLO 2  0  0  1  5 0.69351434D+02 0.00000000D+00  -5  6  0 0.00000000D+00 0.00000000D+00 0.00000000D+00 0.00000000D+00 0.00000000D+00
  <mgrwgt>
 0.3535147960D-01    1    2    0
 0.541847818512296D+02 0.000000000000000D+00 0.000000000000000D+00 0.541847818512296D+02
 0.541847818512296D+02 0.000000000000000D+00 0.000000000000000D+00 -.541847818512296D+02
 0.541660425377024D+02 -.132045007393056D+02 0.161115526762357D+02 0.138545237199487D+00
 0.290864162680732D+02 0.873794616968490D+01 -.131927960311120D+02 0.244052871512876D+02
 0.000000000000000D+00 0.000000000000000D+00 -.000000000000000D+00 0.000000000000000D+00
 0.251171048966834D+02 0.446655456962072D+01 -.291875664512372D+01 -.245438323884870D+02
 0.965929361282771D+02 0.000000000000000D+00 0.000000000000000D+00 0.965929361282771D+02
 0.587810989666042D+02 0.000000000000000D+00 0.000000000000000D+00 -.587810989666042D+02
 0.597421999971010D+02 -.232913991777682D+02 0.229482459036137D+02 0.138545237199487D+00
 0.265924157595783D+02 0.380742743515575D+01 -.985099138764678D+01 0.244052871512876D+02
 0.444954122022427D+02 0.194150497083311D+02 -.131591231596049D+02 0.378118371616730D+02
 0.245440071359593D+02 0.689220342813526D-01 0.618686436379350D-01 -.245438323884870D+02
0.463792793790D-04 0.000000000000D+00 0.000000000000D+00 0.297030102917D-05 0.142881534238D-04  6 21 22 9900012 -11 3 -4 2 0.37726960D-03 0.35620871D+00 0.22019646D+04 0.22019646D+04 0.22019646D+04 0.12840619D+01  1  2  1  3  5  1       -3 0.353514796018D-01 0.100000000000D+01
  </mgrwgt>
  </event>
  <event>
  6     66 0.11307692E-05 0.13519135E+02 0.78161638E-02 0.12670698E+00
       -1 -1    0    0    0  502 0.00000000E+00 0.00000000E+00 0.21076429E+02 0.21076429E+02 0.00000000E+00 0.0000E+00 0.9000E+01
       22 -1    0    0    0    0 0.00000000E+00 0.00000000E+00 -.89376118E+03 0.89376118E+03 0.00000000E+00 0.0000E+00 0.9000E+01
  9900012  1    1    2    0    0 -.34634180E+02 0.31039308E+02 -.25813127E+03 0.26701071E+03 0.50000000E+02 0.0000E+00 0.9000E+01
      -11  1    1    2    0    0 0.25630843E+02 -.21182874E+02 -.16196160E+02 0.36986077E+02 0.00000000E+00 0.0000E+00 0.9000E+01
       -2  1    1    2    0  501 -.50872817E+00 0.11365546E+00 -.59699350E+03 0.59699373E+03 0.00000000E+00 0.0000E+00 0.9000E+01
       21  1    1    2  501  502 0.95120650E+01 -.99700894E+01 -.13638181E+01 0.13847096E+02 0.00000000E+00 0.0000E+00 0.9000E+01
#aMCatNLO 2  0  0  1  5 0.24205598D+02 0.00000000D+00  -5  6  0 0.00000000D+00 0.00000000D+00 0.00000000D+00 0.00000000D+00 0.00000000D+00
  <mgrwgt>
 0.3916114754D-01    1    2    0
 0.114448521418444D+03 0.000000000000000D+00 0.000000000000000D+00 0.114448521418444D+03
 0.114448521418444D+03 0.000000000000000D+00 0.000000000000000D+00 -.114448521418444D+03
 0.656191433690703D+02 -.318543937616473D+02 0.281256697914494D+02 0.340988784096659D+00
 0.859209367823672D+02 0.291537381039423D+02 -.248754033772959D+02 0.769004631906928D+02
 0.773569626854504D+02 0.270065565770498D+01 -.325026641415349D+01 -.772414519747894D+02
 0.000000000000000D+00 0.000000000000000D+00 -.000000000000000D+00 0.000000000000000D+00
 0.162896349875907D+03 0.000000000000000D+00 0.000000000000000D+00 0.162896349875907D+03
 0.115639757956873D+03 0.000000000000000D+00 0.000000000000000D+00 -.115639757956873D+03
 0.682867582041886D+02 -.346341799972359D+02 0.310393081205993D+02 0.340988784096659D+00
 0.837814747845001D+02 0.256308431286100D+02 -.211828741826817D+02 0.769004631906928D+02
 0.772432108672635D+02 -.508728166400256D+00 0.113655459819938D+00 -.772414519747894D+02
 0.492246639768271D+02 0.951206503502612D+01 -.997008939773760D+01 0.472565919190339D+02
0.150219744995D-02 0.000000000000D+00 0.000000000000D+00 0.398785513023D-07 0.131341177670D-06  6 -1 22 9900012 -11 -2 21 2 0.32425276D-02 0.13750172D+00 0.33546295D+04 0.33546295D+04 0.33546295D+04 0.12618426D+01  1  2  1  1  6  1       -1 0.391611475435D-01 0.100000000000D+01
  </mgrwgt>
  </event>
</LesHouchesEvents>
