<LesHouchesEvents version="3.0">
  <!--
  <scalesfunctionalform>
    muR  H_T/2 := sum_i mT(i)/2, i=final state
    muF1 H_T/2 := sum_i mT(i)/2, i=final state
    muF2 H_T/2 := sum_i mT(i)/2, i=final state
    QES  H_T/2 := sum_i mT(i)/2, i=final state
  </scalesfunctionalform>
PYTHIA8   
  -->
  <header>
       22
  </header>
  <init>
   2212   2212 0.65000000D+04 0.65000000D+04 -1 -1  82200  82200 -4   1
 0.26744008D-04 0.52424572D-06 0.15387852D-05     66
  </init>
  <event>
  6     66 0.15387852E-05 0.62808731E+01 0.78161638E-02 0.13648990E+00
        2 -1    0    0  501    0 0.00000000E+00 0.00000000E+00 0.15681572E+03 0.15681572E+03 0.00000000E+00 0.0000E+00 0.9000E+01
       22 -1    0    0    0    0 0.00000000E+00 0.00000000E+00 -.14479618E+02 0.14479618E+02 0.00000000E+00 0.0000E+00 0.9000E+01
       24  2    1    2    0    0 -.38395134E+01 -.49706643E+01 0.96654434E+02 0.12518391E+03 0.79306250E+02 0.0000E+00 0.0000E+00
  9900012  1    3    3    0    0 0.11934918E+02 0.13037690E+01 0.95131216E+02 0.10813922E+03 0.50000000E+02 0.0000E+00 0.9000E+01
      -13  1    3    3    0    0 -.15774431E+02 -.62744333E+01 0.15232180E+01 0.17044688E+02 0.00000000E+00 0.0000E+00 0.9000E+01
        1  1    1    2  501    0 0.38395134E+01 0.49706643E+01 0.45681665E+02 0.46111429E+02 0.00000000E+00 0.0000E+00 0.9000E+01
#aMCatNLO 1  0  0  5  1 0.88834622D+00 0.00000000D+00  -5  6  0 0.00000000D+00 0.00000000D+00 0.00000000D+00 0.00000000D+00 0.00000000D+00
  <mgrwgt>
 0.3379962994D-04    8    2    0
 0.476511451667807D+02 0.000000000000000D+00 0.000000000000000D+00 0.476511451667807D+02
 0.476511451667807D+02 -.000000000000000D+00 -.000000000000000D+00 -.476511451667807D+02
 0.522876965384236D+02 0.119349180005246D+02 0.130376901615679D+01 0.947951095613806D+01
 0.283609830500640D+02 -.157744314198017D+02 -.627443327639462D+01 -.227188063068478D+02
 0.146536107450737D+02 0.383951341927711D+01 0.497066426023784D+01 0.132392953507097D+02
 0.000000000000000D+00 0.000000000000000D+00 0.000000000000000D+00 0.000000000000000D+00
 0.476511451667807D+02 0.000000000000000D+00 0.000000000000000D+00 0.476511451667807D+02
 0.476511451667807D+02 -.000000000000000D+00 -.000000000000000D+00 -.476511451667807D+02
 0.523142779008318D+02 0.119647978665014D+02 0.134245172557674D+01 0.958254181643439D+01
 0.283026425487135D+02 -.157582452861485D+02 -.625347858050605D+01 -.226629937648356D+02
 0.226327547075356D+01 0.178112572484440D+00 0.445233192552874D-02 0.225625174676457D+01
 0.124220944132625D+02 0.361533484716267D+01 0.490657452300378D+01 0.108242002016366D+02
0.110254170207D-07 0.000000000000D+00 0.000000000000D+00 0.135027449434D-06 0.000000000000D+00  6 2 22 9900012 -13 1 21 0 0.24125495D-01 0.22276335D-02 0.13942228D+04 0.13942228D+04 0.13942228D+04 0.13096146D+01  1  2  2  2  6  5        1 0.924226881827D-05 0.100000000000D+01
0.156963472172D-08 0.000000000000D+00 -.211702522092D-10 0.135027449434D-06 0.000000000000D+00  6 2 22 9900012 -13 1 21 2 0.24125495D-01 0.22276335D-02 0.13942228D+04 0.13942228D+04 0.13942228D+04 0.13096146D+01  1  2  3  2  6  5        1 0.225667569675D-05 0.100000000000D+01
-.207941258902D-09 0.000000000000D+00 0.000000000000D+00 0.135027449434D-06 0.000000000000D+00  6 2 22 9900012 -13 1 21 2 0.24125495D-01 0.22276335D-02 0.13942228D+04 0.13942228D+04 0.13942228D+04 0.13096146D+01  1  2 15  2  6  5        1 -.298958718752D-06 0.100000000000D+01
0.378935319591D-13 0.000000000000D+00 0.000000000000D+00 0.135027449434D-06 0.000000000000D+00  6 2 22 9900012 -13 1 21 2 0.24125495D-01 0.22276335D-02 0.13933691D+04 0.13933691D+04 0.13933691D+04 0.13096499D+01  1  2 12  2  6  5        1 0.544785241711D-10 0.100000000000D+01
-.764091404794D-08 0.000000000000D+00 0.000000000000D+00 0.135027449434D-06 0.000000000000D+00  6 2 22 9900012 -13 1 21 2 0.24125495D-01 0.22276335D-02 0.13942228D+04 0.13942228D+04 0.13942228D+04 0.13096146D+01  1  2  4  2  6  5        1 -.109853998477D-04 0.100000000000D+01
-.113162707111D-07 0.000000000000D+00 0.000000000000D+00 0.135027449434D-06 0.000000000000D+00  6 2 22 9900012 -13 1 21 2 0.24125495D-01 0.22276335D-02 0.13942228D+04 0.13942228D+04 0.13942228D+04 0.13096146D+01  1  2  5  2  6  5        1 -.162694878866D-04 0.100000000000D+01
0.312339794090D-07 0.000000000000D+00 -.000000000000D+00 0.135027449434D-06 0.000000000000D+00  6 2 22 9900012 -13 1 21 2 0.24125495D-01 0.22276335D-02 0.13942228D+04 0.13942228D+04 0.13942228D+04 0.13096146D+01  1  2  6  2  6  5        1 0.449053281439D-04 0.100000000000D+01
0.344247111113D-08 0.000000000000D+00 0.000000000000D+00 0.135027449434D-06 0.372275940956D-07  6 2 22 9900012 -13 1 21 2 0.24125495D-01 0.22276335D-02 0.13933691D+04 0.13933691D+04 0.13933691D+04 0.13096499D+01  1  2 11  2  6  5        1 0.494914925952D-05 0.100000000000D+01
  </mgrwgt>
  </event>
  <event>
  6     66 -.15387852E-05 0.91606831E+01 0.78161638E-02 0.13200682E+00
        4 -1    0    0  501    0 0.00000000E+00 0.00000000E+00 0.25739279E+02 0.25739279E+02 0.00000000E+00 0.0000E+00 0.9000E+01
       22 -1    0    0    0    0 -.00000000E+00 -.00000000E+00 -.30384048E+03 0.30384048E+03 0.00000000E+00 0.0000E+00 0.9000E+01
       24  2    1    2    0    0 0.14540896E+01 0.90445419E+01 -.38410440E+02 0.89714007E+02 0.80556335E+02 0.0000E+00 0.0000E+00
  9900012  1    3    3    0    0 0.11029727E+02 -.16399944E+02 -.23144212E+02 0.58534328E+02 0.50000000E+02 0.0000E+00 0.9000E+01
      -13  1    3    3    0    0 -.95756374E+01 0.25444485E+02 -.15266228E+02 0.31179679E+02 0.00000000E+00 0.0000E+00 0.9000E+01
        3  1    1    2  501    0 -.14540896E+01 -.90445419E+01 -.23969077E+03 0.23986576E+03 0.00000000E+00 0.0000E+00 0.9000E+01
#aMCatNLO 1  0  0  5  1 0.10048624D+01 0.00000000D+00  -5  6  0 0.00000000D+00 0.00000000D+00 0.00000000D+00 0.00000000D+00 0.00000000D+00
  <mgrwgt>
 -.1237685456D-04    8    2    0
 0.884343544353111D+02 0.000000000000000D+00 0.000000000000000D+00 0.884343544353111D+02
 0.884343544353111D+02 -.000000000000000D+00 -.000000000000000D+00 -.884343544353111D+02
 0.726827081754413D+02 0.110297269373813D+02 -.163999435381116D+02 0.489097438487457D+02
 0.340966749563309D+02 -.957563735551041D+01 0.254444854630316D+02 0.205783520194163D+02
 0.700893257388500D+02 -.145408958187085D+01 -.904454192491998D+01 -.694880958681620D+02
 0.000000000000000D+00 0.000000000000000D+00 0.000000000000000D+00 -.000000000000000D+00
 0.884343544353111D+02 0.000000000000000D+00 0.000000000000000D+00 0.884343544353111D+02
 0.884343544353111D+02 -.000000000000000D+00 -.000000000000000D+00 -.884343544353111D+02
 0.726667927687582D+02 0.110292118925885D+02 -.164031471538166D+02 0.488851308659010D+02
 0.340886538413088D+02 -.957587896967702D+01 0.254429826055139D+02 0.205668057511659D+02
 0.604088056581770D+02 -.451087345325243D+00 -.839498725863771D+01 -.598209370553621D+02
 0.970445660237825D+01 -.100224557758627D+01 -.644848193059532D+00 -.963099956170487D+01
0.166224288631D-07 0.000000000000D+00 0.000000000000D+00 0.692599881157D-06 0.000000000000D+00  6 4 22 9900012 -13 3 21 0 0.39598891D-02 0.46744690D-01 0.20300327D+04 0.20300327D+04 0.20300327D+04 0.12884930D+01  1  2  2  2  6  5        3 0.945416378234D-06 0.100000000000D+01
-.811363192210D-09 0.000000000000D+00 -.319172518102D-10 0.692599881157D-06 0.000000000000D+00  6 4 22 9900012 -13 3 21 2 0.39598891D-02 0.46744690D-01 0.20300327D+04 0.20300327D+04 0.20300327D+04 0.12884930D+01  1  2  3  2  6  5        3 -.766139896023D-07 0.100000000000D+01
0.140430206466D-08 0.000000000000D+00 0.000000000000D+00 0.692599881157D-06 0.000000000000D+00  6 4 22 9900012 -13 3 21 2 0.39598891D-02 0.46744690D-01 0.20300327D+04 0.20300327D+04 0.20300327D+04 0.12884930D+01  1  2 15  2  6  5        3 0.132602988173D-06 0.100000000000D+01
0.263230772749D-10 0.000000000000D+00 0.000000000000D+00 0.692599881157D-06 0.000000000000D+00  6 4 22 9900012 -13 3 21 2 0.39598891D-02 0.46744690D-01 0.20498033D+04 0.20498033D+04 0.20498033D+04 0.12879622D+01  1  2 12  2  6  5        3 0.248738547052D-08 0.100000000000D+01
-.304299028007D-05 0.000000000000D+00 0.000000000000D+00 0.692599881157D-06 0.000000000000D+00  6 4 22 9900012 -13 3 21 2 0.39598891D-02 0.46744690D-01 0.20300327D+04 0.20300327D+04 0.20300327D+04 0.12884930D+01  1  2  4  2  6  5        3 -.287338183338D-03 0.100000000000D+01
-.265147656202D-05 0.000000000000D+00 0.000000000000D+00 0.692599881157D-06 0.000000000000D+00  6 4 22 9900012 -13 3 21 2 0.39598891D-02 0.46744690D-01 0.20300327D+04 0.20300327D+04 0.20300327D+04 0.12884930D+01  1  2  5  2  6  5        3 -.250369008236D-03 0.100000000000D+01
0.304373150769D-05 0.000000000000D+00 -.000000000000D+00 0.692599881157D-06 0.000000000000D+00  6 4 22 9900012 -13 3 21 2 0.39598891D-02 0.46744690D-01 0.20300327D+04 0.20300327D+04 0.20300327D+04 0.12884930D+01  1  2  6  2  6  5        3 0.287408174689D-03 0.100000000000D+01
0.250721811776D-05 0.000000000000D+00 0.000000000000D+00 0.692599881157D-06 0.430424966188D-05  6 4 22 9900012 -13 3 21 2 0.39598891D-02 0.46744690D-01 0.20498033D+04 0.20498033D+04 0.20498033D+04 0.12879622D+01  1  2 11  2  6  5        3 0.236918269563D-03 0.100000000000D+01
  </mgrwgt>
  </event>
  <event>
  7     66 -.15387852E-05 0.12036606E+02 0.78161638E-02 0.13078958E+00
        4 -1    0    0  502    0 0.00000000E+00 0.00000000E+00 0.15656241E+02 0.15656241E+02 0.00000000E+00 0.0000E+00 0.9000E+01
       22 -1    0    0    0    0 0.00000000E+00 0.00000000E+00 -.22598033E+03 0.22598033E+03 0.00000000E+00 0.0000E+00 0.9000E+01
       24  2    1    2    0    0 -.65602283E+01 0.68020150E+01 -.11695264E+03 0.14010419E+03 0.76563453E+02 0.0000E+00 0.0000E+00
  9900012  1    3    3    0    0 0.13963422E+02 -.19881854E+01 -.62629893E+02 0.81372192E+02 0.50000000E+02 0.0000E+00 0.9000E+01
      -13  1    3    3    0    0 -.20523650E+02 0.87902004E+01 -.54322742E+02 0.58732003E+02 0.00000000E+00 0.0000E+00 0.9000E+01
        3  1    1    2  501    0 0.80198743E+01 -.12850319E+02 -.94060514E+02 0.95272396E+02 0.00000000E+00 0.0000E+00 0.9000E+01
       21  1    1    2  502  501 -.14596460E+01 0.60483039E+01 0.68906060E+00 0.62599801E+01 0.00000000E+00 0.0000E+00 0.9000E+01
#aMCatNLO 2  0  0  1  5 0.63923944D+01 0.00000000D+00  -5  6  0 0.00000000D+00 0.00000000D+00 0.00000000D+00 0.00000000D+00 0.00000000D+00
  <mgrwgt>
 -.3152679396D-05    2    2    0
 0.520501615806222D+02 0.000000000000000D+00 0.000000000000000D+00 0.520501615806222D+02
 0.520501615806222D+02 0.000000000000000D+00 0.000000000000000D+00 -.520501615806222D+02
 0.567238500941384D+02 0.131673064175420D+02 0.131065967333424D+01 0.232916161403527D+02
 0.234816625885858D+02 -.208467290612381D+02 0.101289371193186D+02 -.376921718721658D+01
 0.238948104785202D+02 0.767942264369608D+01 -.114395967926529D+02 -.195223989531362D+02
 0.000000000000000D+00 -.000000000000000D+00 0.000000000000000D+00 0.000000000000000D+00
 0.670155027895335D+02 0.000000000000000D+00 0.000000000000000D+00 0.670155027895335D+02
 0.527937904109371D+02 0.000000000000000D+00 0.000000000000000D+00 -.527937904109371D+02
 0.569335525313432D+02 0.139634215069818D+02 -.198818541087789D+01 0.232916161403527D+02
 0.226427653031360D+02 -.205236497704208D+02 0.879020036572517D+01 -.376921718721658D+01
 0.247097782143463D+02 0.801987426040170D+01 -.128503188818067D+02 -.195223989531362D+02
 0.155231971516452D+02 -.145964599696275D+01 0.604830392695940D+01 0.142217123785964D+02
-.444641832016D-07 0.000000000000D+00 0.000000000000D+00 0.889383381049D-08 0.000000000000D+00  6 4 22 9900012 -13 3 21 2 0.24430643D-02 0.34276504D-01 0.22871152D+04 0.22871152D+04 0.22871152D+04 0.12820103D+01  1  2 13  1  6  1        4 -.141747949975D-04 0.100000000000D+01
0.346233252422D-07 0.000000000000D+00 0.000000000000D+00 0.889383381049D-08 0.159977816543D-08  6 4 22 9900012 -13 3 21 2 0.24086524D-02 0.34766205D-01 0.22871152D+04 0.22871152D+04 0.22871152D+04 0.12820103D+01  1  2  1  1  6  1        4 0.110221156014D-04 0.100000000000D+01
  </mgrwgt>
  </event>
  <event>
  6     66 0.15387852E-05 0.91431948E+01 0.78161638E-02 0.13253711E+00
        2 -1    0    0  501    0 0.00000000E+00 0.00000000E+00 0.50422884E+03 0.50422884E+03 0.00000000E+00 0.0000E+00 0.9000E+01
       22 -1    0    0    0    0 0.00000000E+00 0.00000000E+00 -.48511124E+01 0.48511124E+01 0.00000000E+00 0.0000E+00 0.9000E+01
       24  2    1    2    0    0 0.81738594E+01 -.40970761E+01 0.48741476E+03 0.49402304E+03 0.80012618E+02 0.0000E+00 0.0000E+00
  9900012  1    3    3    0    0 0.26310477E+02 -.15925188E+02 0.37019636E+03 0.37482155E+03 0.50000000E+02 0.0000E+00 0.9000E+01
      -13  1    3    3    0    0 -.18136618E+02 0.11828112E+02 0.11721840E+03 0.11920149E+03 0.00000000E+00 0.0000E+00 0.9000E+01
        1  1    1    2  501    0 -.81738594E+01 0.40970761E+01 0.11962973E+02 0.15056916E+02 0.00000000E+00 0.0000E+00 0.9000E+01
#aMCatNLO 1  0  0  5  1 0.42377693D+01 0.00000000D+00  -5  6  0 0.00000000D+00 0.00000000D+00 0.00000000D+00 0.00000000D+00 0.00000000D+00
  <mgrwgt>
 0.1633602496D-01    8    2    0
 0.494577679267640D+02 0.000000000000000D+00 0.000000000000000D+00 0.494577679267640D+02
 0.494577679267640D+02 -.000000000000000D+00 -.000000000000000D+00 -.494577679267640D+02
 0.601151490970992D+02 0.263104773497544D+02 -.159251881561114D+02 0.129606448445661D+02
 0.217036582688446D+02 -.181366179120395D+02 0.118281120953485D+02 0.148581197442498D+01
 0.170967284875841D+02 -.817385943771493D+01 0.409707606076283D+01 -.144464568189911D+02
 0.000000000000000D+00 -.000000000000000D+00 0.000000000000000D+00 0.000000000000000D+00
 0.494577679267640D+02 0.000000000000000D+00 0.000000000000000D+00 0.494577679267640D+02
 0.494577679267640D+02 -.000000000000000D+00 -.000000000000000D+00 -.494577679267640D+02
 0.595120512586101D+02 0.256638248970136D+02 -.156010592297521D+02 0.118177530678478D+02
 0.219410210337134D+02 -.183725420065278D+02 0.119463669989287D+02 0.106884037495530D+01
 0.799174231188661D+01 -.767852910566669D-02 0.939824197244377D-01 -.799118598986234D+01
 0.947072124931785D+01 -.728360436138015D+01 0.356070981109894D+01 -.489540745294080D+01
0.616779257250D-08 0.000000000000D+00 0.000000000000D+00 0.146362448031D-06 0.000000000000D+00  6 2 22 9900012 -13 1 21 0 0.77573668D-01 0.74632499D-03 0.20024426D+04 0.20024426D+04 0.20024426D+04 0.12892437D+01  1  2  2  2  6  5        1 0.666714232618D-05 0.100000000000D+01
-.743684923576D-10 0.000000000000D+00 -.118429737477D-10 0.146362448031D-06 0.000000000000D+00  6 2 22 9900012 -13 1 21 2 0.77573668D-01 0.74632499D-03 0.20024426D+04 0.20024426D+04 0.20024426D+04 0.12892437D+01  1  2  3  2  6  5        1 -.133619233514D-06 0.100000000000D+01
0.334271192701D-09 0.000000000000D+00 0.000000000000D+00 0.146362448031D-06 0.000000000000D+00  6 2 22 9900012 -13 1 21 2 0.77573668D-01 0.74632499D-03 0.20024426D+04 0.20024426D+04 0.20024426D+04 0.12892437D+01  1  2 15  2  6  5        1 0.600591179657D-06 0.100000000000D+01
0.406555063386D-09 0.000000000000D+00 0.000000000000D+00 0.146362448031D-06 0.000000000000D+00  6 2 22 9900012 -13 1 21 2 0.77573668D-01 0.74632499D-03 0.19555642D+04 0.19555642D+04 0.19555642D+04 0.12905466D+01  1  2 12  2  6  5        1 0.729881229630D-06 0.100000000000D+01
-.900321169248D-08 0.000000000000D+00 0.000000000000D+00 0.146362448031D-06 0.000000000000D+00  6 2 22 9900012 -13 1 21 2 0.77573668D-01 0.74632499D-03 0.20024426D+04 0.20024426D+04 0.20024426D+04 0.12892437D+01  1  2  4  2  6  5        1 -.161762354913D-04 0.100000000000D+01
-.255681929243D-08 0.000000000000D+00 0.000000000000D+00 0.146362448031D-06 0.000000000000D+00  6 2 22 9900012 -13 1 21 2 0.77573668D-01 0.74632499D-03 0.20024426D+04 0.20024426D+04 0.20024426D+04 0.12892437D+01  1  2  5  2  6  5        1 -.459388409333D-05 0.100000000000D+01
0.513706691782D-08 0.000000000000D+00 -.000000000000D+00 0.146362448031D-06 0.000000000000D+00  6 2 22 9900012 -13 1 21 2 0.77573668D-01 0.74632499D-03 0.20024426D+04 0.20024426D+04 0.20024426D+04 0.12892437D+01  1  2  6  2  6  5        1 0.922986230198D-05 0.100000000000D+01
0.910146472881D-05 0.000000000000D+00 0.000000000000D+00 0.146362448031D-06 0.786396469411D-04  6 2 22 9900012 -13 1 21 2 0.77573668D-01 0.74632499D-03 0.19555642D+04 0.19555642D+04 0.19555642D+04 0.12905466D+01  1  2 11  2  6  5        1 0.163397012261D-01 0.100000000000D+01
  </mgrwgt>
  </event>
  <event>
  6     66 0.15387852E-05 0.12801362E+02 0.78161638E-02 0.13443618E+00
        4 -1    0    0  501    0 0.00000000E+00 0.00000000E+00 0.42486777E+02 0.42486777E+02 0.00000000E+00 0.0000E+00 0.9000E+01
       22 -1    0    0    0    0 -.00000000E+00 -.00000000E+00 -.67101480E+02 0.67101480E+02 0.00000000E+00 0.0000E+00 0.9000E+01
       24  2    1    2    0    0 -.44117056E+01 -.12017142E+02 0.11092808E+01 0.80855032E+02 0.79827507E+02 0.0000E+00 0.0000E+00
  9900012  1    3    3    0    0 -.15242834E+02 -.99224540E+00 0.20414373E+02 0.56125530E+02 0.50000000E+02 0.0000E+00 0.9000E+01
      -13  1    3    3    0    0 0.10831128E+02 -.11024897E+02 -.19305092E+02 0.24729502E+02 0.00000000E+00 0.0000E+00 0.9000E+01
        3  1    1    2  501    0 0.44117056E+01 0.12017142E+02 -.25723984E+02 0.28733225E+02 0.00000000E+00 0.0000E+00 0.9000E+01
#aMCatNLO 1  0  0  5  1 0.27055660D+01 0.00000000D+00  -5  6  0 0.00000000D+00 0.00000000D+00 0.00000000D+00 0.00000000D+00 0.00000000D+00
  <mgrwgt>
 0.3698853128D-05    8    2    0
 0.533940596799325D+02 0.000000000000000D+00 0.000000000000000D+00 0.533940596799325D+02
 0.533940596799325D+02 -.000000000000000D+00 -.000000000000000D+00 -.533940596799325D+02
 0.623027428888266D+02 -.152428335767124D+02 -.992245399793233D+00 0.338866233946445D+02
 0.209281134624626D+02 0.108311279684279D+02 -.110248970508305D+02 -.141111390414748D+02
 0.235572630085757D+02 0.441170560828456D+01 0.120171424506238D+02 -.197754843531697D+02
 0.000000000000000D+00 0.000000000000000D+00 0.000000000000000D+00 0.000000000000000D+00
 0.533940596799325D+02 0.000000000000000D+00 0.000000000000000D+00 0.533940596799325D+02
 0.533940596799325D+02 -.000000000000000D+00 -.000000000000000D+00 -.533940596799325D+02
 0.620456794382055D+02 -.151479751381092D+02 -.733858401531601D+00 0.334614201433574D+02
 0.209960208083196D+02 0.108631095395833D+02 -.109377817420375D+02 -.142544965354079D+02
 0.181021246316224D+02 0.568569122343508D+01 0.786767058222786D+01 -.152793845131305D+02
 0.564429448171732D+01 -.140082562490918D+01 0.380396956134125D+01 -.392753909481900D+01
0.118334115109D-07 0.000000000000D+00 0.000000000000D+00 0.205520277606D-06 0.000000000000D+00  6 4 22 9900012 -13 3 21 0 0.65364272D-02 0.10323305D-01 0.16215826D+04 0.16215826D+04 0.16215826D+04 0.13009966D+01  1  2  2  2  6  5        3 0.288101701233D-05 0.100000000000D+01
-.468100213388D-09 0.000000000000D+00 -.227217080053D-10 0.205520277606D-06 0.000000000000D+00  6 4 22 9900012 -13 3 21 2 0.65364272D-02 0.10323305D-01 0.16215826D+04 0.16215826D+04 0.16215826D+04 0.13009966D+01  1  2  3  2  6  5        3 -.192897686583D-06 0.100000000000D+01
0.826225604238D-09 0.000000000000D+00 0.000000000000D+00 0.205520277606D-06 0.000000000000D+00  6 4 22 9900012 -13 3 21 2 0.65364272D-02 0.10323305D-01 0.16215826D+04 0.16215826D+04 0.16215826D+04 0.13009966D+01  1  2 15  2  6  5        3 0.340476255073D-06 0.100000000000D+01
0.302891794007D-09 0.000000000000D+00 0.000000000000D+00 0.205520277606D-06 0.000000000000D+00  6 4 22 9900012 -13 3 21 2 0.65364272D-02 0.10323305D-01 0.16575413D+04 0.16575413D+04 0.16575413D+04 0.12997596D+01  1  2 12  2  6  5        3 0.125055501424D-06 0.100000000000D+01
-.529049412215D-07 0.000000000000D+00 0.000000000000D+00 0.205520277606D-06 0.000000000000D+00  6 4 22 9900012 -13 3 21 2 0.65364272D-02 0.10323305D-01 0.16215826D+04 0.16215826D+04 0.16215826D+04 0.13009966D+01  1  2  4  2  6  5        3 -.218014016626D-04 0.100000000000D+01
-.360933811276D-07 0.000000000000D+00 0.000000000000D+00 0.205520277606D-06 0.000000000000D+00  6 4 22 9900012 -13 3 21 2 0.65364272D-02 0.10323305D-01 0.16215826D+04 0.16215826D+04 0.16215826D+04 0.13009966D+01  1  2  5  2  6  5        3 -.148735880082D-04 0.100000000000D+01
0.471108392495D-07 0.000000000000D+00 -.000000000000D+00 0.205520277606D-06 0.000000000000D+00  6 4 22 9900012 -13 3 21 2 0.65364272D-02 0.10323305D-01 0.16215826D+04 0.16215826D+04 0.16215826D+04 0.13009966D+01  1  2  6  2  6  5        3 0.194137315991D-04 0.100000000000D+01
0.431282957433D-07 0.000000000000D+00 0.000000000000D+00 0.205520277606D-06 0.181402289793D-06  6 4 22 9900012 -13 3 21 2 0.65364272D-02 0.10323305D-01 0.16575413D+04 0.16575413D+04 0.16575413D+04 0.12997596D+01  1  2 11  2  6  5        3 0.178064601169D-04 0.100000000000D+01
  </mgrwgt>
  </event>
  <event>
  7     66 0.15387852E-05 0.17140187E+02 0.78161638E-02 0.13451895E+00
        2 -1    0    0  502    0 0.00000000E+00 0.00000000E+00 0.14684351E+04 0.14684351E+04 0.00000000E+00 0.0000E+00 0.9000E+01
       22 -1    0    0    0    0 0.00000000E+00 0.00000000E+00 -.17298328E+01 0.17298328E+01 0.00000000E+00 0.0000E+00 0.9000E+01
       24  2    1    2    0    0 0.10785984E+01 0.17104256E+02 0.12135005E+04 0.12162105E+04 0.79314168E+02 0.0000E+00 0.0000E+00
  9900012  1    3    3    0    0 0.11288330E+02 0.12358095E+02 0.11727069E+04 0.11738916E+04 0.50000000E+02 0.0000E+00 0.9000E+01
      -13  1    3    3    0    0 -.10209731E+02 0.47461613E+01 0.40793630E+02 0.42318848E+02 0.00000000E+00 0.0000E+00 0.9000E+01
        1  1    1    2  501    0 -.43537153E-02 0.59127022E-02 -.84923783E-01 0.85240623E-01 0.00000000E+00 0.0000E+00 0.9000E+01
       21  1    1    2  502  501 -.10742447E+01 -.17110169E+02 0.25328970E+03 0.25386922E+03 0.00000000E+00 0.0000E+00 0.9000E+01
#aMCatNLO 2  0  0  1  5 0.32593792D+01 0.00000000D+00  -5  6  0 0.00000000D+00 0.00000000D+00 0.00000000D+00 0.00000000D+00 0.00000000D+00
  <mgrwgt>
 0.1615952976D-01    1    2    0
 0.409389655250660D+02 0.000000000000000D+00 0.000000000000000D+00 0.409389655250660D+02
 0.409389655250660D+02 0.000000000000000D+00 0.000000000000000D+00 -.409389655250660D+02
 0.561201121735283D+02 0.105503131269140D+02 0.603242491255716D+00 0.231903855463899D+02
 0.232341943543253D+02 -.105135445512142D+02 -.928633852297000D-01 -.207191830113034D+02
 0.252362452227842D+01 -.367685756998413D-01 -.510379106026017D+00 -.247120253508653D+01
 0.000000000000000D+00 -.000000000000000D+00 -.000000000000000D+00 0.000000000000000D+00
 0.505573363486218D+02 0.000000000000000D+00 0.000000000000000D+00 0.505573363486218D+02
 0.502429015385308D+02 0.000000000000000D+00 0.000000000000000D+00 -.502429015385308D+02
 0.576015874092102D+02 0.112883296629880D+02 0.123580946626240D+02 0.231903855463899D+02
 0.235806955842112D+02 -.102097312681214D+02 0.474616129225498D+01 -.207191830113034D+02
 0.247121344369569D+01 -.435371532205486D-02 0.591270218114137D-02 -.247120253508653D+01
 0.171467414500356D+02 -.107424467954456D+01 -.171101686570601D+02 0.314434810091042D+00
0.884291254255D-05 0.000000000000D+00 0.000000000000D+00 0.125563770882D-04 0.155309606521D-02  6 2 22 9900012 -13 1 21 2 0.22591309D+00 0.26612813D-03 0.16458153D+04 0.16458153D+04 0.16458153D+04 0.13001596D+01  1  2  1  1  6  1        2 0.161595297600D-01 0.100000000000D+01
  </mgrwgt>
  </event>
  <event>
  6     66 0.15387852E-05 0.72906639E+01 0.78161638E-02 0.12778833E+00
        2 -1    0    0  502    0 0.00000000E+00 0.00000000E+00 0.15028182E+03 0.15028182E+03 0.00000000E+00 0.0000E+00 0.9000E+01
       22 -1    0    0    0    0 0.00000000E+00 0.00000000E+00 -.56872104E+02 0.56872104E+02 0.00000000E+00 0.0000E+00 0.9000E+01
  9900012  1    1    2    0    0 -.11530003E+02 0.40572778E+02 0.10323990E+03 0.12221934E+03 0.50000000E+02 0.0000E+00 0.9000E+01
      -13  1    1    2    0    0 0.14499275E+02 -.31448227E+02 0.30523077E+01 0.34764012E+02 0.00000000E+00 0.0000E+00 0.9000E+01
        1  1    1    2  501    0 0.44524723E+00 -.17019730E+01 -.30604948E+02 0.30655469E+02 0.00000000E+00 0.0000E+00 0.9000E+01
       21  1    1    2  502  501 -.34145200E+01 -.74225781E+01 0.17722460E+02 0.19515102E+02 0.00000000E+00 0.0000E+00 0.9000E+01
#aMCatNLO 2  0  0  1  5 0.33055421D+00 0.00000000D+00  -5  6  0 0.00000000D+00 0.00000000D+00 0.00000000D+00 0.00000000D+00 0.00000000D+00
  <mgrwgt>
 0.3540042861D-03    1    2    0
 0.857511135400635D+02 0.000000000000000D+00 0.000000000000000D+00 0.857511135400635D+02
 0.857511135400635D+02 0.000000000000000D+00 0.000000000000000D+00 -.857511135400635D+02
 0.866307346370828D+02 -.132679908784078D+02 0.367946908622515D+02 0.589490909697723D+02
 0.377603052011970D+02 0.137589963654456D+02 -.330574658535533D+02 -.119889373692735D+02
 0.471111872418472D+02 -.491005487037773D+00 -.373722500869830D+01 -.469601536004989D+02
 0.000000000000000D+00 -.000000000000000D+00 -.000000000000000D+00 0.000000000000000D+00
 0.979883852060391D+02 0.000000000000000D+00 0.000000000000000D+00 0.979883852060391D+02
 0.872230259224539D+02 0.000000000000000D+00 0.000000000000000D+00 -.872230259224539D+02
 0.880572915151668D+02 -.115300026042404D+02 0.405727778537628D+02 0.589490909697723D+02
 0.366463446307744D+02 0.144992754090438D+02 -.314482267888958D+02 -.119889373692735D+02
 0.469930950587652D+02 0.445247230391534D+00 -.170197295029115D+01 -.469601536004989D+02
 0.135146799237866D+02 -.341452003519495D+01 -.742257811457589D+01 0.107653592835851D+02
0.145932966684D-05 0.000000000000D+00 0.000000000000D+00 0.779246182963D-08 0.457319179267D-08  6 2 22 9900012 -13 1 21 2 0.23120280D-01 0.87495545D-02 0.30235733D+04 0.30235733D+04 0.30235733D+04 0.12672157D+01  1  2  1  1  6  1        2 0.354004286137D-03 0.100000000000D+01
  </mgrwgt>
  </event>
  <event>
  6     66 0.15387852E-05 0.23299774E+03 0.78161638E-02 0.98923538E-01
        2 -1    0    0  501    0 0.00000000E+00 0.00000000E+00 0.28363077E+03 0.28363077E+03 0.00000000E+00 0.0000E+00 0.9000E+01
       22 -1    0    0    0    0 0.00000000E+00 0.00000000E+00 -.20278663E+03 0.20278663E+03 0.00000000E+00 0.0000E+00 0.9000E+01
       24  2    1    2    0    0 0.11891759E+03 0.20036605E+03 0.56971098E+02 0.25219984E+03 0.77917317E+02 0.0000E+00 0.0000E+00
  9900012  1    3    3    0    0 0.53423990E+02 0.13251910E+03 0.35554499E+02 0.15549777E+03 0.50000000E+02 0.0000E+00 0.9000E+01
      -13  1    3    3    0    0 0.65493596E+02 0.67846949E+02 0.21416599E+02 0.96702070E+02 0.00000000E+00 0.0000E+00 0.9000E+01
        1  1    1    2  501    0 -.11891759E+03 -.20036605E+03 0.23873041E+02 0.23421757E+03 0.00000000E+00 0.0000E+00 0.9000E+01
#aMCatNLO 1  0  0  1  1 0.23737367D+03 0.00000000D+00  -5  6  0 0.00000000D+00 0.00000000D+00 0.00000000D+00 0.00000000D+00 0.00000000D+00
  <mgrwgt>
 0.6019288862D-05    4    2    0
 0.239826040182491D+03 0.000000000000000D+00 0.000000000000000D+00 0.239826040182491D+03
 0.239826040182491D+03 0.000000000000000D+00 0.000000000000000D+00 -.239826040182491D+03
 0.151698393206789D+03 0.534239895011766D+02 0.132519100296745D+03 0.984722823137808D+01
 0.944563052495137D+02 0.654935957948704D+02 0.678469486553015D+02 0.541978499687262D+01
 0.233497381908680D+03 -.118917585296047D+03 -.200366048952047D+03 -.152670132282507D+02
 0.000000000000000D+00 -.000000000000000D+00 -.000000000000000D+00 -.000000000000000D+00
 0.314677588187622D+03 0.000000000000000D+00 0.000000000000000D+00 0.314677588187622D+03
 0.346618764731683D+03 0.000000000000000D+00 0.000000000000000D+00 -.346618764731683D+03
 0.186870378719751D+03 0.104731054298474D+03 0.146133421244260D+03 0.984722823137808D+01
 0.125161241358802D+03 0.987746678510410D+02 0.766780754843294D+02 0.541978499687262D+01
 0.191796007944918D+03 -.544681814513969D+02 -.183264410565917D+03 -.152670132282507D+02
 0.157468724895834D+03 -.149037540698118D+03 -.395470861626726D+02 -.319411765440610D+02
0.463522877163D-06 0.000000000000D+00 0.000000000000D+00 0.234275092613D-07 0.000000000000D+00  6 2 22 9900012 -13 1 21 0 0.43635504D-01 0.31197944D-01 0.57282887D+05 0.57282887D+05 0.57282887D+05 0.11378436D+01  1  2  2  1  6  1        2 0.659161349691D-05 0.100000000000D+01
-.226898245270D-07 0.000000000000D+00 -.890024948342D-09 0.234275092613D-07 0.000000000000D+00  6 2 22 9900012 -13 1 21 2 0.43635504D-01 0.31197944D-01 0.57282887D+05 0.57282887D+05 0.57282887D+05 0.11378436D+01  1  2  3  1  6  1        2 -.417750385734D-06 0.100000000000D+01
0.273160371812D-07 0.000000000000D+00 0.000000000000D+00 0.234275092613D-07 0.000000000000D+00  6 2 22 9900012 -13 1 21 2 0.43635504D-01 0.31197944D-01 0.57282887D+05 0.57282887D+05 0.57282887D+05 0.11378436D+01  1  2 15  1  6  1        2 0.502925223403D-06 0.100000000000D+01
-.357116310894D-07 0.000000000000D+00 0.000000000000D+00 0.234275092613D-07 0.000000000000D+00  6 2 22 9900012 -13 1 21 2 0.43635504D-01 0.31197944D-01 0.57282887D+05 0.57282887D+05 0.57282887D+05 0.11378436D+01  1  2  4  1  6  1        2 -.657499472728D-06 0.100000000000D+01
  </mgrwgt>
  </event>
  <event>
  6     66 0.15387852E-05 0.23911735E+02 0.78161638E-02 0.12744940E+00
        2 -1    0    0  501    0 0.00000000E+00 0.00000000E+00 0.12654640E+04 0.12654640E+04 0.00000000E+00 0.0000E+00 0.9000E+01
       22 -1    0    0    0    0 0.00000000E+00 0.00000000E+00 -.24567629E+01 0.24567629E+01 0.00000000E+00 0.0000E+00 0.9000E+01
       24  2    1    2    0    0 -.74234360E+01 -.22730237E+02 0.11051667E+04 0.11082793E+04 0.79484180E+02 0.0000E+00 0.0000E+00
  9900012  1    3    3    0    0 0.12365669E+02 -.14427146E+02 0.96479416E+03 0.96627575E+03 0.50000000E+02 0.0000E+00 0.9000E+01
      -13  1    3    3    0    0 -.19789105E+02 -.83030911E+01 0.14037254E+03 0.14200352E+03 0.00000000E+00 0.0000E+00 0.9000E+01
        1  1    1    2  501    0 0.74234360E+01 0.22730237E+02 0.15784055E+03 0.15964151E+03 0.00000000E+00 0.0000E+00 0.9000E+01
#aMCatNLO 1  0  0  1  5 0.12946553D+02 0.00000000D+00  -5  6  0 0.00000000D+00 0.00000000D+00 0.00000000D+00 0.00000000D+00 0.00000000D+00
  <mgrwgt>
 0.1464941193D-04    9    2    0
 0.557579142574647D+02 0.000000000000000D+00 0.000000000000000D+00 0.557579142574647D+02
 0.557579142574647D+02 0.000000000000000D+00 0.000000000000000D+00 -.557579142574647D+02
 0.593555080098197D+02 0.123656687839101D+02 -.144271460236041D+02 0.257298275206813D+02
 0.247290347418264D+02 -.197891047667596D+02 -.830309106716997D+01 -.122871953888166D+02
 0.274312857632832D+02 0.742343598284943D+01 0.227302370907740D+02 -.134426321318647D+02
 0.000000000000000D+00 -.000000000000000D+00 0.000000000000000D+00 0.000000000000000D+00
 0.768564672819846D+02 0.000000000000000D+00 0.000000000000000D+00 0.768564672819846D+02
 0.579027053299414D+02 0.000000000000000D+00 0.000000000000000D+00 -.579027053299414D+02
 0.617936045480926D+02 0.162314795214352D+02 -.198233350208100D+02 0.257298275206813D+02
 0.243531342459594D+02 -.182229160272151D+02 -.104892949497967D+02 -.122871953888166D+02
 0.260406876135044D+02 0.912970129897237D+01 0.203485038010912D+02 -.134426321318647D+02
 0.225717462043697D+02 -.713826479319241D+01 0.996412616951561D+01 0.189537619520432D+02
0.156621058695D-07 0.000000000000D+00 0.000000000000D+00 0.754707678608D-07 0.000000000000D+00  6 2 22 9900012 -13 1 21 0 0.19468677D+00 0.37796352D-03 0.24433728D+04 0.24433728D+04 0.24433728D+04 0.12784609D+01  1  2  2  1  6  1        2 0.141498541618D-04 0.100000000000D+01
-.549565280185D-09 0.000000000000D+00 -.300733052330D-10 0.754707678608D-07 0.000000000000D+00  6 2 22 9900012 -13 1 21 2 0.19468677D+00 0.37796352D-03 0.24433728D+04 0.24433728D+04 0.24433728D+04 0.12784609D+01  1  2  3  1  6  1        2 -.811513959343D-06 0.100000000000D+01
0.189002752970D-10 0.000000000000D+00 0.000000000000D+00 0.754707678608D-07 0.000000000000D+00  6 2 22 9900012 -13 1 21 2 0.19468677D+00 0.37796352D-03 0.24433728D+04 0.24433728D+04 0.24433728D+04 0.12784609D+01  1  2 15  1  6  1        2 0.279090360908D-07 0.100000000000D+01
0.242196449333D-07 0.000000000000D+00 0.000000000000D+00 0.754707678608D-07 0.000000000000D+00  6 2 22 9900012 -13 1 21 2 0.27867799D+00 0.37796352D-03 0.31230323D+04 0.31230323D+04 0.31230323D+04 0.12655340D+01  1  2 12  1  6  1        2 0.191585532647D-04 0.100000000000D+01
-.254933795233D-07 0.000000000000D+00 0.000000000000D+00 0.754707678608D-07 0.000000000000D+00  6 2 22 9900012 -13 1 21 2 0.19468677D+00 0.37796352D-03 0.24433728D+04 0.24433728D+04 0.24433728D+04 0.12784609D+01  1  2  4  1  6  1        2 -.376447241118D-04 0.100000000000D+01
-.301593333236D-07 0.000000000000D+00 -.501379352081D-08 0.754707678608D-07 0.000000000000D+00  6 2 22 9900012 -13 1 21 2 0.27209571D+00 0.37796352D-03 0.24433728D+04 0.24433728D+04 0.24433728D+04 0.12784609D+01  1  2  5  1  6  1        2 -.250532852047D-04 0.100000000000D+01
0.303874948943D-07 0.000000000000D+00 0.474540301148D-08 0.754707678608D-07 0.000000000000D+00  6 2 22 9900012 -13 1 21 2 0.19468677D+00 0.37796352D-03 0.24433728D+04 0.24433728D+04 0.24433728D+04 0.12784609D+01  1  2  6  1  6  1        2 0.448716052220D-04 0.100000000000D+01
0.106489833590D-08 0.000000000000D+00 0.000000000000D+00 0.754707678608D-07 0.000000000000D+00  6 21 22 9900012 -13 1 -2 2 0.27867799D+00 0.37796352D-03 0.31230323D+04 0.31230323D+04 0.31230323D+04 0.12655340D+01  1  2 12  3  6  1        2 0.281063968349D-06 0.100000000000D+01
-.112890327299D-08 0.000000000000D+00 -.209749778091D-09 0.754707678608D-07 0.000000000000D+00  6 21 22 9900012 -13 1 -2 2 0.27209571D+00 0.37796352D-03 0.24433728D+04 0.24433728D+04 0.24433728D+04 0.12784609D+01  1  2  5  3  6  1        2 -.330050448507D-06 0.100000000000D+01
  </mgrwgt>
  </event>
  <event>
  6     66 0.15387852E-05 0.72501676E+02 0.78161638E-02 0.11672908E+00
        2 -1    0    0  501    0 0.00000000E+00 0.00000000E+00 0.29762646E+02 0.29762646E+02 0.00000000E+00 0.0000E+00 0.9000E+01
       22 -1    0    0    0    0 -.00000000E+00 -.00000000E+00 -.42807803E+03 0.42807803E+03 0.00000000E+00 0.0000E+00 0.9000E+01
       24  2    1    2    0    0 0.22967742E+02 -.71865102E+02 -.93656845E+02 0.14397934E+03 0.79160197E+02 0.0000E+00 0.0000E+00
  9900012  1    3    3    0    0 0.17138155E+02 -.57151577E+02 -.38983905E+02 0.87061840E+02 0.50000000E+02 0.0000E+00 0.9000E+01
      -13  1    3    3    0    0 0.58295866E+01 -.14713526E+02 -.54672940E+02 0.56917504E+02 0.00000000E+00 0.0000E+00 0.9000E+01
        1  1    1    2  501    0 -.22967742E+02 0.71865102E+02 -.30465854E+03 0.31386134E+03 0.00000000E+00 0.0000E+00 0.9000E+01
#aMCatNLO 1  0  0  5  1 0.64411840D+02 0.00000000D+00  -5  6  0 0.00000000D+00 0.00000000D+00 0.00000000D+00 0.00000000D+00 0.00000000D+00
  <mgrwgt>
 0.4156324993D-04    4    2    0
 0.112874863919919D+03 0.000000000000000D+00 0.000000000000000D+00 0.112874863919919D+03
 0.112874863919919D+03 -.000000000000000D+00 -.000000000000000D+00 -.112874863919919D+03
 0.107785568242238D+03 0.171381554119613D+02 -.571515768366394D+02 0.745500477227429D+02
 0.189682421569594D+02 0.582958656655143D+01 -.147135256614442D+02 -.104557301800571D+02
 0.989959174406412D+02 -.229677419785127D+02 0.718651024980836D+02 -.640943175426858D+02
 0.000000000000000D+00 0.000000000000000D+00 0.000000000000000D+00 0.000000000000000D+00
 0.112874863919919D+03 0.000000000000000D+00 0.000000000000000D+00 0.112874863919919D+03
 0.112874863919919D+03 -.000000000000000D+00 -.000000000000000D+00 -.112874863919919D+03
 0.703024380457435D+02 0.604979292762968D+01 -.224565551310708D+02 0.436066042286438D+02
 0.188677975153899D+02 0.347378657977335D+01 -.734232619076145D+01 -.170298806803923D+02
 0.581593015211054D+02 -.462049171932637D+02 -.352271399273559D+02 -.258042498921825D+01
 0.784201907575995D+02 0.366813376858607D+02 0.650260212491882D+02 -.239962985590333D+02
0.721336860682D-06 0.000000000000D+00 0.000000000000D+00 0.743623886542D-07 0.000000000000D+00  6 2 22 9900012 -13 1 21 0 0.45788686D-02 0.65858159D-01 0.71502671D+04 0.71502671D+04 0.71502671D+04 0.12247350D+01  1  2  2  2  6  5        1 0.384080537050D-04 0.100000000000D+01
-.470646838821D-07 0.000000000000D+00 -.138506173869D-08 0.743623886542D-07 0.000000000000D+00  6 2 22 9900012 -13 1 21 2 0.45788686D-02 0.65858159D-01 0.71502671D+04 0.71502671D+04 0.71502671D+04 0.12247350D+01  1  2  3  2  6  5        1 -.375892420684D-05 0.100000000000D+01
0.684334816367D-07 0.000000000000D+00 0.000000000000D+00 0.743623886542D-07 0.000000000000D+00  6 2 22 9900012 -13 1 21 2 0.45788686D-02 0.65858159D-01 0.71502671D+04 0.71502671D+04 0.71502671D+04 0.12247350D+01  1  2 15  2  6  5        1 0.546559010843D-05 0.100000000000D+01
0.180416921968D-07 0.000000000000D+00 0.000000000000D+00 0.743623886542D-07 0.000000000000D+00  6 2 22 9900012 -13 1 21 2 0.45788686D-02 0.65858159D-01 0.96067009D+04 0.96067009D+04 0.96067009D+04 0.12111403D+01  1  2 12  2  6  5        1 0.144853032303D-05 0.100000000000D+01
  </mgrwgt>
  </event>
  <event>
  6     66 -.15387852E-05 0.15574952E+02 0.78161638E-02 0.13254368E+00
        2 -1    0    0  501    0 0.00000000E+00 0.00000000E+00 0.33613145E+03 0.33613145E+03 0.00000000E+00 0.0000E+00 0.9000E+01
       22 -1    0    0    0    0 0.00000000E+00 0.00000000E+00 -.70045098E+01 0.70045098E+01 0.00000000E+00 0.0000E+00 0.9000E+01
       24  2    1    2    0    0 0.29878456E+01 0.15285677E+02 0.26355790E+03 0.27574250E+03 0.79552382E+02 0.0000E+00 0.0000E+00
  9900012  1    3    3    0    0 -.65066782E+01 -.47766362E+01 0.22998659E+03 0.23549731E+03 0.50000000E+02 0.0000E+00 0.9000E+01
      -13  1    3    3    0    0 0.94945238E+01 0.20062313E+02 0.33571317E+02 0.40245195E+02 0.00000000E+00 0.0000E+00 0.9000E+01
        1  1    1    2  501    0 -.29878456E+01 -.15285677E+02 0.65569034E+02 0.67393452E+02 0.00000000E+00 0.0000E+00 0.9000E+01
#aMCatNLO 1  0  0  5  1 0.64411840D+02 0.00000000D+00  -5  6  0 0.00000000D+00 0.00000000D+00 0.00000000D+00 0.00000000D+00 0.00000000D+00
  <mgrwgt>
 -.3329781577D-05    1    2    0
 0.485225308991674D+02 0.000000000000000D+00 0.000000000000000D+00 0.485225308991674D+02
 0.485225308991674D+02 -.000000000000000D+00 -.000000000000000D+00 -.485225308991674D+02
 0.526849478132658D+02 -.650667824380770D+01 -.477663622835865D+01 0.145103621822486D+02
 0.284439897568687D+02 0.949452382773418D+01 0.200623131141917D+02 -.177881467017103D+02
 0.159161242282003D+02 -.298784558392648D+01 -.152856768858331D+02 0.327778451946171D+01
 0.000000000000000D+00 0.000000000000000D+00 0.000000000000000D+00 -.000000000000000D+00
 0.485225308991674D+02 0.000000000000000D+00 0.000000000000000D+00 0.485225308991674D+02
 0.485225308991674D+02 -.000000000000000D+00 -.000000000000000D+00 -.485225308991674D+02
 0.534302716061051D+02 -.720351916225941D+01 -.834164145405778D+01 0.152748241702831D+02
 0.267825663990990D+02 0.913186025953707D+01 0.182069434285738D+02 -.173902904550542D+02
 0.123958339146957D+02 -.623011468675025D+01 -.102492259756988D+02 0.312981410465889D+01
 0.443638987843486D+01 0.430177358947259D+01 0.383924001182718D+00 -.101434781988785D+01
-.196972816986D-08 0.000000000000D+00 0.000000000000D+00 0.115203389840D-06 0.000000000000D+00  6 2 22 9900012 -13 1 21 2 0.51712530D-01 0.10776169D-02 0.19544287D+04 0.19544287D+04 0.19544287D+04 0.12905786D+01  1  2 14  2  6  5        1 -.332978157745D-05 0.100000000000D+01
  </mgrwgt>
  </event>
  <event>
  7     66 0.15387852E-05 0.16264678E+02 0.78161638E-02 0.13158345E+00
        2 -1    0    0  502    0 0.00000000E+00 0.00000000E+00 0.16823872E+04 0.16823872E+04 0.00000000E+00 0.0000E+00 0.9000E+01
       22 -1    0    0    0    0 0.00000000E+00 0.00000000E+00 -.15083635E+02 0.15083635E+02 0.00000000E+00 0.0000E+00 0.9000E+01
       24  2    1    2    0    0 0.15040311E+02 0.64953205E+01 0.78643374E+03 0.79079782E+03 0.81331262E+02 0.0000E+00 0.0000E+00
  9900012  1    3    3    0    0 0.20325039E+02 -.13005609E+02 0.69217923E+03 0.69440215E+03 0.50000000E+02 0.0000E+00 0.9000E+01
      -13  1    3    3    0    0 -.52847277E+01 0.19500929E+02 0.94254502E+02 0.96395673E+02 0.00000000E+00 0.0000E+00 0.9000E+01
        1  1    1    2  501    0 0.57019268E-01 -.18683256E+00 -.12825962E+02 0.12827449E+02 0.00000000E+00 0.0000E+00 0.9000E+01
       21  1    1    2  502  501 -.15097331E+02 -.63084879E+01 0.89369583E+03 0.89384561E+03 0.00000000E+00 0.0000E+00 0.9000E+01
#aMCatNLO 2  0  0  1  5 0.16438626D+02 0.00000000D+00  -5  6  0 0.00000000D+00 0.00000000D+00 0.00000000D+00 0.00000000D+00 0.00000000D+00
  <mgrwgt>
 0.5619013864D-01    1    2    0
 0.108486014295068D+03 0.000000000000000D+00 0.000000000000000D+00 0.108486014295068D+03
 0.108486014295068D+03 0.000000000000000D+00 0.000000000000000D+00 -.108486014295068D+03
 0.102958297517940D+03 0.131453929267736D+02 -.160056561586011D+02 0.875866921599743D+02
 0.207710968945726D+02 -.673283161702438D+01 0.188958322374561D+02 0.539026610423224D+01
 0.932426341776233D+02 -.641256130974920D+01 -.289017607885500D+01 -.929769582642066D+02
 0.000000000000000D+00 -.000000000000000D+00 -.000000000000000D+00 0.000000000000000D+00
 0.232094723901433D+03 0.000000000000000D+00 0.000000000000000D+00 0.232094723901433D+03
 0.109336889740570D+03 0.000000000000000D+00 0.000000000000000D+00 -.109336889740570D+03
 0.103699960025945D+03 0.203250390552915D+02 -.130056085308390D+02 0.875866921599743D+02
 0.209109910851244D+02 -.528472765472120D+01 0.195009290317960D+02 0.539026610423224D+01
 0.929771634632105D+02 0.570192677482941D-01 -.186832555133998D+00 -.929769582642066D+02
 0.123843499067723D+03 -.150973306683186D+02 -.630848794582300D+01 0.122757834160863D+03
0.656866465496D-03 0.000000000000D+00 0.000000000000D+00 0.229898555786D-05 0.115414601302D-03  6 2 22 9900012 -13 1 21 2 0.25882881D+00 0.23205592D-02 0.21289019D+04 0.21289019D+04 0.21289019D+04 0.12858952D+01  1  2  1  1  6  1        2 0.561901386361D-01 0.100000000000D+01
  </mgrwgt>
  </event>
  <event>
  7     66 0.15387852E-05 0.20025442E+02 0.78161638E-02 0.13078167E+00
       21 -1    0    0  501  502 0.00000000E+00 0.00000000E+00 0.43435146E+02 0.43435146E+02 0.00000000E+00 0.0000E+00 0.9000E+01
       22 -1    0    0    0    0 0.00000000E+00 0.00000000E+00 -.42773292E+03 0.42773292E+03 0.00000000E+00 0.0000E+00 0.9000E+01
       24  2    1    2    0    0 0.10780950E+02 -.19398987E+02 -.12346068E+03 0.14989034E+03 0.82048913E+02 0.0000E+00 0.0000E+00
  9900012  1    3    3    0    0 0.25042157E+02 -.11189072E+02 -.54110442E+02 0.78614533E+02 0.50000000E+02 0.0000E+00 0.9000E+01
      -13  1    3    3    0    0 -.14261207E+02 -.82099145E+01 -.69350237E+02 0.71275803E+02 0.00000000E+00 0.0000E+00 0.9000E+01
        1  1    1    2  501    0 -.79256539E+00 0.12118532E+01 -.28749370E+03 0.28749734E+03 0.00000000E+00 0.0000E+00 0.9000E+01
       -2  1    1    2    0  502 -.99883847E+01 0.18187134E+02 0.26656605E+02 0.33780382E+02 0.00000000E+00 0.0000E+00 0.9000E+01
#aMCatNLO 2  0  0  1  5 0.20873260D+02 0.00000000D+00  -5  6  0 0.00000000D+00 0.00000000D+00 0.00000000D+00 0.00000000D+00 0.00000000D+00
  <mgrwgt>
 0.3625644303D-03    1    2    0
 0.741517769519667D+02 0.000000000000000D+00 0.000000000000000D+00 0.741517769519667D+02
 0.741517769519667D+02 0.000000000000000D+00 0.000000000000000D+00 -.741517769519667D+02
 0.788550070381871D+02 0.196809108399417D+02 -.142716356949327D+01 0.576952085328471D+02
 0.179935429319341D+02 -.154629358971605D+02 -.602177224607287D+01 -.695725949638831D+01
 0.514550039338123D+02 -.421797494278118D+01 0.744893581556614D+01 -.507379490364588D+02
 0.000000000000000D+00 -.000000000000000D+00 0.000000000000000D+00 0.000000000000000D+00
 0.246065686031034D+03 0.000000000000000D+00 0.000000000000000D+00 0.246065686031034D+03
 0.755027730807260D+02 0.000000000000000D+00 0.000000000000000D+00 -.755027730807260D+02
 0.811236220108938D+02 0.250421569332846D+02 -.111890721977479D+02 0.576952085328471D+02
 0.178658382609388D+02 -.142612068382685D+02 -.820991452952238D+01 -.695725949638831D+01
 0.507586073526767D+02 -.792565389933760D+00 0.121185315100275D+01 -.507379490364588D+02
 0.171820391487251D+03 -.998838470508227D+01 0.181871335762675D+02 0.170562912950308D+03
0.622872785470D-06 0.000000000000D+00 0.000000000000D+00 0.295032637198D-06 0.438591294265D-07  6 21 22 9900012 -13 1 -2 2 0.66823301D-02 0.65805064D-01 0.22887606D+04 0.22887606D+04 0.22887606D+04 0.12819715D+01  1  2  1  3  6  1        2 0.362564430337D-03 0.100000000000D+01
  </mgrwgt>
  </event>
  <event>
  7     66 0.15387852E-05 0.19990434E+02 0.78161638E-02 0.13319359E+00
        2 -1    0    0  501    0 0.00000000E+00 0.00000000E+00 0.17520730E+03 0.17520730E+03 0.00000000E+00 0.0000E+00 0.9000E+01
       22 -1    0    0    0    0 0.00000000E+00 0.00000000E+00 -.12739735E+03 0.12739735E+03 0.00000000E+00 0.0000E+00 0.9000E+01
       24  2    1    2    0    0 0.11848936E+02 -.16157006E+02 0.15882927E+03 0.17887363E+03 0.79797180E+02 0.0000E+00 0.0000E+00
  9900012  1    3    3    0    0 -.43404539E+00 -.68679478E+01 0.15499216E+03 0.16300285E+03 0.50000000E+02 0.0000E+00 0.9000E+01
      -13  1    3    3    0    0 0.12282981E+02 -.92890586E+01 0.38371090E+01 0.15870779E+02 0.00000000E+00 0.0000E+00 0.9000E+01
        1  1    1    2  502    0 -.43979077E-01 -.28815375E-02 -.10162201E+03 0.10162202E+03 0.00000000E+00 0.0000E+00 0.9000E+01
       21  1    1    2  501  502 -.11804957E+02 0.16159888E+02 -.93973165E+01 0.22109015E+02 0.00000000E+00 0.0000E+00 0.9000E+01
#aMCatNLO 2  0  0  5  1 0.18954935D+02 0.00000000D+00  -5  6  0 0.00000000D+00 0.00000000D+00 0.00000000D+00 0.00000000D+00 0.00000000D+00
  <mgrwgt>
 0.6873245815D+00    2    2    0
 0.149401964169632D+03 0.000000000000000D+00 0.000000000000000D+00 0.149401964169632D+03
 0.149401964169632D+03 -.000000000000000D+00 -.000000000000000D+00 -.149401964169632D+03
 0.144478244158402D+03 -.339182304802098D-01 -.741355435309834D+01 0.135347704437504D+03
 0.155788510359076D+02 0.123265939169681D+02 -.934852829332437D+01 0.183322141436239D+01
 0.138746833144955D+03 -.122926756864879D+02 0.167620826464227D+02 -.137180925851867D+03
 0.000000000000000D+00 0.000000000000000D+00 0.000000000000000D+00 0.000000000000000D+00
 0.149401964169632D+03 0.000000000000000D+00 0.000000000000000D+00 0.149401964169632D+03
 0.149401964169632D+03 -.000000000000000D+00 -.000000000000000D+00 -.149401964169632D+03
 0.140276780623356D+03 -.434045386705059D+00 -.686794779576507D+01 0.130882459022323D+03
 0.154586983504827D+02 0.122829811084438D+02 -.928905861238810D+01 0.134652139843727D+01
 0.119174599850559D+03 -.439790774473376D-01 -.288153751366593D-02 -.119174591700909D+03
 0.238938495148668D+02 -.118049566442914D+02 0.161598879456669D+02 -.130543887198517D+02
-.962849856487D-07 0.000000000000D+00 0.000000000000D+00 0.189916441143D-05 0.000000000000D+00  6 2 22 9900012 -13 1 21 2 0.26954970D-01 0.19599593D-01 0.18458982D+04 0.18458982D+04 0.18458982D+04 0.12937388D+01  1  2 13  2  6  5        1 -.624913136031D-05 0.100000000000D+01
0.105902141197D-01 0.000000000000D+00 0.000000000000D+00 0.189916441143D-05 0.348494351234D-02  6 2 22 9900012 -13 1 21 2 0.26954970D-01 0.19599593D-01 0.18458982D+04 0.18458982D+04 0.18458982D+04 0.12937388D+01  1  2  1  2  6  5        1 0.687330830681D+00 0.100000000000D+01
  </mgrwgt>
  </event>
  <event>
  7     66 0.15387852E-05 0.34577006E+01 0.78161638E-02 0.13440898E+00
        2 -1    0    0  502    0 0.00000000E+00 0.00000000E+00 0.14955401E+04 0.14955401E+04 0.00000000E+00 0.0000E+00 0.9000E+01
       22 -1    0    0    0    0 0.00000000E+00 0.00000000E+00 -.58367307E+01 0.58367307E+01 0.00000000E+00 0.0000E+00 0.9000E+01
       24  2    1    2    0    0 -.18948734E+01 -.25958667E+01 0.14418769E+04 0.14442429E+04 0.82572720E+02 0.0000E+00 0.0000E+00
  9900012  1    3    3    0    0 -.16481987E+02 -.13456582E+02 0.13089853E+04 0.13101127E+04 0.50000000E+02 0.0000E+00 0.9000E+01
      -13  1    3    3    0    0 0.14587114E+02 0.10860716E+02 0.13289160E+03 0.13413022E+03 0.00000000E+00 0.0000E+00 0.9000E+01
        1  1    1    2  501    0 0.52129309E+01 0.97690892E+00 -.30537050E+01 0.61199766E+01 0.00000000E+00 0.0000E+00 0.9000E+01
       21  1    1    2  502  501 -.33180576E+01 0.16189578E+01 0.50880116E+02 0.51013887E+02 0.00000000E+00 0.0000E+00 0.9000E+01
#aMCatNLO 2  0  0  1  5 0.35446030D+01 0.00000000D+00  -5  6  0 0.00000000D+00 0.00000000D+00 0.00000000D+00 0.00000000D+00 0.00000000D+00
  <mgrwgt>
 0.1953020456D-03    1    2    0
 0.912779834234717D+02 0.000000000000000D+00 0.000000000000000D+00 0.912779834234717D+02
 0.912779834234717D+02 0.000000000000000D+00 0.000000000000000D+00 -.912779834234717D+02
 0.918803521631436D+02 -.181499856950001D+02 -.126427271440423D+02 0.738426609979345D+02
 0.180720527859471D+02 0.142571777102669D+02 0.110216994089828D+02 -.136165993330038D+01
 0.726035618978527D+02 0.389280798473315D+01 0.162102773505950D+01 -.724810010646341D+02
 0.000000000000000D+00 -.000000000000000D+00 0.000000000000000D+00 0.000000000000000D+00
 0.945164406299543D+02 0.000000000000000D+00 0.000000000000000D+00 0.945164406299543D+02
 0.923549868174943D+02 0.000000000000000D+00 0.000000000000000D+00 -.923549868174943D+02
 0.916813727092069D+02 -.164819873276403D+02 -.134565824903704D+02 0.738426609979345D+02
 0.182371368242439D+02 0.145871139703019D+02 0.108607158046630D+02 -.136165993330038D+01
 0.726747859672137D+02 0.521293094184838D+01 0.976908923265138D+00 -.724810010646341D+02
 0.427813194678403D+01 -.331805758451002D+01 0.161895776244221D+01 0.216145381245999D+01
0.529571828849D-06 0.000000000000D+00 0.000000000000D+00 0.158632900571D-05 0.658634171347D-06  6 2 22 9900012 -13 1 21 2 0.23008309D+00 0.89795857D-03 0.16614161D+04 0.16614161D+04 0.16614161D+04 0.12996281D+01  1  2  1  1  6  1        2 0.195302045587D-03 0.100000000000D+01
  </mgrwgt>
  </event>
  <event>
  6     66 -.15387852E-05 0.19107392E+02 0.78161638E-02 0.13418403E+00
        2 -1    0    0  501    0 0.00000000E+00 0.00000000E+00 0.15941432E+04 0.15941432E+04 0.00000000E+00 0.0000E+00 0.9000E+01
       22 -1    0    0    0    0 0.00000000E+00 0.00000000E+00 -.18648508E+01 0.18648508E+01 0.00000000E+00 0.0000E+00 0.9000E+01
       24  2    1    2    0    0 0.19074860E+02 0.11145227E+01 0.12736551E+04 0.12768124E+04 0.87678295E+02 0.0000E+00 0.0000E+00
  9900012  1    3    3    0    0 0.25430931E+02 -.19925665E+01 0.12615006E+04 0.12627488E+04 0.50000000E+02 0.0000E+00 0.9000E+01
      -13  1    3    3    0    0 -.63560714E+01 0.31070892E+01 0.12154530E+02 0.14063649E+02 0.00000000E+00 0.0000E+00 0.9000E+01
        1  1    1    2  501    0 -.19074860E+02 -.11145227E+01 0.31862322E+03 0.31919563E+03 0.00000000E+00 0.0000E+00 0.9000E+01
#aMCatNLO 1  0  0  1  5 0.35446030D+01 0.00000000D+00  -5  6  0 0.00000000D+00 0.00000000D+00 0.00000000D+00 0.00000000D+00 0.00000000D+00
  <mgrwgt>
 -.3915990919D-06    1    2    0
 0.545237498966329D+02 0.000000000000000D+00 0.000000000000000D+00 0.545237498966329D+02
 0.545237498966329D+02 0.000000000000000D+00 0.000000000000000D+00 -.545237498966329D+02
 0.614146752661529D+02 0.254309314055300D+02 -.199256652472052D+01 0.249210702928025D+02
 0.283573993186709D+02 -.635607138839663D+01 0.310708918380920D+01 -.274606709573531D+02
 0.192754252084420D+02 -.190748600171334D+02 -.111452265908868D+01 0.253960066455063D+01
 0.000000000000000D+00 -.000000000000000D+00 0.000000000000000D+00 -.000000000000000D+00
 0.579930663070580D+02 0.000000000000000D+00 0.000000000000000D+00 0.579930663070580D+02
 0.590805001341324D+02 0.000000000000000D+00 0.000000000000000D+00 -.590805001341324D+02
 0.625715268611108D+02 0.275799279004159D+02 -.578651935102313D+01 0.249210702928025D+02
 0.280166343392674D+02 -.537896588266353D+01 0.138205510213711D+01 -.274606709573531D+02
 0.187294048231687D+02 -.184161395698143D+02 -.227746280757052D+01 0.253960066455063D+01
 0.775600041764358D+01 -.378482244793802D+01 0.668192705645654D+01 -.108743382707448D+01
-.271744084109D-09 0.000000000000D+00 0.000000000000D+00 0.198790680065D-08 0.000000000000D+00  6 2 22 9900012 -13 1 21 2 0.24525280D+00 0.28690013D-03 0.16938728D+04 0.16938728D+04 0.16938728D+04 0.12985400D+01  1  2 14  1  6  1        2 -.391599091949D-06 0.100000000000D+01
  </mgrwgt>
  </event>
  <event>
  7     66 0.15387852E-05 0.10905723E+02 0.78161638E-02 0.13297780E+00
       21 -1    0    0  501  502 0.00000000E+00 0.00000000E+00 0.65810316E+01 0.65810316E+01 0.00000000E+00 0.0000E+00 0.9000E+01
       22 -1    0    0    0    0 0.00000000E+00 0.00000000E+00 -.80033346E+03 0.80033346E+03 0.00000000E+00 0.0000E+00 0.9000E+01
       24  2    1    2    0    0 0.71363806E+00 0.10893107E+02 -.22573023E+03 0.23869031E+03 0.76809905E+02 0.0000E+00 0.0000E+00
  9900012  1    3    3    0    0 0.15813004E+02 -.63766610E+01 -.13164643E+03 0.14185025E+03 0.50000000E+02 0.0000E+00 0.9000E+01
      -13  1    3    3    0    0 -.15099366E+02 0.17269768E+02 -.94083800E+02 0.96840060E+02 0.00000000E+00 0.0000E+00 0.9000E+01
        3  1    1    2  501    0 -.44679579E-01 0.15823963E-01 -.27240843E+03 0.27240844E+03 0.00000000E+00 0.0000E+00 0.9000E+01
       -4  1    1    2    0  502 -.66895848E+00 -.10908931E+02 -.29561377E+03 0.29581574E+03 0.00000000E+00 0.0000E+00 0.9000E+01
#aMCatNLO 2  0  0  1  5 0.86057930D+00 0.00000000D+00  -5  6  0 0.00000000D+00 0.00000000D+00 0.00000000D+00 0.00000000D+00 0.00000000D+00
  <mgrwgt>
 0.5352681268D-02    1    2    0
 0.569217806420986D+02 0.000000000000000D+00 0.000000000000000D+00 0.569217806420986D+02
 0.569217806420986D+02 0.000000000000000D+00 0.000000000000000D+00 -.569217806420986D+02
 0.613148189838184D+02 0.154558715014206D+02 -.122005403570805D+02 0.295257494086982D+02
 0.215186666288277D+02 -.152298032955976D+02 0.151426817683388D+02 0.134361226655841D+01
 0.310100756715511D+02 -.226068205822930D+00 -.294214141125832D+01 -.308693616752566D+02
 0.000000000000000D+00 -.000000000000000D+00 -.000000000000000D+00 -.000000000000000D+00
 0.580746524830605D+02 0.000000000000000D+00 0.000000000000000D+00 0.580746524830605D+02
 0.906939526801674D+02 0.000000000000000D+00 0.000000000000000D+00 -.906939526801674D+02
 0.605184498981511D+02 0.158130039724908D+02 -.637666098328732D+01 0.295257494086982D+02
 0.229791434641484D+02 -.150993659116092D+02 0.172697680786512D+02 0.134361226655841D+01
 0.308693980650799D+02 -.446795788338665D-01 0.158239627567953D-01 -.308693616752566D+02
 0.344016137358484D+02 -.668958482047715D+00 -.109089310581207D+02 -.326193001971070D+02
0.176344482265D-05 0.000000000000D+00 0.000000000000D+00 0.258676035488D-06 0.270203942425D-06  6 21 22 9900012 -13 3 -4 2 0.10124664D-02 0.12312822D+00 0.18811238D+04 0.18811238D+04 0.18811238D+04 0.12926903D+01  1  2  1  3  6  1        4 0.535268126785D-02 0.100000000000D+01
  </mgrwgt>
  </event>
  <event>
  6     66 0.15387852E-05 0.82295892E+01 0.78161638E-02 0.13640590E+00
        2 -1    0    0  501    0 0.00000000E+00 0.00000000E+00 0.63540639E+02 0.63540639E+02 0.00000000E+00 0.0000E+00 0.9000E+01
       22 -1    0    0    0    0 0.00000000E+00 0.00000000E+00 -.54677996E+02 0.54677996E+02 0.00000000E+00 0.0000E+00 0.9000E+01
       24  2    1    2    0    0 -.79356379E+01 -.21798602E+01 0.36695828E+02 0.89194295E+02 0.80878380E+02 0.0000E+00 0.0000E+00
  9900012  1    3    3    0    0 -.19303882E+01 -.15369359E+02 0.47839973E+02 0.70912669E+02 0.50000000E+02 0.0000E+00 0.9000E+01
      -13  1    3    3    0    0 -.60052496E+01 0.13189499E+02 -.11144145E+02 0.18281626E+02 0.00000000E+00 0.0000E+00 0.9000E+01
        1  1    1    2  501    0 0.79356379E+01 0.21798602E+01 -.27833185E+02 0.29024340E+02 0.00000000E+00 0.0000E+00 0.9000E+01
#aMCatNLO 1  0  0  5  1 0.35506845D+01 0.00000000D+00  -5  6  0 0.00000000D+00 0.00000000D+00 0.00000000D+00 0.00000000D+00 0.00000000D+00
  <mgrwgt>
 0.2768364146D-02    8    2    0
 0.589429794411255D+02 0.000000000000000D+00 0.000000000000000D+00 0.589429794411255D+02
 0.589429794411255D+02 -.000000000000000D+00 -.000000000000000D+00 -.589429794411255D+02
 0.675161859447055D+02 -.193038824138411D+01 -.153693592043375D+02 0.426437775461511D+02
 0.191710321320351D+02 -.600524962334058D+01 0.131894990088036D+02 -.125500026241295D+02
 0.311987408055104D+02 0.793563786472469D+01 0.217986019553388D+01 -.300937749220216D+02
 0.000000000000000D+00 0.000000000000000D+00 0.000000000000000D+00 0.000000000000000D+00
 0.589429794411255D+02 0.000000000000000D+00 0.000000000000000D+00 0.589429794411255D+02
 0.589429794411255D+02 -.000000000000000D+00 -.000000000000000D+00 -.589429794411255D+02
 0.672192414251909D+02 -.181055881077340D+01 -.153364429585997D+02 0.421893566192760D+02
 0.192519191399913D+02 -.597107746488763D+01 0.131988858444023D+02 -.126795913556987D+02
 0.141344255252189D+02 0.150987849384407D+00 0.154464066336535D+00 -.141327749734264D+02
 0.172803727918499D+02 0.763064842627661D+01 0.198309304786080D+01 -.153769902901508D+02
0.546575327557D-08 0.000000000000D+00 0.000000000000D+00 0.396412911690D-06 0.000000000000D+00  6 2 22 9900012 -13 1 21 0 0.97754830D-02 0.84119994D-02 0.14087385D+04 0.14087385D+04 0.14087385D+04 0.13090181D+01  1  2  2  2  6  5        1 0.215073469801D-05 0.100000000000D+01
-.277446416099D-09 0.000000000000D+00 -.104949658720D-10 0.396412911690D-06 0.000000000000D+00  6 2 22 9900012 -13 1 21 2 0.97754830D-02 0.84119994D-02 0.14087385D+04 0.14087385D+04 0.14087385D+04 0.13090181D+01  1  2  3  2  6  5        1 -.187071320481D-06 0.100000000000D+01
0.326557547096D-09 0.000000000000D+00 0.000000000000D+00 0.396412911690D-06 0.000000000000D+00  6 2 22 9900012 -13 1 21 2 0.97754830D-02 0.84119994D-02 0.14087385D+04 0.14087385D+04 0.14087385D+04 0.13090181D+01  1  2 15  2  6  5        1 0.220185044763D-06 0.100000000000D+01
0.504366073868D-09 0.000000000000D+00 0.000000000000D+00 0.396412911690D-06 0.000000000000D+00  6 2 22 9900012 -13 1 21 2 0.97754830D-02 0.84119994D-02 0.14031525D+04 0.14031525D+04 0.14031525D+04 0.13092468D+01  1  2 12  2  6  5        1 0.340025330804D-06 0.100000000000D+01
-.193779346690D-07 0.000000000000D+00 0.000000000000D+00 0.396412911690D-06 0.000000000000D+00  6 2 22 9900012 -13 1 21 2 0.97754830D-02 0.84119994D-02 0.14087385D+04 0.14087385D+04 0.14087385D+04 0.13090181D+01  1  2  4  2  6  5        1 -.130657871804D-04 0.100000000000D+01
-.103873069374D-07 0.000000000000D+00 0.000000000000D+00 0.396412911690D-06 0.000000000000D+00  6 2 22 9900012 -13 1 21 2 0.97754830D-02 0.84119994D-02 0.14087385D+04 0.14087385D+04 0.14087385D+04 0.13090181D+01  1  2  5  2  6  5        1 -.700375680589D-05 0.100000000000D+01
0.173262898089D-07 0.000000000000D+00 -.000000000000D+00 0.396412911690D-06 0.000000000000D+00  6 2 22 9900012 -13 1 21 2 0.97754830D-02 0.84119994D-02 0.14087385D+04 0.14087385D+04 0.14087385D+04 0.13090181D+01  1  2  6  2  6  5        1 0.116824428989D-04 0.100000000000D+01
0.411506450165D-05 0.000000000000D+00 0.000000000000D+00 0.396412911690D-06 0.315914818222D-04  6 2 22 9900012 -13 1 21 2 0.97754830D-02 0.84119994D-02 0.14031525D+04 0.14031525D+04 0.14031525D+04 0.13092468D+01  1  2 11  2  6  5        1 0.277422737362D-02 0.100000000000D+01
  </mgrwgt>
  </event>
  <event>
  6     66 0.15387852E-05 0.71788804E+01 0.78161638E-02 0.13790599E+00
        2 -1    0    0  501    0 0.00000000E+00 0.00000000E+00 0.20268592E+02 0.20268592E+02 0.00000000E+00 0.0000E+00 0.9000E+01
       22 -1    0    0    0    0 -.00000000E+00 -.00000000E+00 -.60095236E+03 0.60095236E+03 0.00000000E+00 0.0000E+00 0.9000E+01
       24  2    1    2    0    0 -.23149887E+01 0.67953772E+01 -.59903820E+02 0.10039153E+03 0.80239982E+02 0.0000E+00 0.0000E+00
  9900012  1    3    3    0    0 0.49722576E+01 0.14490886E+02 -.15214606E+02 0.54462770E+02 0.50000000E+02 0.0000E+00 0.9000E+01
      -13  1    3    3    0    0 -.72872463E+01 -.76955090E+01 -.44689214E+02 0.45928756E+02 0.00000000E+00 0.0000E+00 0.9000E+01
        1  1    1    2  501    0 0.23149887E+01 -.67953772E+01 -.52077995E+03 0.52082943E+03 0.00000000E+00 0.0000E+00 0.9000E+01
#aMCatNLO 1  0  0  5  1 0.12043473D+01 0.00000000D+00  -5  6  0 0.00000000D+00 0.00000000D+00 0.00000000D+00 0.00000000D+00 0.00000000D+00
  <mgrwgt>
 0.5020977320D-04    6    2    0
 0.110365114006479D+03 0.000000000000000D+00 0.000000000000000D+00 0.110365114006479D+03
 0.110365114006479D+03 -.000000000000000D+00 -.000000000000000D+00 -.110365114006479D+03
 0.113253810821615D+03 0.497225760329259D+01 0.144908861815414D+02 0.100457535992170D+03
 0.116957457562365D+02 -.728724633048997D+01 -.769550900604516D+01 -.494627646327654D+01
 0.957806714351075D+02 0.231498872719739D+01 -.679537717549631D+01 -.955112595288938D+02
 0.000000000000000D+00 0.000000000000000D+00 -.000000000000000D+00 0.000000000000000D+00
 0.110365114006479D+03 0.000000000000000D+00 0.000000000000000D+00 0.110365114006479D+03
 0.110365114006479D+03 -.000000000000000D+00 -.000000000000000D+00 -.110365114006479D+03
 0.113239456026493D+03 0.497264633525193D+01 0.144897451045881D+02 0.100441497780571D+03
 0.116964989015311D+02 -.728720618221879D+01 -.769562685657395D+01 -.494793289119078D+01
 0.390951348335722D+02 0.181062151280966D+01 -.193648324478811D+01 -.390051438919945D+02
 0.566991382513627D+02 0.503938334157204D+00 -.485763500322606D+01 -.564884209973862D+02
0.365909558288D-07 0.000000000000D+00 0.000000000000D+00 0.751044525865D-05 0.000000000000D+00  6 2 22 9900012 -13 1 21 0 0.31182450D-02 0.92454210D-01 0.12275096D+04 0.12275096D+04 0.12275096D+04 0.13170199D+01  1  2  2  2  6  5        1 0.143597755612D-05 0.100000000000D+01
0.130248929957D-09 0.000000000000D+00 -.702594525012D-10 0.751044525865D-05 0.000000000000D+00  6 2 22 9900012 -13 1 21 2 0.31182450D-02 0.92454210D-01 0.12275096D+04 0.12275096D+04 0.12275096D+04 0.13170199D+01  1  2  3  2  6  5        1 0.886610262378D-08 0.100000000000D+01
0.411816356683D-08 0.000000000000D+00 0.000000000000D+00 0.751044525865D-05 0.000000000000D+00  6 2 22 9900012 -13 1 21 2 0.31182450D-02 0.92454210D-01 0.12275096D+04 0.12275096D+04 0.12275096D+04 0.13170199D+01  1  2 15  2  6  5        1 0.280325226604D-06 0.100000000000D+01
0.200482993224D-09 0.000000000000D+00 0.000000000000D+00 0.751044525865D-05 0.000000000000D+00  6 2 22 9900012 -13 1 21 2 0.31182450D-02 0.92454210D-01 0.12400035D+04 0.12400035D+04 0.12400035D+04 0.13164261D+01  1  2 12  2  6  5        1 0.136514295871D-07 0.100000000000D+01
-.487352994954D-05 0.000000000000D+00 0.000000000000D+00 0.751044525865D-05 0.000000000000D+00  6 2 22 9900012 -13 1 21 2 0.31182450D-02 0.92454210D-01 0.12275096D+04 0.12275096D+04 0.12275096D+04 0.13170199D+01  1  2  5  2  6  5        1 -.331743352418D-03 0.100000000000D+01
0.558377432242D-05 0.000000000000D+00 0.000000000000D+00 0.751044525865D-05 0.130460461360D-04  6 2 22 9900012 -13 1 21 2 0.31182450D-02 0.92454210D-01 0.12400035D+04 0.12400035D+04 0.12400035D+04 0.13164261D+01  1  2 11  2  6  5        1 0.380214305298D-03 0.100000000000D+01
  </mgrwgt>
  </event>
  <event>
  7     66 0.15387852E-05 0.77363056E+01 0.78161638E-02 0.12973178E+00
        2 -1    0    0  502    0 0.00000000E+00 0.00000000E+00 0.46727314E+02 0.46727314E+02 0.00000000E+00 0.0000E+00 0.9000E+01
       22 -1    0    0    0    0 0.00000000E+00 0.00000000E+00 -.58814862E+02 0.58814862E+02 0.00000000E+00 0.0000E+00 0.9000E+01
       24  2    1    2    0    0 -.34732121E+01 0.68813796E+01 -.18694576E+02 0.83817286E+02 0.81341464E+02 0.0000E+00 0.0000E+00
  9900012  1    3    3    0    0 -.23285555E+01 0.28959699E+02 -.55427144E+01 0.58093098E+02 0.50000000E+02 0.0000E+00 0.9000E+01
      -13  1    3    3    0    0 -.11446566E+01 -.22078319E+02 -.13151861E+02 0.25724189E+02 0.00000000E+00 0.0000E+00 0.9000E+01
        1  1    1    2  501    0 0.71870987E+01 0.45060266E+01 0.11422169E+01 0.85593997E+01 0.00000000E+00 0.0000E+00 0.9000E+01
       21  1    1    2  502  501 -.37138866E+01 -.11387406E+02 0.54648109E+01 0.13165490E+02 0.00000000E+00 0.0000E+00 0.9000E+01
#aMCatNLO 2  0  0  1  5 0.63863023D+01 0.00000000D+00  -5  6  0 0.00000000D+00 0.00000000D+00 0.00000000D+00 0.00000000D+00 0.00000000D+00
  <mgrwgt>
 0.1941636093D-05    1    2    0
 0.449496964970132D+02 0.000000000000000D+00 0.000000000000000D+00 0.449496964970132D+02
 0.449496964970132D+02 0.000000000000000D+00 0.000000000000000D+00 -.449496964970132D+02
 0.550396628985246D+02 -.465523080395309D+01 0.218257179396440D+02 0.559744178748199D+01
 0.267091349407135D+02 -.218041579286476D+01 -.252541326853032D+02 -.841739024665995D+01
 0.815059515478846D+01 0.683564659681785D+01 0.342841474565921D+01 0.281994845917797D+01
 0.000000000000000D+00 -.000000000000000D+00 -.000000000000000D+00 0.000000000000000D+00
 0.566377035966023D+02 0.000000000000000D+00 0.000000000000000D+00 0.566377035966023D+02
 0.485235164591232D+02 0.000000000000000D+00 0.000000000000000D+00 -.485235164591232D+02
 0.580983449423095D+02 -.232855554263401D+01 0.289596988857999D+02 0.559744178748199D+01
 0.236561805823429D+02 -.114465658256576D+01 -.220783192858478D+02 -.841739024665995D+01
 0.893928261723297D+01 0.718709874442034D+01 0.450602663510713D+01 0.281994845917797D+01
 0.144674119138402D+02 -.371388661922057D+01 -.113874062350592D+02 0.811418713747920D+01
0.214518781060D-08 0.000000000000D+00 0.000000000000D+00 0.414905796198D-07 0.951201954643D-09  6 2 22 9900012 -13 1 21 2 0.71888176D-02 0.90484403D-02 0.25198704D+04 0.25198704D+04 0.25198704D+04 0.12768154D+01  1  2  1  1  6  1        2 0.194163609349D-05 0.100000000000D+01
  </mgrwgt>
  </event>
  <event>
  6     66 0.15387852E-05 0.10841104E+02 0.78161638E-02 0.12350910E+00
        4 -1    0    0  501    0 0.00000000E+00 0.00000000E+00 0.61192899E+03 0.61192899E+03 0.00000000E+00 0.0000E+00 0.9000E+01
       22 -1    0    0    0    0 0.00000000E+00 0.00000000E+00 -.36163826E+01 0.36163826E+01 0.00000000E+00 0.0000E+00 0.9000E+01
       24  2    1    2    0    0 0.81426361E+01 0.71573042E+01 0.50011113E+03 0.50680214E+03 0.81361808E+02 0.0000E+00 0.0000E+00
  9900012  1    3    3    0    0 0.23141655E+02 0.22538180E+02 0.40058113E+03 0.40497994E+03 0.50000000E+02 0.0000E+00 0.9000E+01
      -13  1    3    3    0    0 -.14999019E+02 -.15380875E+02 0.99529992E+02 0.10182220E+03 0.00000000E+00 0.0000E+00 0.9000E+01
        3  1    1    2  501    0 -.81426361E+01 -.71573042E+01 0.10820148E+03 0.10874323E+03 0.00000000E+00 0.0000E+00 0.9000E+01
#aMCatNLO 1  0  0  1  5 0.54382625D+02 0.00000000D+00  -5  6  0 0.00000000D+00 0.00000000D+00 0.00000000D+00 0.00000000D+00 0.00000000D+00
  <mgrwgt>
 0.1033954569D-05    5    2    0
 0.470422082940694D+02 0.000000000000000D+00 0.000000000000000D+00 0.470422082940694D+02
 0.470422082940694D+02 0.000000000000000D+00 0.000000000000000D+00 -.470422082940694D+02
 0.595738732452839D+02 0.231416551444186D+02 0.225381796015804D+02 0.235385447061923D+01
 0.226481448561495D+02 -.149990190424592D+02 -.153808754237766D+02 -.716913972435594D+01
 0.118623984867056D+02 -.814263610195939D+01 -.715730417780380D+01 0.481528525373670D+01
 0.000000000000000D+00 0.000000000000000D+00 -.000000000000000D+00 0.000000000000000D+00
 0.890572978312650D+02 0.000000000000000D+00 0.000000000000000D+00 0.890572978312650D+02
 0.591311824290178D+02 0.000000000000000D+00 0.000000000000000D+00 -.591311824290178D+02
 0.554354892702469D+02 0.161452118699569D+01 0.237685961112462D+02 0.235385447061923D+01
 0.297767147715886D+02 -.248117590770196D+02 -.148200131479409D+02 -.716913972435594D+01
 0.157272572812325D+02 -.133067914590972D+02 -.686213892159884D+01 0.481528525373670D+01
 0.472490189372148D+02 0.365040293491211D+02 -.208644404170644D+01 0.299261154022472D+02
0.133497847460D-07 0.000000000000D+00 0.000000000000D+00 0.296882383261D-07 0.000000000000D+00  6 4 22 9900012 -13 3 21 0 0.94142921D-01 0.55636656D-03 0.21091967D+04 0.21091967D+04 0.21091967D+04 0.12864019D+01  1  2  2  1  6  1        4 0.110739125957D-05 0.100000000000D+01
0.104156634841D-08 0.000000000000D+00 -.256333442519D-10 0.296882383261D-07 0.000000000000D+00  6 4 22 9900012 -13 3 21 2 0.94142921D-01 0.55636656D-03 0.21091967D+04 0.21091967D+04 0.21091967D+04 0.12864019D+01  1  2  3  1  6  1        4 0.142977297452D-06 0.100000000000D+01
-.422132136706D-09 0.000000000000D+00 0.000000000000D+00 0.296882383261D-07 0.000000000000D+00  6 4 22 9900012 -13 3 21 2 0.94142921D-01 0.55636656D-03 0.21091967D+04 0.21091967D+04 0.21091967D+04 0.12864019D+01  1  2 15  1  6  1        4 -.579466801767D-07 0.100000000000D+01
-.462389206675D-08 0.000000000000D+00 -.315891202700D-08 0.296882383261D-07 0.000000000000D+00  6 4 22 9900012 -13 3 21 2 0.20397296D+00 0.55636656D-03 0.21091967D+04 0.21091967D+04 0.21091967D+04 0.12864019D+01  1  2  5  1  6  1        4 -.701810784783D-07 0.100000000000D+01
-.188974730981D-09 0.000000000000D+00 -.264471491243D-09 0.296882383261D-07 0.000000000000D+00  6 21 22 9900012 -13 3 -4 2 0.20397296D+00 0.55636656D-03 0.21091967D+04 0.21091967D+04 0.21091967D+04 0.12864019D+01  1  2  5  3  6  1        4 -.882862292803D-07 0.100000000000D+01
  </mgrwgt>
  </event>
  <event>
  6     66 0.15387852E-05 0.48163063E+02 0.78161638E-02 0.12386601E+00
        2 -1    0    0  501    0 0.00000000E+00 0.00000000E+00 0.12605593E+02 0.12605593E+02 0.00000000E+00 0.0000E+00 0.9000E+01
       22 -1    0    0    0    0 0.00000000E+00 0.00000000E+00 -.58362010E+03 0.58362010E+03 0.00000000E+00 0.0000E+00 0.9000E+01
       24  2    1    2    0    0 0.11203907E+02 -.51762205E+02 -.20513565E+03 0.22653368E+03 0.80199852E+02 0.0000E+00 0.0000E+00
  9900012  1    3    3    0    0 0.42861738E+01 -.53416649E+02 -.11665961E+03 0.13777218E+03 0.50000000E+02 0.0000E+00 0.9000E+01
      -13  1    3    3    0    0 0.69177331E+01 0.16544449E+01 -.88476044E+02 0.88761493E+02 0.00000000E+00 0.0000E+00 0.9000E+01
        1  1    1    2  501    0 -.11203907E+02 0.51762205E+02 -.36587885E+03 0.36969202E+03 0.00000000E+00 0.0000E+00 0.9000E+01
#aMCatNLO 1  0  0  1  1 0.15944934D+00 0.00000000D+00  -5  6  0 0.00000000D+00 0.00000000D+00 0.00000000D+00 0.00000000D+00 0.00000000D+00
  <mgrwgt>
 0.5507505198D-04    6    2    0
 0.857722428819789D+02 0.000000000000000D+00 0.000000000000000D+00 0.857722428819789D+02
 0.857722428819789D+02 0.000000000000000D+00 0.000000000000000D+00 -.857722428819789D+02
 0.905245390232134D+02 0.428617383907752D+01 -.534166494180939D+02 0.531317461046684D+02
 0.139950747960819D+02 0.691773305485762D+01 0.165444489463254D+01 -.120527963568742D+02
 0.670248719446625D+02 -.112039068939351D+02 0.517622045234613D+02 -.410789497477941D+02
 0.000000000000000D+00 -.000000000000000D+00 0.000000000000000D+00 -.000000000000000D+00
 0.857725704431115D+02 0.000000000000000D+00 0.000000000000000D+00 0.857725704431115D+02
 0.858518408500021D+02 0.000000000000000D+00 0.000000000000000D+00 -.858518408500021D+02
 0.905254446722252D+02 0.429144582085567D+01 -.534177609203141D+02 0.531317461046684D+02
 0.139954573808986D+02 0.691854810920110D+01 0.165427305513262D+01 -.120527963568742D+02
 0.670235840146742D+02 -.112000035463469D+02 0.517613815730618D+02 -.410789497477941D+02
 0.799252253156737D-01 -.999038370986951D-02 0.210629211960989D-02 -.792704068905771D-01
0.213930873809D-07 0.000000000000D+00 0.000000000000D+00 0.102198896827D-06 0.000000000000D+00  6 2 22 9900012 -13 1 21 0 0.19393221D-02 0.89787707D-01 0.44465982D+04 0.44465982D+04 0.44465982D+04 0.12476240D+01  1  2  2  1  6  1        2 0.191791208739D-05 0.100000000000D+01
-.133828572439D-08 0.000000000000D+00 -.410775442360D-10 0.102198896827D-06 0.000000000000D+00  6 2 22 9900012 -13 1 21 2 0.19393221D-02 0.89787707D-01 0.44465982D+04 0.44465982D+04 0.44465982D+04 0.12476240D+01  1  2  3  1  6  1        2 -.186754678809D-06 0.100000000000D+01
0.103136879894D-08 0.000000000000D+00 0.000000000000D+00 0.102198896827D-06 0.000000000000D+00  6 2 22 9900012 -13 1 21 2 0.19393221D-02 0.89787707D-01 0.44465982D+04 0.44465982D+04 0.44465982D+04 0.12476240D+01  1  2 15  1  6  1        2 0.143925131434D-06 0.100000000000D+01
-.251614047723D-06 0.000000000000D+00 0.000000000000D+00 0.102198896827D-06 0.000000000000D+00  6 2 22 9900012 -13 1 21 2 0.19393221D-02 0.89787707D-01 0.44465982D+04 0.44465982D+04 0.44465982D+04 0.12476240D+01  1  2  4  1  6  1        2 -.351121586444D-04 0.100000000000D+01
0.251467726173D-06 0.000000000000D+00 0.000000000000D+00 0.102198896827D-06 0.153309336313D-03  6 2 22 9900012 -13 1 21 2 0.19393295D-02 0.89871032D-01 0.44472951D+04 0.44472951D+04 0.44472951D+04 0.12476162D+01  1  2 11  1  6  1        2 0.350309183723D-04 0.100000000000D+01
0.235508163837D-07 0.000000000000D+00 0.000000000000D+00 0.102198896827D-06 0.697698344785D-06  6 21 22 9900012 -13 1 -2 2 0.19393295D-02 0.89871032D-01 0.44472951D+04 0.44472951D+04 0.44472951D+04 0.12476162D+01  1  2 11  3  6  1        2 0.532812097131D-04 0.100000000000D+01
  </mgrwgt>
  </event>
</LesHouchesEvents>
