<LesHouchesEvents version="3.0">
  <!--
  <scalesfunctionalform>
    muR  H_T/2 := sum_i mT(i)/2, i=final state
    muF1 H_T/2 := sum_i mT(i)/2, i=final state
    muF2 H_T/2 := sum_i mT(i)/2, i=final state
    QES  H_T/2 := sum_i mT(i)/2, i=final state
  </scalesfunctionalform>
PYTHIA8   
  -->
  <header>
       51
  </header>
  <init>
   2212   2212 0.65000000D+04 0.65000000D+04 -1 -1  82200  82200 -4   1
 0.40480868D-04 0.25804537D-06 0.15041895D-05     66
  </init>
  <event>
  6     66 0.15041895E-05 0.92860381E+02 0.78161638E-02 0.11107545E+00
       22 -1    0    0    0    0 0.00000000E+00 0.00000000E+00 0.23574406E+03 0.23574406E+03 0.00000000E+00 0.0000E+00 0.9000E+01
       -4 -1    0    0    0  501 0.00000000E+00 0.00000000E+00 -.13784314E+03 0.13784314E+03 0.00000000E+00 0.0000E+00 0.9000E+01
      -24  2    1    2    0    0 -.11180926E+03 -.55101464E+02 0.17318753E+03 0.22796593E+03 0.80231298E+02 0.0000E+00 0.0000E+00
  9900012  1    3    3    0    0 -.85629873E+02 -.59681647E+02 0.11110046E+03 0.16042969E+03 0.50000000E+02 0.0000E+00 0.9000E+01
       11  1    3    3    0    0 -.26179383E+02 0.45801832E+01 0.62087075E+02 0.67536235E+02 0.00000000E+00 0.0000E+00 0.9000E+01
       -3  1    1    2    0  501 0.11180926E+03 0.55101464E+02 -.75286611E+02 0.14562127E+03 0.00000000E+00 0.0000E+00 0.9000E+01
#aMCatNLO 1  0  0  2  5 0.90160124D+01 0.00000000D+00  -5  6  0 0.00000000D+00 0.00000000D+00 0.00000000D+00 0.00000000D+00 0.00000000D+00
  <mgrwgt>
 0.1812204674D-04   11    4    0
 0.180265639809058D+03 0.000000000000000D+00 0.000000000000000D+00 0.180265639809058D+03
 0.180265639809058D+03 0.000000000000000D+00 0.000000000000000D+00 -.180265639809058D+03
 0.136070416218391D+03 -.856298726284172D+02 -.596816471191986D+02 0.715596540001887D+02
 0.531224117307821D+02 -.261793832878074D+02 0.458018321822644D+01 0.459962220236867D+02
 0.171338451668943D+03 0.111809255916225D+03 0.551014639009721D+02 -.117555876023875D+03
 0.000000000000000D+00 -.000000000000000D+00 0.000000000000000D+00 -.000000000000000D+00
 0.181191797991150D+03 0.000000000000000D+00 0.000000000000000D+00 0.181191797991150D+03
 0.202645156489271D+03 0.000000000000000D+00 0.000000000000000D+00 -.202645156489271D+03
 0.135200210931023D+03 -.828854327539669D+02 -.615493135002659D+02 0.715596540001887D+02
 0.525454553026729D+02 -.251103434482121D+02 0.385267237456710D+01 0.459962220236867D+02
 0.172893612222170D+03 0.115291845285131D+03 0.527314666042847D+02 -.117555876023875D+03
 0.231976760245550D+02 -.729606908295194D+01 0.496517452141408D+01 -.214533584981212D+02
 0.180265639809058D+03 0.000000000000000D+00 0.000000000000000D+00 0.180265639809058D+03
 0.180265639809058D+03 0.000000000000000D+00 0.000000000000000D+00 -.180265639809058D+03
 0.136070416218391D+03 -.856298726284172D+02 -.596816471191986D+02 0.715596540001887D+02
 0.531224117307821D+02 -.261793832878074D+02 0.458018321822644D+01 0.459962220236867D+02
 0.000000000000000D+00 -.000000000000000D+00 0.000000000000000D+00 -.000000000000000D+00
 0.171338451668943D+03 0.111809255916225D+03 0.551014639009721D+02 -.117555876023875D+03
 0.181191797991150D+03 0.000000000000000D+00 0.000000000000000D+00 0.181191797991150D+03
 0.202645156489271D+03 0.000000000000000D+00 0.000000000000000D+00 -.202645156489271D+03
 0.135200210931023D+03 -.828854327539669D+02 -.615493135002659D+02 0.715596540001887D+02
 0.525454553026729D+02 -.251103434482121D+02 0.385267237456710D+01 0.459962220236867D+02
 0.231976760245550D+02 -.729606908295194D+01 0.496517452141408D+01 -.214533584981212D+02
 0.172893612222170D+03 0.115291845285131D+03 0.527314666042847D+02 -.117555876023875D+03
0.328636891648D-06 0.000000000000D+00 0.000000000000D+00 0.185110249182D-05 0.000000000000D+00  6 22 -4 9900012 11 -3 21 0 0.36268317D-01 0.21206637D-01 0.17816980D+05 0.17816980D+05 0.17816980D+05 0.11841590D+01  1  2  2  1  6  2       -4 0.240784584859D-05 0.100000000000D+01
-.308827597612D-08 0.000000000000D+00 -.631026098004D-09 0.185110249182D-05 0.000000000000D+00  6 22 -4 9900012 11 -3 21 2 0.36268317D-01 0.21206637D-01 0.17816980D+05 0.17816980D+05 0.17816980D+05 0.11841590D+01  1  2  3  1  6  2       -4 -.317284255986D-07 0.100000000000D+01
-.505827418385D-07 0.000000000000D+00 0.000000000000D+00 0.185110249182D-05 0.000000000000D+00  6 22 -4 9900012 11 -3 21 2 0.36268317D-01 0.21206637D-01 0.17816980D+05 0.17816980D+05 0.17816980D+05 0.11841590D+01  1  2 15  1  6  2       -4 -.519678543435D-06 0.100000000000D+01
0.384388046866D-05 0.000000000000D+00 0.000000000000D+00 0.185110249182D-05 0.000000000000D+00  6 22 -4 9900012 11 -3 21 2 0.36268317D-01 0.23961867D-01 0.19005072D+05 0.19005072D+05 0.19005072D+05 0.11814462D+01  1  2 12  1  6  2       -4 0.316176756276D-04 0.100000000000D+01
-.217241338253D-05 0.000000000000D+00 0.000000000000D+00 0.185110249182D-05 0.000000000000D+00  6 22 -4 9900012 11 -3 21 2 0.36268317D-01 0.21206637D-01 0.17816980D+05 0.17816980D+05 0.17816980D+05 0.11841590D+01  1  2  4  1  6  2       -4 -.223190080517D-04 0.100000000000D+01
-.478662889698D-05 0.000000000000D+00 -.321818143661D-06 0.185110249182D-05 0.000000000000D+00  6 22 -4 9900012 11 -3 21 2 0.36268317D-01 0.23922354D-01 0.17816980D+05 0.17816980D+05 0.17816980D+05 0.11841590D+01  1  2  5  1  6  2       -4 -.394531533696D-04 0.100000000000D+01
0.479289143744D-05 0.000000000000D+00 0.319495788538D-06 0.185110249182D-05 0.000000000000D+00  6 22 -4 9900012 11 -3 21 2 0.36268317D-01 0.21206637D-01 0.17816980D+05 0.17816980D+05 0.17816980D+05 0.11841590D+01  1  2  6  1  6  2       -4 0.492413568446D-04 0.100000000000D+01
0.395077045689D-09 0.000000000000D+00 0.000000000000D+00 0.185110249182D-05 0.105441242808D-06  6 22 -4 9900012 11 -3 21 2 0.36454654D-01 0.23839386D-01 0.19005072D+05 0.19005072D+05 0.19005072D+05 0.11814462D+01  1  2 11  1  6  2       -4 0.325388653977D-08 0.100000000000D+01
0.740282191535D-07 0.000000000000D+00 0.000000000000D+00 0.185110249182D-05 0.000000000000D+00  6 22 21 9900012 11 4 -3 2 0.36268317D-01 0.23961867D-01 0.19005072D+05 0.19005072D+05 0.19005072D+05 0.11814462D+01  3  4 12  3  5  2       -4 0.130496639734D-04 0.100000000000D+01
-.896379861705D-07 0.000000000000D+00 -.612744376942D-08 0.185110249182D-05 0.000000000000D+00  6 22 21 9900012 11 4 -3 2 0.36268317D-01 0.23922354D-01 0.17816980D+05 0.17816980D+05 0.17816980D+05 0.11841590D+01  3  4  5  3  5  2       -4 -.158764208226D-04 0.100000000000D+01
0.126893131724D-10 0.000000000000D+00 0.000000000000D+00 0.185110249182D-05 0.318081604157D-08  6 22 21 9900012 11 4 -3 2 0.36454654D-01 0.23839386D-01 0.19005072D+05 0.19005072D+05 0.19005072D+05 0.11814462D+01  3  4 11  3  5  2       -4 0.223977606665D-08 0.100000000000D+01
  </mgrwgt>
  </event>
  <event>
  7     66 0.15041895E-05 0.60931860E+02 0.78161638E-02 0.12179301E+00
       22 -1    0    0    0    0 0.00000000E+00 0.00000000E+00 0.18713147E+03 0.18713147E+03 0.00000000E+00 0.0000E+00 0.9000E+01
       -4 -1    0    0    0  501 0.00000000E+00 0.00000000E+00 -.34795836E+02 0.34795836E+02 0.00000000E+00 0.0000E+00 0.9000E+01
      -24  2    1    2    0    0 -.87735716E+01 0.60426080E+02 0.10020800E+03 0.13405010E+03 0.64803530E+02 0.0000E+00 0.0000E+00
  9900012  1    3    3    0    0 -.34541158E+01 0.34712552E+02 0.56842448E+02 0.83354401E+02 0.50000000E+02 0.0000E+00 0.9000E+01
       11  1    3    3    0    0 -.53194558E+01 0.25713528E+02 0.43365554E+02 0.50695694E+02 0.00000000E+00 0.0000E+00 0.9000E+01
       -3  1    1    2    0  502 -.18517405E+00 -.58285525E-01 0.17908422E+02 0.17909474E+02 0.00000000E+00 0.0000E+00 0.9000E+01
       21  1    1    2  502  501 0.89587456E+01 -.60367794E+02 0.34219208E+02 0.69967735E+02 0.00000000E+00 0.0000E+00 0.9000E+01
#aMCatNLO 2  0  0  5  2 0.11082430D+02 0.00000000D+00  -5  6  0 0.00000000D+00 0.00000000D+00 0.00000000D+00 0.00000000D+00 0.00000000D+00
  <mgrwgt>
 0.1994822918D-02    2    2    0
 0.806932203592619D+02 0.000000000000000D+00 0.000000000000000D+00 0.806932203592619D+02
 0.806932203592619D+02 -.000000000000000D+00 -.000000000000000D+00 -.806932203592619D+02
 0.631674259539663D+02 -.398880313881809D+01 0.383950954605095D+02 0.172614448795580D+00
 0.305364831746550D+02 -.557494642833562D+01 0.274731646090579D+02 0.121087573004329D+02
 0.676825315899025D+02 0.956374956715371D+01 -.658682600695674D+02 -.122813717492285D+02
 0.000000000000000D+00 0.000000000000000D+00 0.000000000000000D+00 0.000000000000000D+00
 0.806932203592619D+02 0.000000000000000D+00 0.000000000000000D+00 0.806932203592619D+02
 0.806932203592619D+02 -.000000000000000D+00 -.000000000000000D+00 -.806932203592619D+02
 0.609684868020738D+02 -.345411580954049D+01 0.347125519336780D+02 -.514008911043680D+00
 0.287796149108290D+02 -.531945577003737D+01 0.257135278674255D+02 0.117806667611540D+02
 0.772376240709971D+01 -.185174053943616D+00 -.582855252417918D-01 0.772132236657818D+01
 0.639145765985213D+02 0.895874563352147D+01 -.603677942758617D+02 -.189879802166884D+02
-.175503290461D-07 0.000000000000D+00 0.000000000000D+00 0.385262158631D-09 0.000000000000D+00  6 22 -4 9900012 11 -3 21 2 0.28789457D-01 0.53532055D-02 0.55091552D+04 0.55091552D+04 0.55091552D+04 0.12371322D+01  1  2 13  2  6  5       -3 -.241206565217D-05 0.100000000000D+01
0.145319971379D-04 0.000000000000D+00 0.000000000000D+00 0.385262158631D-09 0.117277339723D-08  6 22 -4 9900012 11 -3 21 2 0.28789457D-01 0.53532055D-02 0.55091552D+04 0.55091552D+04 0.55091552D+04 0.12371322D+01  1  2  1  2  6  5       -3 0.199723498413D-02 0.100000000000D+01
  </mgrwgt>
  </event>
  <event>
  6     66 0.15041895E-05 0.18796938E+02 0.78161638E-02 0.12514919E+00
       22 -1    0    0    0    0 0.00000000E+00 0.00000000E+00 0.73636261E+03 0.73636261E+03 0.00000000E+00 0.0000E+00 0.9000E+01
       -2 -1    0    0    0  501 0.00000000E+00 0.00000000E+00 -.53531177E+01 0.53531177E+01 0.00000000E+00 0.0000E+00 0.9000E+01
      -24  2    1    2    0    0 0.35410419E+02 0.11161090E+02 0.49709600E+03 0.50487403E+03 0.80092981E+02 0.0000E+00 0.0000E+00
  9900012  1    3    3    0    0 0.39025176E+02 0.20256407E+02 0.28994016E+03 0.29748712E+03 0.50000000E+02 0.0000E+00 0.9000E+01
       11  1    3    3    0    0 -.36147567E+01 -.90953167E+01 0.20715583E+03 0.20738691E+03 0.00000000E+00 0.0000E+00 0.9000E+01
       -1  1    1    2    0  501 -.35410419E+02 -.11161090E+02 0.23391350E+03 0.23684171E+03 0.00000000E+00 0.0000E+00 0.9000E+01
#aMCatNLO 1  0  0  2  5 0.14208515D+02 0.00000000D+00  -5  6  0 0.00000000D+00 0.00000000D+00 0.00000000D+00 0.00000000D+00 0.00000000D+00
  <mgrwgt>
 0.6248089942D-04    9    4    0
 0.627840405618847D+02 0.000000000000000D+00 0.000000000000000D+00 0.627840405618847D+02
 0.627840405618847D+02 0.000000000000000D+00 0.000000000000000D+00 -.627840405618847D+02
 0.692999505860993D+02 0.390251761257886D+02 0.202564070513844D+02 -.192144933046805D+02
 0.190275462262221D+02 -.361475668544482D+01 -.909531668107317D+01 0.163173608150045D+02
 0.372405843114480D+02 -.354104194403438D+02 -.111610903703112D+02 0.289713248967610D+01
 0.000000000000000D+00 0.000000000000000D+00 -.000000000000000D+00 -.000000000000000D+00
 0.670592853949068D+02 0.000000000000000D+00 0.000000000000000D+00 0.670592853949068D+02
 0.713669969439540D+02 0.000000000000000D+00 0.000000000000000D+00 -.713669969439540D+02
 0.697584334484193D+02 0.363196079279425D+02 0.260370575177470D+02 -.192144933046805D+02
 0.184910594631621D+02 -.434473170338786D+01 -.753567001193182D+01 0.163173608150045D+02
 0.378487511162914D+02 -.368713836198230D+02 -.803963023777094D+01 0.289713248967610D+01
 0.123280383109881D+02 0.489650739526843D+01 -.104617572680443D+02 -.430771154904718D+01
 0.627840405618847D+02 0.000000000000000D+00 0.000000000000000D+00 0.627840405618847D+02
 0.627840405618847D+02 0.000000000000000D+00 0.000000000000000D+00 -.627840405618847D+02
 0.692999505860993D+02 0.390251761257886D+02 0.202564070513844D+02 -.192144933046805D+02
 0.190275462262221D+02 -.361475668544482D+01 -.909531668107317D+01 0.163173608150045D+02
 0.000000000000000D+00 0.000000000000000D+00 -.000000000000000D+00 -.000000000000000D+00
 0.372405843114480D+02 -.354104194403438D+02 -.111610903703112D+02 0.289713248967610D+01
 0.670592853949068D+02 0.000000000000000D+00 0.000000000000000D+00 0.670592853949068D+02
 0.713669969439540D+02 0.000000000000000D+00 0.000000000000000D+00 -.713669969439540D+02
 0.697584334484193D+02 0.363196079279425D+02 0.260370575177470D+02 -.192144933046805D+02
 0.184910594631621D+02 -.434473170338786D+01 -.753567001193182D+01 0.163173608150045D+02
 0.123280383109881D+02 0.489650739526843D+01 -.104617572680443D+02 -.430771154904718D+01
 0.378487511162914D+02 -.368713836198230D+02 -.803963023777094D+01 0.289713248967610D+01
0.264252615050D-06 0.000000000000D+00 0.000000000000D+00 0.125443837725D-06 0.000000000000D+00  6 22 -2 9900012 11 -1 21 0 0.11328656D+00 0.82355657D-03 0.32204462D+04 0.32204462D+04 0.32204462D+04 0.12639448D+01  1  2  2  1  6  2       -2 0.433507658078D-04 0.100000000000D+01
-.902937499740D-08 0.000000000000D+00 -.507399810551D-09 0.125443837725D-06 0.000000000000D+00  6 22 -2 9900012 11 -1 21 2 0.11328656D+00 0.82355657D-03 0.32204462D+04 0.32204462D+04 0.32204462D+04 0.12639448D+01  1  2  3  1  6  2       -2 -.236641751528D-05 0.100000000000D+01
-.361081536590D-07 0.000000000000D+00 0.000000000000D+00 0.125443837725D-06 0.000000000000D+00  6 22 -2 9900012 11 -1 21 2 0.11328656D+00 0.82355657D-03 0.32204462D+04 0.32204462D+04 0.32204462D+04 0.12639448D+01  1  2 15  1  6  2       -2 -.946322057592D-05 0.100000000000D+01
0.249701371902D-06 0.000000000000D+00 0.000000000000D+00 0.125443837725D-06 0.000000000000D+00  6 22 -2 9900012 11 -1 21 2 0.11328656D+00 0.99988777D-03 0.39091933D+04 0.39091933D+04 0.39091933D+04 0.12540619D+01  1  2 12  1  6  2       -2 0.506540433972D-04 0.100000000000D+01
-.116478788960D-06 0.000000000000D+00 0.000000000000D+00 0.125443837725D-06 0.000000000000D+00  6 22 -2 9900012 11 -1 21 2 0.11328656D+00 0.82355657D-03 0.32204462D+04 0.32204462D+04 0.32204462D+04 0.12639448D+01  1  2  4  1  6  2       -2 -.305267470267D-04 0.100000000000D+01
-.654086922801D-06 0.000000000000D+00 -.171045177878D-06 0.125443837725D-06 0.000000000000D+00  6 22 -2 9900012 11 -1 21 2 0.11328656D+00 0.10011445D-02 0.32204462D+04 0.32204462D+04 0.32204462D+04 0.12639448D+01  1  2  5  1  6  2       -2 -.131217789772D-03 0.100000000000D+01
0.677734442725D-06 0.000000000000D+00 0.167835288992D-06 0.125443837725D-06 0.000000000000D+00  6 22 -2 9900012 11 -1 21 2 0.11328656D+00 0.82355657D-03 0.32204462D+04 0.32204462D+04 0.32204462D+04 0.12639448D+01  1  2  6  1  6  2       -2 0.177620561383D-03 0.100000000000D+01
0.698049165623D-08 0.000000000000D+00 0.000000000000D+00 0.125443837725D-06 0.000000000000D+00  6 22 21 9900012 11 2 -1 2 0.11328656D+00 0.99988777D-03 0.39091933D+04 0.39091933D+04 0.39091933D+04 0.12540619D+01  3  4 12  3  5  2       -2 0.267496897893D-04 0.100000000000D+01
-.164862363155D-07 0.000000000000D+00 -.480547774950D-08 0.125443837725D-06 0.000000000000D+00  6 22 21 9900012 11 2 -1 2 0.11328656D+00 0.10011445D-02 0.32204462D+04 0.32204462D+04 0.32204462D+04 0.12639448D+01  3  4  5  3  5  2       -2 -.623199860680D-04 0.100000000000D+01
  </mgrwgt>
  </event>
  <event>
  6     66 0.15041895E-05 0.36549969E+02 0.78161638E-02 0.11913097E+00
       22 -1    0    0    0    0 0.00000000E+00 0.00000000E+00 0.23419276E+04 0.23419276E+04 0.00000000E+00 0.0000E+00 0.9000E+01
       -2 -1    0    0    0  501 0.00000000E+00 0.00000000E+00 -.66233171E+01 0.66233171E+01 0.00000000E+00 0.0000E+00 0.9000E+01
      -24  2    1    2    0    0 0.55976255E+02 0.32452635E+01 0.21974424E+04 0.21997229E+04 0.82969639E+02 0.0000E+00 0.0000E+00
  9900012  1    3    3    0    0 0.97974729E+01 -.82359620E+01 0.12928959E+04 0.12939257E+04 0.50000000E+02 0.0000E+00 0.9000E+01
       11  1    3    3    0    0 0.46178782E+02 0.11481226E+02 0.90454642E+03 0.90579718E+03 0.00000000E+00 0.0000E+00 0.9000E+01
       -1  1    1    2    0  501 -.55976255E+02 -.32452635E+01 0.13786187E+03 0.14882798E+03 0.00000000E+00 0.0000E+00 0.9000E+01
#aMCatNLO 1  0  0  2  5 0.26697498D+02 0.00000000D+00  -5  6  0 0.00000000D+00 0.00000000D+00 0.00000000D+00 0.00000000D+00 0.00000000D+00
  <mgrwgt>
 0.5105627714D-04    6    4    0
 0.124544484861753D+03 0.000000000000000D+00 0.000000000000000D+00 0.124544484861753D+03
 0.124544484861753D+03 0.000000000000000D+00 0.000000000000000D+00 -.124544484861753D+03
 0.784658506920570D+02 0.979747290548038D+01 -.823596197689259D+01 0.591021842219875D+02
 0.598969117302780D+02 0.461787823739108D+02 0.114812255262045D+02 0.363777618017399D+02
 0.110726207301171D+03 -.559762552793912D+02 -.324526354931195D+01 -.954799460237273D+02
 0.000000000000000D+00 -.000000000000000D+00 -.000000000000000D+00 0.000000000000000D+00
 0.134694565966227D+03 0.000000000000000D+00 0.000000000000000D+00 0.134694565966227D+03
 0.133308181545582D+03 0.000000000000000D+00 0.000000000000000D+00 -.133308181545582D+03
 0.792840945129613D+02 0.154764135208520D+02 -.730616776853760D+01 0.591021842219875D+02
 0.635213278760664D+02 0.506217940825187D+02 0.122086651728061D+02 0.363777618017399D+02
 0.106947363156829D+03 -.481400859637040D+02 -.196227340398565D+01 -.954799460237273D+02
 0.182499619659525D+02 -.179581216396667D+02 -.294022400028282D+01 0.138638442064532D+01
 0.124544484861753D+03 0.000000000000000D+00 0.000000000000000D+00 0.124544484861753D+03
 0.124544484861753D+03 0.000000000000000D+00 0.000000000000000D+00 -.124544484861753D+03
 0.784658506920570D+02 0.979747290548038D+01 -.823596197689259D+01 0.591021842219875D+02
 0.598969117302780D+02 0.461787823739108D+02 0.114812255262045D+02 0.363777618017399D+02
 0.000000000000000D+00 -.000000000000000D+00 -.000000000000000D+00 0.000000000000000D+00
 0.110726207301171D+03 -.559762552793912D+02 -.324526354931195D+01 -.954799460237273D+02
 0.134694565966227D+03 0.000000000000000D+00 0.000000000000000D+00 0.134694565966227D+03
 0.133308181545582D+03 0.000000000000000D+00 0.000000000000000D+00 -.133308181545582D+03
 0.792840945129613D+02 0.154764135208520D+02 -.730616776853760D+01 0.591021842219875D+02
 0.635213278760664D+02 0.506217940825187D+02 0.122086651728061D+02 0.363777618017399D+02
 0.182499619659525D+02 -.179581216396667D+02 -.294022400028282D+01 0.138638442064532D+01
 0.106947363156829D+03 -.481400859637040D+02 -.196227340398565D+01 -.954799460237273D+02
0.443448119707D-05 0.000000000000D+00 0.000000000000D+00 0.263022143277D-06 0.000000000000D+00  6 22 -2 9900012 11 -1 21 0 0.36029655D+00 0.10189719D-02 0.60269695D+04 0.60269695D+04 0.60269695D+04 0.12328169D+01  1  2  2  1  6  2       -2 0.285168295675D-04 0.100000000000D+01
0.929355626675D-07 0.000000000000D+00 -.851478771123D-08 0.263022143277D-06 0.000000000000D+00  6 22 -2 9900012 11 -1 21 2 0.36029655D+00 0.10189719D-02 0.60269695D+04 0.60269695D+04 0.60269695D+04 0.12328169D+01  1  2  3  1  6  2       -2 0.908317084176D-06 0.100000000000D+01
-.728750821431D-06 0.000000000000D+00 0.000000000000D+00 0.263022143277D-06 0.000000000000D+00  6 22 -2 9900012 11 -1 21 2 0.36029655D+00 0.10189719D-02 0.60269695D+04 0.60269695D+04 0.60269695D+04 0.12328169D+01  1  2 15  1  6  2       -2 -.712253525146D-05 0.100000000000D+01
0.267844079489D-05 0.000000000000D+00 0.000000000000D+00 0.263022143277D-06 0.000000000000D+00  6 22 -2 9900012 11 -1 21 2 0.36029655D+00 0.11795601D-02 0.73357831D+04 0.73357831D+04 0.73357831D+04 0.12235375D+01  1  2 12  1  6  2       -2 0.214626013527D-04 0.100000000000D+01
-.173644853951D-06 0.000000000000D+00 0.000000000000D+00 0.263022143277D-06 0.000000000000D+00  6 22 -2 9900012 11 -1 21 2 0.36029655D+00 0.10189719D-02 0.60269695D+04 0.60269695D+04 0.60269695D+04 0.12328169D+01  1  2  4  1  6  2       -2 -.169713921018D-05 0.100000000000D+01
0.598879863885D-07 0.000000000000D+00 0.000000000000D+00 0.263022143277D-06 0.000000000000D+00  6 22 21 9900012 11 2 -1 2 0.36029655D+00 0.11795601D-02 0.73357831D+04 0.73357831D+04 0.73357831D+04 0.12235375D+01  3  4 12  3  5  2       -2 0.898820359449D-05 0.100000000000D+01
  </mgrwgt>
  </event>
  <event>
  7     66 0.15041895E-05 0.87543524E+02 0.78161638E-02 0.11560305E+00
       22 -1    0    0    0    0 0.00000000E+00 0.00000000E+00 0.47646366E+02 0.47646366E+02 0.00000000E+00 0.0000E+00 0.9000E+01
       -4 -1    0    0    0  501 -.00000000E+00 -.00000000E+00 -.88905002E+03 0.88905002E+03 0.00000000E+00 0.0000E+00 0.9000E+01
      -24  2    1    2    0    0 -.90488814E+02 0.92143802E+01 -.37226231E+02 0.12711859E+03 0.80623907E+02 0.0000E+00 0.0000E+00
  9900012  1    3    3    0    0 -.39407087E+02 0.16903532E+02 -.46172643E+01 0.66030046E+02 0.50000000E+02 0.0000E+00 0.9000E+01
       11  1    3    3    0    0 -.51081727E+02 -.76891519E+01 -.32608967E+02 0.61088547E+02 0.00000000E+00 0.0000E+00 0.9000E+01
       -3  1    1    2    0  502 0.82676351E+02 -.49705107E+01 -.66887282E+03 0.67398140E+03 0.00000000E+00 0.0000E+00 0.9000E+01
       21  1    1    2  502  501 0.78124624E+01 -.42438695E+01 -.13530460E+03 0.13559639E+03 0.00000000E+00 0.0000E+00 0.9000E+01
#aMCatNLO 2  0  0  5  2 0.77281496D+01 0.00000000D+00  -5  6  0 0.00000000D+00 0.00000000D+00 0.00000000D+00 0.00000000D+00 0.00000000D+00
  <mgrwgt>
 0.3687927408D-04    2    2    0
 0.205815458584974D+03 0.000000000000000D+00 0.000000000000000D+00 0.205815458584974D+03
 0.205815458584974D+03 -.000000000000000D+00 -.000000000000000D+00 -.205815458584974D+03
 0.141169810396267D+03 -.395826211512988D+02 0.169214065167956D+02 0.124803034705107D+03
 0.725413310198586D+02 -.511719238547820D+02 -.767996719791049D+01 0.508399156074448D+02
 0.197919775753822D+03 0.907545450060808D+02 -.924143931888514D+01 -.175642950312552D+03
 0.000000000000000D+00 0.000000000000000D+00 0.000000000000000D+00 -.000000000000000D+00
 0.205815458584974D+03 0.000000000000000D+00 0.000000000000000D+00 0.205815458584974D+03
 0.205815458584974D+03 -.000000000000000D+00 -.000000000000000D+00 -.205815458584974D+03
 0.140818195043072D+03 -.394070870007931D+02 0.169035320599276D+02 0.124463312478817D+03
 0.723563661015671D+02 -.510817267765949D+02 -.768915187097288D+01 0.506653515575529D+02
 0.166469303385853D+03 0.826763513763201D+02 -.497051071513767D+01 -.144402021856002D+03
 0.319870526394552D+02 0.781246240106790D+01 -.424386947381703D+01 -.307266421803682D+02
-.375926840090D-04 0.000000000000D+00 0.000000000000D+00 0.597684949793D-05 0.000000000000D+00  6 22 -4 9900012 11 -3 21 2 0.73302102D-02 0.13677693D+00 0.10945550D+05 0.10945550D+05 0.10945550D+05 0.12052845D+01  1  2 13  2  6  5       -3 -.633703901057D-04 0.100000000000D+01
0.594702658667D-04 0.000000000000D+00 0.000000000000D+00 0.597684949793D-05 0.156073129750D-05  6 22 -4 9900012 11 -3 21 2 0.73302102D-02 0.13677693D+00 0.10945550D+05 0.10945550D+05 0.10945550D+05 0.12052845D+01  1  2  1  2  6  5       -3 0.100249664184D-03 0.100000000000D+01
  </mgrwgt>
  </event>
  <event>
  7     66 0.15041895E-05 0.24165060E+02 0.78161638E-02 0.12778774E+00
       22 -1    0    0    0    0 0.00000000E+00 0.00000000E+00 0.11899204E+02 0.11899204E+02 0.00000000E+00 0.0000E+00 0.9000E+01
       21 -1    0    0  502  501 0.00000000E+00 0.00000000E+00 -.49368763E+03 0.49368763E+03 0.00000000E+00 0.0000E+00 0.9000E+01
      -24  2    1    2    0    0 0.58330641E+01 0.23267570E+02 -.46340951E+03 0.47118062E+03 0.81776504E+02 0.0000E+00 0.0000E+00
  9900012  1    3    3    0    0 0.12149639E+01 0.42370646E+02 -.36066703E+03 0.36657531E+03 0.50000000E+02 0.0000E+00 0.9000E+01
       11  1    3    3    0    0 0.46181002E+01 -.19103076E+02 -.10274248E+03 0.10460531E+03 0.00000000E+00 0.0000E+00 0.9000E+01
        4  1    1    2  502    0 0.23112060E+00 0.33392715E+00 0.23679395E+01 0.24025116E+01 0.00000000E+00 0.0000E+00 0.9000E+01
       -3  1    1    2    0  501 -.60641847E+01 -.23601497E+02 -.20746851E+02 0.32003700E+02 0.00000000E+00 0.0000E+00 0.9000E+01
#aMCatNLO 2  0  0  2  2 0.30730140D+02 0.00000000D+00  -5  6  0 0.00000000D+00 0.00000000D+00 0.00000000D+00 0.00000000D+00 0.00000000D+00
  <mgrwgt>
 0.9050172914D-02    1    2    0
 0.685326772771537D+02 0.000000000000000D+00 0.000000000000000D+00 0.685326772771537D+02
 0.685326772771537D+02 0.000000000000000D+00 0.000000000000000D+00 -.685326772771537D+02
 0.718645334947598D+02 0.133605307595065D+01 0.425455974243716D+02 -.291992855460710D+02
 0.210630635226605D+02 0.465364943330267D+01 -.190517137595765D+02 -.768299386533126D+01
 0.000000000000000D+00 0.000000000000000D+00 0.000000000000000D+00 0.000000000000000D+00
 0.441377575368871D+02 -.598970250925331D+01 -.234938836647952D+02 0.368822794114023D+02
 0.857147078198146D+02 0.000000000000000D+00 0.000000000000000D+00 0.857147078198146D+02
 0.685353777906450D+02 0.000000000000000D+00 0.000000000000000D+00 -.685353777906450D+02
 0.717589438344809D+02 0.121496386355855D+01 0.423706455774447D+02 -.291992855460710D+02
 0.211017239294235D+02 0.461810022506599D+01 -.191030758876714D+02 -.768299386533126D+01
 0.171841294317823D+02 0.231120601770246D+00 0.333927154564640D+00 0.171793300291696D+02
 0.442052884147729D+02 -.606418469039479D+01 -.236014968443380D+02 0.368822794114023D+02
0.720089495242D-05 0.000000000000D+00 0.000000000000D+00 0.282822449666D-07 0.184517385220D-07  6 22 21 9900012 11 4 -3 2 0.18306468D-02 0.75951942D-01 0.30237439D+04 0.30237439D+04 0.30237439D+04 0.12672127D+01  1  2  1  3  5  2       -4 0.905017291437D-02 0.100000000000D+01
  </mgrwgt>
  </event>
  <event>
  7     66 -.15041895E-05 0.35838204E+02 0.78161638E-02 0.11458149E+00
       22 -1    0    0    0    0 0.00000000E+00 0.00000000E+00 0.13029265E+04 0.13029265E+04 0.00000000E+00 0.0000E+00 0.9000E+01
       -4 -1    0    0    0  501 0.00000000E+00 0.00000000E+00 -.72696315E+02 0.72696315E+02 0.00000000E+00 0.0000E+00 0.9000E+01
      -24  2    1    2    0    0 -.86118479E+02 0.33440968E+01 0.12404037E+04 0.12456817E+04 0.75459461E+02 0.0000E+00 0.0000E+00
  9900012  1    3    3    0    0 -.71724091E+02 -.13822650E+02 0.10938366E+04 0.10974124E+04 0.50000000E+02 0.0000E+00 0.9000E+01
       11  1    3    3    0    0 -.14394388E+02 0.17166747E+02 0.14656703E+03 0.14826932E+03 0.00000000E+00 0.0000E+00 0.9000E+01
       -3  1    1    2    0  502 0.34813367E+02 -.36345373E+02 -.37831300E+02 0.62961607E+02 0.00000000E+00 0.0000E+00 0.9000E+01
       21  1    1    2  502  501 0.51305111E+02 0.33001276E+02 0.27657852E+02 0.66979515E+02 0.00000000E+00 0.0000E+00 0.9000E+01
#aMCatNLO 2  0  0  5  2 0.44479972D+02 0.00000000D+00  -5  6  0 0.00000000D+00 0.00000000D+00 0.00000000D+00 0.00000000D+00 0.00000000D+00
  <mgrwgt>
 -.4523185659D-04    2    2    0
 0.307762825474362D+03 0.000000000000000D+00 0.000000000000000D+00 0.307762825474362D+03
 0.307762825474362D+03 -.000000000000000D+00 -.000000000000000D+00 -.307762825474362D+03
 0.273081142683014D+03 -.737214815509466D+02 -.137450886910609D+02 0.257778056055726D+03
 0.393071035879855D+02 -.146822035901913D+02 0.171779231562549D+02 0.321620933126343D+02
 0.303137404677724D+03 0.884036851411379D+02 -.343283446519401D+01 -.289940149368361D+03
 0.000000000000000D+00 0.000000000000000D+00 0.000000000000000D+00 0.000000000000000D+00
 0.307762825474362D+03 0.000000000000000D+00 0.000000000000000D+00 0.307762825474362D+03
 0.307762825474362D+03 -.000000000000000D+00 -.000000000000000D+00 -.307762825474362D+03
 0.266365339477125D+03 -.717240906247643D+02 -.138226500777940D+02 0.251227154670114D+03
 0.384248311273006D+02 -.143943880863193D+02 0.171667468916034D+02 0.312181363944362D+02
 0.216323451382707D+03 0.348133673792432D+02 -.363453731244038D+02 -.210387449536070D+03
 0.944120289615912D+02 0.513051113318403D+02 0.330012763105944D+02 -.720578415284805D+02
-.463213348553D-04 0.000000000000D+00 0.000000000000D+00 0.391725676647D-05 0.000000000000D+00  6 22 -4 9900012 11 -3 21 2 0.20045023D+00 0.11184048D-01 0.12348968D+05 0.12348968D+05 0.12348968D+05 0.11999473D+01  1  2 13  2  6  5       -3 -.538003800412D-04 0.100000000000D+01
0.737737249216D-05 0.000000000000D+00 0.000000000000D+00 0.391725676647D-05 0.138432354188D-08  6 22 -4 9900012 11 -3 21 2 0.20045023D+00 0.11184048D-01 0.12348968D+05 0.12348968D+05 0.12348968D+05 0.11999473D+01  1  2  1  2  6  5       -3 0.856852344655D-05 0.100000000000D+01
  </mgrwgt>
  </event>
  <event>
  7     66 -.15041895E-05 0.60102073E+01 0.78161638E-02 0.13704302E+00
       22 -1    0    0    0    0 0.00000000E+00 0.00000000E+00 0.18144729E+03 0.18144729E+03 0.00000000E+00 0.0000E+00 0.9000E+01
       -2 -1    0    0    0  502 0.00000000E+00 0.00000000E+00 -.52332247E+02 0.52332247E+02 0.00000000E+00 0.0000E+00 0.9000E+01
      -24  2    1    2    0    0 0.44255411E+01 -.46740469E+01 0.17071814E+03 0.18953332E+03 0.82077780E+02 0.0000E+00 0.0000E+00
  9900012  1    3    3    0    0 0.17701825E+01 -.10934625E+02 0.61184339E+02 0.79788614E+02 0.50000000E+02 0.0000E+00 0.9000E+01
       11  1    3    3    0    0 0.26553586E+01 0.62605778E+01 0.10953380E+03 0.10974470E+03 0.00000000E+00 0.0000E+00 0.9000E+01
       -1  1    1    2    0  501 -.89548804E+01 0.79934387E+00 -.22311310E+02 0.24054591E+02 0.00000000E+00 0.0000E+00 0.9000E+01
       21  1    1    2  501  502 0.45293393E+01 0.38747031E+01 -.19291796E+02 0.20191623E+02 0.00000000E+00 0.0000E+00 0.9000E+01
#aMCatNLO 2  0  0  2  5 0.59801142D+01 0.00000000D+00  -5  6  0 0.00000000D+00 0.00000000D+00 0.00000000D+00 0.00000000D+00 0.00000000D+00
  <mgrwgt>
 -.2905667836D-04    2    2    0
 0.767458117837578D+02 0.000000000000000D+00 0.000000000000000D+00 0.767458117837578D+02
 0.767458117837578D+02 0.000000000000000D+00 0.000000000000000D+00 -.767458117837578D+02
 0.516468479363004D+02 0.329636457147257D+01 -.962902538104156D+01 0.798828846365332D+01
 0.470440114364948D+02 0.403903707744456D+01 0.744426989016270D+01 0.462753502128995D+02
 0.548007641947203D+02 -.733540164891713D+01 0.218475549087886D+01 -.542636386765528D+02
 0.000000000000000D+00 0.000000000000000D+00 0.000000000000000D+00 -.000000000000000D+00
 0.769945710687874D+02 0.000000000000000D+00 0.000000000000000D+00 0.769945710687874D+02
 0.123327450323984D+03 0.000000000000000D+00 0.000000000000000D+00 -.123327450323984D+03
 0.518315764396262D+02 0.177018248218473D+01 -.109346247131779D+02 0.798828846365332D+01
 0.467723615062452D+02 0.265535860600788D+01 0.626057778626567D+01 0.462753502128995D+02
 0.550033754995539D+02 -.895488041796232D+01 0.799343871836109D+00 -.542636386765528D+02
 0.467147079473464D+02 0.452933932976970D+01 0.387470305507609D+01 -.463328792551969D+02
-.307032458047D-06 0.000000000000D+00 0.000000000000D+00 0.294835457898D-06 0.000000000000D+00  6 22 -2 9900012 11 -1 21 2 0.27824777D-01 0.80772113D-02 0.13309278D+04 0.13309278D+04 0.13309278D+04 0.13123008D+01  1  2 13  1  6  2       -2 -.341304853017D-04 0.100000000000D+01
0.456508074201D-07 0.000000000000D+00 0.000000000000D+00 0.294835457898D-06 0.171145229151D-07  6 22 -2 9900012 11 -1 21 2 0.27914967D-01 0.80511149D-02 0.13309278D+04 0.13309278D+04 0.13309278D+04 0.13123008D+01  1  2  1  1  6  2       -2 0.507380693691D-05 0.100000000000D+01
  </mgrwgt>
  </event>
  <event>
  7     66 0.15041895E-05 0.47879442E+02 0.78161638E-02 0.12294512E+00
       22 -1    0    0    0    0 0.00000000E+00 0.00000000E+00 0.22455891E+03 0.22455891E+03 0.00000000E+00 0.0000E+00 0.9000E+01
       -2 -1    0    0    0  502 0.00000000E+00 0.00000000E+00 -.63776349E+02 0.63776349E+02 0.00000000E+00 0.0000E+00 0.9000E+01
      -24  2    1    2    0    0 0.31226964E+02 -.41115329E+02 0.20019550E+03 0.22126130E+03 0.78820885E+02 0.0000E+00 0.0000E+00
  9900012  1    3    3    0    0 0.39576518E+02 -.45602659E+02 0.14114907E+03 0.16145885E+03 0.50000000E+02 0.0000E+00 0.9000E+01
       11  1    3    3    0    0 -.83495538E+01 0.44873302E+01 0.59046436E+02 0.59802448E+02 0.00000000E+00 0.0000E+00 0.9000E+01
       -1  1    1    2    0  501 -.24244905E+02 0.35417123E+02 -.23881865E+02 0.49117527E+02 0.00000000E+00 0.0000E+00 0.9000E+01
       21  1    1    2  501  502 -.69820596E+01 0.56982058E+01 -.15531080E+02 0.17956424E+02 0.00000000E+00 0.0000E+00 0.9000E+01
#aMCatNLO 2  0  0  2  5 0.91043571D+01 0.00000000D+00  -5  6  0 0.00000000D+00 0.00000000D+00 0.00000000D+00 0.00000000D+00 0.00000000D+00
  <mgrwgt>
 0.1143444881D-03    2    2    0
 0.102392620256647D+03 0.000000000000000D+00 0.000000000000000D+00 0.102392620256647D+03
 0.102392620256647D+03 0.000000000000000D+00 0.000000000000000D+00 -.102392620256647D+03
 0.890316723800091D+02 0.364993893949223D+02 -.430913495548856D+02 0.473029476261022D+02
 0.285298437776753D+02 -.931435396228392D+01 0.527472386809867D+01 0.264456439581107D+02
 0.872237243556097D+02 -.271850354326384D+02 0.378166256867869D+02 -.737485915842128D+02
 0.000000000000000D+00 -.000000000000000D+00 0.000000000000000D+00 -.000000000000000D+00
 0.103048208366899D+03 0.000000000000000D+00 0.000000000000000D+00 0.103048208366899D+03
 0.138979097632162D+03 0.000000000000000D+00 0.000000000000000D+00 -.138979097632162D+03
 0.915613025455330D+02 0.395765178971719D+02 -.456026589230463D+02 0.473029476261022D+02
 0.280931177542710D+02 -.834955381497159D+01 0.448733015133415D+01 0.264456439581107D+02
 0.853290264403817D+02 -.242449045231452D+02 0.354171229389389D+02 -.737485915842128D+02
 0.370438592588758D+02 -.698205955905512D+01 0.569820583277328D+01 -.359308892652624D+02
-.219535373930D-05 0.000000000000D+00 0.000000000000D+00 0.858103833058D-06 0.000000000000D+00  6 22 -2 9900012 11 -1 21 2 0.34327734D-01 0.98745675D-02 0.48865453D+04 0.48865453D+04 0.48865453D+04 0.12429698D+01  1  2 13  1  6  2       -2 -.134909139340D-03 0.100000000000D+01
0.405772099518D-05 0.000000000000D+00 0.000000000000D+00 0.858103833058D-06 0.357539381774D-06  6 22 -2 9900012 11 -1 21 2 0.34547524D-01 0.98117459D-02 0.48865453D+04 0.48865453D+04 0.48865453D+04 0.12429698D+01  1  2  1  1  6  2       -2 0.249253627477D-03 0.100000000000D+01
  </mgrwgt>
  </event>
  <event>
  6     66 0.15041895E-05 0.25279106E+02 0.78161638E-02 0.12263961E+00
       22 -1    0    0    0    0 0.00000000E+00 0.00000000E+00 0.95201972E+01 0.95201972E+01 0.00000000E+00 0.0000E+00 0.9000E+01
       -2 -1    0    0    0  501 0.00000000E+00 0.00000000E+00 -.57548219E+03 0.57548219E+03 0.00000000E+00 0.0000E+00 0.9000E+01
      -24  2    1    2    0    0 -.13265738E+02 -.21518676E+02 -.21154716E+03 0.22968717E+03 0.85819345E+02 0.0000E+00 0.0000E+00
  9900012  1    3    3    0    0 -.21584277E+02 -.40161387E+02 -.17786022E+03 0.19029734E+03 0.50000000E+02 0.0000E+00 0.9000E+01
       11  1    3    3    0    0 0.83185394E+01 0.18642712E+02 -.33686941E+02 0.39389831E+02 0.00000000E+00 0.0000E+00 0.9000E+01
       -1  1    1    2    0  501 0.13265738E+02 0.21518676E+02 -.35441483E+03 0.35531522E+03 0.00000000E+00 0.0000E+00 0.9000E+01
#aMCatNLO 1  0  0  2  5 0.47565251D+02 0.00000000D+00  -5  6  0 0.00000000D+00 0.00000000D+00 0.00000000D+00 0.00000000D+00 0.00000000D+00
  <mgrwgt>
 0.1677288562D-04    4    2    0
 0.740182679090868D+02 0.000000000000000D+00 0.000000000000000D+00 0.740182679090868D+02
 0.740182679090868D+02 0.000000000000000D+00 0.000000000000000D+00 -.740182679090868D+02
 0.720245914510758D+02 -.215842770546714D+02 -.401613874014609D+02 0.246723270023594D+02
 0.268691570786944D+02 0.831853937411405D+01 0.186427115411521D+02 0.174700546992349D+02
 0.491427872884034D+02 0.132657376805573D+02 0.215186758603088D+02 -.421423817015943D+02
 0.000000000000000D+00 0.000000000000000D+00 0.000000000000000D+00 0.000000000000000D+00
 0.957487392971390D+02 0.000000000000000D+00 0.000000000000000D+00 0.957487392971390D+02
 0.849195502465177D+02 0.000000000000000D+00 0.000000000000000D+00 -.849195502465177D+02
 0.776128929680791D+02 -.355984564697820D+02 -.405929468274008D+02 0.246723270023594D+02
 0.256647096064858D+02 0.339852193360852D+01 0.184912021420395D+02 0.174700546992349D+02
 0.473813082550174D+02 0.422585039511179D+01 0.212402971945367D+02 -.421423817015943D+02
 0.300093787140744D+02 0.279740841410616D+02 0.861447490824595D+00 0.108291890506213D+02
0.290713228759D-06 0.000000000000D+00 0.000000000000D+00 0.108762652709D-07 0.000000000000D+00  6 22 -2 9900012 11 -1 21 0 0.14646457D-02 0.88535722D-01 0.32126505D+04 0.32126505D+04 0.32126505D+04 0.12640699D+01  1  2  2  1  6  2       -2 0.207069819500D-04 0.100000000000D+01
0.161406670443D-07 0.000000000000D+00 -.558207672492D-09 0.108762652709D-07 0.000000000000D+00  6 22 -2 9900012 11 -1 21 2 0.14646457D-02 0.88535722D-01 0.32126505D+04 0.32126505D+04 0.32126505D+04 0.12640699D+01  1  2  3  1  6  2       -2 0.183702767494D-05 0.100000000000D+01
-.478120001126D-07 0.000000000000D+00 0.000000000000D+00 0.108762652709D-07 0.000000000000D+00  6 22 -2 9900012 11 -1 21 2 0.14646457D-02 0.88535722D-01 0.32126505D+04 0.32126505D+04 0.32126505D+04 0.12640699D+01  1  2 15  1  6  2       -2 -.544165660317D-05 0.100000000000D+01
-.289479774553D-08 0.000000000000D+00 0.000000000000D+00 0.108762652709D-07 0.000000000000D+00  6 22 -2 9900012 11 -1 21 2 0.14646457D-02 0.88535722D-01 0.32126505D+04 0.32126505D+04 0.32126505D+04 0.12640699D+01  1  2  4  1  6  2       -2 -.329467397927D-06 0.100000000000D+01
  </mgrwgt>
  </event>
  <event>
  7     66 0.15041895E-05 0.63209964E+02 0.78161638E-02 0.11949707E+00
       22 -1    0    0    0    0 0.00000000E+00 0.00000000E+00 0.20127051E+03 0.20127051E+03 0.00000000E+00 0.0000E+00 0.9000E+01
       21 -1    0    0  502  501 0.00000000E+00 0.00000000E+00 -.82571748E+02 0.82571748E+02 0.00000000E+00 0.0000E+00 0.9000E+01
      -24  2    1    2    0    0 0.84912050E+01 -.63104800E+02 -.38284436E+02 0.10876132E+03 0.79429276E+02 0.0000E+00 0.0000E+00
  9900012  1    3    3    0    0 0.19863811E+02 -.20396179E+02 -.23589638E+02 0.62185578E+02 0.50000000E+02 0.0000E+00 0.9000E+01
       11  1    3    3    0    0 -.11372606E+02 -.42708621E+02 -.14694798E+02 0.46575740E+02 0.00000000E+00 0.0000E+00 0.9000E+01
        4  1    1    2  502    0 0.19524626E+01 -.23308223E+00 0.51931596E+02 0.51968809E+02 0.00000000E+00 0.0000E+00 0.9000E+01
       -3  1    1    2    0  501 -.10443668E+02 0.63337882E+02 0.10505160E+03 0.12311213E+03 0.00000000E+00 0.0000E+00 0.9000E+01
#aMCatNLO 2  0  0  2  5 0.66578254D+02 0.00000000D+00  -5  6  0 0.00000000D+00 0.00000000D+00 0.00000000D+00 0.00000000D+00 0.00000000D+00
  <mgrwgt>
 0.8591560542D-03    1    2    0
 0.111022042394458D+03 0.000000000000000D+00 0.000000000000000D+00 0.111022042394458D+03
 0.111022042394458D+03 0.000000000000000D+00 0.000000000000000D+00 -.111022042394458D+03
 0.722277074987873D+02 0.204980320774220D+02 -.204718916092613D+02 -.433309827423982D+02
 0.530009956316350D+02 -.109063374037219D+02 -.427642833087802D+02 -.293491637950240D+02
 0.000000000000000D+00 0.000000000000000D+00 -.000000000000000D+00 0.000000000000000D+00
 0.968153816584936D+02 -.959169467370005D+01 0.632361749180415D+02 0.726801465374222D+02
 0.149653718637246D+03 0.000000000000000D+00 0.000000000000000D+00 0.149653718637246D+03
 0.111051419522663D+03 0.000000000000000D+00 0.000000000000000D+00 -.111051419522663D+03
 0.720288080759575D+02 0.198638113200584D+02 -.203961792319600D+02 -.433309827423982D+02
 0.530540844767764D+02 -.113726063480440D+02 -.427086207814559D+02 -.293491637950240D+02
 0.386523470776396D+02 0.195246263806987D+01 -.233082229182605D+00 0.386022991145825D+02
 0.969698985295353D+02 -.104436676100843D+02 0.633378822425985D+02 0.726801465374222D+02
0.122077264409D-05 0.000000000000D+00 0.000000000000D+00 0.253622583006D-07 0.252221997843D-08  6 22 21 9900012 11 4 -3 2 0.30964694D-01 0.12703346D-01 0.70470913D+04 0.70470913D+04 0.70470913D+04 0.12254161D+01  1  2  1  3  5  2       -4 0.859156054203D-03 0.100000000000D+01
  </mgrwgt>
  </event>
  <event>
  6     66 0.15041895E-05 0.21777614E+02 0.78161638E-02 0.98876543E-01
       22 -1    0    0    0    0 0.00000000E+00 0.00000000E+00 0.76791763E+03 0.76791763E+03 0.00000000E+00 0.0000E+00 0.9000E+01
       -2 -1    0    0    0  501 0.00000000E+00 0.00000000E+00 -.95775128E+02 0.95775128E+02 0.00000000E+00 0.0000E+00 0.9000E+01
      -24  2    1    2    0    0 -.95449876E+01 0.19574415E+02 0.76430446E+03 0.76899274E+03 0.81940596E+02 0.0000E+00 0.0000E+00
  9900012  1    3    3    0    0 -.31805414E+02 0.15026523E+02 0.50274318E+03 0.50644653E+03 0.50000000E+02 0.0000E+00 0.9000E+01
       11  1    3    3    0    0 0.22260427E+02 0.45478912E+01 0.26156128E+03 0.26254621E+03 0.00000000E+00 0.0000E+00 0.9000E+01
       -1  1    1    2    0  501 0.95449876E+01 -.19574415E+02 -.92161965E+02 0.94700012E+02 0.00000000E+00 0.0000E+00 0.9000E+01
#aMCatNLO 1  0  0  2  5 0.43590966D+01 0.00000000D+00  -5  6  0 0.00000000D+00 0.00000000D+00 0.00000000D+00 0.00000000D+00 0.00000000D+00
  <mgrwgt>
 0.2273337340D-03    3    2    0
 0.271196255553281D+03 0.000000000000000D+00 0.000000000000000D+00 0.271196255553281D+03
 0.271196255553281D+03 0.000000000000000D+00 0.000000000000000D+00 -.271196255553281D+03
 0.183444900502321D+03 -.318054144021778D+02 0.150265233302526D+02 0.172958523154014D+03
 0.939408406876713D+02 0.222604268379800D+02 0.454789117122612D+01 0.911519151306875D+02
 0.265006769916569D+03 0.954498756419780D+01 -.195744145014787D+02 -.264110438284701D+03
 0.000000000000000D+00 -.000000000000000D+00 -.000000000000000D+00 0.000000000000000D+00
 0.754754490022075D+03 0.000000000000000D+00 0.000000000000000D+00 0.754754490022075D+03
 0.373366779485110D+03 0.000000000000000D+00 0.000000000000000D+00 -.373366779485110D+03
 0.195657640205723D+03 0.708556320584758D+02 0.290988117428973D+02 0.172958523154014D+03
 0.122505585044576D+03 0.808741637093805D+02 0.125823836942820D+02 0.911519151306875D+02
 0.311818093022020D+03 0.165749279793944D+03 0.183732760844129D+01 -.264110438284701D+03
 0.498139951234867D+03 -.317479075561801D+03 -.435185230456205D+02 0.381387710536965D+03
0.101249802574D-03 0.000000000000D+00 0.000000000000D+00 0.310344978576D-04 0.000000000000D+00  6 22 -2 9900012 11 -1 21 0 0.11814117D+00 0.14734635D-01 0.27895293D+04 0.27895293D+04 0.27895293D+04 0.12714334D+01  1  2  2  1  6  2       -2 0.240607380181D-03 0.100000000000D+01
0.137546622994D-04 0.000000000000D+00 -.194412950785D-06 0.310344978576D-04 0.000000000000D+00  6 22 -2 9900012 11 -1 21 2 0.11814117D+00 0.14734635D-01 0.27895293D+04 0.27895293D+04 0.27895293D+04 0.12714334D+01  1  2  3  1  6  2       -2 0.528386768369D-04 0.100000000000D+01
-.172099819856D-04 0.000000000000D+00 0.000000000000D+00 0.310344978576D-04 0.000000000000D+00  6 22 -2 9900012 11 -1 21 2 0.11814117D+00 0.14734635D-01 0.27895293D+04 0.27895293D+04 0.27895293D+04 0.12714334D+01  1  2 15  1  6  2       -2 -.661123229864D-04 0.100000000000D+01
  </mgrwgt>
  </event>
  <event>
  6     66 0.15041895E-05 0.57240118E+02 0.78161638E-02 0.11576260E+00
       22 -1    0    0    0    0 0.00000000E+00 0.00000000E+00 0.41850194E+03 0.41850194E+03 0.00000000E+00 0.0000E+00 0.9000E+01
       -4 -1    0    0    0  501 0.00000000E+00 0.00000000E+00 -.59123272E+02 0.59123272E+02 0.00000000E+00 0.0000E+00 0.9000E+01
      -24  2    1    2    0    0 0.61998576E+02 -.21969556E+02 0.38869788E+03 0.40561062E+03 0.95432943E+02 0.0000E+00 0.0000E+00
  9900012  1    3    3    0    0 0.25692284E+02 0.19963263E+02 0.17778533E+03 0.18752666E+03 0.50000000E+02 0.0000E+00 0.9000E+01
       11  1    3    3    0    0 0.36306292E+02 -.41932819E+02 0.21091255E+03 0.21808396E+03 0.00000000E+00 0.0000E+00 0.9000E+01
       -3  1    1    2    0  501 -.61998576E+02 0.21969556E+02 -.29319215E+02 0.72014590E+02 0.00000000E+00 0.0000E+00 0.9000E+01
#aMCatNLO 1  0  0  2  5 0.29665927D+02 0.00000000D+00  -5  6  0 0.00000000D+00 0.00000000D+00 0.00000000D+00 0.00000000D+00 0.00000000D+00
  <mgrwgt>
 0.6267238907D-04    9    4    0
 0.157299725903377D+03 0.000000000000000D+00 0.000000000000000D+00 0.157299725903377D+03
 0.157299725903377D+03 0.000000000000000D+00 0.000000000000000D+00 -.157299725903377D+03
 0.816123690254789D+02 0.256922844574230D+02 0.199632627947102D+02 0.556951832378631D+02
 0.901620269115430D+02 0.363062915655048D+02 -.419328186628890D+02 0.710822270933011D+02
 0.142825055869732D+03 -.619985760229279D+02 0.219695558681789D+02 -.126777410331164D+03
 0.000000000000000D+00 -.000000000000000D+00 0.000000000000000D+00 -.000000000000000D+00
 0.160272858458851D+03 0.000000000000000D+00 0.000000000000000D+00 0.160272858458851D+03
 0.249980066014662D+03 0.000000000000000D+00 0.000000000000000D+00 -.249980066014662D+03
 0.836831306725699D+02 0.329786186596570D+02 0.177009501034319D+02 0.556951832378631D+02
 0.949049332793141D+02 0.444641647332885D+02 -.444657329499741D+02 0.710822270933011D+02
 0.137354710083668D+03 -.496480679015972D+02 0.181348825618055D+02 -.126777410331164D+03
 0.943101504379609D+02 -.277947154913484D+02 0.862990028473671D+01 -.897072075558108D+02
 0.157299725903377D+03 0.000000000000000D+00 0.000000000000000D+00 0.157299725903377D+03
 0.157299725903377D+03 0.000000000000000D+00 0.000000000000000D+00 -.157299725903377D+03
 0.816123690254789D+02 0.256922844574230D+02 0.199632627947102D+02 0.556951832378631D+02
 0.901620269115430D+02 0.363062915655048D+02 -.419328186628890D+02 0.710822270933011D+02
 0.000000000000000D+00 -.000000000000000D+00 0.000000000000000D+00 -.000000000000000D+00
 0.142825055869732D+03 -.619985760229279D+02 0.219695558681789D+02 -.126777410331164D+03
 0.160272858458851D+03 0.000000000000000D+00 0.000000000000000D+00 0.160272858458851D+03
 0.249980066014662D+03 0.000000000000000D+00 0.000000000000000D+00 -.249980066014662D+03
 0.836831306725699D+02 0.329786186596570D+02 0.177009501034319D+02 0.556951832378631D+02
 0.949049332793141D+02 0.444641647332885D+02 -.444657329499741D+02 0.710822270933011D+02
 0.943101504379609D+02 -.277947154913484D+02 0.862990028473671D+01 -.897072075558108D+02
 0.137354710083668D+03 -.496480679015972D+02 0.181348825618055D+02 -.126777410331164D+03
0.119627607347D-05 0.000000000000D+00 0.000000000000D+00 0.298955499889D-07 0.000000000000D+00  6 22 -4 9900012 11 -3 21 0 0.64384914D-01 0.90958879D-02 0.81808872D+04 0.81808872D+04 0.81808872D+04 0.12184779D+01  1  2  2  1  6  2       -4 0.132060891190D-04 0.100000000000D+01
0.284861338651D-07 0.000000000000D+00 -.229700755443D-08 0.298955499889D-07 0.000000000000D+00  6 22 -4 9900012 11 -3 21 2 0.64384914D-01 0.90958879D-02 0.81808872D+04 0.81808872D+04 0.81808872D+04 0.12184779D+01  1  2  3  1  6  2       -4 0.466886850554D-06 0.100000000000D+01
-.192935274811D-06 0.000000000000D+00 0.000000000000D+00 0.298955499889D-07 0.000000000000D+00  6 22 -4 9900012 11 -3 21 2 0.64384914D-01 0.90958879D-02 0.81808872D+04 0.81808872D+04 0.81808872D+04 0.12184779D+01  1  2 15  1  6  2       -4 -.316220317027D-05 0.100000000000D+01
0.474546923370D-05 0.000000000000D+00 0.000000000000D+00 0.298955499889D-07 0.000000000000D+00  6 22 -4 9900012 11 -3 21 2 0.64384914D-01 0.14728365D-01 0.10743354D+05 0.10743354D+05 0.10743354D+05 0.12061159D+01  1  2 12  1  6  2       -4 0.352472509656D-04 0.100000000000D+01
-.139511295865D-05 0.000000000000D+00 0.000000000000D+00 0.298955499889D-07 0.000000000000D+00  6 22 -4 9900012 11 -3 21 2 0.64384914D-01 0.90958879D-02 0.81808872D+04 0.81808872D+04 0.81808872D+04 0.12184779D+01  1  2  4  1  6  2       -4 -.228658581228D-04 0.100000000000D+01
-.505719149278D-05 0.000000000000D+00 -.392914722691D-06 0.298955499889D-07 0.000000000000D+00  6 22 -4 9900012 11 -3 21 2 0.64384914D-01 0.14663952D-01 0.81808872D+04 0.81808872D+04 0.81808872D+04 0.12184779D+01  1  2  5  1  6  2       -4 -.375970472675D-04 0.100000000000D+01
0.473539624551D-05 0.000000000000D+00 0.352004612318D-06 0.298955499889D-07 0.000000000000D+00  6 22 -4 9900012 11 -3 21 2 0.64384914D-01 0.90958879D-02 0.81808872D+04 0.81808872D+04 0.81808872D+04 0.12184779D+01  1  2  6  1  6  2       -4 0.776129975958D-04 0.100000000000D+01
0.259944306149D-06 0.000000000000D+00 0.000000000000D+00 0.298955499889D-07 0.000000000000D+00  6 22 21 9900012 11 4 -3 2 0.64384914D-01 0.14728365D-01 0.10743354D+05 0.10743354D+05 0.10743354D+05 0.12061159D+01  3  4 12  3  5  2       -4 0.426110191897D-04 0.100000000000D+01
-.258251678352D-06 0.000000000000D+00 -.213704776711D-07 0.298955499889D-07 0.000000000000D+00  6 22 21 9900012 11 4 -3 2 0.64384914D-01 0.14663952D-01 0.81808872D+04 0.81808872D+04 0.81808872D+04 0.12184779D+01  3  4  5  3  5  2       -4 -.428467460878D-04 0.100000000000D+01
  </mgrwgt>
  </event>
  <event>
  6     66 0.15041895E-05 0.53281484E+02 0.78161638E-02 0.10918898E+00
       22 -1    0    0    0    0 0.00000000E+00 0.00000000E+00 0.60217834E+02 0.60217834E+02 0.00000000E+00 0.0000E+00 0.9000E+01
       -2 -1    0    0    0  501 0.00000000E+00 0.00000000E+00 -.36007700E+03 0.36007700E+03 0.00000000E+00 0.0000E+00 0.9000E+01
      -24  2    1    2    0    0 -.56835229E+01 0.52977486E+02 0.17491109E+02 0.98502800E+02 0.80981148E+02 0.0000E+00 0.0000E+00
  9900012  1    3    3    0    0 0.87900655E+01 0.48702248E+02 0.32253318E+02 0.77391542E+02 0.50000000E+02 0.0000E+00 0.9000E+01
       11  1    3    3    0    0 -.14473588E+02 0.42752379E+01 -.14762209E+02 0.21111258E+02 0.00000000E+00 0.0000E+00 0.9000E+01
       -1  1    1    2    0  501 0.56835229E+01 -.52977486E+02 -.31735028E+03 0.32179204E+03 0.00000000E+00 0.0000E+00 0.9000E+01
#aMCatNLO 1  0  0  2  2 0.13201564D+03 0.00000000D+00  -5  6  0 0.00000000D+00 0.00000000D+00 0.00000000D+00 0.00000000D+00 0.00000000D+00
  <mgrwgt>
 0.9762634557D-04    3    2    0
 0.147251680257653D+03 0.000000000000000D+00 0.000000000000000D+00 0.147251680257653D+03
 0.147251680257653D+03 0.000000000000000D+00 0.000000000000000D+00 -.147251680257653D+03
 0.143287731954582D+03 0.879006551113987D+01 0.487022483630403D+02 0.124828682126276D+03
 0.150978557424876D+02 -.144735884568585D+02 0.427523791326389D+01 0.427581556488619D+00
 0.136117772818235D+03 0.568352294571862D+01 -.529774862763042D+02 -.125256263682764D+03
 0.000000000000000D+00 -.000000000000000D+00 0.000000000000000D+00 0.000000000000000D+00
 0.316402307156697D+03 0.000000000000000D+00 0.000000000000000D+00 0.316402307156697D+03
 0.186175181317101D+03 0.000000000000000D+00 0.000000000000000D+00 -.186175181317101D+03
 0.136242932655253D+03 0.204763333328976D+02 -.778823409772775D+01 0.124828682126276D+03
 0.133721914276003D+02 -.132833483928851D+02 -.147828720557742D+01 0.427581556488619D+00
 0.171088910980391D+03 0.185268351043894D+02 -.115061028370621D+03 -.125256263682764D+03
 0.181873453410554D+03 -.257198200444019D+02 0.124327549673926D+03 0.130227125839596D+03
0.798171958945D-05 0.000000000000D+00 0.000000000000D+00 0.355565330636D-05 0.000000000000D+00  6 22 -2 9900012 11 -1 21 0 0.92642822D-02 0.55396462D-01 0.48110628D+04 0.48110628D+04 0.48110628D+04 0.12437342D+01  1  2  2  1  6  2       -2 0.126180670699D-03 0.100000000000D+01
0.163492142925D-06 0.000000000000D+00 -.153259524293D-07 0.355565330636D-05 0.000000000000D+00  6 22 -2 9900012 11 -1 21 2 0.92642822D-02 0.55396462D-01 0.48110628D+04 0.48110628D+04 0.48110628D+04 0.12437342D+01  1  2  3  1  6  2       -2 0.399805178414D-05 0.100000000000D+01
-.133116281296D-05 0.000000000000D+00 0.000000000000D+00 0.355565330636D-05 0.000000000000D+00  6 22 -2 9900012 11 -1 21 2 0.92642822D-02 0.55396462D-01 0.48110628D+04 0.48110628D+04 0.48110628D+04 0.12437342D+01  1  2 15  1  6  2       -2 -.325523769162D-04 0.100000000000D+01
  </mgrwgt>
  </event>
  <event>
  6     66 0.15041895E-05 0.10081594E+03 0.78161638E-02 0.11234989E+00
       22 -1    0    0    0    0 0.00000000E+00 0.00000000E+00 0.12931005E+03 0.12931005E+03 0.00000000E+00 0.0000E+00 0.9000E+01
       -4 -1    0    0    0  501 -.00000000E+00 -.00000000E+00 -.42708932E+03 0.42708932E+03 0.00000000E+00 0.0000E+00 0.9000E+01
      -24  2    1    2    0    0 0.11092129E+03 -.12544674E+02 0.82750234E+02 0.15983462E+03 0.78984827E+02 0.0000E+00 0.0000E+00
  9900012  1    3    3    0    0 0.58978685E+02 -.24380390E+02 0.64230830E+02 0.10343350E+03 0.50000000E+02 0.0000E+00 0.9000E+01
       11  1    3    3    0    0 0.51942601E+02 0.11835717E+02 0.18519404E+02 0.56401120E+02 0.00000000E+00 0.0000E+00 0.9000E+01
       -3  1    1    2    0  501 -.11092129E+03 0.12544674E+02 -.38052950E+03 0.39656475E+03 0.00000000E+00 0.0000E+00 0.9000E+01
#aMCatNLO 1  0  0  5  2 0.15430247D+02 0.00000000D+00  -5  6  0 0.00000000D+00 0.00000000D+00 0.00000000D+00 0.00000000D+00 0.00000000D+00
  <mgrwgt>
 0.3993649968D-04    7    2    0
 0.235004131117694D+03 0.000000000000000D+00 0.000000000000000D+00 0.235004131117694D+03
 0.235004131117694D+03 -.000000000000000D+00 -.000000000000000D+00 -.235004131117694D+03
 0.163139563177890D+03 0.589786853869580D+02 -.243803904394503D+02 0.141568458019147D+03
 0.785012628643920D+02 0.519426009589133D+02 0.118357168714693D+02 0.576570054986026D+02
 0.228367436193106D+03 -.110921286345871D+03 0.125446735679809D+02 -.199225463517750D+03
 0.000000000000000D+00 0.000000000000000D+00 0.000000000000000D+00 -.000000000000000D+00
 0.235004131117694D+03 0.000000000000000D+00 0.000000000000000D+00 0.235004131117694D+03
 0.235004131117694D+03 -.000000000000000D+00 -.000000000000000D+00 -.235004131117694D+03
 0.161010398306758D+03 0.578785525520506D+02 -.242559706121116D+02 0.139592512002058D+03
 0.774624589818550D+02 0.514132755483177D+02 0.118955810752296D+02 0.567062853640667D+02
 0.211245670133466D+03 -.114935419780885D+03 0.991102389713229D+01 -.176964273330069D+03
 0.202897348133093D+02 0.564359168051673D+01 0.244936563974975D+01 -.193345240360561D+02
0.298019571888D-05 0.000000000000D+00 0.000000000000D+00 0.469655394164D-05 0.000000000000D+00  6 22 -4 9900012 11 -3 21 0 0.19893854D-01 0.65706049D-01 0.15126017D+05 0.15126017D+05 0.15126017D+05 0.11911296D+01  1  2  2  2  6  5       -3 0.550300651600D-05 0.100000000000D+01
0.169551072937D-07 0.000000000000D+00 -.572236813203D-08 0.469655394164D-05 0.000000000000D+00  6 22 -4 9900012 11 -3 21 2 0.19893854D-01 0.65706049D-01 0.15126017D+05 0.15126017D+05 0.15126017D+05 0.11911296D+01  1  2  3  2  6  5       -3 0.444195166074D-07 0.100000000000D+01
-.524750370445D-06 0.000000000000D+00 0.000000000000D+00 0.469655394164D-05 0.000000000000D+00  6 22 -4 9900012 11 -3 21 2 0.19893854D-01 0.65706049D-01 0.15126017D+05 0.15126017D+05 0.15126017D+05 0.11911296D+01  1  2 15  2  6  5       -3 -.137475731595D-05 0.100000000000D+01
0.147488401764D-04 0.000000000000D+00 0.000000000000D+00 0.469655394164D-05 0.000000000000D+00  6 22 -4 9900012 11 -3 21 2 0.19893854D-01 0.65706049D-01 0.16195683D+05 0.16195683D+05 0.16195683D+05 0.11882047D+01  1  2 12  2  6  5       -3 0.386416847712D-04 0.100000000000D+01
-.247956553335D-05 0.000000000000D+00 0.000000000000D+00 0.469655394164D-05 0.000000000000D+00  6 22 -4 9900012 11 -3 21 2 0.19893854D-01 0.65706049D-01 0.15126017D+05 0.15126017D+05 0.15126017D+05 0.11911296D+01  1  2  4  2  6  5       -3 -.649604278402D-05 0.100000000000D+01
-.148860281084D-04 0.000000000000D+00 0.000000000000D+00 0.469655394164D-05 0.000000000000D+00  6 22 -4 9900012 11 -3 21 2 0.19893854D-01 0.65706049D-01 0.15126017D+05 0.15126017D+05 0.15126017D+05 0.11911296D+01  1  2  5  2  6  5       -3 -.389988787051D-04 0.100000000000D+01
0.162671053246D-04 0.000000000000D+00 -.000000000000D+00 0.469655394164D-05 0.000000000000D+00  6 22 -4 9900012 11 -3 21 2 0.19893854D-01 0.65706049D-01 0.15126017D+05 0.15126017D+05 0.15126017D+05 0.11911296D+01  1  2  6  2  6  5       -3 0.426170676835D-04 0.100000000000D+01
  </mgrwgt>
  </event>
  <event>
  6     66 0.15041895E-05 0.54387937E+02 0.78161638E-02 0.12216913E+00
       22 -1    0    0    0    0 0.00000000E+00 0.00000000E+00 0.11879490E+03 0.11879490E+03 0.00000000E+00 0.0000E+00 0.9000E+01
       -2 -1    0    0    0  501 -.00000000E+00 -.00000000E+00 -.12448054E+03 0.12448054E+03 0.00000000E+00 0.0000E+00 0.9000E+01
      -24  2    1    2    0    0 0.43121079E+02 -.33145441E+02 0.91623264E+02 0.13179866E+03 0.77575878E+02 0.0000E+00 0.0000E+00
  9900012  1    3    3    0    0 0.33374440E+02 -.46450464E+02 0.85062013E+02 0.11404843E+03 0.50000000E+02 0.0000E+00 0.9000E+01
       11  1    3    3    0    0 0.97466388E+01 0.13305023E+02 0.65612516E+01 0.17750229E+02 0.00000000E+00 0.0000E+00 0.9000E+01
       -1  1    1    2    0  501 -.43121079E+02 0.33145441E+02 -.97308908E+02 0.11147677E+03 0.00000000E+00 0.0000E+00 0.9000E+01
#aMCatNLO 1  0  0  5  2 0.89399374D+01 0.00000000D+00  -5  6  0 0.00000000D+00 0.00000000D+00 0.00000000D+00 0.00000000D+00 0.00000000D+00
  <mgrwgt>
 0.8070537903D-04    8    2    0
 0.121604493188213D+03 0.000000000000000D+00 0.000000000000000D+00 0.121604493188213D+03
 0.121604493188213D+03 -.000000000000000D+00 -.000000000000000D+00 -.121604493188213D+03
 0.116068138389532D+03 0.333744404779894D+02 -.464504639579276D+02 0.877514322964928D+02
 0.179084650674087D+02 0.974663882419080D+01 0.133050230733810D+02 0.697800212941880D+01
 0.109232382919485D+03 -.431210793021802D+02 0.331454408845465D+02 -.947294344259115D+02
 0.000000000000000D+00 -.000000000000000D+00 0.000000000000000D+00 0.000000000000000D+00
 0.121604493188213D+03 0.000000000000000D+00 0.000000000000000D+00 0.121604493188213D+03
 0.121604493188213D+03 -.000000000000000D+00 -.000000000000000D+00 -.121604493188213D+03
 0.113631227346900D+03 0.322912277093949D+02 -.456178418304703D+02 0.853718041751090D+02
 0.177735071560002D+02 0.957837032333049D+01 0.134343643083003D+02 0.660834579947191D+01
 0.104135430309054D+03 -.343443924694491D+02 0.313273390997592D+02 -.931839491354872D+02
 0.766882156447063D+01 -.752520556327620D+01 0.856138422410748D+00 0.120379916090631D+01
0.516830056701D-06 0.000000000000D+00 0.000000000000D+00 0.517005950017D-06 0.000000000000D+00  6 22 -2 9900012 11 -1 21 0 0.18276138D-01 0.19150852D-01 0.53913309D+04 0.53913309D+04 0.53913309D+04 0.12381779D+01  1  2  2  2  6  5       -1 0.194088661049D-04 0.100000000000D+01
0.994018389666D-08 0.000000000000D+00 -.992381751105D-09 0.517005950017D-06 0.000000000000D+00  6 22 -2 9900012 11 -1 21 2 0.18276138D-01 0.19150852D-01 0.53913309D+04 0.53913309D+04 0.53913309D+04 0.12381779D+01  1  2  3  2  6  5       -1 0.572285770174D-06 0.100000000000D+01
-.918029964146D-07 0.000000000000D+00 0.000000000000D+00 0.517005950017D-06 0.000000000000D+00  6 22 -2 9900012 11 -1 21 2 0.18276138D-01 0.19150852D-01 0.53913309D+04 0.53913309D+04 0.53913309D+04 0.12381779D+01  1  2 15  2  6  5       -1 -.528536987380D-05 0.100000000000D+01
0.112848807605D-05 0.000000000000D+00 0.000000000000D+00 0.517005950017D-06 0.000000000000D+00  6 22 -2 9900012 11 -1 21 2 0.18276138D-01 0.19150852D-01 0.52962279D+04 0.52962279D+04 0.52962279D+04 0.12390410D+01  1  2 12  2  6  5       -1 0.649615188728D-04 0.100000000000D+01
-.890895023970D-07 0.000000000000D+00 0.000000000000D+00 0.517005950017D-06 0.000000000000D+00  6 22 -2 9900012 11 -1 21 2 0.18276138D-01 0.19150852D-01 0.53913309D+04 0.53913309D+04 0.53913309D+04 0.12381779D+01  1  2  4  2  6  5       -1 -.512914600210D-05 0.100000000000D+01
-.147616610500D-05 0.000000000000D+00 0.000000000000D+00 0.517005950017D-06 0.000000000000D+00  6 22 -2 9900012 11 -1 21 2 0.18276138D-01 0.19150852D-01 0.53913309D+04 0.53913309D+04 0.53913309D+04 0.12381779D+01  1  2  5  2  6  5       -1 -.849872462207D-04 0.100000000000D+01
0.158343089490D-05 0.000000000000D+00 -.000000000000D+00 0.517005950017D-06 0.000000000000D+00  6 22 -2 9900012 11 -1 21 2 0.18276138D-01 0.19150852D-01 0.53913309D+04 0.53913309D+04 0.53913309D+04 0.12381779D+01  1  2  6  2  6  5       -1 0.911627972506D-04 0.100000000000D+01
0.290649514139D-10 0.000000000000D+00 0.000000000000D+00 0.517005950017D-06 0.499880033493D-08  6 22 -2 9900012 11 -1 21 2 0.18276138D-01 0.19150852D-01 0.52962279D+04 0.52962279D+04 0.52962279D+04 0.12390410D+01  1  2 11  2  6  5       -1 0.167312657519D-08 0.100000000000D+01
  </mgrwgt>
  </event>
  <event>
  7     66 -.15041895E-05 0.75082673E+02 0.78161638E-02 0.11738696E+00
       22 -1    0    0    0    0 0.00000000E+00 0.00000000E+00 0.14881258E+04 0.14881258E+04 0.00000000E+00 0.0000E+00 0.9000E+01
       -2 -1    0    0    0  501 0.00000000E+00 0.00000000E+00 -.32064195E+03 0.32064195E+03 0.00000000E+00 0.0000E+00 0.9000E+01
      -24  2    1    2    0    0 -.31985921E+02 -.79158716E+02 0.14791852E+04 0.14837131E+04 0.78272265E+02 0.0000E+00 0.0000E+00
  9900012  1    3    3    0    0 -.19961239E+02 -.63646423E+02 0.13849010E+04 0.13874077E+04 0.50000000E+02 0.0000E+00 0.9000E+01
       11  1    3    3    0    0 -.12024682E+02 -.15512293E+02 0.94284165E+02 0.96305389E+02 0.00000000E+00 0.0000E+00 0.9000E+01
       -1  1    1    2    0  502 0.27014666E+02 0.56534555E+02 -.27169386E+03 0.27882522E+03 0.00000000E+00 0.0000E+00 0.9000E+01
       21  1    1    2  502  501 0.49712556E+01 0.22624162E+02 -.40007449E+02 0.46229450E+02 0.00000000E+00 0.0000E+00 0.9000E+01
#aMCatNLO 2  0  0  5  2 0.11975669D+02 0.00000000D+00  -5  6  0 0.00000000D+00 0.00000000D+00 0.00000000D+00 0.00000000D+00 0.00000000D+00
  <mgrwgt>
 -.2547786583D-02    2    2    0
 0.690764484368466D+03 0.000000000000000D+00 0.000000000000000D+00 0.690764484368466D+03
 0.690764484368466D+03 -.000000000000000D+00 -.000000000000000D+00 -.690764484368466D+03
 0.646542148556445D+03 -.199804109988444D+02 -.636938694882621D+02 0.641140097034894D+03
 0.464396427477224D+02 -.120260592460302D+02 -.155157014815741D+02 0.420865456539467D+02
 0.688547177432764D+03 0.320064702448747D+02 0.792095709698363D+02 -.683226642688841D+03
 0.000000000000000D+00 0.000000000000000D+00 0.000000000000000D+00 0.000000000000000D+00
 0.690764484368466D+03 0.000000000000000D+00 0.000000000000000D+00 0.690764484368466D+03
 0.690764484368466D+03 -.000000000000000D+00 -.000000000000000D+00 -.690764484368466D+03
 0.646131049507819D+03 -.199612391271089D+02 -.636464229650046D+02 0.640730844360053D+03
 0.464115077940526D+02 -.120246821536983D+02 -.155122934552607D+02 0.420571495298697D+02
 0.594651513699555D+03 0.270146656427130D+02 0.565345545609005D+02 -.591341250654802D+03
 0.943348977355043D+02 0.497125563809422D+01 0.226241618593650D+02 -.914467432351203D+02
-.301187669623D-01 0.000000000000D+00 0.000000000000D+00 0.615585296731D-03 0.000000000000D+00  6 22 -2 9900012 11 -1 21 2 0.22894244D+00 0.49329531D-01 0.89123968D+04 0.89123968D+04 0.89123968D+04 0.12145485D+01  1  2 13  2  6  5       -1 -.325075963156D-02 0.100000000000D+01
0.651314887477D-02 0.000000000000D+00 0.000000000000D+00 0.615585296731D-03 0.641339089870D-05  6 22 -2 9900012 11 -1 21 2 0.22894244D+00 0.49329531D-01 0.89123968D+04 0.89123968D+04 0.89123968D+04 0.12145485D+01  1  2  1  2  6  5       -1 0.702973048763D-03 0.100000000000D+01
  </mgrwgt>
  </event>
  <event>
  6     66 0.15041895E-05 0.60932184E+02 0.78161638E-02 0.11594961E+00
       22 -1    0    0    0    0 0.00000000E+00 0.00000000E+00 0.20682174E+03 0.20682174E+03 0.00000000E+00 0.0000E+00 0.9000E+01
       -2 -1    0    0    0  501 -.00000000E+00 -.00000000E+00 -.54618838E+03 0.54618838E+03 0.00000000E+00 0.0000E+00 0.9000E+01
      -24  2    1    2    0    0 -.74073606E+02 -.32575304E+02 0.18810854E+03 0.21936407E+03 0.78662091E+02 0.0000E+00 0.0000E+00
  9900012  1    3    3    0    0 -.26896831E+02 -.20173319E+02 0.13144296E+03 0.14459480E+03 0.50000000E+02 0.0000E+00 0.9000E+01
       11  1    3    3    0    0 -.47176775E+02 -.12401985E+02 0.56665574E+02 0.74769276E+02 0.00000000E+00 0.0000E+00 0.9000E+01
       -1  1    1    2    0  501 0.74073606E+02 0.32575304E+02 -.52747517E+03 0.53364605E+03 0.00000000E+00 0.0000E+00 0.9000E+01
#aMCatNLO 1  0  0  5  2 0.25836479D+02 0.00000000D+00  -5  6  0 0.00000000D+00 0.00000000D+00 0.00000000D+00 0.00000000D+00 0.00000000D+00
  <mgrwgt>
 0.2327755559D-03    7    2    0
 0.336100628353390D+03 0.000000000000000D+00 0.000000000000000D+00 0.336100628353390D+03
 0.336100628353390D+03 -.000000000000000D+00 -.000000000000000D+00 -.336100628353390D+03
 0.228337419681449D+03 -.268968306730719D+02 -.201733193038557D+02 0.220244352742109D+03
 0.112365791970157D+03 -.471767752497100D+02 -.124019850471204D+02 0.101225559267460D+03
 0.331498045055175D+03 0.740736059227820D+02 0.325753043509761D+02 -.321469912009569D+03
 0.000000000000000D+00 0.000000000000000D+00 0.000000000000000D+00 -.000000000000000D+00
 0.336100628353390D+03 0.000000000000000D+00 0.000000000000000D+00 0.336100628353390D+03
 0.336100628353390D+03 -.000000000000000D+00 -.000000000000000D+00 -.336100628353390D+03
 0.226917415781195D+03 -.265697807114499D+02 -.200294927423552D+02 0.218824998019525D+03
 0.111661303945794D+03 -.470158366996622D+02 -.123312091994442D+02 0.100527106682652D+03
 0.209388798167621D+03 0.580127678765235D+02 -.264732342402628D+01 -.201174499477628D+03
 0.124233738812171D+03 0.155728495345886D+02 0.350080253658258D+02 -.118177605224549D+03
0.215636669746D-04 0.000000000000D+00 0.000000000000D+00 0.386638155239D-04 0.000000000000D+00  6 22 -2 9900012 11 -1 21 0 0.31818730D-01 0.84028981D-01 0.90204901D+04 0.90204901D+04 0.90204901D+04 0.12139987D+01  1  2  2  2  6  5       -1 0.244236495687D-04 0.100000000000D+01
0.421021388274D-06 0.000000000000D+00 -.414050795131D-07 0.386638155239D-04 0.000000000000D+00  6 22 -2 9900012 11 -1 21 2 0.31818730D-01 0.84028981D-01 0.90204901D+04 0.90204901D+04 0.90204901D+04 0.12139987D+01  1  2  3  2  6  5       -1 0.702794832856D-06 0.100000000000D+01
-.373963363019D-05 0.000000000000D+00 0.000000000000D+00 0.386638155239D-04 0.000000000000D+00  6 22 -2 9900012 11 -1 21 2 0.31818730D-01 0.84028981D-01 0.90204901D+04 0.90204901D+04 0.90204901D+04 0.12139987D+01  1  2 15  2  6  5       -1 -.624242678704D-05 0.100000000000D+01
0.118129586845D-03 0.000000000000D+00 0.000000000000D+00 0.386638155239D-04 0.000000000000D+00  6 22 -2 9900012 11 -1 21 2 0.31818730D-01 0.84028981D-01 0.10511794D+05 0.10511794D+05 0.10511794D+05 0.12070898D+01  1  2 12  2  6  5       -1 0.196012306737D-03 0.100000000000D+01
-.430637592595D-04 0.000000000000D+00 0.000000000000D+00 0.386638155239D-04 0.000000000000D+00  6 22 -2 9900012 11 -1 21 2 0.31818730D-01 0.84028981D-01 0.90204901D+04 0.90204901D+04 0.90204901D+04 0.12139987D+01  1  2  4  2  6  5       -1 -.718846793391D-04 0.100000000000D+01
-.122801717354D-03 0.000000000000D+00 0.000000000000D+00 0.386638155239D-04 0.000000000000D+00  6 22 -2 9900012 11 -1 21 2 0.31818730D-01 0.84028981D-01 0.90204901D+04 0.90204901D+04 0.90204901D+04 0.12139987D+01  1  2  5  2  6  5       -1 -.204988190210D-03 0.100000000000D+01
0.176576339202D-03 0.000000000000D+00 -.000000000000D+00 0.386638155239D-04 0.000000000000D+00  6 22 -2 9900012 11 -1 21 2 0.31818730D-01 0.84028981D-01 0.90204901D+04 0.90204901D+04 0.90204901D+04 0.12139987D+01  1  2  6  2  6  5       -1 0.294752101085D-03 0.100000000000D+01
  </mgrwgt>
  </event>
  <event>
  7     66 -.15041895E-05 0.73245994E+02 0.78161638E-02 0.11533063E+00
       22 -1    0    0    0    0 0.00000000E+00 0.00000000E+00 0.51305014E+03 0.51305014E+03 0.00000000E+00 0.0000E+00 0.9000E+01
       -2 -1    0    0    0  501 0.00000000E+00 0.00000000E+00 -.46159422E+02 0.46159422E+02 0.00000000E+00 0.0000E+00 0.9000E+01
      -24  2    1    2    0    0 -.30374494E+02 -.85194260E+02 0.44471086E+03 0.46007304E+03 0.75622679E+02 0.0000E+00 0.0000E+00
  9900012  1    3    3    0    0 -.42218126E+02 -.57233103E+02 0.34873260E+03 0.35940565E+03 0.50000000E+02 0.0000E+00 0.9000E+01
       11  1    3    3    0    0 0.11843631E+02 -.27961157E+02 0.95978255E+02 0.10066739E+03 0.00000000E+00 0.0000E+00 0.9000E+01
       -1  1    1    2    0  502 0.36542514E+02 0.71840784E+02 0.12591596E+02 0.81578195E+02 0.00000000E+00 0.0000E+00 0.9000E+01
       21  1    1    2  502  501 -.61680200E+01 0.13353476E+02 0.95882658E+01 0.17558321E+02 0.00000000E+00 0.0000E+00 0.9000E+01
#aMCatNLO 2  0  0  5  2 0.10985917D+02 0.00000000D+00  -5  6  0 0.00000000D+00 0.00000000D+00 0.00000000D+00 0.00000000D+00 0.00000000D+00
  <mgrwgt>
 -.6137935221D-04    2    2    0
 0.153889887963196D+03 0.000000000000000D+00 0.000000000000000D+00 0.153889887963196D+03
 0.153889887963196D+03 -.000000000000000D+00 -.000000000000000D+00 -.153889887963196D+03
 0.125463915359361D+03 -.425658497820403D+02 -.582083982987990D+02 0.896723193472880D+02
 0.377163647298276D+02 0.117390530244954D+02 -.282544781709426D+02 0.220545520428141D+02
 0.144599495837203D+03 0.308267967575449D+02 0.864628764697416D+02 -.111726871390102D+03
 0.000000000000000D+00 0.000000000000000D+00 0.000000000000000D+00 0.000000000000000D+00
 0.153889887963196D+03 0.000000000000000D+00 0.000000000000000D+00 0.153889887963196D+03
 0.153889887963196D+03 -.000000000000000D+00 -.000000000000000D+00 -.153889887963196D+03
 0.123994710800323D+03 -.422181255178658D+02 -.572331026709295D+02 0.884120474984739D+02
 0.373085280579886D+02 0.118436313910207D+02 -.279611571860411D+02 0.216755242184555D+02
 0.129119618119220D+03 0.365425141609739D+02 0.718407838664615D+02 -.100873297831986D+03
 0.173569189488593D+02 -.616802003412886D+01 0.133534759905091D+02 -.921427388494361D+01
-.386632511044D-05 0.000000000000D+00 0.000000000000D+00 0.132655617508D-06 0.000000000000D+00  6 22 -2 9900012 11 -1 21 2 0.78930791D-01 0.71014495D-02 0.11301026D+05 0.11301026D+05 0.11301026D+05 0.12038635D+01  1  2 13  2  6  5       -1 -.971558780285D-04 0.100000000000D+01
0.142372940208D-05 0.000000000000D+00 0.000000000000D+00 0.132655617508D-06 0.317611431389D-08  6 22 -2 9900012 11 -1 21 2 0.78930791D-01 0.71014495D-02 0.11301026D+05 0.11301026D+05 0.11301026D+05 0.12038635D+01  1  2  1  2  6  5       -1 0.357765258179D-04 0.100000000000D+01
  </mgrwgt>
  </event>
  <event>
  6     66 0.15041895E-05 0.22817777E+02 0.78161638E-02 0.12711294E+00
       22 -1    0    0    0    0 0.00000000E+00 0.00000000E+00 0.31611345E+03 0.31611345E+03 0.00000000E+00 0.0000E+00 0.9000E+01
       -4 -1    0    0    0  501 0.00000000E+00 0.00000000E+00 -.27274219E+02 0.27274219E+02 0.00000000E+00 0.0000E+00 0.9000E+01
      -24  2    1    2    0    0 -.11835307E+01 0.22787062E+02 0.30443670E+03 0.31574835E+03 0.80589493E+02 0.0000E+00 0.0000E+00
  9900012  1    3    3    0    0 -.86782875E+01 0.33200217E+02 0.29067584E+03 0.29693436E+03 0.50000000E+02 0.0000E+00 0.9000E+01
       11  1    3    3    0    0 0.74947568E+01 -.10413155E+02 0.13760855E+02 0.18813992E+02 0.00000000E+00 0.0000E+00 0.9000E+01
       -3  1    1    2    0  501 0.11835307E+01 -.22787062E+02 -.15597468E+02 0.27639319E+02 0.00000000E+00 0.0000E+00 0.9000E+01
#aMCatNLO 1  0  0  2  5 0.15230201D+02 0.00000000D+00  -5  6  0 0.00000000D+00 0.00000000D+00 0.00000000D+00 0.00000000D+00 0.00000000D+00
  <mgrwgt>
 0.3224060995D-04    9    4    0
 0.928533651380624D+02 0.000000000000000D+00 0.000000000000000D+00 0.928533651380624D+02
 0.928533651380624D+02 0.000000000000000D+00 0.000000000000000D+00 -.928533651380624D+02
 0.969539976474379D+02 -.867828745845917D+01 0.332002167631013D+02 0.756472775021734D+02
 0.133857192787138D+02 0.749475677230577D+01 -.104131549624846D+02 -.381736889228553D+01
 0.753670133499731D+02 0.118353068615340D+01 -.227870618006167D+02 -.718299086098879D+02
 0.000000000000000D+00 0.000000000000000D+00 0.000000000000000D+00 -.000000000000000D+00
 0.955968778536043D+02 0.000000000000000D+00 0.000000000000000D+00 0.955968778536043D+02
 0.113659276937824D+03 0.000000000000000D+00 0.000000000000000D+00 -.113659276937824D+03
 0.948239324949180D+02 -.980205184108996D+01 0.259419999231848D+02 0.756472775021734D+02
 0.141264509998040D+02 0.733354324254809D+01 -.114544077149257D+02 -.381736889228553D+01
 0.773019105058055D+02 0.288934009485001D+00 -.285651205857928D+02 -.718299086098879D+02
 0.230038607909012D+02 0.217957458905687D+01 0.140775283775337D+02 -.180623990842200D+02
 0.928533651380624D+02 0.000000000000000D+00 0.000000000000000D+00 0.928533651380624D+02
 0.928533651380624D+02 0.000000000000000D+00 0.000000000000000D+00 -.928533651380624D+02
 0.969539976474379D+02 -.867828745845917D+01 0.332002167631013D+02 0.756472775021734D+02
 0.133857192787138D+02 0.749475677230577D+01 -.104131549624846D+02 -.381736889228553D+01
 0.000000000000000D+00 0.000000000000000D+00 0.000000000000000D+00 -.000000000000000D+00
 0.753670133499731D+02 0.118353068615340D+01 -.227870618006167D+02 -.718299086098879D+02
 0.955968778536043D+02 0.000000000000000D+00 0.000000000000000D+00 0.955968778536043D+02
 0.113659276937824D+03 0.000000000000000D+00 0.000000000000000D+00 -.113659276937824D+03
 0.948239324949180D+02 -.980205184108996D+01 0.259419999231848D+02 0.756472775021734D+02
 0.141264509998040D+02 0.733354324254809D+01 -.114544077149257D+02 -.381736889228553D+01
 0.230038607909012D+02 0.217957458905687D+01 0.140775283775337D+02 -.180623990842200D+02
 0.773019105058055D+02 0.288934009485001D+00 -.285651205857928D+02 -.718299086098879D+02
0.147104185615D-06 0.000000000000D+00 0.000000000000D+00 0.125248996319D-05 0.000000000000D+00  6 22 -4 9900012 11 -3 21 0 0.48632838D-01 0.41960337D-02 0.23179689D+04 0.23179689D+04 0.23179689D+04 0.12812882D+01  1  2  2  1  6  2       -4 0.734581183191D-05 0.100000000000D+01
0.107518196462D-07 0.000000000000D+00 -.282459403091D-09 0.125248996319D-05 0.000000000000D+00  6 22 -4 9900012 11 -3 21 2 0.48632838D-01 0.41960337D-02 0.23179689D+04 0.23179689D+04 0.23179689D+04 0.12812882D+01  1  2  3  1  6  2       -4 0.881435154168D-06 0.100000000000D+01
-.240510412518D-07 0.000000000000D+00 0.000000000000D+00 0.125248996319D-05 0.000000000000D+00  6 22 -4 9900012 11 -3 21 2 0.48632838D-01 0.41960337D-02 0.23179689D+04 0.23179689D+04 0.23179689D+04 0.12812882D+01  1  2 15  1  6  2       -4 -.197170655306D-05 0.100000000000D+01
0.321285009733D-06 0.000000000000D+00 0.000000000000D+00 0.125248996319D-05 0.000000000000D+00  6 22 -4 9900012 11 -3 21 2 0.48632838D-01 0.52880100D-02 0.32255864D+04 0.32255864D+04 0.32255864D+04 0.12638624D+01  1  2 12  1  6  2       -4 0.189652144088D-04 0.100000000000D+01
-.206675589375D-07 0.000000000000D+00 0.000000000000D+00 0.125248996319D-05 0.000000000000D+00  6 22 -4 9900012 11 -3 21 2 0.48632838D-01 0.41960337D-02 0.23179689D+04 0.23179689D+04 0.23179689D+04 0.12812882D+01  1  2  4  1  6  2       -4 -.169432836467D-05 0.100000000000D+01
-.403484854190D-06 0.000000000000D+00 -.824350320744D-07 0.125248996319D-05 0.000000000000D+00  6 22 -4 9900012 11 -3 21 2 0.48632838D-01 0.52827059D-02 0.23179689D+04 0.23179689D+04 0.23179689D+04 0.12812882D+01  1  2  5  1  6  2       -4 -.233618726512D-04 0.100000000000D+01
0.413591820716D-06 0.000000000000D+00 0.802962478917D-07 0.125248996319D-05 0.000000000000D+00  6 22 -4 9900012 11 -3 21 2 0.48632838D-01 0.41960337D-02 0.23179689D+04 0.23179689D+04 0.23179689D+04 0.12812882D+01  1  2  6  1  6  2       -4 0.339062951438D-04 0.100000000000D+01
0.102636861191D-07 0.000000000000D+00 0.000000000000D+00 0.125248996319D-05 0.000000000000D+00  6 22 21 9900012 11 4 -3 2 0.48632838D-01 0.52880100D-02 0.32255864D+04 0.32255864D+04 0.32255864D+04 0.12638624D+01  3  4 12  3  5  2       -4 0.144743307654D-04 0.100000000000D+01
-.116417872846D-07 0.000000000000D+00 -.262490455267D-08 0.125248996319D-05 0.000000000000D+00  6 22 21 9900012 11 4 -3 2 0.48632838D-01 0.52827059D-02 0.23179689D+04 0.23179689D+04 0.23179689D+04 0.12812882D+01  3  4  5  3  5  2       -4 -.163045697879D-04 0.100000000000D+01
  </mgrwgt>
  </event>
  <event>
  6     66 0.15041895E-05 0.35264417E+02 0.78161638E-02 0.12263522E+00
       22 -1    0    0    0    0 0.00000000E+00 0.00000000E+00 0.12785198E+02 0.12785198E+02 0.00000000E+00 0.0000E+00 0.9000E+01
       -2 -1    0    0    0  501 0.00000000E+00 0.00000000E+00 -.34467204E+03 0.34467204E+03 0.00000000E+00 0.0000E+00 0.9000E+01
      -24  2    1    2    0    0 0.38684249E+02 0.23983791E+02 -.21083198E+03 0.22812831E+03 0.74301455E+02 0.0000E+00 0.0000E+00
  9900012  1    3    3    0    0 0.35947271E+02 0.38146837E+02 -.16868359E+03 0.18357980E+03 0.50000000E+02 0.0000E+00 0.9000E+01
       11  1    3    3    0    0 0.27369774E+01 -.14163047E+02 -.42148389E+02 0.44548509E+02 0.00000000E+00 0.0000E+00 0.9000E+01
       -1  1    1    2    0  501 -.38684249E+02 -.23983791E+02 -.12105486E+03 0.12932893E+03 0.00000000E+00 0.0000E+00 0.9000E+01
#aMCatNLO 1  0  0  2  5 0.11593026D+02 0.00000000D+00  -5  6  0 0.00000000D+00 0.00000000D+00 0.00000000D+00 0.00000000D+00 0.00000000D+00
  <mgrwgt>
 0.1378282981D-03    9    4    0
 0.663829811303835D+02 0.000000000000000D+00 0.000000000000000D+00 0.663829811303835D+02
 0.663829811303835D+02 0.000000000000000D+00 0.000000000000000D+00 -.663829811303835D+02
 0.725943769347923D+02 0.359472712120024D+02 0.381468373907815D+02 0.474932121915511D+01
 0.145797245780904D+02 0.273697738180788D+01 -.141630468286668D+02 -.211788293194803D+01
 0.455918607478843D+02 -.386842485938103D+02 -.239837905621147D+02 -.263143828720708D+01
 0.000000000000000D+00 -.000000000000000D+00 0.000000000000000D+00 -.000000000000000D+00
 0.699011750276454D+02 0.000000000000000D+00 0.000000000000000D+00 0.699011750276454D+02
 0.730599887388221D+02 0.000000000000000D+00 0.000000000000000D+00 -.730599887388221D+02
 0.711693251172844D+02 0.377523881932670D+02 0.334256484052574D+02 0.474932121915511D+01
 0.156160085286193D+02 0.311611919448121D+01 -.151546723956098D+02 -.211788293194803D+01
 0.463092634245009D+02 -.375303253331198D+02 -.270018164546503D+02 -.263143828720708D+01
 0.986656669606291D+01 -.333818205462839D+01 0.873084044500279D+01 -.315881371117678D+01
 0.663829811303835D+02 0.000000000000000D+00 0.000000000000000D+00 0.663829811303835D+02
 0.663829811303835D+02 0.000000000000000D+00 0.000000000000000D+00 -.663829811303835D+02
 0.725943769347923D+02 0.359472712120024D+02 0.381468373907815D+02 0.474932121915511D+01
 0.145797245780904D+02 0.273697738180788D+01 -.141630468286668D+02 -.211788293194803D+01
 0.000000000000000D+00 -.000000000000000D+00 0.000000000000000D+00 -.000000000000000D+00
 0.455918607478843D+02 -.386842485938103D+02 -.239837905621147D+02 -.263143828720708D+01
 0.699011750276454D+02 0.000000000000000D+00 0.000000000000000D+00 0.699011750276454D+02
 0.730599887388221D+02 0.000000000000000D+00 0.000000000000000D+00 -.730599887388221D+02
 0.711693251172844D+02 0.377523881932670D+02 0.334256484052574D+02 0.474932121915511D+01
 0.156160085286193D+02 0.311611919448121D+01 -.151546723956098D+02 -.211788293194803D+01
 0.986656669606291D+01 -.333818205462839D+01 0.873084044500279D+01 -.315881371117678D+01
 0.463092634245009D+02 -.375303253331198D+02 -.270018164546503D+02 -.263143828720708D+01
0.449630697863D-06 0.000000000000D+00 0.000000000000D+00 0.527245457835D-08 0.000000000000D+00  6 22 -2 9900012 11 -1 21 0 0.19669535D-02 0.53026468D-01 0.43811023D+04 0.43811023D+04 0.43811023D+04 0.12483606D+01  1  2  2  1  6  2       -2 0.633448866407D-04 0.100000000000D+01
-.130790665082D-07 0.000000000000D+00 -.863350135137D-09 0.527245457835D-08 0.000000000000D+00  6 22 -2 9900012 11 -1 21 2 0.19669535D-02 0.53026468D-01 0.43811023D+04 0.43811023D+04 0.43811023D+04 0.12483606D+01  1  2  3  1  6  2       -2 -.287152410684D-05 0.100000000000D+01
-.667902370373D-07 0.000000000000D+00 0.000000000000D+00 0.527245457835D-08 0.000000000000D+00  6 22 -2 9900012 11 -1 21 2 0.19669535D-02 0.53026468D-01 0.43811023D+04 0.43811023D+04 0.43811023D+04 0.12483606D+01  1  2 15  1  6  2       -2 -.146638734220D-04 0.100000000000D+01
0.530858981044D-06 0.000000000000D+00 0.000000000000D+00 0.527245457835D-08 0.000000000000D+00  6 22 -2 9900012 11 -1 21 2 0.19669535D-02 0.61453026D-01 0.50455517D+04 0.50455517D+04 0.50455517D+04 0.12414023D+01  1  2 12  1  6  2       -2 0.878015247212D-04 0.100000000000D+01
-.234008481450D-06 0.000000000000D+00 0.000000000000D+00 0.527245457835D-08 0.000000000000D+00  6 22 -2 9900012 11 -1 21 2 0.19669535D-02 0.53026468D-01 0.43811023D+04 0.43811023D+04 0.43811023D+04 0.12483606D+01  1  2  4  1  6  2       -2 -.513768314633D-04 0.100000000000D+01
-.172810630993D-05 0.000000000000D+00 -.371417720906D-06 0.527245457835D-08 0.000000000000D+00  6 22 -2 9900012 11 -1 21 2 0.19669535D-02 0.60986983D-01 0.43811023D+04 0.43811023D+04 0.43811023D+04 0.12483606D+01  1  2  5  1  6  2       -2 -.289656180986D-03 0.100000000000D+01
0.176635381211D-05 0.000000000000D+00 0.367814003163D-06 0.527245457835D-08 0.000000000000D+00  6 22 -2 9900012 11 -1 21 2 0.19669535D-02 0.53026468D-01 0.43811023D+04 0.43811023D+04 0.43811023D+04 0.12483606D+01  1  2  6  1  6  2       -2 0.387805012653D-03 0.100000000000D+01
0.119443299002D-07 0.000000000000D+00 0.000000000000D+00 0.527245457835D-08 0.000000000000D+00  6 22 21 9900012 11 2 -1 2 0.19669535D-02 0.61453026D-01 0.50455517D+04 0.50455517D+04 0.50455517D+04 0.12414023D+01  3  4 12  3  5  2       -2 0.214786335019D-04 0.100000000000D+01
-.349647663620D-07 0.000000000000D+00 -.800328270380D-08 0.527245457835D-08 0.000000000000D+00  6 22 21 9900012 11 2 -1 2 0.19669535D-02 0.60986983D-01 0.43811023D+04 0.43811023D+04 0.43811023D+04 0.12483606D+01  3  4  5  3  5  2       -2 -.640333494669D-04 0.100000000000D+01
  </mgrwgt>
  </event>
  <event>
  6     66 0.15041895E-05 0.29943483E+02 0.78161638E-02 0.12251040E+00
       22 -1    0    0    0    0 0.00000000E+00 0.00000000E+00 0.87562537E+03 0.87562537E+03 0.00000000E+00 0.0000E+00 0.9000E+01
       -2 -1    0    0    0  501 0.00000000E+00 0.00000000E+00 -.92701200E+01 0.92701200E+01 0.00000000E+00 0.0000E+00 0.9000E+01
      -24  2    1    2    0    0 -.41099928E+02 0.25305468E+02 0.78225487E+03 0.78792929E+03 0.81119093E+02 0.0000E+00 0.0000E+00
  9900012  1    3    3    0    0 -.18133085E+02 0.40060527E+02 0.51591797E+03 0.52019709E+03 0.50000000E+02 0.0000E+00 0.9000E+01
       11  1    3    3    0    0 -.22966842E+02 -.14755059E+02 0.26633690E+03 0.26773220E+03 0.00000000E+00 0.0000E+00 0.9000E+01
       -1  1    1    2    0  501 0.41099928E+02 -.25305468E+02 0.84100379E+02 0.96966203E+02 0.00000000E+00 0.0000E+00 0.9000E+01
#aMCatNLO 1  0  0  5  2 0.37071222D+01 0.00000000D+00  -5  6  0 0.00000000D+00 0.00000000D+00 0.00000000D+00 0.00000000D+00 0.00000000D+00
  <mgrwgt>
 0.2482465166D-04    8    2    0
 0.900952400039939D+02 0.000000000000000D+00 0.000000000000000D+00 0.900952400039939D+02
 0.900952400039939D+02 -.000000000000000D+00 -.000000000000000D+00 -.900952400039939D+02
 0.740983198694084D+02 -.181330854084897D+02 0.400605266255943D+02 0.325100973163358D+02
 0.342562291268419D+02 -.229668424014925D+02 -.147550586408459D+02 0.206954494660275D+02
 0.718359310117376D+02 0.410999278099822D+02 -.253054679847484D+02 -.532055467823633D+02
 0.000000000000000D+00 0.000000000000000D+00 -.000000000000000D+00 0.000000000000000D+00
 0.900952400039939D+02 0.000000000000000D+00 0.000000000000000D+00 0.900952400039939D+02
 0.900952400039939D+02 -.000000000000000D+00 -.000000000000000D+00 -.900952400039939D+02
 0.737063317205754D+02 -.177896888679226D+02 0.398490953500075D+02 0.320655563724073D+02
 0.340683627120960D+02 -.228081029557392D+02 -.148527954539371D+02 0.204899547253486D+02
 0.672906590799000D+02 0.399161107970261D+02 -.205324684956439D+02 -.501313737665571D+02
 0.512512649541647D+01 0.681681026635751D+00 -.446383140042644D+01 -.242413733119880D+01
0.240002925259D-06 0.000000000000D+00 0.000000000000D+00 0.285587827615D-06 0.000000000000D+00  6 22 -2 9900012 11 -1 21 0 0.13471160D+00 0.14261723D-02 0.50516162D+04 0.50516162D+04 0.50516162D+04 0.12413436D+01  1  2  2  2  6  5       -1 0.136941395188D-04 0.100000000000D+01
0.285423886705D-08 0.000000000000D+00 -.460837213608D-09 0.285587827615D-06 0.000000000000D+00  6 22 -2 9900012 11 -1 21 2 0.13471160D+00 0.14261723D-02 0.50516162D+04 0.50516162D+04 0.50516162D+04 0.12413436D+01  1  2  3  2  6  5       -1 0.250953090007D-06 0.100000000000D+01
-.386803294851D-07 0.000000000000D+00 0.000000000000D+00 0.285587827615D-06 0.000000000000D+00  6 22 -2 9900012 11 -1 21 2 0.13471160D+00 0.14261723D-02 0.50516162D+04 0.50516162D+04 0.50516162D+04 0.12413436D+01  1  2 15  2  6  5       -1 -.340088852368D-05 0.100000000000D+01
0.705715038098D-07 0.000000000000D+00 0.000000000000D+00 0.285587827615D-06 0.000000000000D+00  6 22 -2 9900012 11 -1 21 2 0.13471160D+00 0.14261723D-02 0.51113009D+04 0.51113009D+04 0.51113009D+04 0.12407703D+01  1  2 12  2  6  5       -1 0.620756898667D-05 0.100000000000D+01
-.661371456490D-06 0.000000000000D+00 0.000000000000D+00 0.285587827615D-06 0.000000000000D+00  6 22 -2 9900012 11 -1 21 2 0.13471160D+00 0.14261723D-02 0.50516162D+04 0.50516162D+04 0.50516162D+04 0.12413436D+01  1  2  4  2  6  5       -1 -.581497269079D-04 0.100000000000D+01
-.174194742361D-05 0.000000000000D+00 0.000000000000D+00 0.285587827615D-06 0.000000000000D+00  6 22 -2 9900012 11 -1 21 2 0.13471160D+00 0.14261723D-02 0.50516162D+04 0.50516162D+04 0.50516162D+04 0.12413436D+01  1  2  5  2  6  5       -1 -.153157149400D-03 0.100000000000D+01
0.187064768912D-05 0.000000000000D+00 -.000000000000D+00 0.285587827615D-06 0.000000000000D+00  6 22 -2 9900012 11 -1 21 2 0.13471160D+00 0.14261723D-02 0.50516162D+04 0.50516162D+04 0.50516162D+04 0.12413436D+01  1  2  6  2  6  5       -1 0.164472855905D-03 0.100000000000D+01
0.624215766224D-06 0.000000000000D+00 0.000000000000D+00 0.285587827615D-06 0.711672955420D-07  6 22 -2 9900012 11 -1 21 2 0.13471160D+00 0.14261723D-02 0.51113009D+04 0.51113009D+04 0.51113009D+04 0.12407703D+01  1  2 11  2  6  5       -1 0.549068989922D-04 0.100000000000D+01
  </mgrwgt>
  </event>
  <event>
  6     66 0.15041895E-05 0.75416196E+02 0.78161638E-02 0.11069366E+00
       22 -1    0    0    0    0 0.00000000E+00 0.00000000E+00 0.99103441E+03 0.99103441E+03 0.00000000E+00 0.0000E+00 0.9000E+01
       -2 -1    0    0    0  501 0.00000000E+00 0.00000000E+00 -.39827304E+02 0.39827304E+02 0.00000000E+00 0.0000E+00 0.9000E+01
      -24  2    1    2    0    0 0.71410199E+01 -.75077350E+02 0.94919369E+03 0.95541865E+03 0.78539959E+02 0.0000E+00 0.0000E+00
  9900012  1    3    3    0    0 0.11447975E+02 -.80987643E+02 0.75150828E+03 0.75759801E+03 0.50000000E+02 0.0000E+00 0.9000E+01
       11  1    3    3    0    0 -.43069551E+01 0.59102934E+01 0.19768541E+03 0.19782064E+03 0.00000000E+00 0.0000E+00 0.9000E+01
       -1  1    1    2    0  501 -.71410199E+01 0.75077350E+02 0.20134155E+01 0.75443068E+02 0.00000000E+00 0.0000E+00 0.9000E+01
#aMCatNLO 1  0  0  2  5 0.11960660D+03 0.00000000D+00  -5  6  0 0.00000000D+00 0.00000000D+00 0.00000000D+00 0.00000000D+00 0.00000000D+00
  <mgrwgt>
 0.8604241074D-04    7    4    0
 0.198671157328705D+03 0.000000000000000D+00 0.000000000000000D+00 0.198671157328705D+03
 0.198671157328705D+03 0.000000000000000D+00 0.000000000000000D+00 -.198671157328705D+03
 0.166452873459260D+03 0.114479749616840D+02 -.809876430986104D+02 0.136075363741764D+03
 0.399805141757861D+02 -.430695505525778D+01 0.591029344186197D+01 0.393059802491085D+02
 0.190908927022364D+03 -.714101990642618D+01 0.750773496567484D+02 -.175381343990872D+03
 0.000000000000000D+00 0.000000000000000D+00 0.000000000000000D+00 -.000000000000000D+00
 0.232944465611106D+03 0.000000000000000D+00 0.000000000000000D+00 0.232944465611106D+03
 0.297743339319825D+03 0.000000000000000D+00 0.000000000000000D+00 -.297743339319825D+03
 0.190138951174652D+03 -.450683262134473D+01 -.122947161805657D+03 0.136075363741764D+03
 0.402464270070389D+02 -.789650849177031D+01 -.352986644634023D+01 0.393059802491085D+02
 0.179753655767333D+03 -.237253883021666D+02 0.314621501424758D+02 -.175381343990872D+03
 0.120548770981908D+03 0.361287294152816D+02 0.950148781095217D+02 -.647988737087189D+02
 0.198671157328705D+03 0.000000000000000D+00 0.000000000000000D+00 0.198671157328705D+03
 0.198671157328705D+03 0.000000000000000D+00 0.000000000000000D+00 -.198671157328705D+03
 0.166452873459260D+03 0.114479749616840D+02 -.809876430986104D+02 0.136075363741764D+03
 0.399805141757861D+02 -.430695505525778D+01 0.591029344186197D+01 0.393059802491085D+02
 0.000000000000000D+00 0.000000000000000D+00 0.000000000000000D+00 -.000000000000000D+00
 0.190908927022364D+03 -.714101990642618D+01 0.750773496567484D+02 -.175381343990872D+03
 0.232944465611106D+03 0.000000000000000D+00 0.000000000000000D+00 0.232944465611106D+03
 0.297743339319825D+03 0.000000000000000D+00 0.000000000000000D+00 -.297743339319825D+03
 0.190138951174652D+03 -.450683262134473D+01 -.122947161805657D+03 0.136075363741764D+03
 0.402464270070389D+02 -.789650849177031D+01 -.352986644634023D+01 0.393059802491085D+02
 0.120548770981908D+03 0.361287294152816D+02 0.950148781095217D+02 -.647988737087189D+02
 0.179753655767333D+03 -.237253883021666D+02 0.314621501424758D+02 -.175381343990872D+03
0.133272529059D-04 0.000000000000D+00 0.000000000000D+00 0.674553119825D-05 0.000000000000D+00  6 22 -2 9900012 11 -1 21 0 0.15246683D+00 0.61272775D-02 0.79739602D+04 0.79739602D+04 0.79739602D+04 0.12196613D+01  1  2  2  1  6  2       -2 0.751870746692D-04 0.100000000000D+01
0.193568283547D-06 0.000000000000D+00 -.255900801525D-07 0.674553119825D-05 0.000000000000D+00  6 22 -2 9900012 11 -1 21 2 0.15246683D+00 0.61272775D-02 0.79739602D+04 0.79739602D+04 0.79739602D+04 0.12196613D+01  1  2  3  1  6  2       -2 0.162448324467D-05 0.100000000000D+01
-.225816548128D-05 0.000000000000D+00 0.000000000000D+00 0.674553119825D-05 0.000000000000D+00  6 22 -2 9900012 11 -1 21 2 0.15246683D+00 0.61272775D-02 0.79739602D+04 0.79739602D+04 0.79739602D+04 0.12196613D+01  1  2 15  1  6  2       -2 -.189512037861D-04 0.100000000000D+01
-.454535007719D-06 0.000000000000D+00 0.000000000000D+00 0.674553119825D-05 0.000000000000D+00  6 22 -2 9900012 11 -1 21 2 0.15246683D+00 0.61272775D-02 0.79739602D+04 0.79739602D+04 0.79739602D+04 0.12196613D+01  1  2  4  1  6  2       -2 -.381459447087D-05 0.100000000000D+01
-.192501042758D-05 0.000000000000D+00 -.402393231059D-05 0.674553119825D-05 0.000000000000D+00  6 22 -2 9900012 11 -1 21 2 0.15246683D+00 0.10791598D-01 0.79739602D+04 0.79739602D+04 0.79739602D+04 0.12196613D+01  1  2  5  1  6  2       -2 -.691009148643D-05 0.100000000000D+01
0.409707530114D-05 0.000000000000D+00 0.345547123832D-05 0.674553119825D-05 0.000000000000D+00  6 22 -2 9900012 11 -1 21 2 0.15246683D+00 0.61272775D-02 0.79739602D+04 0.79739602D+04 0.79739602D+04 0.12196613D+01  1  2  6  1  6  2       -2 0.343838879846D-04 0.100000000000D+01
0.864527878901D-07 0.000000000000D+00 -.251135595374D-06 0.674553119825D-05 0.000000000000D+00  6 22 21 9900012 11 2 -1 2 0.15246683D+00 0.10791598D-01 0.79739602D+04 0.79739602D+04 0.79739602D+04 0.12196613D+01  3  4  5  3  5  2       -2 0.452285458948D-05 0.100000000000D+01
  </mgrwgt>
  </event>
  <event>
  6     66 0.15041895E-05 0.16678453E+02 0.78161638E-02 0.13213717E+00
       22 -1    0    0    0    0 0.00000000E+00 0.00000000E+00 0.29708701E+03 0.29708701E+03 0.00000000E+00 0.0000E+00 0.9000E+01
       -4 -1    0    0    0  501 0.00000000E+00 0.00000000E+00 -.12378416E+02 0.12378416E+02 0.00000000E+00 0.0000E+00 0.9000E+01
      -24  2    1    2    0    0 -.12398145E+02 -.11156020E+02 0.25962506E+03 0.27934311E+03 0.10173115E+03 0.0000E+00 0.0000E+00
  9900012  1    3    3    0    0 -.66096349E+01 0.10365547E+02 0.62569660E+02 0.81031439E+02 0.50000000E+02 0.0000E+00 0.9000E+01
       11  1    3    3    0    0 -.57885103E+01 -.21521567E+02 0.19705540E+03 0.19831167E+03 0.00000000E+00 0.0000E+00 0.9000E+01
       -3  1    1    2    0  501 0.12398145E+02 0.11156020E+02 0.25083534E+02 0.30122325E+02 0.00000000E+00 0.0000E+00 0.9000E+01
#aMCatNLO 1  0  0  5  2 0.20986917D+01 0.00000000D+00  -5  6  0 0.00000000D+00 0.00000000D+00 0.00000000D+00 0.00000000D+00 0.00000000D+00
  <mgrwgt>
 0.2140758553D-04    8    2    0
 0.606421203929372D+02 0.000000000000000D+00 0.000000000000000D+00 0.606421203929372D+02
 0.606421203929372D+02 -.000000000000000D+00 -.000000000000000D+00 -.606421203929372D+02
 0.598784236500528D+02 -.660963491610625D+01 0.103655467649429D+02 -.305662196771989D+02
 0.434288689396180D+02 -.578851033968361D+01 -.215215668945990D+02 0.372744143323969D+02
 0.179769481962035D+02 0.123981452557899D+02 0.111560201296561D+02 -.670819465519804D+01
 0.000000000000000D+00 0.000000000000000D+00 0.000000000000000D+00 0.000000000000000D+00
 0.606421203929372D+02 0.000000000000000D+00 0.000000000000000D+00 0.606421203929372D+02
 0.606421203929372D+02 -.000000000000000D+00 -.000000000000000D+00 -.606421203929372D+02
 0.599733564377178D+02 -.631881105402346D+01 0.106272340409542D+02 -.307235741069929D+02
 0.432099922555729D+02 -.557827860010671D+01 -.213323975091607D+02 0.371606654286144D+02
 0.148737579864419D+02 0.108029153861613D+02 0.768466143277694D+01 -.674326882619072D+01
 0.322713410614178D+01 0.109417426796888D+01 0.302050203542955D+01 0.306177504569219D+00
0.892357003782D-07 0.000000000000D+00 0.000000000000D+00 0.160344393276D-08 0.000000000000D+00  6 22 -4 9900012 11 -3 21 0 0.45705694D-01 0.19043718D-02 0.20454824D+04 0.20454824D+04 0.20454824D+04 0.12880777D+01  1  2  2  2  6  5       -3 0.154313054192D-04 0.100000000000D+01
0.162513788959D-08 0.000000000000D+00 -.171344292876D-09 0.160344393276D-08 0.000000000000D+00  6 22 -4 9900012 11 -3 21 2 0.45705694D-01 0.19043718D-02 0.20454824D+04 0.20454824D+04 0.20454824D+04 0.12880777D+01  1  2  3  2  6  5       -3 0.466270964946D-06 0.100000000000D+01
-.122315337909D-07 0.000000000000D+00 0.000000000000D+00 0.160344393276D-08 0.000000000000D+00  6 22 -4 9900012 11 -3 21 2 0.45705694D-01 0.19043718D-02 0.20454824D+04 0.20454824D+04 0.20454824D+04 0.12880777D+01  1  2 15  2  6  5       -3 -.350936932795D-05 0.100000000000D+01
0.213161088894D-09 0.000000000000D+00 0.000000000000D+00 0.160344393276D-08 0.000000000000D+00  6 22 -4 9900012 11 -3 21 2 0.45705694D-01 0.19043718D-02 0.20261508D+04 0.20261508D+04 0.20261508D+04 0.12885979D+01  1  2 12  2  6  5       -3 0.611059803781D-07 0.100000000000D+01
-.150570040201D-06 0.000000000000D+00 0.000000000000D+00 0.160344393276D-08 0.000000000000D+00  6 22 -4 9900012 11 -3 21 2 0.45705694D-01 0.19043718D-02 0.20454824D+04 0.20454824D+04 0.20454824D+04 0.12880777D+01  1  2  4  2  6  5       -3 -.432002960401D-04 0.100000000000D+01
-.223713581776D-06 0.000000000000D+00 0.000000000000D+00 0.160344393276D-08 0.000000000000D+00  6 22 -4 9900012 11 -3 21 2 0.45705694D-01 0.19043718D-02 0.20454824D+04 0.20454824D+04 0.20454824D+04 0.12880777D+01  1  2  5  2  6  5       -3 -.641860289607D-04 0.100000000000D+01
0.292502947096D-06 0.000000000000D+00 -.000000000000D+00 0.160344393276D-08 0.000000000000D+00  6 22 -4 9900012 11 -3 21 2 0.45705694D-01 0.19043718D-02 0.20454824D+04 0.20454824D+04 0.20454824D+04 0.12880777D+01  1  2  6  2  6  5       -3 0.839224980632D-04 0.100000000000D+01
0.113100714150D-06 0.000000000000D+00 0.000000000000D+00 0.160344393276D-08 0.112591570021D-08  6 22 -4 9900012 11 -3 21 2 0.45705694D-01 0.19043718D-02 0.20261508D+04 0.20261508D+04 0.20261508D+04 0.12885979D+01  1  2 11  2  6  5       -3 0.324220994342D-04 0.100000000000D+01
  </mgrwgt>
  </event>
  <event>
  6     66 0.15041895E-05 0.56105218E+02 0.78161638E-02 0.11911948E+00
       22 -1    0    0    0    0 0.00000000E+00 0.00000000E+00 0.26975304E+03 0.26975304E+03 0.00000000E+00 0.0000E+00 0.9000E+01
       -4 -1    0    0    0  501 0.00000000E+00 0.00000000E+00 -.94347802E+02 0.94347802E+02 0.00000000E+00 0.0000E+00 0.9000E+01
      -24  2    1    2    0    0 -.39130779E+02 0.40206686E+02 0.25132659E+03 0.26969825E+03 0.80151697E+02 0.0000E+00 0.0000E+00
  9900012  1    3    3    0    0 -.16635965E+01 0.26341304E+02 0.16865950E+03 0.17788384E+03 0.50000000E+02 0.0000E+00 0.9000E+01
       11  1    3    3    0    0 -.37467183E+02 0.13865382E+02 0.82667093E+02 0.91814415E+02 0.00000000E+00 0.0000E+00 0.9000E+01
       -3  1    1    2    0  501 0.39130779E+02 -.40206686E+02 -.75921359E+02 0.94402586E+02 0.00000000E+00 0.0000E+00 0.9000E+01
#aMCatNLO 1  0  0  5  2 0.17802346D+02 0.00000000D+00  -5  6  0 0.00000000D+00 0.00000000D+00 0.00000000D+00 0.00000000D+00 0.00000000D+00
  <mgrwgt>
 0.4391769456D-04    7    2    0
 0.159532460730631D+03 0.000000000000000D+00 0.000000000000000D+00 0.159532460730631D+03
 0.159532460730631D+03 -.000000000000000D+00 -.000000000000000D+00 -.159532460730631D+03
 0.110271898342662D+03 -.166359653543188D+01 0.263413040697763D+02 0.946744934529112D+02
 0.593279405688717D+02 -.374671825828997D+02 0.138653823275155D+02 0.438607561990790D+02
 0.149465082549728D+03 0.391307791183315D+02 -.402066863972917D+02 -.138535249651990D+03
 0.000000000000000D+00 0.000000000000000D+00 0.000000000000000D+00 -.000000000000000D+00
 0.159532460730631D+03 0.000000000000000D+00 0.000000000000000D+00 0.159532460730631D+03
 0.159532460730631D+03 -.000000000000000D+00 -.000000000000000D+00 -.159532460730631D+03
 0.106722625523444D+03 -.581942342384106D+00 0.252299096148211D+02 0.908450978454826D+02
 0.573066064387822D+02 -.368857935018420D+02 0.132680078569943D+02 0.418024562289788D+02
 0.139695772041155D+03 0.364673774483069D+02 -.515302080994429D+02 -.124618123727831D+03
 0.153399174578815D+02 0.100035839591917D+01 0.130322906276275D+02 -.802943034663013D+01
0.114401734510D-05 0.000000000000D+00 0.000000000000D+00 0.741371128714D-05 0.000000000000D+00  6 22 -4 9900012 11 -3 21 0 0.41500467D-01 0.14515046D-01 0.58212653D+04 0.58212653D+04 0.58212653D+04 0.12344794D+01  1  2  2  2  6  5       -3 0.117206798622D-04 0.100000000000D+01
0.323699997548D-07 0.000000000000D+00 -.219666391593D-08 0.741371128714D-05 0.000000000000D+00  6 22 -4 9900012 11 -3 21 2 0.41500467D-01 0.14515046D-01 0.58212653D+04 0.58212653D+04 0.58212653D+04 0.12344794D+01  1  2  3  2  6  5       -3 0.505394545017D-06 0.100000000000D+01
-.190101732851D-06 0.000000000000D+00 0.000000000000D+00 0.741371128714D-05 0.000000000000D+00  6 22 -4 9900012 11 -3 21 2 0.41500467D-01 0.14515046D-01 0.58212653D+04 0.58212653D+04 0.58212653D+04 0.12344794D+01  1  2 15  2  6  5       -3 -.296806856685D-05 0.100000000000D+01
0.209569872851D-05 0.000000000000D+00 0.000000000000D+00 0.741371128714D-05 0.000000000000D+00  6 22 -4 9900012 11 -3 21 2 0.41500467D-01 0.14515046D-01 0.73450688D+04 0.73450688D+04 0.73450688D+04 0.12234784D+01  1  2 12  2  6  5       -3 0.329658685565D-04 0.100000000000D+01
-.111961877008D-06 0.000000000000D+00 0.000000000000D+00 0.741371128714D-05 0.000000000000D+00  6 22 -4 9900012 11 -3 21 2 0.41500467D-01 0.14515046D-01 0.58212653D+04 0.58212653D+04 0.58212653D+04 0.12344794D+01  1  2  4  2  6  5       -3 -.174806680007D-05 0.100000000000D+01
-.204369405272D-05 0.000000000000D+00 0.000000000000D+00 0.741371128714D-05 0.000000000000D+00  6 22 -4 9900012 11 -3 21 2 0.41500467D-01 0.14515046D-01 0.58212653D+04 0.58212653D+04 0.58212653D+04 0.12344794D+01  1  2  5  2  6  5       -3 -.319083050279D-04 0.100000000000D+01
0.226414336542D-05 0.000000000000D+00 -.000000000000D+00 0.741371128714D-05 0.000000000000D+00  6 22 -4 9900012 11 -3 21 2 0.41500467D-01 0.14515046D-01 0.58212653D+04 0.58212653D+04 0.58212653D+04 0.12344794D+01  1  2  6  2  6  5       -3 0.353501919892D-04 0.100000000000D+01
  </mgrwgt>
  </event>
  <event>
  6     66 0.15041895E-05 0.27927683E+02 0.78161638E-02 0.11765110E+00
       22 -1    0    0    0    0 0.00000000E+00 0.00000000E+00 0.30880181E+03 0.30880181E+03 0.00000000E+00 0.0000E+00 0.9000E+01
       -2 -1    0    0    0  501 0.00000000E+00 0.00000000E+00 -.66107350E+02 0.66107350E+02 0.00000000E+00 0.0000E+00 0.9000E+01
      -24  2    1    2    0    0 0.98052244E+01 0.26149819E+02 0.29983649E+03 0.31130753E+03 0.78933526E+02 0.0000E+00 0.0000E+00
  9900012  1    3    3    0    0 0.64742161E+01 0.42273048E+01 0.12172342E+03 0.13181948E+03 0.50000000E+02 0.0000E+00 0.9000E+01
       11  1    3    3    0    0 0.33310083E+01 0.21922514E+02 0.17811308E+03 0.17948805E+03 0.00000000E+00 0.0000E+00 0.9000E+01
       -1  1    1    2    0  501 -.98052244E+01 -.26149819E+02 -.57142032E+02 0.63601630E+02 0.00000000E+00 0.0000E+00 0.9000E+01
#aMCatNLO 1  0  0  2  5 0.71267012D+02 0.00000000D+00  -5  6  0 0.00000000D+00 0.00000000D+00 0.00000000D+00 0.00000000D+00 0.00000000D+00
  <mgrwgt>
 0.5861796112D-04    7    4    0
 0.142877813125156D+03 0.000000000000000D+00 0.000000000000000D+00 0.142877813125156D+03
 0.142877813125156D+03 0.000000000000000D+00 0.000000000000000D+00 -.142877813125156D+03
 0.695654973108365D+02 0.647421608705237D+01 0.422730475475834D+01 0.477448723599986D+02
 0.842141160402061D+02 0.333100834525965D+01 0.219225140564483D+02 0.812423848817964D+02
 0.131976012899269D+03 -.980522443231202D+01 -.261498188112067D+02 -.128987257241795D+03
 0.000000000000000D+00 -.000000000000000D+00 0.000000000000000D+00 -.000000000000000D+00
 0.161432286141081D+03 0.000000000000000D+00 0.000000000000000D+00 0.161432286141081D+03
 0.226797626314337D+03 0.000000000000000D+00 0.000000000000000D+00 -.226797626314337D+03
 0.708373893078917D+02 0.976295820993550D+01 -.119602480859015D+02 0.477448723599986D+02
 0.816103360327323D+02 0.721521524206816D+01 0.280401767187259D+01 0.812423848817964D+02
 0.141329374059307D+03 -.340342629163443D+01 -.576601780322598D+02 -.128987257241795D+03
 0.944528130554866D+02 -.135747471603692D+02 0.668164084462888D+02 -.653653401732558D+02
 0.142877813125156D+03 0.000000000000000D+00 0.000000000000000D+00 0.142877813125156D+03
 0.142877813125156D+03 0.000000000000000D+00 0.000000000000000D+00 -.142877813125156D+03
 0.695654973108365D+02 0.647421608705237D+01 0.422730475475834D+01 0.477448723599986D+02
 0.842141160402061D+02 0.333100834525965D+01 0.219225140564483D+02 0.812423848817964D+02
 0.000000000000000D+00 -.000000000000000D+00 0.000000000000000D+00 -.000000000000000D+00
 0.131976012899269D+03 -.980522443231202D+01 -.261498188112067D+02 -.128987257241795D+03
 0.161432286141081D+03 0.000000000000000D+00 0.000000000000000D+00 0.161432286141081D+03
 0.226797626314337D+03 0.000000000000000D+00 0.000000000000000D+00 -.226797626314337D+03
 0.708373893078917D+02 0.976295820993550D+01 -.119602480859015D+02 0.477448723599986D+02
 0.816103360327323D+02 0.721521524206816D+01 0.280401767187259D+01 0.812423848817964D+02
 0.944528130554866D+02 -.135747471603692D+02 0.668164084462888D+02 -.653653401732558D+02
 0.141329374059307D+03 -.340342629163443D+01 -.576601780322598D+02 -.128987257241795D+03
0.215633594739D-05 0.000000000000D+00 0.000000000000D+00 0.729573494695D-05 0.000000000000D+00  6 22 -2 9900012 11 -1 21 0 0.47507971D-01 0.10170362D-01 0.25349282D+04 0.25349282D+04 0.25349282D+04 0.12764982D+01  1  2  2  1  6  2       -2 0.458198651357D-04 0.100000000000D+01
0.147964813140D-06 0.000000000000D+00 -.414044890713D-08 0.729573494695D-05 0.000000000000D+00  6 22 -2 9900012 11 -1 21 2 0.47507971D-01 0.10170362D-01 0.25349282D+04 0.25349282D+04 0.25349282D+04 0.12764982D+01  1  2  3  1  6  2       -2 0.512314009130D-05 0.100000000000D+01
-.364284089103D-06 0.000000000000D+00 0.000000000000D+00 0.729573494695D-05 0.000000000000D+00  6 22 -2 9900012 11 -1 21 2 0.47507971D-01 0.10170362D-01 0.25349282D+04 0.25349282D+04 0.25349282D+04 0.12764982D+01  1  2 15  1  6  2       -2 -.126129880605D-04 0.100000000000D+01
-.319939615954D-07 0.000000000000D+00 0.000000000000D+00 0.729573494695D-05 0.000000000000D+00  6 22 -2 9900012 11 -1 21 2 0.47507971D-01 0.10170362D-01 0.25349282D+04 0.25349282D+04 0.25349282D+04 0.12764982D+01  1  2  4  1  6  2       -2 -.110776031038D-05 0.100000000000D+01
-.388392589458D-06 0.000000000000D+00 -.643090390548D-06 0.729573494695D-05 0.000000000000D+00  6 22 -2 9900012 11 -1 21 2 0.47507971D-01 0.18102595D-01 0.25349282D+04 0.25349282D+04 0.25349282D+04 0.12764982D+01  1  2  5  1  6  2       -2 -.559212211527D-05 0.100000000000D+01
0.728544684598D-06 0.000000000000D+00 0.549238193967D-06 0.729573494695D-05 0.000000000000D+00  6 22 -2 9900012 11 -1 21 2 0.47507971D-01 0.10170362D-01 0.25349282D+04 0.25349282D+04 0.25349282D+04 0.12764982D+01  1  2  6  1  6  2       -2 0.252251626773D-04 0.100000000000D+01
0.897028795492D-08 0.000000000000D+00 -.407736313438D-07 0.729573494695D-05 0.000000000000D+00  6 22 21 9900012 11 2 -1 2 0.47507971D-01 0.18102595D-01 0.25349282D+04 0.25349282D+04 0.25349282D+04 0.12764982D+01  3  4  5  3  5  2       -2 0.176266370102D-05 0.100000000000D+01
  </mgrwgt>
  </event>
  <event>
  6     66 0.15041895E-05 0.87014692E+01 0.78161638E-02 0.13664646E+00
       22 -1    0    0    0    0 0.00000000E+00 0.00000000E+00 0.61673997E+03 0.61673997E+03 0.00000000E+00 0.0000E+00 0.9000E+01
       -4 -1    0    0    0  501 0.00000000E+00 0.00000000E+00 -.68892461E+02 0.68892461E+02 0.00000000E+00 0.0000E+00 0.9000E+01
      -24  2    1    2    0    0 -.77760843E+01 -.39048789E+01 0.61382520E+03 0.61908342E+03 0.80044944E+02 0.0000E+00 0.0000E+00
  9900012  1    3    3    0    0 -.72183156E+01 -.94774810E+01 0.61031129E+03 0.61247187E+03 0.50000000E+02 0.0000E+00 0.9000E+01
       11  1    3    3    0    0 -.55776864E+00 0.55726021E+01 0.35139087E+01 0.66115471E+01 0.00000000E+00 0.0000E+00 0.9000E+01
       -3  1    1    2    0  501 0.77760843E+01 0.39048789E+01 -.65977687E+02 0.66549010E+02 0.00000000E+00 0.0000E+00 0.9000E+01
#aMCatNLO 1  0  0  2  5 0.63910368D+01 0.00000000D+00  -5  6  0 0.00000000D+00 0.00000000D+00 0.00000000D+00 0.00000000D+00 0.00000000D+00
  <mgrwgt>
 0.1878969549D-03   11    4    0
 0.206127955320385D+03 0.000000000000000D+00 0.000000000000000D+00 0.206127955320385D+03
 0.206127955320385D+03 0.000000000000000D+00 0.000000000000000D+00 -.206127955320385D+03
 0.207572668613538D+03 -.721831564210861D+01 -.947748100827704D+01 0.201108145106990D+03
 0.632617964676744D+01 -.557768639212809D+00 0.557260212448413D+01 -.294203137822836D+01
 0.198357062380465D+03 0.777608428132142D+01 0.390487888379290D+01 -.198166113728762D+03
 0.000000000000000D+00 -.000000000000000D+00 -.000000000000000D+00 -.000000000000000D+00
 0.207099933374036D+03 0.000000000000000D+00 0.000000000000000D+00 0.207099933374036D+03
 0.215915091641459D+03 0.000000000000000D+00 0.000000000000000D+00 -.215915091641459D+03
 0.207429563503651D+03 -.464989755296947D+01 -.780488562939595D+01 0.201108145106990D+03
 0.636488675634178D+01 -.479224568849816D+00 0.562375129279251D+01 -.294203137822836D+01
 0.198506436947328D+03 0.102322430961606D+02 0.550436920854566D+01 -.198166113728762D+03
 0.107141378081753D+02 -.510312097434128D+01 -.332323487194222D+01 -.881515826742304D+01
 0.206127955320385D+03 0.000000000000000D+00 0.000000000000000D+00 0.206127955320385D+03
 0.206127955320385D+03 0.000000000000000D+00 0.000000000000000D+00 -.206127955320385D+03
 0.207572668613538D+03 -.721831564210861D+01 -.947748100827704D+01 0.201108145106990D+03
 0.632617964676744D+01 -.557768639212809D+00 0.557260212448413D+01 -.294203137822836D+01
 0.000000000000000D+00 -.000000000000000D+00 -.000000000000000D+00 -.000000000000000D+00
 0.198357062380465D+03 0.777608428132142D+01 0.390487888379290D+01 -.198166113728762D+03
 0.207099933374036D+03 0.000000000000000D+00 0.000000000000000D+00 0.207099933374036D+03
 0.215915091641459D+03 0.000000000000000D+00 0.000000000000000D+00 -.215915091641459D+03
 0.207429563503651D+03 -.464989755296947D+01 -.780488562939595D+01 0.201108145106990D+03
 0.636488675634178D+01 -.479224568849816D+00 0.562375129279251D+01 -.294203137822836D+01
 0.107141378081753D+02 -.510312097434128D+01 -.332323487194222D+01 -.881515826742304D+01
 0.198506436947328D+03 0.102322430961606D+02 0.550436920854566D+01 -.198166113728762D+03
0.538321975630D-05 0.000000000000D+00 0.000000000000D+00 0.763299629570D-04 0.000000000000D+00  6 22 -4 9900012 11 -3 21 0 0.94883072D-01 0.10598840D-01 0.10791748D+04 0.10791748D+04 0.10791748D+04 0.13246485D+01  1  2  2  1  6  2       -4 0.178989543452D-04 0.100000000000D+01
0.126957107337D-05 0.000000000000D+00 -.103364906493D-07 0.763299629570D-04 0.000000000000D+00  6 22 -4 9900012 11 -3 21 2 0.94883072D-01 0.10598840D-01 0.10791748D+04 0.10791748D+04 0.10791748D+04 0.13246485D+01  1  2  3  1  6  2       -4 0.740702632304D-05 0.100000000000D+01
-.895407932602D-06 0.000000000000D+00 0.000000000000D+00 0.763299629570D-04 0.000000000000D+00  6 22 -4 9900012 11 -3 21 2 0.94883072D-01 0.10598840D-01 0.10791748D+04 0.10791748D+04 0.10791748D+04 0.13246485D+01  1  2 15  1  6  2       -4 -.522405579786D-05 0.100000000000D+01
0.287967544288D-04 0.000000000000D+00 0.000000000000D+00 0.763299629570D-04 0.000000000000D+00  6 22 -4 9900012 11 -3 21 2 0.94883072D-01 0.11154433D-01 0.13753502D+04 0.13753502D+04 0.13753502D+04 0.13104007D+01  1  2 12  1  6  2       -4 0.156732301954D-03 0.100000000000D+01
-.905274740282D-07 0.000000000000D+00 0.000000000000D+00 0.763299629570D-04 0.000000000000D+00  6 22 -4 9900012 11 -3 21 2 0.94883072D-01 0.10598840D-01 0.10791748D+04 0.10791748D+04 0.10791748D+04 0.13246485D+01  1  2  4  1  6  2       -4 -.528162146374D-06 0.100000000000D+01
-.857130177609D-04 0.000000000000D+00 -.121885052027D-04 0.763299629570D-04 0.000000000000D+00  6 22 -4 9900012 11 -3 21 2 0.94883072D-01 0.11148874D-01 0.10791748D+04 0.10791748D+04 0.10791748D+04 0.13246485D+01  1  2  5  1  6  2       -4 -.461308386152D-03 0.100000000000D+01
0.862348718061D-04 0.000000000000D+00 0.121729221031D-04 0.763299629570D-04 0.000000000000D+00  6 22 -4 9900012 11 -3 21 2 0.94883072D-01 0.10598840D-01 0.10791748D+04 0.10791748D+04 0.10791748D+04 0.13246485D+01  1  2  6  1  6  2       -4 0.503117926069D-03 0.100000000000D+01
0.822599413138D-08 0.000000000000D+00 0.000000000000D+00 0.763299629570D-04 0.322192122924D-07  6 22 -4 9900012 11 -3 21 2 0.95330485D-01 0.11102082D-01 0.13753502D+04 0.13753502D+04 0.13753502D+04 0.13104007D+01  1  2 11  1  6  2       -4 0.447126626985D-07 0.100000000000D+01
0.515760140551D-06 0.000000000000D+00 0.000000000000D+00 0.763299629570D-04 0.000000000000D+00  6 22 21 9900012 11 4 -3 2 0.94883072D-01 0.11154433D-01 0.13753502D+04 0.13753502D+04 0.13753502D+04 0.13104007D+01  3  4 12  3  5  2       -4 0.682115302164D-04 0.100000000000D+01
-.743851068777D-06 0.000000000000D+00 -.107337057608D-06 0.763299629570D-04 0.000000000000D+00  6 22 21 9900012 11 4 -3 2 0.94883072D-01 0.11148874D-01 0.10791748D+04 0.10791748D+04 0.10791748D+04 0.13246485D+01  3  4  5  3  5  2       -4 -.984897248319D-04 0.100000000000D+01
0.263705282093D-09 0.000000000000D+00 0.000000000000D+00 0.763299629570D-04 0.783939741957D-08  6 22 21 9900012 11 4 -3 2 0.95330485D-01 0.11102082D-01 0.13753502D+04 0.13753502D+04 0.13753502D+04 0.13104007D+01  3  4 11  3  5  2       -4 0.348322466437D-07 0.100000000000D+01
  </mgrwgt>
  </event>
  <event>
  6     66 -.15041895E-05 0.10237067E+03 0.78161638E-02 0.10586383E+00
       22 -1    0    0    0    0 0.00000000E+00 0.00000000E+00 0.66663798E+03 0.66663798E+03 0.00000000E+00 0.0000E+00 0.9000E+01
       -2 -1    0    0    0  501 0.00000000E+00 0.00000000E+00 -.13980047E+03 0.13980047E+03 0.00000000E+00 0.0000E+00 0.9000E+01
      -24  2    1    2    0    0 -.12769749E+03 -.12886753E+03 0.58353930E+03 0.61636324E+03 0.80449019E+02 0.0000E+00 0.0000E+00
  9900012  1    3    3    0    0 -.54605199E+02 -.86917718E+02 0.33340224E+03 0.35241094E+03 0.50000000E+02 0.0000E+00 0.9000E+01
       11  1    3    3    0    0 -.73092289E+02 -.41949811E+02 0.25013706E+03 0.26395230E+03 0.00000000E+00 0.0000E+00 0.9000E+01
       -1  1    1    2    0  501 0.12769749E+03 0.12886753E+03 -.56701792E+02 0.19007520E+03 0.00000000E+00 0.0000E+00 0.9000E+01
#aMCatNLO 1  0  0  2  5 0.10403226D+02 0.00000000D+00  -5  6  0 0.00000000D+00 0.00000000D+00 0.00000000D+00 0.00000000D+00 0.00000000D+00
  <mgrwgt>
 -.7531444438D-05    9    4    0
 0.305280691685215D+03 0.000000000000000D+00 0.000000000000000D+00 0.305280691685215D+03
 0.305280691685215D+03 0.000000000000000D+00 0.000000000000000D+00 -.305280691685215D+03
 0.177785442814142D+03 -.546051994863413D+02 -.869177180186734D+02 0.136276359505615D+03
 0.132795325881954D+03 -.730922886949366D+02 -.419498105746130D+02 0.102627137260008D+03
 0.299980614674334D+03 0.127697488181278D+03 0.128867528593286D+03 -.238903496765623D+03
 0.000000000000000D+00 -.000000000000000D+00 0.000000000000000D+00 -.000000000000000D+00
 0.305637370101504D+03 0.000000000000000D+00 0.000000000000000D+00 0.305637370101504D+03
 0.391486180260991D+03 0.000000000000000D+00 0.000000000000000D+00 -.391486180260991D+03
 0.178734268842292D+03 -.532806722364802D+02 -.896429733136619D+02 0.136276359505615D+03
 0.132912753227922D+03 -.721051410568603D+02 -.439808970078177D+02 0.102627137260008D+03
 0.299002574177616D+03 0.129922805688007D+03 0.124288869816066D+03 -.238903496765623D+03
 0.864739541146644D+02 -.453699239466675D+01 0.933500050541363D+01 -.858488101594876D+02
 0.305280691685215D+03 0.000000000000000D+00 0.000000000000000D+00 0.305280691685215D+03
 0.305280691685215D+03 0.000000000000000D+00 0.000000000000000D+00 -.305280691685215D+03
 0.177785442814142D+03 -.546051994863413D+02 -.869177180186734D+02 0.136276359505615D+03
 0.132795325881954D+03 -.730922886949366D+02 -.419498105746130D+02 0.102627137260008D+03
 0.000000000000000D+00 -.000000000000000D+00 0.000000000000000D+00 -.000000000000000D+00
 0.299980614674334D+03 0.127697488181278D+03 0.128867528593286D+03 -.238903496765623D+03
 0.305637370101504D+03 0.000000000000000D+00 0.000000000000000D+00 0.305637370101504D+03
 0.391486180260991D+03 0.000000000000000D+00 0.000000000000000D+00 -.391486180260991D+03
 0.178734268842292D+03 -.532806722364802D+02 -.896429733136619D+02 0.136276359505615D+03
 0.132912753227922D+03 -.721051410568603D+02 -.439808970078177D+02 0.102627137260008D+03
 0.864739541146644D+02 -.453699239466675D+01 0.933500050541363D+01 -.858488101594876D+02
 0.299002574177616D+03 0.129922805688007D+03 0.124288869816066D+03 -.238903496765623D+03
0.631071983600D-06 0.000000000000D+00 0.000000000000D+00 0.451399720945D-05 0.000000000000D+00  6 22 -2 9900012 11 -1 21 0 0.10255969D+00 0.21507764D-01 0.36075844D+05 0.36075844D+05 0.36075844D+05 0.11555057D+01  1  2  2  1  6  2       -2 0.127684705715D-05 0.100000000000D+01
-.157114118005D-08 0.000000000000D+00 -.121174129105D-08 0.451399720945D-05 0.000000000000D+00  6 22 -2 9900012 11 -1 21 2 0.10255969D+00 0.21507764D-01 0.36075844D+05 0.36075844D+05 0.36075844D+05 0.11555057D+01  1  2  3  1  6  2       -2 -.424443007219D-08 0.100000000000D+01
-.972619570432D-07 0.000000000000D+00 0.000000000000D+00 0.451399720945D-05 0.000000000000D+00  6 22 -2 9900012 11 -1 21 2 0.10255969D+00 0.21507764D-01 0.36075844D+05 0.36075844D+05 0.36075844D+05 0.11555057D+01  1  2 15  1  6  2       -2 -.262752692499D-06 0.100000000000D+01
0.351881056266D-04 0.000000000000D+00 0.000000000000D+00 0.451399720945D-05 0.000000000000D+00  6 22 -2 9900012 11 -1 21 2 0.10255969D+00 0.27613374D-01 0.38080978D+05 0.38080978D+05 0.38080978D+05 0.11533967D+01  1  2 12  1  6  2       -2 0.624067335845D-04 0.100000000000D+01
-.373621957401D-04 0.000000000000D+00 0.000000000000D+00 0.451399720945D-05 0.000000000000D+00  6 22 -2 9900012 11 -1 21 2 0.10255969D+00 0.21507764D-01 0.36075844D+05 0.36075844D+05 0.36075844D+05 0.11555057D+01  1  2  4  1  6  2       -2 -.100933785694D-03 0.100000000000D+01
-.355409330453D-04 0.000000000000D+00 -.325456052604D-06 0.451399720945D-05 0.000000000000D+00  6 22 -2 9900012 11 -1 21 2 0.10255969D+00 0.27595822D-01 0.36075844D+05 0.36075844D+05 0.36075844D+05 0.11555057D+01  1  2  5  1  6  2       -2 -.631796644927D-04 0.100000000000D+01
0.345530227903D-04 0.000000000000D+00 0.315601695405D-06 0.451399720945D-05 0.000000000000D+00  6 22 -2 9900012 11 -1 21 2 0.10255969D+00 0.21507764D-01 0.36075844D+05 0.36075844D+05 0.36075844D+05 0.11555057D+01  1  2  6  1  6  2       -2 0.933448189624D-04 0.100000000000D+01
0.119047951978D-05 0.000000000000D+00 0.000000000000D+00 0.451399720945D-05 0.000000000000D+00  6 22 21 9900012 11 2 -1 2 0.10255969D+00 0.27613374D-01 0.38080978D+05 0.38080978D+05 0.38080978D+05 0.11533967D+01  3  4 12  3  5  2       -2 0.254733425373D-04 0.100000000000D+01
-.119473041986D-05 0.000000000000D+00 -.109901069380D-07 0.451399720945D-05 0.000000000000D+00  6 22 21 9900012 11 2 -1 2 0.10255969D+00 0.27595822D-01 0.36075844D+05 0.36075844D+05 0.36075844D+05 0.11555057D+01  3  4  5  3  5  2       -2 -.256527392702D-04 0.100000000000D+01
  </mgrwgt>
  </event>
  <event>
  7     66 0.15041895E-05 0.25315291E+02 0.78161638E-02 0.12311991E+00
       22 -1    0    0    0    0 0.00000000E+00 0.00000000E+00 0.17249410E+03 0.17249410E+03 0.00000000E+00 0.0000E+00 0.9000E+01
       21 -1    0    0  502  501 0.00000000E+00 0.00000000E+00 -.88854838E+02 0.88854838E+02 0.00000000E+00 0.0000E+00 0.9000E+01
      -24  2    1    2    0    0 -.19882202E+02 -.36656153E+02 0.15041857E+03 0.17555837E+03 0.80349366E+02 0.0000E+00 0.0000E+00
  9900012  1    3    3    0    0 -.12894844E+02 -.52040487E+02 0.11615933E+03 0.13735894E+03 0.50000000E+02 0.0000E+00 0.9000E+01
       11  1    3    3    0    0 -.69873581E+01 0.15384334E+02 0.34259243E+02 0.38199432E+02 0.00000000E+00 0.0000E+00 0.9000E+01
        4  1    1    2  502    0 0.14810246E+02 0.40553318E+01 -.41429030E+02 0.44183183E+02 0.00000000E+00 0.0000E+00 0.9000E+01
       -3  1    1    2    0  501 0.50719553E+01 0.32600822E+02 -.25350273E+02 0.41607387E+02 0.00000000E+00 0.0000E+00 0.9000E+01
#aMCatNLO 2  0  0  2  5 0.15482134D+02 0.00000000D+00  -5  6  0 0.00000000D+00 0.00000000D+00 0.00000000D+00 0.00000000D+00 0.00000000D+00
  <mgrwgt>
 0.2069036563D-04    2    2    0
 0.884351445765138D+02 0.000000000000000D+00 0.000000000000000D+00 0.884351445765138D+02
 0.884351445765138D+02 0.000000000000000D+00 0.000000000000000D+00 -.884351445765138D+02
 0.842413517945385D+02 -.577269421274885D+01 -.500903051411256D+02 0.453237540873019D+02
 0.224445137887081D+02 -.510533475969783D+01 0.158996683534321D+02 0.149964096521067D+02
 0.000000000000000D+00 0.000000000000000D+00 0.000000000000000D+00 -.000000000000000D+00
 0.701844235697811D+02 0.108780289724467D+02 0.341906367876936D+02 -.603201637394086D+02
 0.894821637908629D+02 0.000000000000000D+00 0.000000000000000D+00 0.894821637908629D+02
 0.171284813064658D+03 0.000000000000000D+00 0.000000000000000D+00 -.171284813064658D+03
 0.861900922611198D+02 -.128948436817308D+02 -.520404873712560D+02 0.453237540873019D+02
 0.225918836633053D+02 -.698735809157175D+01 0.153843339765707D+02 0.149964096521067D+02
 0.832313795729471D+02 0.148102464886530D+02 0.405533184213694D+01 -.818026492737948D+02
 0.687536213581485D+02 0.507195528464948D+01 0.326008215525483D+02 -.603201637394086D+02
-.667639492095D-07 0.000000000000D+00 0.000000000000D+00 0.869588736911D-06 0.000000000000D+00  6 22 21 9900012 11 4 -3 2 0.26227042D-01 0.13831819D-01 0.47994490D+04 0.47994490D+04 0.47994490D+04 0.12438530D+01  1  2 13  3  5  2       -4 -.525367611239D-04 0.100000000000D+01
0.928655526395D-07 0.000000000000D+00 0.000000000000D+00 0.869588736911D-06 0.395416514327D-08  6 22 21 9900012 11 4 -3 2 0.26537555D-01 0.13669975D-01 0.47994490D+04 0.47994490D+04 0.47994490D+04 0.12438530D+01  1  2  1  3  5  2       -4 0.732271267502D-04 0.100000000000D+01
  </mgrwgt>
  </event>
  <event>
  6     66 -.15041895E-05 0.27547792E+02 0.78161638E-02 0.12483807E+00
       22 -1    0    0    0    0 0.00000000E+00 0.00000000E+00 0.20354211E+03 0.20354211E+03 0.00000000E+00 0.0000E+00 0.9000E+01
       -2 -1    0    0    0  501 0.00000000E+00 0.00000000E+00 -.82360451E+02 0.82360451E+02 0.00000000E+00 0.0000E+00 0.9000E+01
      -24  2    1    2    0    0 -.22591967E+02 0.29615791E+02 0.18843612E+03 0.20902178E+03 0.82428412E+02 0.0000E+00 0.0000E+00
  9900012  1    3    3    0    0 -.87650032E+01 0.45867388E+02 0.13178515E+03 0.14848558E+03 0.50000000E+02 0.0000E+00 0.9000E+01
       11  1    3    3    0    0 -.13826964E+02 -.16251597E+02 0.56650968E+02 0.60536200E+02 0.00000000E+00 0.0000E+00 0.9000E+01
       -1  1    1    2    0  501 0.22591967E+02 -.29615791E+02 -.67254458E+02 0.76880779E+02 0.00000000E+00 0.0000E+00 0.9000E+01
#aMCatNLO 1  0  0  5  5 0.44252975D+02 0.00000000D+00  -5  6  0 0.00000000D+00 0.00000000D+00 0.00000000D+00 0.00000000D+00 0.00000000D+00
  <mgrwgt>
 -.1143672164D-05    1    2    0
 0.129475171883512D+03 0.000000000000000D+00 0.000000000000000D+00 0.129475171883512D+03
 0.129475171883512D+03 -.000000000000000D+00 -.000000000000000D+00 -.129475171883512D+03
 0.102268508786687D+03 -.876500321036374D+01 0.458673881626412D+02 0.760145072424506D+02
 0.403258639073408D+02 -.138269637163537D+02 -.162515971497871D+02 0.342180648830561D+02
 0.116355971072996D+03 0.225919669267175D+02 -.296157910128541D+02 -.110232572125507D+03
 0.000000000000000D+00 0.000000000000000D+00 -.000000000000000D+00 0.000000000000000D+00
 0.129475171883512D+03 0.000000000000000D+00 0.000000000000000D+00 0.129475171883512D+03
 0.129475171883512D+03 -.000000000000000D+00 -.000000000000000D+00 -.129475171883512D+03
 0.953570215269576D+02 -.713165948895967D+01 0.437262392107961D+02 0.680449630164234D+02
 0.378312856363916D+02 -.131810072486469D+02 -.170983809563083D+02 0.310662612730648D+02
 0.870416043971265D+02 0.368230083083223D+02 0.193725643064760D+01 -.788451266260193D+02
 0.387204322065483D+02 -.165103415707157D+02 -.285651146851354D+02 -.202660976634690D+02
-.235888117678D-07 0.000000000000D+00 0.000000000000D+00 0.695948382075D-06 0.000000000000D+00  6 22 -2 9900012 11 -1 21 2 0.31314171D-01 0.12670839D-01 0.40323783D+04 0.40323783D+04 0.40323783D+04 0.12525021D+01  1  2 14  2  6  5       -1 -.114367216412D-05 0.100000000000D+01
  </mgrwgt>
  </event>
  <event>
  7     66 -.15041895E-05 0.46213996E+02 0.78161638E-02 0.11778107E+00
       22 -1    0    0    0    0 0.00000000E+00 0.00000000E+00 0.76282977E+03 0.76282977E+03 0.00000000E+00 0.0000E+00 0.9000E+01
       -2 -1    0    0    0  502 0.00000000E+00 0.00000000E+00 -.16632474E+03 0.16632474E+03 0.00000000E+00 0.0000E+00 0.9000E+01
      -24  2    1    2    0    0 0.42504183E+02 0.20152506E+02 0.74641069E+03 0.75230566E+03 0.81376626E+02 0.0000E+00 0.0000E+00
  9900012  1    3    3    0    0 0.35825919E+02 -.79905630E+01 0.58923253E+03 0.59248824E+03 0.50000000E+02 0.0000E+00 0.9000E+01
       11  1    3    3    0    0 0.66782639E+01 0.28143069E+02 0.15717816E+03 0.15981741E+03 0.00000000E+00 0.0000E+00 0.9000E+01
       -1  1    1    2    0  501 -.35344677E+02 -.50992119E+02 -.94875438E+02 0.11336133E+03 0.00000000E+00 0.0000E+00 0.9000E+01
       21  1    1    2  501  502 -.71595057E+01 0.30839613E+02 -.55030223E+02 0.63487524E+02 0.00000000E+00 0.0000E+00 0.9000E+01
#aMCatNLO 2  0  0  2  5 0.31905102D+02 0.00000000D+00  -5  6  0 0.00000000D+00 0.00000000D+00 0.00000000D+00 0.00000000D+00 0.00000000D+00
  <mgrwgt>
 -.8887187367D-04    2    2    0
 0.284551755919766D+03 0.000000000000000D+00 0.000000000000000D+00 0.284551755919766D+03
 0.284551755919766D+03 0.000000000000000D+00 0.000000000000000D+00 -.284551755919766D+03
 0.225774088604706D+03 0.329844469756533D+02 0.424909313642252D+01 0.217641702232164D+03
 0.645957260186817D+02 0.587592690420335D+01 0.315991401779998D+02 0.560319162880244D+02
 0.278733697216144D+03 -.388603738798567D+02 -.358482333144223D+02 -.273673618520189D+03
 0.000000000000000D+00 -.000000000000000D+00 0.000000000000000D+00 -.000000000000000D+00
 0.286580353178796D+03 0.000000000000000D+00 0.000000000000000D+00 0.286580353178796D+03
 0.442729107785655D+03 0.000000000000000D+00 0.000000000000000D+00 -.442729107785655D+03
 0.226307879000353D+03 0.358259186888354D+02 -.799056301052594D+01 0.217641702232164D+03
 0.630571737966235D+02 0.667826393580939D+01 0.281430686868556D+02 0.560319162880244D+02
 0.280618409624882D+03 -.353446769417162D+02 -.509921185905240D+02 -.273673618520189D+03
 0.159325998542593D+03 -.715950568292858D+01 0.308396129141943D+02 -.156148754606859D+03
-.713873290671D-04 0.000000000000D+00 0.000000000000D+00 0.343412737754D-04 0.000000000000D+00  6 22 -2 9900012 11 -1 21 2 0.11652769D+00 0.25770844D-01 0.85243848D+04 0.85243848D+04 0.85243848D+04 0.12165856D+01  1  2 13  1  6  2       -2 -.114116914891D-03 0.100000000000D+01
0.158332303175D-04 0.000000000000D+00 0.000000000000D+00 0.343412737754D-04 0.645243753499D-07  6 22 -2 9900012 11 -1 21 2 0.11735843D+00 0.25588422D-01 0.85243848D+04 0.85243848D+04 0.85243848D+04 0.12165856D+01  1  2  1  1  6  2       -2 0.252450412233D-04 0.100000000000D+01
  </mgrwgt>
  </event>
  <event>
  6     66 0.15041895E-05 0.12811966E+02 0.78161638E-02 0.12432838E+00
       22 -1    0    0    0    0 0.00000000E+00 0.00000000E+00 0.12643141E+03 0.12643141E+03 0.00000000E+00 0.0000E+00 0.9000E+01
       -2 -1    0    0    0  501 0.00000000E+00 0.00000000E+00 -.19350266E+02 0.19350266E+02 0.00000000E+00 0.0000E+00 0.9000E+01
      -24  2    1    2    0    0 0.34531479E+00 0.12807312E+02 0.10827543E+03 0.13291416E+03 0.76016187E+02 0.0000E+00 0.0000E+00
  9900012  1    3    3    0    0 0.41459808E+01 0.21717963E+02 0.50803312E+02 0.74631331E+02 0.50000000E+02 0.0000E+00 0.9000E+01
       11  1    3    3    0    0 -.38006660E+01 -.89106514E+01 0.57472114E+02 0.58282833E+02 0.00000000E+00 0.0000E+00 0.9000E+01
       -1  1    1    2    0  501 -.34531479E+00 -.12807312E+02 -.11942845E+01 0.12867509E+02 0.00000000E+00 0.0000E+00 0.9000E+01
#aMCatNLO 1  0  0  2  5 0.11941318D+03 0.00000000D+00  -5  6  0 0.00000000D+00 0.00000000D+00 0.00000000D+00 0.00000000D+00 0.00000000D+00
  <mgrwgt>
 0.6214655735D-04    3    2    0
 0.494619184704710D+02 0.000000000000000D+00 0.000000000000000D+00 0.494619184704710D+02
 0.494619184704710D+02 0.000000000000000D+00 0.000000000000000D+00 -.494619184704710D+02
 0.549898173479229D+02 0.414598077667692D+01 0.217179632568115D+02 -.591784820125761D+01
 0.236787155798166D+02 -.380066598422488D+01 -.891065139150060D+01 0.216064064889410D+02
 0.202553040132026D+02 -.345314792452033D+00 -.128073118653109D+02 -.156885582876834D+02
 0.000000000000000D+00 -.000000000000000D+00 -.000000000000000D+00 0.000000000000000D+00
 0.137531346452947D+03 0.000000000000000D+00 0.000000000000000D+00 0.137531346452947D+03
 0.606990426076304D+02 0.000000000000000D+00 0.000000000000000D+00 -.606990426076304D+02
 0.668694551736493D+02 0.278103365187562D+02 0.341040802632338D+02 -.591784820125761D+01
 0.226152582326993D+02 0.518935211078668D+01 -.420520252028267D+01 0.216064064889410D+02
 0.194239406922219D+02 0.736016172038336D+01 -.877420254602751D+01 -.156885582876834D+02
 0.893217349620071D+02 -.403598503499263D+02 -.211246751969236D+02 0.768323038453167D+02
0.162858900693D-06 0.000000000000D+00 0.000000000000D+00 0.154227881987D-07 0.000000000000D+00  6 22 -2 9900012 11 -1 21 0 0.19450986D-01 0.29769640D-02 0.14887936D+04 0.14887936D+04 0.14887936D+04 0.13058492D+01  1  2  2  1  6  2       -2 0.757494056310D-04 0.100000000000D+01
0.841717664820D-08 0.000000000000D+00 -.312710530198D-09 0.154227881987D-07 0.000000000000D+00  6 22 -2 9900012 11 -1 21 2 0.19450986D-01 0.29769640D-02 0.14887936D+04 0.14887936D+04 0.14887936D+04 0.13058492D+01  1  2  3  1  6  2       -2 0.667605961633D-05 0.100000000000D+01
-.255676491568D-07 0.000000000000D+00 0.000000000000D+00 0.154227881987D-07 0.000000000000D+00  6 22 -2 9900012 11 -1 21 2 0.19450986D-01 0.29769640D-02 0.14887936D+04 0.14887936D+04 0.14887936D+04 0.13058492D+01  1  2 15  1  6  2       -2 -.202789078992D-04 0.100000000000D+01
  </mgrwgt>
  </event>
  <event>
  7     66 0.15041895E-05 0.15357623E+02 0.78161638E-02 0.12263979E+00
       22 -1    0    0    0    0 0.00000000E+00 0.00000000E+00 0.23779359E+02 0.23779359E+02 0.00000000E+00 0.0000E+00 0.9000E+01
       -2 -1    0    0    0  502 0.00000000E+00 0.00000000E+00 -.36246872E+03 0.36246872E+03 0.00000000E+00 0.0000E+00 0.9000E+01
      -24  2    1    2    0    0 0.47316301E+02 -.44607025E+01 -.88052332E+02 0.12934602E+03 0.81966146E+02 0.0000E+00 0.0000E+00
  9900012  1    3    3    0    0 0.46539534E+02 -.25014950E+02 -.58542515E+02 0.93375061E+02 0.50000000E+02 0.0000E+00 0.9000E+01
       11  1    3    3    0    0 0.77676766E+00 0.20554248E+02 -.29509817E+02 0.35970957E+02 0.00000000E+00 0.0000E+00 0.9000E+01
       -1  1    1    2    0  501 -.20995260E+02 0.73359727E+01 -.52680447E+02 0.57182575E+02 0.00000000E+00 0.0000E+00 0.9000E+01
       21  1    1    2  501  502 -.26321041E+02 -.28752702E+01 -.19795659E+03 0.19971949E+03 0.00000000E+00 0.0000E+00 0.9000E+01
#aMCatNLO 2  0  0  2  5 0.27357577D+02 0.00000000D+00  -5  6  0 0.00000000D+00 0.00000000D+00 0.00000000D+00 0.00000000D+00 0.00000000D+00
  <mgrwgt>
 0.1720777049D-04    2    2    0
 0.597623141237820D+02 0.000000000000000D+00 0.000000000000000D+00 0.597623141237820D+02
 0.597623141237820D+02 0.000000000000000D+00 0.000000000000000D+00 -.597623141237820D+02
 0.671428460073043D+02 0.310790433857155D+02 -.267038307128834D+02 0.181427742489141D+02
 0.207243413083884D+02 -.374969605661652D+01 0.200597840104877D+02 -.361153258356505D+01
 0.316574409318713D+02 -.273293473290990D+02 0.664404670239576D+01 -.145312416653491D+02
 0.000000000000000D+00 -.000000000000000D+00 -.000000000000000D+00 -.000000000000000D+00
 0.635674252199554D+02 0.000000000000000D+00 0.000000000000000D+00 0.635674252199554D+02
 0.135592622544943D+03 0.000000000000000D+00 0.000000000000000D+00 -.135592622544943D+03
 0.749722361863469D+02 0.465395336587861D+02 -.250149504927961D+02 0.181427742489141D+02
 0.208835735611465D+02 0.776767659927215D+00 0.205542479571537D+02 -.361153258356505D+01
 0.265664151941649D+02 -.209952598599686D+02 0.733597269244995D+01 -.145312416653491D+02
 0.767378228232403D+02 -.263210414587447D+02 -.287527015680756D+01 -.720251973249878D+02
-.107252522943D-06 0.000000000000D+00 0.000000000000D+00 0.192015350404D-07 0.000000000000D+00  6 22 -2 9900012 11 -1 21 2 0.34393753D-02 0.59314981D-01 0.50431617D+04 0.50431617D+04 0.50431617D+04 0.12414254D+01  1  2 13  1  6  2       -2 -.897169538646D-05 0.100000000000D+01
0.301867958639D-06 0.000000000000D+00 0.000000000000D+00 0.192015350404D-07 0.163442562131D-08  6 22 -2 9900012 11 -1 21 2 0.36583629D-02 0.55764419D-01 0.50431617D+04 0.50431617D+04 0.50431617D+04 0.12414254D+01  1  2  1  1  6  2       -2 0.261794658737D-04 0.100000000000D+01
  </mgrwgt>
  </event>
  <event>
  7     66 0.15041895E-05 0.11262415E+02 0.78161638E-02 0.12903460E+00
       22 -1    0    0    0    0 0.00000000E+00 0.00000000E+00 0.10902673E+04 0.10902673E+04 0.00000000E+00 0.0000E+00 0.9000E+01
       21 -1    0    0  502  501 0.00000000E+00 0.00000000E+00 -.33055720E+01 0.33055720E+01 0.00000000E+00 0.0000E+00 0.9000E+01
      -24  2    1    2    0    0 0.83468591E+01 -.15050882E+02 0.86763326E+03 0.87144705E+03 0.79600792E+02 0.0000E+00 0.0000E+00
  9900012  1    3    3    0    0 0.14068198E+02 0.12092875E+02 0.53016504E+03 0.53284061E+03 0.50000000E+02 0.0000E+00 0.9000E+01
       11  1    3    3    0    0 -.57213386E+01 -.27143757E+02 0.33746822E+03 0.33860644E+03 0.00000000E+00 0.0000E+00 0.9000E+01
        2  1    1    2  502    0 -.75779292E+01 0.19143916E-01 0.17767230E+03 0.17783383E+03 0.00000000E+00 0.0000E+00 0.9000E+01
       -1  1    1    2    0  501 -.76892990E+00 0.15031738E+02 0.41656206E+02 0.44292030E+02 0.00000000E+00 0.0000E+00 0.9000E+01
#aMCatNLO 2  0  0  2  2 0.20990706D+02 0.00000000D+00  -5  6  0 0.00000000D+00 0.00000000D+00 0.00000000D+00 0.00000000D+00 0.00000000D+00
  <mgrwgt>
 0.5642102962D-05    1    2    0
 0.541140042285242D+02 0.000000000000000D+00 0.000000000000000D+00 0.541140042285242D+02
 0.541140042285242D+02 0.000000000000000D+00 0.000000000000000D+00 -.541140042285242D+02
 0.532497263319222D+02 0.103145702311290D+02 0.121023581535610D+02 0.909263011975372D+01
 0.301371352378181D+02 -.781252689153891D+01 -.271384744307888D+02 0.105220981501286D+02
 0.000000000000000D+00 -.000000000000000D+00 0.000000000000000D+00 0.000000000000000D+00
 0.248411468873082D+02 -.250204333959013D+01 0.150361162772278D+02 -.196147282698823D+02
 0.648134270840928D+02 0.000000000000000D+00 0.000000000000000D+00 0.648134270840928D+02
 0.556051010726810D+02 0.000000000000000D+00 0.000000000000000D+00 -.556051010726810D+02
 0.541001640205030D+02 0.140681977346996D+02 0.120928754664913D+02 0.909263011975372D+01
 0.296687011461958D+02 -.572133861376713D+01 -.271437573428580D+02 0.105220981501286D+02
 0.119255459303488D+02 -.757792922340117D+01 0.191439164896905D-01 0.920832601141180D+01
 0.247241170597262D+02 -.768929897531343D+00 0.150317379598770D+02 -.196147282698823D+02
0.131526127168D-08 0.000000000000D+00 0.000000000000D+00 0.136421683745D-06 0.818201605596D-09  6 22 21 9900012 11 2 -1 2 0.16773344D+00 0.50854954D-03 0.26884282D+04 0.26884282D+04 0.26884282D+04 0.12733800D+01  1  2  1  3  5  2       -2 0.564210296238D-05 0.100000000000D+01
  </mgrwgt>
  </event>
  <event>
  7     66 0.15041895E-05 0.83315284E+02 0.78161638E-02 0.11688963E+00
       22 -1    0    0    0    0 0.00000000E+00 0.00000000E+00 0.34830375E+03 0.34830375E+03 0.00000000E+00 0.0000E+00 0.9000E+01
       21 -1    0    0  502  501 0.00000000E+00 0.00000000E+00 -.31003697E+02 0.31003697E+02 0.00000000E+00 0.0000E+00 0.9000E+01
      -24  2    1    2    0    0 0.21772059E+02 0.84892375E+02 0.22476101E+03 0.24959725E+03 0.64035430E+02 0.0000E+00 0.0000E+00
  9900012  1    3    3    0    0 0.17887215E+02 0.69490555E+02 0.21162592E+03 0.22898564E+03 0.50000000E+02 0.0000E+00 0.9000E+01
       11  1    3    3    0    0 0.38848444E+01 0.15401821E+02 0.13135090E+02 0.20611615E+02 0.00000000E+00 0.0000E+00 0.9000E+01
        2  1    1    2  502    0 0.50833649E+01 -.83650910E+01 0.10070380E+02 0.14043785E+02 0.00000000E+00 0.0000E+00 0.9000E+01
       -1  1    1    2    0  501 -.26855424E+02 -.76527284E+02 0.82468665E+02 0.11566642E+03 0.00000000E+00 0.0000E+00 0.9000E+01
#aMCatNLO 2  0  0  2  5 0.12148086D+02 0.00000000D+00  -5  6  0 0.00000000D+00 0.00000000D+00 0.00000000D+00 0.00000000D+00 0.00000000D+00
  <mgrwgt>
 0.2105209614D-05    2    2    0
 0.986555311068484D+02 0.000000000000000D+00 0.000000000000000D+00 0.986555311068484D+02
 0.986555311068484D+02 0.000000000000000D+00 0.000000000000000D+00 -.986555311068484D+02
 0.918955099103311D+02 0.202837845721024D+02 0.655468042468299D+02 0.351705740376817D+02
 0.171510663450168D+02 0.433327693092948D+01 0.146638882564467D+02 -.776866584514264D+01
 0.000000000000000D+00 0.000000000000000D+00 -.000000000000000D+00 -.000000000000000D+00
 0.882644859583490D+02 -.246170615030318D+02 -.802106925032767D+02 -.274019081925390D+02
 0.102318783480206D+03 0.000000000000000D+00 0.000000000000000D+00 0.102318783480206D+03
 0.105539799688244D+03 0.000000000000000D+00 0.000000000000000D+00 -.105539799688244D+03
 0.942648341197614D+02 0.178872148680654D+02 0.694905548815790D+02 0.351705740376817D+02
 0.176822017915936D+02 0.388484439529072D+01 0.154018205160795D+02 -.776866584514264D+01
 0.103048673887069D+02 0.508336492962967D+01 -.836509100241008D+01 -.322101620803797D+01
 0.856066798683887D+02 -.268554241929858D+02 -.765272843952485D+02 -.274019081925390D+02
-.485340303994D-08 0.000000000000D+00 0.000000000000D+00 0.185868157313D-08 0.000000000000D+00  6 22 21 9900012 11 2 -1 2 0.51666717D-01 0.49469105D-02 0.94316453D+04 0.94316453D+04 0.94316453D+04 0.12119730D+01  1  2 13  3  5  2       -2 -.703074743808D-05 0.100000000000D+01
0.632758819023D-08 0.000000000000D+00 0.000000000000D+00 0.185868157313D-08 0.226183006733D-11  6 22 21 9900012 11 2 -1 2 0.53585193D-01 0.47697995D-02 0.94316453D+04 0.94316453D+04 0.94316453D+04 0.12119730D+01  1  2  1  3  5  2       -2 0.913595705257D-05 0.100000000000D+01
  </mgrwgt>
  </event>
  <event>
  7     66 -.15041895E-05 0.67040004E+02 0.78161638E-02 0.11648799E+00
       22 -1    0    0    0    0 0.00000000E+00 0.00000000E+00 0.61529283E+03 0.61529283E+03 0.00000000E+00 0.0000E+00 0.9000E+01
       -2 -1    0    0    0  502 0.00000000E+00 0.00000000E+00 -.86344039E+02 0.86344039E+02 0.00000000E+00 0.0000E+00 0.9000E+01
      -24  2    1    2    0    0 0.54311164E+02 -.19065005E+02 0.56160321E+03 0.57019747E+03 0.80086250E+02 0.0000E+00 0.0000E+00
  9900012  1    3    3    0    0 0.58000058E+02 -.18445303E+01 0.37363102E+03 0.38140208E+03 0.50000000E+02 0.0000E+00 0.9000E+01
       11  1    3    3    0    0 -.36888945E+01 -.17220475E+02 0.18797219E+03 0.18879539E+03 0.00000000E+00 0.0000E+00 0.9000E+01
       -1  1    1    2    0  501 -.78513184E+02 0.12765604E+02 -.55958941E+02 0.97255765E+02 0.00000000E+00 0.0000E+00 0.9000E+01
       21  1    1    2  501  502 0.24202021E+02 0.62994013E+01 0.23304519E+02 0.34183635E+02 0.00000000E+00 0.0000E+00 0.9000E+01
#aMCatNLO 2  0  0  2  5 0.33002957D+02 0.00000000D+00  -5  6  0 0.00000000D+00 0.00000000D+00 0.00000000D+00 0.00000000D+00 0.00000000D+00
  <mgrwgt>
 -.2958363966D-04    2    2    0
 0.217481187865974D+03 0.000000000000000D+00 0.000000000000000D+00 0.217481187865974D+03
 0.217481187865974D+03 0.000000000000000D+00 0.000000000000000D+00 -.217481187865974D+03
 0.154118541331045D+03 0.664725073038568D+02 0.360713545481220D+00 0.129745136481048D+03
 0.707354767550255D+02 0.253071752027584D+00 -.161944434518558D+02 0.688562533669507D+02
 0.210108357645877D+03 -.667255790558844D+02 0.158337299063746D+02 -.198601389847999D+03
 0.000000000000000D+00 0.000000000000000D+00 0.000000000000000D+00 -.000000000000000D+00
 0.228515720932668D+03 0.000000000000000D+00 0.000000000000000D+00 0.228515720932668D+03
 0.232486707774124D+03 0.000000000000000D+00 0.000000000000000D+00 -.232486707774124D+03
 0.150669205461151D+03 0.580000581185466D+02 -.184453030710515D+01 0.129745136481048D+03
 0.710727536888805D+02 -.368889454792971D+01 -.172204746218221D+02 0.688562533669507D+02
 0.213938759459519D+03 -.785131843309162D+02 0.127656036183411D+02 -.198601389847999D+03
 0.253217100972424D+02 0.242020207602993D+02 0.629940131058617D+01 -.397098684145543D+01
-.433986063632D-05 0.000000000000D+00 0.000000000000D+00 0.237449207407D-04 0.000000000000D+00  6 22 -2 9900012 11 -1 21 2 0.90089486D-01 0.13957685D-01 0.98766604D+04 0.98766604D+04 0.98766604D+04 0.12098890D+01  1  2 13  1  6  2       -2 -.304913274794D-04 0.100000000000D+01
0.131381815497D-06 0.000000000000D+00 0.000000000000D+00 0.237449207407D-04 0.722023158371D-08  6 22 -2 9900012 11 -1 21 2 0.94660435D-01 0.13283698D-01 0.98766604D+04 0.98766604D+04 0.98766604D+04 0.12098890D+01  1  2  1  1  6  2       -2 0.907687821660D-06 0.100000000000D+01
  </mgrwgt>
  </event>
  <event>
  7     66 -.15041895E-05 0.54797582E+02 0.78161638E-02 0.11949896E+00
       22 -1    0    0    0    0 0.00000000E+00 0.00000000E+00 0.81775878E+03 0.81775878E+03 0.00000000E+00 0.0000E+00 0.9000E+01
       -2 -1    0    0    0  501 0.00000000E+00 0.00000000E+00 -.51760590E+02 0.51760590E+02 0.00000000E+00 0.0000E+00 0.9000E+01
      -24  2    1    2    0    0 0.27963610E+02 0.58093695E+02 0.78829988E+03 0.79491482E+03 0.79473413E+02 0.0000E+00 0.0000E+00
  9900012  1    3    3    0    0 0.42448960E+02 0.35105514E+02 0.61790040E+03 0.62236261E+03 0.50000000E+02 0.0000E+00 0.9000E+01
       11  1    3    3    0    0 -.14485350E+02 0.22988181E+02 0.17039948E+03 0.17255221E+03 0.00000000E+00 0.0000E+00 0.9000E+01
       -1  1    1    2    0  502 -.26299016E+02 -.38365504E+02 -.27630445E+02 0.54101679E+02 0.00000000E+00 0.0000E+00 0.9000E+01
       21  1    1    2  502  501 -.16645946E+01 -.19728191E+02 0.53287597E+01 0.20502880E+02 0.00000000E+00 0.0000E+00 0.9000E+01
#aMCatNLO 2  0  0  5  2 0.11280948D+02 0.00000000D+00  -5  6  0 0.00000000D+00 0.00000000D+00 0.00000000D+00 0.00000000D+00 0.00000000D+00
  <mgrwgt>
 -.1090381541D-03    2    2    0
 0.205736912972967D+03 0.000000000000000D+00 0.000000000000000D+00 0.205736912972967D+03
 0.205736912972967D+03 -.000000000000000D+00 -.000000000000000D+00 -.205736912972967D+03
 0.165759252668302D+03 0.425806970529534D+02 0.353791940065860D+02 0.148024750346295D+03
 0.476525389768893D+02 -.144474709058569D+02 0.230668739858359D+02 0.391146312764155D+02
 0.198062034300743D+03 -.281332261470964D+02 -.584460679924220D+02 -.187139381622710D+03
 0.000000000000000D+00 0.000000000000000D+00 -.000000000000000D+00 0.000000000000000D+00
 0.205736912972967D+03 0.000000000000000D+00 0.000000000000000D+00 0.205736912972967D+03
 0.205736912972967D+03 -.000000000000000D+00 -.000000000000000D+00 -.205736912972967D+03
 0.164884740845519D+03 0.424489602285719D+02 0.351055140754381D+02 0.147148450283060D+03
 0.474192840658936D+02 -.144853498944413D+02 0.229881813421017D+02 0.388626640664297D+02
 0.165763469890705D+03 -.262990157074912D+02 -.383655043663220D+02 -.159103669969431D+03
 0.334063311438167D+02 -.166459462663932D+01 -.197281910512177D+02 -.269074443800587D+02
-.166531791657D-04 0.000000000000D+00 0.000000000000D+00 0.159850889454D-04 0.000000000000D+00  6 22 -2 9900012 11 -1 21 2 0.12580904D+00 0.79631677D-02 0.70456353D+04 0.70456353D+04 0.70456353D+04 0.12254257D+01  1  2 13  2  6  5       -1 -.142595362074D-03 0.100000000000D+01
0.391902084367D-05 0.000000000000D+00 0.000000000000D+00 0.159850889454D-04 0.198775905967D-06  6 22 -2 9900012 11 -1 21 2 0.12580904D+00 0.79631677D-02 0.70456353D+04 0.70456353D+04 0.70456353D+04 0.12254257D+01  1  2  1  2  6  5       -1 0.335572079432D-04 0.100000000000D+01
  </mgrwgt>
  </event>
  <event>
  6     66 -.15041895E-05 0.36392108E+02 0.78161638E-02 0.12335332E+00
       22 -1    0    0    0    0 0.00000000E+00 0.00000000E+00 0.11333005E+04 0.11333005E+04 0.00000000E+00 0.0000E+00 0.9000E+01
       -2 -1    0    0    0  501 0.00000000E+00 0.00000000E+00 -.45113075E+01 0.45113075E+01 0.00000000E+00 0.0000E+00 0.9000E+01
      -24  2    1    2    0    0 -.60964143E+01 -.46744866E+02 0.84148068E+03 0.84666162E+03 0.80770783E+02 0.0000E+00 0.0000E+00
  9900012  1    3    3    0    0 0.14339803E+02 -.46587744E+02 0.54119385E+03 0.54568015E+03 0.50000000E+02 0.0000E+00 0.9000E+01
       11  1    3    3    0    0 -.20436217E+02 -.15712135E+00 0.30028683E+03 0.30098147E+03 0.00000000E+00 0.0000E+00 0.9000E+01
       -1  1    1    2    0  501 0.60964143E+01 0.46744866E+02 0.28730849E+03 0.29115016E+03 0.00000000E+00 0.0000E+00 0.9000E+01
#aMCatNLO 1  0  0  5  2 0.26939887D+01 0.00000000D+00  -5  6  0 0.00000000D+00 0.00000000D+00 0.00000000D+00 0.00000000D+00 0.00000000D+00
  <mgrwgt>
 -.5027216325D-04    8    2    0
 0.715029154394097D+02 0.000000000000000D+00 0.000000000000000D+00 0.715029154394097D+02
 0.715029154394097D+02 -.000000000000000D+00 -.000000000000000D+00 -.715029154394097D+02
 0.698401871628218D+02 0.143398032349198D+02 -.465877442506050D+02 -.126644058762688D+01
 0.244727048941482D+02 -.204362174940931D+02 -.157121352100086D+00 0.134628976171886D+02
 0.486929388218493D+02 0.609641425917335D+01 0.467448656027051D+02 -.121964570295617D+02
 0.000000000000000D+00 0.000000000000000D+00 0.000000000000000D+00 -.000000000000000D+00
 0.715029154394097D+02 0.000000000000000D+00 0.000000000000000D+00 0.715029154394097D+02
 0.715029154394097D+02 -.000000000000000D+00 -.000000000000000D+00 -.715029154394097D+02
 0.696854692053345D+02 0.143716118621077D+02 -.463438484227144D+02 -.133007677410861D+01
 0.244507192545544D+02 -.204250640833155D+02 -.716014602996474D-01 0.134405841572595D+02
 0.403754190921984D+02 0.525310915090256D+01 0.393221403216499D+02 -.750656989868466D+01
 0.849422332673203D+01 0.800343070305196D+00 0.709330956136412D+01 -.460393748446624D+01
0.128965889895D-06 0.000000000000D+00 0.000000000000D+00 0.105231624624D-06 0.000000000000D+00  6 22 -2 9900012 11 -1 21 0 0.17435392D+00 0.69404731D-03 0.47201200D+04 0.47201200D+04 0.47201200D+04 0.12446733D+01  1  2  2  2  6  5       -1 0.111393990719D-04 0.100000000000D+01
-.265349713849D-08 0.000000000000D+00 -.247631487348D-09 0.105231624624D-06 0.000000000000D+00  6 22 -2 9900012 11 -1 21 2 0.17435392D+00 0.69404731D-03 0.47201200D+04 0.47201200D+04 0.47201200D+04 0.12446733D+01  1  2  3  2  6  5       -1 -.355071871111D-06 0.100000000000D+01
-.179360488069D-07 0.000000000000D+00 0.000000000000D+00 0.105231624624D-06 0.000000000000D+00  6 22 -2 9900012 11 -1 21 2 0.17435392D+00 0.69404731D-03 0.47201200D+04 0.47201200D+04 0.47201200D+04 0.12446733D+01  1  2 15  2  6  5       -1 -.240007283890D-05 0.100000000000D+01
0.115222878567D-07 0.000000000000D+00 0.000000000000D+00 0.105231624624D-06 0.000000000000D+00  6 22 -2 9900012 11 -1 21 2 0.17435392D+00 0.69404731D-03 0.46859335D+04 0.46859335D+04 0.46859335D+04 0.12450315D+01  1  2 12  2  6  5       -1 0.154129754568D-05 0.100000000000D+01
-.300713090959D-05 0.000000000000D+00 0.000000000000D+00 0.105231624624D-06 0.000000000000D+00  6 22 -2 9900012 11 -1 21 2 0.17435392D+00 0.69404731D-03 0.47201200D+04 0.47201200D+04 0.47201200D+04 0.12446733D+01  1  2  4  2  6  5       -1 -.402392594759D-03 0.100000000000D+01
-.142123619332D-05 0.000000000000D+00 0.000000000000D+00 0.105231624624D-06 0.000000000000D+00  6 22 -2 9900012 11 -1 21 2 0.17435392D+00 0.69404731D-03 0.47201200D+04 0.47201200D+04 0.47201200D+04 0.12446733D+01  1  2  5  2  6  5       -1 -.190179588714D-03 0.100000000000D+01
0.169039669525D-05 0.000000000000D+00 -.000000000000D+00 0.105231624624D-06 0.000000000000D+00  6 22 -2 9900012 11 -1 21 2 0.17435392D+00 0.69404731D-03 0.47201200D+04 0.47201200D+04 0.47201200D+04 0.12446733D+01  1  2  6  2  6  5       -1 0.226196708033D-03 0.100000000000D+01
0.228889502819D-05 0.000000000000D+00 0.000000000000D+00 0.105231624624D-06 0.137784417944D-06  6 22 -2 9900012 11 -1 21 2 0.17435392D+00 0.69404731D-03 0.46859335D+04 0.46859335D+04 0.46859335D+04 0.12450315D+01  1  2 11  2  6  5       -1 0.306177760279D-03 0.100000000000D+01
  </mgrwgt>
  </event>
  <event>
  6     66 -.15041895E-05 0.92851893E+02 0.78161638E-02 0.11128859E+00
       22 -1    0    0    0    0 0.00000000E+00 0.00000000E+00 0.15812746E+03 0.15812746E+03 0.00000000E+00 0.0000E+00 0.9000E+01
       -4 -1    0    0    0  501 0.00000000E+00 0.00000000E+00 -.12212776E+03 0.12212776E+03 0.00000000E+00 0.0000E+00 0.9000E+01
      -24  2    1    2    0    0 0.12469172E+03 -.25868401E+02 0.12452676E+02 0.15074978E+03 0.79707144E+02 0.0000E+00 0.0000E+00
  9900012  1    3    3    0    0 0.11149206E+03 -.53901023E+01 -.21818754E+01 0.12232863E+03 0.50000000E+02 0.0000E+00 0.9000E+01
       11  1    3    3    0    0 0.13199651E+02 -.20478299E+02 0.14634552E+02 0.28421147E+02 0.00000000E+00 0.0000E+00 0.9000E+01
       -3  1    1    2    0  501 -.12469172E+03 0.25868401E+02 0.23547026E+02 0.12950545E+03 0.00000000E+00 0.0000E+00 0.9000E+01
#aMCatNLO 1  0  0  5  2 0.67152678D+01 0.00000000D+00  -5  6  0 0.00000000D+00 0.00000000D+00 0.00000000D+00 0.00000000D+00 0.00000000D+00
  <mgrwgt>
 -.2252477541D-04    8    2    0
 0.138966734210616D+03 0.000000000000000D+00 0.000000000000000D+00 0.138966734210616D+03
 0.138966734210616D+03 -.000000000000000D+00 -.000000000000000D+00 -.138966734210616D+03
 0.123633132358417D+03 0.111492064706567D+03 -.539010229405885D+01 -.180448807554979D+02
 0.267630076165933D+02 0.131996508770126D+02 -.204782988317866D+02 0.110755167087977D+02
 0.127537328446221D+03 -.124691715583580D+03 0.258684011258454D+02 0.696936404670018D+01
 0.000000000000000D+00 -.000000000000000D+00 0.000000000000000D+00 0.000000000000000D+00
 0.138966734210616D+03 0.000000000000000D+00 0.000000000000000D+00 0.138966734210616D+03
 0.138966734210616D+03 -.000000000000000D+00 -.000000000000000D+00 -.138966734210616D+03
 0.122626145247413D+03 0.110395246594205D+03 -.516255765919766D+01 -.179835765647400D+02
 0.266142053324518D+02 0.129619132594938D+02 -.204289780567543D+02 0.110888045202319D+02
 0.118917554464719D+03 -.115216419785514D+03 0.268043491643719D+02 0.121691510612694D+02
 0.977556337664767D+01 -.814074006818389D+01 -.121281344841987D+01 -.527437901676135D+01
0.251028057709D-06 0.000000000000D+00 0.000000000000D+00 0.210032400840D-06 0.000000000000D+00  6 22 -4 9900012 11 -3 21 0 0.24327302D-01 0.18788886D-01 0.18771695D+05 0.18771695D+05 0.18771695D+05 0.11819640D+01  1  2  2  2  6  5       -3 0.427608309677D-05 0.100000000000D+01
-.118717018137D-07 0.000000000000D+00 -.482006919404D-09 0.210032400840D-06 0.000000000000D+00  6 22 -4 9900012 11 -3 21 2 0.24327302D-01 0.18788886D-01 0.18771695D+05 0.18771695D+05 0.18771695D+05 0.11819640D+01  1  2  3  2  6  5       -3 -.282517483302D-06 0.100000000000D+01
-.370437110026D-07 0.000000000000D+00 0.000000000000D+00 0.210032400840D-06 0.000000000000D+00  6 22 -4 9900012 11 -3 21 2 0.24327302D-01 0.18788886D-01 0.18771695D+05 0.18771695D+05 0.18771695D+05 0.11819640D+01  1  2 15  2  6  5       -3 -.881549770104D-06 0.100000000000D+01
0.147209262606D-05 0.000000000000D+00 0.000000000000D+00 0.210032400840D-06 0.000000000000D+00  6 22 -4 9900012 11 -3 21 2 0.24327302D-01 0.18788886D-01 0.18498482D+05 0.18498482D+05 0.18498482D+05 0.11825792D+01  1  2 12  2  6  5       -3 0.350192704843D-04 0.100000000000D+01
-.292386562663D-05 0.000000000000D+00 0.000000000000D+00 0.210032400840D-06 0.000000000000D+00  6 22 -4 9900012 11 -3 21 2 0.24327302D-01 0.18788886D-01 0.18771695D+05 0.18771695D+05 0.18771695D+05 0.11819640D+01  1  2  4  2  6  5       -3 -.695808546500D-04 0.100000000000D+01
-.184953401174D-05 0.000000000000D+00 0.000000000000D+00 0.210032400840D-06 0.000000000000D+00  6 22 -4 9900012 11 -3 21 2 0.24327302D-01 0.18788886D-01 0.18771695D+05 0.18771695D+05 0.18771695D+05 0.11819640D+01  1  2  5  2  6  5       -3 -.440143883731D-04 0.100000000000D+01
0.199671407735D-05 0.000000000000D+00 -.000000000000D+00 0.210032400840D-06 0.000000000000D+00  6 22 -4 9900012 11 -3 21 2 0.24327302D-01 0.18788886D-01 0.18771695D+05 0.18771695D+05 0.18771695D+05 0.11819640D+01  1  2  6  2  6  5       -3 0.475169141592D-04 0.100000000000D+01
0.227933915922D-06 0.000000000000D+00 0.000000000000D+00 0.210032400840D-06 0.679827520069D-07  6 22 -4 9900012 11 -3 21 2 0.24327302D-01 0.18788886D-01 0.18498482D+05 0.18498482D+05 0.18498482D+05 0.11825792D+01  1  2 11  2  6  5       -3 0.542226712702D-05 0.100000000000D+01
  </mgrwgt>
  </event>
  <event>
  7     66 0.15041895E-05 0.25980595E+02 0.78161638E-02 0.12201939E+00
       22 -1    0    0    0    0 0.00000000E+00 0.00000000E+00 0.10579138E+02 0.10579138E+02 0.00000000E+00 0.0000E+00 0.9000E+01
       21 -1    0    0  502  501 0.00000000E+00 0.00000000E+00 -.72502242E+03 0.72502242E+03 0.00000000E+00 0.0000E+00 0.9000E+01
      -24  2    1    2    0    0 -.29924192E+02 -.53482375E+02 -.21281205E+03 0.22909724E+03 0.58657930E+02 0.0000E+00 0.0000E+00
  9900012  1    3    3    0    0 -.20460508E+02 -.43923397E+02 -.15804307E+03 0.17270063E+03 0.50000000E+02 0.0000E+00 0.9000E+01
       11  1    3    3    0    0 -.94636840E+01 -.95589783E+01 -.54768981E+02 0.56396602E+02 0.00000000E+00 0.0000E+00 0.9000E+01
        2  1    1    2  502    0 0.25632381E+02 0.28761543E+02 -.39878929E+03 0.40064591E+03 0.00000000E+00 0.0000E+00 0.9000E+01
       -1  1    1    2    0  501 0.42918104E+01 0.24720832E+02 -.10284194E+03 0.10585841E+03 0.00000000E+00 0.0000E+00 0.9000E+01
#aMCatNLO 2  0  0  2  5 0.41478685D+02 0.00000000D+00  -5  6  0 0.00000000D+00 0.00000000D+00 0.00000000D+00 0.00000000D+00 0.00000000D+00
  <mgrwgt>
 0.1095225701D-04    1    2    0
 0.526155865963987D+02 0.000000000000000D+00 0.000000000000000D+00 0.526155865963987D+02
 0.526155865963987D+02 0.000000000000000D+00 0.000000000000000D+00 -.526155865963987D+02
 0.586553486963662D+02 -.516212545072713D+01 -.267574112283687D+02 0.140656793607431D+02
 0.103087811709897D+02 -.656095491531396D+01 -.630188845835998D+01 -.484881858693009D+01
 0.000000000000000D+00 0.000000000000000D+00 0.000000000000000D+00 -.000000000000000D+00
 0.362670433254415D+02 0.117230803660411D+02 0.330592996867287D+02 -.921686077381298D+01
 0.614204812785581D+02 0.000000000000000D+00 0.000000000000000D+00 0.614204812785581D+02
 0.124878739510923D+03 0.000000000000000D+00 0.000000000000000D+00 -.124878739510923D+03
 0.710333758515451D+02 -.204605076666834D+02 -.439233966697616D+02 0.140656793607431D+02
 0.142984761840250D+02 -.946368396609080D+01 -.955897825534336D+01 -.484881858693009D+01
 0.742374291097485D+02 0.256323812347330D+02 0.287615433378786D+02 -.634582582323654D+02
 0.267299396441630D+02 0.429181039804124D+01 0.247208315872264D+02 -.921686077381298D+01
0.187884809065D-07 0.000000000000D+00 0.000000000000D+00 0.511324378839D-09 0.112105560303D-11  6 22 21 9900012 11 2 -1 2 0.16275597D-02 0.11154191D+00 0.53798255D+04 0.53798255D+04 0.53798255D+04 0.12382814D+01  1  2  1  3  5  2       -2 0.109522570071D-04 0.100000000000D+01
  </mgrwgt>
  </event>
  <event>
  6     66 0.15041895E-05 0.63250783E+02 0.78161638E-02 0.11762545E+00
       22 -1    0    0    0    0 0.00000000E+00 0.00000000E+00 0.20227558E+03 0.20227558E+03 0.00000000E+00 0.0000E+00 0.9000E+01
       -4 -1    0    0    0  501 0.00000000E+00 0.00000000E+00 -.11283332E+03 0.11283332E+03 0.00000000E+00 0.0000E+00 0.9000E+01
      -24  2    1    2    0    0 0.33280633E+01 -.63163166E+02 0.17856495E+03 0.20582251E+03 0.80478585E+02 0.0000E+00 0.0000E+00
  9900012  1    3    3    0    0 0.18890905E+01 -.44848621E+02 0.17452408E+03 0.18701236E+03 0.50000000E+02 0.0000E+00 0.9000E+01
       11  1    3    3    0    0 0.14389729E+01 -.18314545E+02 0.40408703E+01 0.18810152E+02 0.00000000E+00 0.0000E+00 0.9000E+01
       -3  1    1    2    0  501 -.33280633E+01 0.63163166E+02 -.89122689E+02 0.10928639E+03 0.00000000E+00 0.0000E+00 0.9000E+01
#aMCatNLO 1  0  0  2  5 0.11405823D+03 0.00000000D+00  -5  6  0 0.00000000D+00 0.00000000D+00 0.00000000D+00 0.00000000D+00 0.00000000D+00
  <mgrwgt>
 0.3368492369D-04    4    2    0
 0.151074238378393D+03 0.000000000000000D+00 0.000000000000000D+00 0.151074238378393D+03
 0.151074238378393D+03 0.000000000000000D+00 0.000000000000000D+00 -.151074238378393D+03
 0.143371335088738D+03 0.188909047851266D+01 -.448486212429517D+02 0.126650591135208D+03
 0.184208170955510D+02 0.143897285899200D+01 -.183145447542400D+02 -.135399779311809D+01
 0.140356324572497D+03 -.332806333750466D+01 0.631631659971917D+02 -.125296593342090D+03
 0.000000000000000D+00 -.000000000000000D+00 -.000000000000000D+00 0.000000000000000D+00
 0.216239472788952D+03 0.000000000000000D+00 0.000000000000000D+00 0.216239472788952D+03
 0.156144771581731D+03 0.000000000000000D+00 0.000000000000000D+00 -.156144771581731D+03
 0.140188957660712D+03 0.999711876385373D+01 -.318218357660398D+02 0.126650591135208D+03
 0.169238568048151D+02 0.244960665733392D+01 -.166908072408276D+02 -.135399779311809D+01
 0.146810294219312D+03 0.488308302997015D+01 0.763556264184270D+02 -.125296593342090D+03
 0.684611356858428D+02 -.173298084511578D+02 -.278429834115596D+02 0.600947012072211D+02
0.380653808507D-05 0.000000000000D+00 0.000000000000D+00 0.470299688815D-05 0.000000000000D+00  6 22 -4 9900012 11 -3 21 0 0.31119320D-01 0.17358972D-01 0.55364968D+04 0.55364968D+04 0.55364968D+04 0.12368931D+01  1  2  2  1  6  2       -4 0.450032249250D-04 0.100000000000D+01
0.312370467553D-07 0.000000000000D+00 -.730905426558D-08 0.470299688815D-05 0.000000000000D+00  6 22 -4 9900012 11 -3 21 2 0.31119320D-01 0.17358972D-01 0.55364968D+04 0.55364968D+04 0.55364968D+04 0.12368931D+01  1  2  3  1  6  2       -4 0.564999116830D-06 0.100000000000D+01
-.637503866031D-06 0.000000000000D+00 0.000000000000D+00 0.470299688815D-05 0.000000000000D+00  6 22 -4 9900012 11 -3 21 2 0.31119320D-01 0.17358972D-01 0.55364968D+04 0.55364968D+04 0.55364968D+04 0.12368931D+01  1  2 15  1  6  2       -4 -.115308314549D-04 0.100000000000D+01
-.194869106581D-07 0.000000000000D+00 0.000000000000D+00 0.470299688815D-05 0.000000000000D+00  6 22 -4 9900012 11 -3 21 2 0.31119320D-01 0.17358972D-01 0.55364968D+04 0.55364968D+04 0.55364968D+04 0.12368931D+01  1  2  4  1  6  2       -4 -.352468893677D-06 0.100000000000D+01
  </mgrwgt>
  </event>
  <event>
  6     66 0.15041895E-05 0.51621419E+02 0.78161638E-02 0.12046361E+00
       22 -1    0    0    0    0 0.00000000E+00 0.00000000E+00 0.51246817E+03 0.51246817E+03 0.00000000E+00 0.0000E+00 0.9000E+01
       -2 -1    0    0    0  501 0.00000000E+00 0.00000000E+00 -.24291416E+02 0.24291416E+02 0.00000000E+00 0.0000E+00 0.9000E+01
      -24  2    1    2    0    0 -.57216071E+02 0.29332706E+02 0.45080197E+03 0.46238916E+03 0.80294649E+02 0.0000E+00 0.0000E+00
  9900012  1    3    3    0    0 -.67083291E+02 0.23602060E+02 0.33757710E+03 0.34859077E+03 0.50000000E+02 0.0000E+00 0.9000E+01
       11  1    3    3    0    0 0.98672197E+01 0.57306452E+01 0.11322487E+03 0.11379839E+03 0.00000000E+00 0.0000E+00 0.9000E+01
       -1  1    1    2    0  501 0.57216071E+02 -.29332706E+02 0.37374787E+02 0.74370432E+02 0.00000000E+00 0.0000E+00 0.9000E+01
#aMCatNLO 1  0  0  5  2 0.29132630D+02 0.00000000D+00  -5  6  0 0.00000000D+00 0.00000000D+00 0.00000000D+00 0.00000000D+00 0.00000000D+00
  <mgrwgt>
 0.1407158602D-03    4    2    0
 0.111573194685883D+03 0.000000000000000D+00 0.000000000000000D+00 0.111573194685883D+03
 0.111573194685883D+03 -.000000000000000D+00 -.000000000000000D+00 -.111573194685883D+03
 0.999888180639544D+02 -.670832907743001D+02 0.236020603516125D+02 0.494018074960432D+02
 0.260305676469684D+02 0.986721970354808D+01 0.573064524229946D+01 0.233963273282843D+02
 0.971270036608431D+02 0.572160710707520D+02 -.293327055939120D+02 -.727981348243275D+02
 0.000000000000000D+00 -.000000000000000D+00 0.000000000000000D+00 0.000000000000000D+00
 0.111573194685883D+03 0.000000000000000D+00 0.000000000000000D+00 0.111573194685883D+03
 0.111573194685883D+03 -.000000000000000D+00 -.000000000000000D+00 -.111573194685883D+03
 0.879874130825261D+02 -.583721172148901D+02 0.191361422168341D+02 0.383182574481579D+02
 0.242248001378037D+02 0.121961483579586D+02 0.453668387286929D+01 0.204331447991944D+02
 0.182970166351192D+02 0.151903422192192D+01 0.106638798888318D+02 0.147903691128730D+02
 0.926371595163169D+02 0.446569346350096D+02 -.343367059785352D+02 -.735417713602253D+02
0.318319339754D-05 0.000000000000D+00 0.000000000000D+00 0.126704824872D-05 0.000000000000D+00  6 22 -2 9900012 11 -1 21 0 0.78841258D-01 0.37371410D-02 0.66129251D+04 0.66129251D+04 0.66129251D+04 0.12284092D+01  1  2  2  2  6  5       -1 0.135337853578D-03 0.100000000000D+01
0.905362450452D-08 0.000000000000D+00 -.611215040031D-08 0.126704824872D-05 0.000000000000D+00  6 22 -2 9900012 11 -1 21 2 0.78841258D-01 0.37371410D-02 0.66129251D+04 0.66129251D+04 0.66129251D+04 0.12284092D+01  1  2  3  2  6  5       -1 0.580851110891D-06 0.100000000000D+01
-.495381515730D-06 0.000000000000D+00 0.000000000000D+00 0.126704824872D-05 0.000000000000D+00  6 22 -2 9900012 11 -1 21 2 0.78841258D-01 0.37371410D-02 0.66129251D+04 0.66129251D+04 0.66129251D+04 0.12284092D+01  1  2 15  2  6  5       -1 -.317820673458D-04 0.100000000000D+01
0.570723164577D-06 0.000000000000D+00 0.000000000000D+00 0.126704824872D-05 0.000000000000D+00  6 22 -2 9900012 11 -1 21 2 0.78841258D-01 0.37371410D-02 0.63458065D+04 0.63458065D+04 0.63458065D+04 0.12303619D+01  1  2 12  2  6  5       -1 0.365792228916D-04 0.100000000000D+01
  </mgrwgt>
  </event>
  <event>
  6     66 0.15041895E-05 0.31431929E+02 0.78161638E-02 0.12850413E+00
       22 -1    0    0    0    0 0.00000000E+00 0.00000000E+00 0.15327156E+04 0.15327156E+04 0.00000000E+00 0.0000E+00 0.9000E+01
       -2 -1    0    0    0  501 0.00000000E+00 0.00000000E+00 -.53777496E+01 0.53777496E+01 0.00000000E+00 0.0000E+00 0.9000E+01
      -24  2    1    2    0    0 0.10801639E+02 -.29517635E+02 0.38180880E+03 0.39213315E+03 0.83680846E+02 0.0000E+00 0.0000E+00
  9900012  1    3    3    0    0 -.27181902E+01 -.98830377E+01 0.13755766E+03 0.14672141E+03 0.50000000E+02 0.0000E+00 0.9000E+01
       11  1    3    3    0    0 0.13519829E+02 -.19634597E+02 0.24425114E+03 0.24541174E+03 0.00000000E+00 0.0000E+00 0.9000E+01
       -1  1    1    2    0  501 -.10801639E+02 0.29517635E+02 0.11455290E+04 0.11459602E+04 0.00000000E+00 0.0000E+00 0.9000E+01
#aMCatNLO 1  0  0  5  2 0.29132630D+02 0.00000000D+00  -5  6  0 0.00000000D+00 0.00000000D+00 0.00000000D+00 0.00000000D+00 0.00000000D+00
  <mgrwgt>
 0.4938916225D-05    1    2    0
 0.907885483749925D+02 0.000000000000000D+00 0.000000000000000D+00 0.907885483749925D+02
 0.907885483749925D+02 -.000000000000000D+00 -.000000000000000D+00 -.907885483749925D+02
 0.857718725364849D+02 -.271819016234247D+01 -.988303774053383D+01 -.689329465906945D+02
 0.242990745548353D+02 0.135198288320008D+02 -.196345971064204D+02 0.470551262280664D+01
 0.715061496586649D+02 -.108016386696583D+02 0.295176348469542D+02 0.642274339678879D+02
 0.000000000000000D+00 0.000000000000000D+00 0.000000000000000D+00 0.000000000000000D+00
 0.907885483749925D+02 0.000000000000000D+00 0.000000000000000D+00 0.907885483749925D+02
 0.907885483749925D+02 -.000000000000000D+00 -.000000000000000D+00 -.907885483749925D+02
 0.821431398121378D+02 -.344667830184419D+01 -.789229841386565D+01 -.646012960599593D+02
 0.239988151235813D+02 0.133102916423144D+02 -.190619948891851D+02 0.595143802597755D+01
 0.672633766047103D+02 -.148898081109038D+02 0.330773418184346D+02 0.566440191451313D+02
 0.817176520955561D+01 0.502619477043359D+01 -.612304851538386D+01 0.200583888885049D+01
0.102255915199D-06 0.000000000000D+00 0.000000000000D+00 0.178646633270D-07 0.000000000000D+00  6 22 -2 9900012 11 -1 21 2 0.23580240D+00 0.82734609D-03 0.28254996D+04 0.28254996D+04 0.28254996D+04 0.12707598D+01  1  2 14  2  6  5       -1 0.493891622466D-05 0.100000000000D+01
  </mgrwgt>
  </event>
  <event>
  6     66 0.15041895E-05 0.56211004E+02 0.78161638E-02 0.10518618E+00
       22 -1    0    0    0    0 0.00000000E+00 0.00000000E+00 0.14356397E+04 0.14356397E+04 0.00000000E+00 0.0000E+00 0.9000E+01
       -4 -1    0    0    0  501 0.00000000E+00 0.00000000E+00 -.31646374E+02 0.31646374E+02 0.00000000E+00 0.0000E+00 0.9000E+01
      -24  2    1    2    0    0 -.37407903E+02 -.41956237E+02 0.14075694E+04 0.14109615E+04 0.80005252E+02 0.0000E+00 0.0000E+00
  9900012  1    3    3    0    0 -.26604763E+02 -.57584723E+01 0.66524450E+03 0.66767598E+03 0.50000000E+02 0.0000E+00 0.9000E+01
       11  1    3    3    0    0 -.10803140E+02 -.36197765E+02 0.74232495E+03 0.74328549E+03 0.00000000E+00 0.0000E+00 0.9000E+01
       -3  1    1    2    0  501 0.37407903E+02 0.41956237E+02 -.35760830E+01 0.56324643E+02 0.00000000E+00 0.0000E+00 0.9000E+01
#aMCatNLO 1  0  0  2  5 0.10832510D+02 0.00000000D+00  -5  6  0 0.00000000D+00 0.00000000D+00 0.00000000D+00 0.00000000D+00 0.00000000D+00
  <mgrwgt>
 0.7849731374D-04    5    4    0
 0.213149692798578D+03 0.000000000000000D+00 0.000000000000000D+00 0.213149692798578D+03
 0.213149692798578D+03 0.000000000000000D+00 0.000000000000000D+00 -.213149692798578D+03
 0.107137928010227D+03 -.266047630851241D+02 -.575847231313914D+01 0.907610169407974D+02
 0.113519212009067D+03 -.108031399491609D+02 -.361977645847999D+02 0.107049640361198D+03
 0.205642245577862D+03 0.374079030342850D+02 0.419562368979390D+02 -.197810657301995D+03
 0.000000000000000D+00 0.000000000000000D+00 0.000000000000000D+00 -.000000000000000D+00
 0.296339270261643D+03 0.000000000000000D+00 0.000000000000000D+00 0.296339270261643D+03
 0.366957346852684D+03 0.000000000000000D+00 0.000000000000000D+00 -.366957346852684D+03
 0.119529250872976D+03 -.273824818809352D+02 -.529138857405819D+02 0.907610169407974D+02
 0.139612876107273D+03 -.116716626162755D+02 -.888588879361809D+02 0.107049640361198D+03
 0.205737867717589D+03 0.359964148430563D+02 -.436265078728473D+02 -.197810657301995D+03
 0.198416622416489D+03 0.305772965415442D+01 0.185399281549610D+03 -.706180765910407D+02
 0.213149692798578D+03 0.000000000000000D+00 0.000000000000000D+00 0.213149692798578D+03
 0.213149692798578D+03 0.000000000000000D+00 0.000000000000000D+00 -.213149692798578D+03
 0.107137928010227D+03 -.266047630851241D+02 -.575847231313914D+01 0.907610169407974D+02
 0.113519212009067D+03 -.108031399491609D+02 -.361977645847999D+02 0.107049640361198D+03
 0.000000000000000D+00 0.000000000000000D+00 0.000000000000000D+00 -.000000000000000D+00
 0.205642245577862D+03 0.374079030342850D+02 0.419562368979390D+02 -.197810657301995D+03
 0.296339270261643D+03 0.000000000000000D+00 0.000000000000000D+00 0.296339270261643D+03
 0.366957346852684D+03 0.000000000000000D+00 0.000000000000000D+00 -.366957346852684D+03
 0.119529250872976D+03 -.273824818809352D+02 -.529138857405819D+02 0.907610169407974D+02
 0.139612876107273D+03 -.116716626162755D+02 -.888588879361809D+02 0.107049640361198D+03
 0.198416622416489D+03 0.305772965415442D+01 0.185399281549610D+03 -.706180765910407D+02
 0.205737867717589D+03 0.359964148430563D+02 -.436265078728473D+02 -.197810657301995D+03
0.248787241614D-04 0.000000000000D+00 0.000000000000D+00 0.349993200727D-04 0.000000000000D+00  6 22 -4 9900012 11 -3 21 0 0.22086765D+00 0.48686729D-02 0.56939113D+04 0.56939113D+04 0.56939113D+04 0.12355420D+01  1  2  2  1  6  2       -4 0.542837134725D-04 0.100000000000D+01
0.804889491346D-06 0.000000000000D+00 -.477704257491D-07 0.349993200727D-04 0.000000000000D+00  6 22 -4 9900012 11 -3 21 2 0.22086765D+00 0.48686729D-02 0.56939113D+04 0.56939113D+04 0.56939113D+04 0.12355420D+01  1  2  3  1  6  2       -4 0.268097495157D-05 0.100000000000D+01
-.416054934954D-05 0.000000000000D+00 0.000000000000D+00 0.349993200727D-04 0.000000000000D+00  6 22 -4 9900012 11 -3 21 2 0.22086765D+00 0.48686729D-02 0.56939113D+04 0.56939113D+04 0.56939113D+04 0.12355420D+01  1  2 15  1  6  2       -4 -.138582112338D-04 0.100000000000D+01
0.108177529325D-04 0.000000000000D+00 -.674371729524D-05 0.349993200727D-04 0.000000000000D+00  6 22 -4 9900012 11 -3 21 2 0.22086765D+00 0.12082763D-01 0.56939113D+04 0.56939113D+04 0.56939113D+04 0.12355420D+01  1  2  5  1  6  2       -4 0.852039394049D-05 0.100000000000D+01
0.149944910495D-05 0.000000000000D+00 -.673964878085D-06 0.349993200727D-04 0.000000000000D+00  6 22 21 9900012 11 4 -3 2 0.22086765D+00 0.12082763D-01 0.56939113D+04 0.56939113D+04 0.56939113D+04 0.12355420D+01  3  4  5  3  5  2       -4 0.268704426084D-04 0.100000000000D+01
  </mgrwgt>
  </event>
  <event>
  7     66 -.15041895E-05 0.10565265E+03 0.78161638E-02 0.11252300E+00
       22 -1    0    0    0    0 0.00000000E+00 0.00000000E+00 0.20697688E+03 0.20697688E+03 0.00000000E+00 0.0000E+00 0.9000E+01
       -4 -1    0    0    0  501 0.00000000E+00 0.00000000E+00 -.16652926E+03 0.16652926E+03 0.00000000E+00 0.0000E+00 0.9000E+01
      -24  2    1    2    0    0 0.81531961E+02 0.81552392E+02 0.15246752E+03 0.20983336E+03 0.86518441E+02 0.0000E+00 0.0000E+00
  9900012  1    3    3    0    0 0.41405552E+02 0.68311340E+02 0.70760397E+02 0.11784690E+03 0.50000000E+02 0.0000E+00 0.9000E+01
       11  1    3    3    0    0 0.40126410E+02 0.13241052E+02 0.81707120E+02 0.91986454E+02 0.00000000E+00 0.0000E+00 0.9000E+01
       -3  1    1    2    0  502 -.23708988E+02 -.23535784E+02 -.53241007E+02 0.62854229E+02 0.00000000E+00 0.0000E+00 0.9000E+01
       21  1    1    2  502  501 -.57822973E+02 -.58016609E+02 -.58778893E+02 0.10081856E+03 0.00000000E+00 0.0000E+00 0.9000E+01
#aMCatNLO 2  0  0  5  2 0.14972797D+02 0.00000000D+00  -5  6  0 0.00000000D+00 0.00000000D+00 0.00000000D+00 0.00000000D+00 0.00000000D+00
  <mgrwgt>
 -.8717479135D-05    2    2    0
 0.185654806869009D+03 0.000000000000000D+00 0.000000000000000D+00 0.185654806869009D+03
 0.185654806869009D+03 -.000000000000000D+00 -.000000000000000D+00 -.185654806869009D+03
 0.111528715555854D+03 0.417831446792857D+02 0.686890277472243D+02 0.589460828332941D+02
 0.842058743343148D+02 0.404114085032316D+02 0.135261227148830D+02 0.726263818422292D+02
 0.175575023847848D+03 -.821945531825174D+02 -.822151504621073D+02 -.131572464675523D+03
 0.000000000000000D+00 0.000000000000000D+00 -.000000000000000D+00 0.000000000000000D+00
 0.185654806869009D+03 0.000000000000000D+00 0.000000000000000D+00 0.185654806869009D+03
 0.185654806869009D+03 -.000000000000000D+00 -.000000000000000D+00 -.185654806869009D+03
 0.110835947896571D+03 0.414055516152514D+02 0.683113400614710D+02 0.583416528783181D+02
 0.836300655429143D+02 0.401264095928410D+02 0.132410523861074D+02 0.721701714533647D+02
 0.690257174597109D+02 -.237089881444913D+02 -.235357836303028D+02 -.604028181536240D+02
 0.107817882838821D+03 -.578229730636010D+02 -.580166088172755D+02 -.701090061780588D+02
-.322394125312D-05 0.000000000000D+00 0.000000000000D+00 0.867212773389D-07 0.000000000000D+00  6 22 -4 9900012 11 -3 21 2 0.31842597D-01 0.25619887D-01 0.15852237D+05 0.15852237D+05 0.15852237D+05 0.11891197D+01  1  2 13  2  6  5       -3 -.286878907339D-04 0.100000000000D+01
0.224427213529D-05 0.000000000000D+00 0.000000000000D+00 0.867212773389D-07 0.461146180948D-09  6 22 -4 9900012 11 -3 21 2 0.31842597D-01 0.25619887D-01 0.15852237D+05 0.15852237D+05 0.15852237D+05 0.11891197D+01  1  2  1  2  6  5       -3 0.199704115986D-04 0.100000000000D+01
  </mgrwgt>
  </event>
  <event>
  6     66 0.15041895E-05 0.36828601E+02 0.78161638E-02 0.12596361E+00
       22 -1    0    0    0    0 0.00000000E+00 0.00000000E+00 0.91586700E+02 0.91586700E+02 0.00000000E+00 0.0000E+00 0.9000E+01
       -4 -1    0    0    0  501 0.00000000E+00 0.00000000E+00 -.52654188E+02 0.52654188E+02 0.00000000E+00 0.0000E+00 0.9000E+01
      -24  2    1    2    0    0 -.29561923E+02 -.29894970E+02 0.45855260E+02 0.10163172E+03 0.80365949E+02 0.0000E+00 0.0000E+00
  9900012  1    3    3    0    0 -.38473233E+02 -.27655759E+02 0.16445562E+02 0.70820104E+02 0.50000000E+02 0.0000E+00 0.9000E+01
       11  1    3    3    0    0 0.89113100E+01 -.22392113E+01 0.29409698E+02 0.30811619E+02 0.00000000E+00 0.0000E+00 0.9000E+01
       -3  1    1    2    0  501 0.29561923E+02 0.29894970E+02 -.69227478E+01 0.42609165E+02 0.00000000E+00 0.0000E+00 0.9000E+01
#aMCatNLO 1  0  0  5  2 0.14972797D+02 0.00000000D+00  -5  6  0 0.00000000D+00 0.00000000D+00 0.00000000D+00 0.00000000D+00 0.00000000D+00
  <mgrwgt>
 0.1886253664D-05    1    2    0
 0.694436705193928D+02 0.000000000000000D+00 0.000000000000000D+00 0.694436705193928D+02
 0.694436705193928D+02 -.000000000000000D+00 -.000000000000000D+00 -.694436705193928D+02
 0.689399601486458D+02 -.384732331050558D+02 -.276557589900315D+02 -.277262230139598D+01
 0.237552382745951D+02 0.891131003257301D+01 -.223921133543019D+01 0.219062966194980D+02
 0.461921426155447D+02 0.295619230724828D+02 0.298949703254617D+02 -.191336743181021D+02
 0.000000000000000D+00 0.000000000000000D+00 0.000000000000000D+00 0.000000000000000D+00
 0.694436705193928D+02 0.000000000000000D+00 0.000000000000000D+00 0.694436705193928D+02
 0.694436705193928D+02 -.000000000000000D+00 -.000000000000000D+00 -.694436705193928D+02
 0.675075381342690D+02 -.369157259136725D+02 -.260807047841892D+02 -.378070405828855D+01
 0.235983568977762D+02 0.945183709204245D+01 -.169259465006342D+01 0.215564456070774D+02
 0.392824661517834D+02 0.257752768141745D+02 0.203503684957418D+02 -.215548081458920D+02
 0.849897985495704D+01 0.168861200745554D+01 0.742293093851087D+01 0.377906659710315D+01
0.933294989966D-08 0.000000000000D+00 0.000000000000D+00 0.182264026378D-06 0.000000000000D+00  6 22 -4 9900012 11 -3 21 2 0.14090262D-01 0.81006444D-02 0.36069364D+04 0.36069364D+04 0.36069364D+04 0.12581357D+01  1  2 14  2  6  5       -3 0.188625366443D-05 0.100000000000D+01
  </mgrwgt>
  </event>
  <event>
  6     66 0.15041895E-05 0.52347893E+01 0.78161638E-02 0.12822418E+00
       22 -1    0    0    0    0 0.00000000E+00 0.00000000E+00 0.41740589E+03 0.41740589E+03 0.00000000E+00 0.0000E+00 0.9000E+01
       -2 -1    0    0    0  501 0.00000000E+00 0.00000000E+00 -.43795638E+01 0.43795638E+01 0.00000000E+00 0.0000E+00 0.9000E+01
      -24  2    1    2    0    0 0.51381130E+01 -.10014056E+01 0.39929825E+03 0.40709317E+03 0.79109775E+02 0.0000E+00 0.0000E+00
  9900012  1    3    3    0    0 0.77716516E+01 0.19147595E+02 0.34298596E+03 0.34722673E+03 0.50000000E+02 0.0000E+00 0.9000E+01
       11  1    3    3    0    0 -.26335386E+01 -.20149001E+02 0.56312282E+02 0.59866442E+02 0.00000000E+00 0.0000E+00 0.9000E+01
       -1  1    1    2    0  501 -.51381130E+01 0.10014056E+01 0.13728076E+02 0.14692280E+02 0.00000000E+00 0.0000E+00 0.9000E+01
#aMCatNLO 1  0  0  2  2 0.10846610D+03 0.00000000D+00  -5  6  0 0.00000000D+00 0.00000000D+00 0.00000000D+00 0.00000000D+00 0.00000000D+00
  <mgrwgt>
 0.2352787798D-04    3    2    0
 0.427557679705350D+02 0.000000000000000D+00 0.000000000000000D+00 0.427557679705350D+02
 0.427557679705350D+02 0.000000000000000D+00 0.000000000000000D+00 -.427557679705350D+02
 0.560503351782012D+02 0.777165159629715D+01 0.191475952038242D+02 0.146496110175309D+02
 0.232990713152173D+02 -.263353857814435D+01 -.201490008091536D+02 -.113986387389782D+02
 0.616212944765157D+01 -.513811301815279D+01 0.100140560532941D+01 -.325097227855271D+01
 0.000000000000000D+00 0.000000000000000D+00 -.000000000000000D+00 0.000000000000000D+00
 0.742333240652718D+02 0.000000000000000D+00 0.000000000000000D+00 0.742333240652718D+02
 0.495177441201202D+02 0.000000000000000D+00 0.000000000000000D+00 -.495177441201202D+02
 0.590609150324980D+02 -.630691754333059D+01 0.270888053005778D+02 0.146496110175309D+02
 0.220575266939652D+02 -.818083304190673D+01 -.170199732518503D+02 -.113986387389782D+02
 0.783307233650837D+01 -.684978251683941D+01 0.196689627206309D+01 -.325097227855271D+01
 0.347995541224206D+02 0.213375331020767D+02 -.120357283207906D+02 0.247155799451516D+02
0.417031290610D-07 0.000000000000D+00 0.000000000000D+00 0.182519280043D-07 0.000000000000D+00  6 22 -2 9900012 11 -1 21 0 0.64216290D-01 0.67377904D-03 0.15863170D+04 0.15863170D+04 0.15863170D+04 0.13022403D+01  1  2  2  1  6  2       -2 0.230875002526D-04 0.100000000000D+01
0.658954732666D-08 0.000000000000D+00 -.800754981402D-10 0.182519280043D-07 0.000000000000D+00  6 22 -2 9900012 11 -1 21 2 0.64216290D-01 0.67377904D-03 0.15863170D+04 0.15863170D+04 0.15863170D+04 0.13022403D+01  1  2  3  1  6  2       -2 0.618651518817D-05 0.100000000000D+01
-.612048036397D-08 0.000000000000D+00 0.000000000000D+00 0.182519280043D-07 0.000000000000D+00  6 22 -2 9900012 11 -1 21 2 0.64216290D-01 0.67377904D-03 0.15863170D+04 0.15863170D+04 0.15863170D+04 0.13022403D+01  1  2 15  1  6  2       -2 -.574613745885D-05 0.100000000000D+01
  </mgrwgt>
  </event>
  <event>
  6     66 0.15041895E-05 0.75103385E+02 0.78161638E-02 0.10712102E+00
       22 -1    0    0    0    0 0.00000000E+00 0.00000000E+00 0.36335295E+03 0.36335295E+03 0.00000000E+00 0.0000E+00 0.9000E+01
       -2 -1    0    0    0  501 0.00000000E+00 0.00000000E+00 -.30473581E+03 0.30473581E+03 0.00000000E+00 0.0000E+00 0.9000E+01
      -24  2    1    2    0    0 -.52012257E+02 -.54177888E+02 0.35020786E+03 0.36698135E+03 0.79932747E+02 0.0000E+00 0.0000E+00
  9900012  1    3    3    0    0 -.61237010E+02 -.44383507E+02 0.33309200E+03 0.34521030E+03 0.50000000E+02 0.0000E+00 0.9000E+01
       11  1    3    3    0    0 0.92247531E+01 -.97943811E+01 0.17115859E+02 0.21771050E+02 0.00000000E+00 0.0000E+00 0.9000E+01
       -1  1    1    2    0  501 0.52012257E+02 0.54177888E+02 -.29159073E+03 0.30110741E+03 0.00000000E+00 0.0000E+00 0.9000E+01
#aMCatNLO 1  0  0  2  5 0.39393025D+02 0.00000000D+00  -5  6  0 0.00000000D+00 0.00000000D+00 0.00000000D+00 0.00000000D+00 0.00000000D+00
  <mgrwgt>
 0.1499138560D-03    6    4    0
 0.332756150457929D+03 0.000000000000000D+00 0.000000000000000D+00 0.332756150457929D+03
 0.332756150457929D+03 0.000000000000000D+00 0.000000000000000D+00 -.332756150457929D+03
 0.317208595638390D+03 -.612370097957207D+02 -.443835068077814D+02 0.303976028827277D+03
 0.203477997682300D+02 0.922475314617907D+01 -.979438105013838D+01 0.152645663104043D+02
 0.327955905509238D+03 0.520122566495416D+02 0.541778878579198D+02 -.319240595137682D+03
 0.000000000000000D+00 -.000000000000000D+00 0.000000000000000D+00 -.000000000000000D+00
 0.355912447908676D+03 0.000000000000000D+00 0.000000000000000D+00 0.355912447908676D+03
 0.623083663350307D+03 0.000000000000000D+00 0.000000000000000D+00 -.623083663350307D+03
 0.319699817963602D+03 -.111048135249486D+02 -.847539416247674D+02 0.303976028827277D+03
 0.234893444232846D+02 0.126752528877832D+02 -.125729980920107D+02 0.152645663104043D+02
 0.336057432607067D+03 0.104277929832593D+03 0.120894076124930D+02 -.319240595137682D+03
 0.299749516265029D+03 -.105848369195427D+03 0.852375321042851D+02 -.267171215441631D+03
 0.332756150457929D+03 0.000000000000000D+00 0.000000000000000D+00 0.332756150457929D+03
 0.332756150457929D+03 0.000000000000000D+00 0.000000000000000D+00 -.332756150457929D+03
 0.317208595638390D+03 -.612370097957207D+02 -.443835068077814D+02 0.303976028827277D+03
 0.203477997682300D+02 0.922475314617907D+01 -.979438105013838D+01 0.152645663104043D+02
 0.000000000000000D+00 -.000000000000000D+00 0.000000000000000D+00 -.000000000000000D+00
 0.327955905509238D+03 0.520122566495416D+02 0.541778878579198D+02 -.319240595137682D+03
 0.355912447908676D+03 0.000000000000000D+00 0.000000000000000D+00 0.355912447908676D+03
 0.623083663350307D+03 0.000000000000000D+00 0.000000000000000D+00 -.623083663350307D+03
 0.319699817963602D+03 -.111048135249486D+02 -.847539416247674D+02 0.303976028827277D+03
 0.234893444232846D+02 0.126752528877832D+02 -.125729980920107D+02 0.152645663104043D+02
 0.299749516265029D+03 -.105848369195427D+03 0.852375321042851D+02 -.267171215441631D+03
 0.336057432607067D+03 0.104277929832593D+03 0.120894076124930D+02 -.319240595137682D+03
0.671487511373D-04 0.000000000000D+00 0.000000000000D+00 0.139103424524D-03 0.000000000000D+00  6 22 -2 9900012 11 -1 21 0 0.55900453D-01 0.46882433D-01 0.80300826D+04 0.80300826D+04 0.80300826D+04 0.12193370D+01  1  2  2  1  6  2       -2 0.981116542265D-04 0.100000000000D+01
0.143738884370D-05 0.000000000000D+00 -.128934442520D-06 0.139103424524D-03 0.000000000000D+00  6 22 -2 9900012 11 -1 21 2 0.55900453D-01 0.46882433D-01 0.80300826D+04 0.80300826D+04 0.80300826D+04 0.12193370D+01  1  2  3  1  6  2       -2 0.312251434209D-05 0.100000000000D+01
-.114100721759D-04 0.000000000000D+00 0.000000000000D+00 0.139103424524D-03 0.000000000000D+00  6 22 -2 9900012 11 -1 21 2 0.55900453D-01 0.46882433D-01 0.80300826D+04 0.80300826D+04 0.80300826D+04 0.12193370D+01  1  2 15  1  6  2       -2 -.247866916247D-04 0.100000000000D+01
-.500645064522D-04 0.000000000000D+00 -.182566725921D-04 0.139103424524D-03 0.000000000000D+00  6 22 -2 9900012 11 -1 21 2 0.55900453D-01 0.91249128D-01 0.80300826D+04 0.80300826D+04 0.80300826D+04 0.12193370D+01  1  2  5  1  6  2       -2 -.280211610970D-04 0.100000000000D+01
0.533608332986D-04 0.000000000000D+00 0.148420724816D-04 0.139103424524D-03 0.000000000000D+00  6 22 -2 9900012 11 -1 21 2 0.55900453D-01 0.46882433D-01 0.80300826D+04 0.80300826D+04 0.80300826D+04 0.12193370D+01  1  2  6  1  6  2       -2 0.115918505985D-03 0.100000000000D+01
-.254438190547D-05 0.000000000000D+00 -.131777950450D-05 0.139103424524D-03 0.000000000000D+00  6 22 21 9900012 11 2 -1 2 0.55900453D-01 0.91249128D-01 0.80300826D+04 0.80300826D+04 0.80300826D+04 0.12193370D+01  3  4  5  3  5  2       -2 -.144309658055D-04 0.100000000000D+01
  </mgrwgt>
  </event>
  <event>
  7     66 0.15041895E-05 0.18796087E+02 0.78161638E-02 0.12986620E+00
       22 -1    0    0    0    0 0.00000000E+00 0.00000000E+00 0.10546075E+03 0.10546075E+03 0.00000000E+00 0.0000E+00 0.9000E+01
       -4 -1    0    0    0  502 0.00000000E+00 0.00000000E+00 -.65370331E+02 0.65370331E+02 0.00000000E+00 0.0000E+00 0.9000E+01
      -24  2    1    2    0    0 0.44607570E+01 0.17818776E+02 -.22010688E+02 0.84617142E+02 0.79612708E+02 0.0000E+00 0.0000E+00
  9900012  1    3    3    0    0 0.14138150E+02 -.72121060E+01 -.46707868E+01 0.52666099E+02 0.50000000E+02 0.0000E+00 0.9000E+01
       11  1    3    3    0    0 -.96773926E+01 0.25030882E+02 -.17339901E+02 0.31951043E+02 0.00000000E+00 0.0000E+00 0.9000E+01
       -3  1    1    2    0  501 0.76833129E+00 0.81925102E+00 0.66379583E+02 0.66389085E+02 0.00000000E+00 0.0000E+00 0.9000E+01
       21  1    1    2  501  502 -.52290883E+01 -.18638027E+02 -.42784773E+01 0.19824852E+02 0.00000000E+00 0.0000E+00 0.9000E+01
#aMCatNLO 2  0  0  2  2 0.22902662D+02 0.00000000D+00  -5  6  0 0.00000000D+00 0.00000000D+00 0.00000000D+00 0.00000000D+00 0.00000000D+00
  <mgrwgt>
 0.4530460855D-03    1    2    0
 0.715184632704506D+02 0.000000000000000D+00 0.000000000000000D+00 0.715184632704506D+02
 0.715184632704506D+02 0.000000000000000D+00 0.000000000000000D+00 -.715184632704506D+02
 0.574721267231145D+02 0.120637115625927D+02 -.146060206145547D+02 -.210754922889006D+02
 0.362020951278918D+02 -.110413309419015D+02 0.201693996912010D+02 -.279620460406050D+02
 0.493627046898948D+02 -.102238062069124D+01 -.556337907664627D+01 0.490375383295056D+02
 0.000000000000000D+00 -.000000000000000D+00 -.000000000000000D+00 -.000000000000000D+00
 0.779131663074244D+02 0.000000000000000D+00 0.000000000000000D+00 0.779131663074244D+02
 0.884831711473016D+02 0.000000000000000D+00 0.000000000000000D+00 -.884831711473016D+02
 0.565338670507130D+02 0.141381496471157D+02 -.721210600615015D+01 -.210754922889006D+02
 0.387565863627800D+02 -.967739262162014D+01 0.250308817216998D+02 -.279620460406050D+02
 0.490503992911795D+02 0.768331289767335D+00 0.819251021098188D+00 0.490375383295056D+02
 0.220554847500535D+02 -.522908831526287D+01 -.186380267366478D+02 -.105700048398772D+02
0.396841288999D-05 0.000000000000D+00 0.000000000000D+00 0.425116431418D-06 0.257801135790D-06  6 22 -4 9900012 11 -3 21 2 0.16224731D-01 0.10056974D-01 0.24888073D+04 0.24888073D+04 0.24888073D+04 0.12774767D+01  1  2  1  1  6  2       -4 0.453046085533D-03 0.100000000000D+01
  </mgrwgt>
  </event>
  <event>
  6     66 0.15041895E-05 0.73046305E+02 0.78161638E-02 0.11593651E+00
       22 -1    0    0    0    0 0.00000000E+00 0.00000000E+00 0.24831574E+03 0.24831574E+03 0.00000000E+00 0.0000E+00 0.9000E+01
       -4 -1    0    0    0  501 0.00000000E+00 0.00000000E+00 -.57357090E+02 0.57357090E+02 0.00000000E+00 0.0000E+00 0.9000E+01
      -24  2    1    2    0    0 0.20515649E+02 -.92155525E+02 0.16775696E+03 0.20845219E+03 0.79977424E+02 0.0000E+00 0.0000E+00
  9900012  1    3    3    0    0 0.24271670E+02 -.78077569E+02 0.97561937E+02 0.13676093E+03 0.50000000E+02 0.0000E+00 0.9000E+01
       11  1    3    3    0    0 -.37560208E+01 -.14077957E+02 0.70195019E+02 0.71691264E+02 0.00000000E+00 0.0000E+00 0.9000E+01
       -3  1    1    2    0  501 -.20515649E+02 0.92155525E+02 0.23201689E+02 0.97220631E+02 0.00000000E+00 0.0000E+00 0.9000E+01
#aMCatNLO 1  0  0  5  2 0.97606846D+01 0.00000000D+00  -5  6  0 0.00000000D+00 0.00000000D+00 0.00000000D+00 0.00000000D+00 0.00000000D+00
  <mgrwgt>
 0.7634626448D-05    8    2    0
 0.119342649625700D+03 0.000000000000000D+00 0.000000000000000D+00 0.119342649625700D+03
 0.119342649625700D+03 -.000000000000000D+00 -.000000000000000D+00 -.119342649625700D+03
 0.970893679262391D+02 0.242716695523800D+02 -.780775685880555D+02 0.155281906490808D+02
 0.356524905210000D+02 -.375602076485391D+01 -.140779569091583D+02 0.325392611721266D+02
 0.105943440804161D+03 -.205156487875261D+02 0.921555254972137D+02 -.480674518212073D+02
 0.000000000000000D+00 0.000000000000000D+00 0.000000000000000D+00 -.000000000000000D+00
 0.119342649625700D+03 0.000000000000000D+00 0.000000000000000D+00 0.119342649625700D+03
 0.119342649625700D+03 -.000000000000000D+00 -.000000000000000D+00 -.119342649625700D+03
 0.963731195396286D+02 0.241023205144588D+02 -.773168590563365D+02 0.151314117411580D+02
 0.354163354248057D+02 -.381823146759922D+01 -.137985087638707D+02 0.323935036585357D+02
 0.749474931481944D+02 -.239068291078095D+02 0.632789235566397D+02 -.322702352752749D+02
 0.319483511387716D+02 0.362274006094987D+01 0.278364442635675D+02 -.152546801244187D+02
0.252166280865D-06 0.000000000000D+00 0.000000000000D+00 0.578297165783D-06 0.000000000000D+00  6 22 -4 9900012 11 -3 21 0 0.38202421D-01 0.88241677D-02 0.10487958D+05 0.10487958D+05 0.10487958D+05 0.12071914D+01  1  2  2  2  6  5       -3 0.716940322643D-05 0.100000000000D+01
-.613222503134D-08 0.000000000000D+00 -.484192457714D-09 0.578297165783D-06 0.000000000000D+00  6 22 -4 9900012 11 -3 21 2 0.38202421D-01 0.88241677D-02 0.10487958D+05 0.10487958D+05 0.10487958D+05 0.12071914D+01  1  2  3  2  6  5       -3 -.254077580578D-06 0.100000000000D+01
-.356670610174D-07 0.000000000000D+00 0.000000000000D+00 0.578297165783D-06 0.000000000000D+00  6 22 -4 9900012 11 -3 21 2 0.38202421D-01 0.88241677D-02 0.10487958D+05 0.10487958D+05 0.10487958D+05 0.12071914D+01  1  2 15  2  6  5       -3 -.147779974207D-05 0.100000000000D+01
0.112091187387D-05 0.000000000000D+00 0.000000000000D+00 0.578297165783D-06 0.000000000000D+00  6 22 -4 9900012 11 -3 21 2 0.38202421D-01 0.88241677D-02 0.10527829D+05 0.10527829D+05 0.10527829D+05 0.12070216D+01  1  2 12  2  6  5       -3 0.464499331313D-04 0.100000000000D+01
-.144806429906D-05 0.000000000000D+00 0.000000000000D+00 0.578297165783D-06 0.000000000000D+00  6 22 -4 9900012 11 -3 21 2 0.38202421D-01 0.88241677D-02 0.10487958D+05 0.10487958D+05 0.10487958D+05 0.12071914D+01  1  2  4  2  6  5       -3 -.599979080589D-04 0.100000000000D+01
-.110387828831D-05 0.000000000000D+00 0.000000000000D+00 0.578297165783D-06 0.000000000000D+00  6 22 -4 9900012 11 -3 21 2 0.38202421D-01 0.88241677D-02 0.10487958D+05 0.10487958D+05 0.10487958D+05 0.12071914D+01  1  2  5  2  6  5       -3 -.457371872872D-04 0.100000000000D+01
0.148388906124D-05 0.000000000000D+00 -.000000000000D+00 0.578297165783D-06 0.000000000000D+00  6 22 -4 9900012 11 -3 21 2 0.38202421D-01 0.88241677D-02 0.10487958D+05 0.10487958D+05 0.10487958D+05 0.12071914D+01  1  2  6  2  6  5       -3 0.614822418613D-04 0.100000000000D+01
0.504283002736D-12 0.000000000000D+00 0.000000000000D+00 0.578297165783D-06 0.256071994769D-07  6 22 -4 9900012 11 -3 21 2 0.38202421D-01 0.88241677D-02 0.10527829D+05 0.10527829D+05 0.10527829D+05 0.12070216D+01  1  2 11  2  6  5       -3 0.208971929929D-10 0.100000000000D+01
  </mgrwgt>
  </event>
  <event>
  6     66 0.15041895E-05 0.31291685E+02 0.78161638E-02 0.12643391E+00
       22 -1    0    0    0    0 0.00000000E+00 0.00000000E+00 0.73675865E+02 0.73675865E+02 0.00000000E+00 0.0000E+00 0.9000E+01
       -2 -1    0    0    0  501 -.00000000E+00 -.00000000E+00 -.74881436E+02 0.74881436E+02 0.00000000E+00 0.0000E+00 0.9000E+01
      -24  2    1    2    0    0 -.24690647E+02 -.19223463E+02 0.40229594E+02 0.96633871E+02 0.82100641E+02 0.0000E+00 0.0000E+00
  9900012  1    3    3    0    0 -.23448926E+02 0.10824918E+02 0.34527420E+02 0.66024039E+02 0.50000000E+02 0.0000E+00 0.9000E+01
       11  1    3    3    0    0 -.12417204E+01 -.30048380E+02 0.57021743E+01 0.30609832E+02 0.00000000E+00 0.0000E+00 0.9000E+01
       -1  1    1    2    0  501 0.24690647E+02 0.19223463E+02 -.41435166E+02 0.51923430E+02 0.00000000E+00 0.0000E+00 0.9000E+01
#aMCatNLO 1  0  0  5  2 0.17317124D+01 0.00000000D+00  -5  6  0 0.00000000D+00 0.00000000D+00 0.00000000D+00 0.00000000D+00 0.00000000D+00
  <mgrwgt>
 0.2613406700D-04    8    2    0
 0.742762044324370D+02 0.000000000000000D+00 0.000000000000000D+00 0.742762044324370D+02
 0.742762044324370D+02 -.000000000000000D+00 -.000000000000000D+00 -.742762044324370D+02
 0.663064191974443D+02 -.234489261668178D+02 0.108249177244067D+02 0.350643728686277D+02
 0.306571158795893D+02 -.124172041907225D+01 -.300483803447918D+02 0.595077500080062D+01
 0.515888737878406D+02 0.246906465858901D+02 0.192234626203851D+02 -.410151478694283D+02
 0.000000000000000D+00 0.000000000000000D+00 0.000000000000000D+00 -.000000000000000D+00
 0.742762044324370D+02 0.000000000000000D+00 0.000000000000000D+00 0.742762044324370D+02
 0.742762044324370D+02 -.000000000000000D+00 -.000000000000000D+00 -.742762044324370D+02
 0.661797637180431D+02 -.233340218396481D+02 0.109143790931312D+02 0.348734982411323D+02
 0.305974360631906D+02 -.118859478044203D+01 -.300070181745125D+02 0.586252474309689D+01
 0.487996122473122D+02 0.243182999630294D+02 0.190692228205716D+02 -.377675414001962D+02
 0.297559683632816D+01 0.204316657060760D+00 0.234162608097211D-01 -.296848158403305D+01
0.415520223224D-07 0.000000000000D+00 0.000000000000D+00 0.615940630382D-07 0.000000000000D+00  6 22 -2 9900012 11 -1 21 0 0.11334748D-01 0.11520221D-01 0.34599154D+04 0.34599154D+04 0.34599154D+04 0.12602587D+01  1  2  2  2  6  5       -1 0.652098905015D-05 0.100000000000D+01
0.134700928636D-08 0.000000000000D+00 -.797853533083D-10 0.615940630382D-07 0.000000000000D+00  6 22 -2 9900012 11 -1 21 2 0.11334748D-01 0.11520221D-01 0.34599154D+04 0.34599154D+04 0.34599154D+04 0.12602587D+01  1  2  3  2  6  5       -1 0.335746351081D-06 0.100000000000D+01
-.740844041319D-08 0.000000000000D+00 0.000000000000D+00 0.615940630382D-07 0.000000000000D+00  6 22 -2 9900012 11 -1 21 2 0.11334748D-01 0.11520221D-01 0.34599154D+04 0.34599154D+04 0.34599154D+04 0.12602587D+01  1  2 15  2  6  5       -1 -.184657734814D-05 0.100000000000D+01
0.917163092305D-10 0.000000000000D+00 0.000000000000D+00 0.615940630382D-07 0.000000000000D+00  6 22 -2 9900012 11 -1 21 2 0.11334748D-01 0.11520221D-01 0.34448337D+04 0.34448337D+04 0.34448337D+04 0.12604822D+01  1  2 12  2  6  5       -1 0.228577632811D-07 0.100000000000D+01
-.866627777396D-07 0.000000000000D+00 0.000000000000D+00 0.615940630382D-07 0.000000000000D+00  6 22 -2 9900012 11 -1 21 2 0.11334748D-01 0.11520221D-01 0.34599154D+04 0.34599154D+04 0.34599154D+04 0.12602587D+01  1  2  4  2  6  5       -1 -.216009731300D-04 0.100000000000D+01
-.601013814119D-06 0.000000000000D+00 0.000000000000D+00 0.615940630382D-07 0.000000000000D+00  6 22 -2 9900012 11 -1 21 2 0.11334748D-01 0.11520221D-01 0.34599154D+04 0.34599154D+04 0.34599154D+04 0.12602587D+01  1  2  5  2  6  5       -1 -.149804605716D-03 0.100000000000D+01
0.636677701654D-06 0.000000000000D+00 -.000000000000D+00 0.615940630382D-07 0.000000000000D+00  6 22 -2 9900012 11 -1 21 2 0.11334748D-01 0.11520221D-01 0.34599154D+04 0.34599154D+04 0.34599154D+04 0.12602587D+01  1  2  6  2  6  5       -1 0.158693943174D-03 0.100000000000D+01
0.135672716781D-06 0.000000000000D+00 0.000000000000D+00 0.615940630382D-07 0.131934946858D-04  6 22 -2 9900012 11 -1 21 2 0.11334748D-01 0.11520221D-01 0.34448337D+04 0.34448337D+04 0.34448337D+04 0.12604822D+01  1  2 11  2  6  5       -1 0.338126868592D-04 0.100000000000D+01
  </mgrwgt>
  </event>
</LesHouchesEvents>
