<LesHouchesEvents version="3.0">
  <!--
  <scalesfunctionalform>
    muR  H_T/2 := sum_i mT(i)/2, i=final state
    muF1 H_T/2 := sum_i mT(i)/2, i=final state
    muF2 H_T/2 := sum_i mT(i)/2, i=final state
    QES  H_T/2 := sum_i mT(i)/2, i=final state
  </scalesfunctionalform>
PYTHIA8   
  -->
  <header>
        4
  </header>
  <init>
   2212   2212 0.65000000D+04 0.65000000D+04 -1 -1  82200  82200 -4   1
 0.27561139D-05 0.51071045D-07 0.14001376D-05     66
  </init>
  <event>
  5     66 0.14001376E-05 0.49118814E+02 0.78161638E-02 0.12095008E+00
        2 -1    0    0  501    0 0.00000000E+00 0.00000000E+00 0.24955285E+04 0.24955285E+04 0.00000000E+00 0.0000E+00 0.9000E+01
       22 -1    0    0    0    0 0.00000000E+00 0.00000000E+00 -.19342257E+02 0.19342257E+02 0.00000000E+00 0.0000E+00 0.9000E+01
  9900012  1    1    2    0    0 0.14542389E+02 -.23882603E+02 0.43139178E+03 0.43517896E+03 0.50000000E+02 0.0000E+00 0.9000E+01
      -13  1    1    2    0    0 0.15276314E+02 -.15149471E+02 -.10409873E+02 0.23900580E+02 0.00000000E+00 0.0000E+00 0.9000E+01
        1  1    1    2  501    0 -.29818704E+02 0.39032074E+02 0.20552043E+04 0.20557912E+04 0.00000000E+00 0.0000E+00 0.9000E+01
#aMCatNLO 1  0  0  1  1 0.10928433D+03 0.00000000D+00  -5  6  0 0.00000000D+00 0.00000000D+00 0.00000000D+00 0.00000000D+00 0.00000000D+00
  <mgrwgt>
 0.1130764361D-04    4    2    0
 0.219702417555345D+03 0.000000000000000D+00 0.000000000000000D+00 0.219702417555345D+03
 0.219702417555345D+03 0.000000000000000D+00 0.000000000000000D+00 -.219702417555345D+03
 0.596544420887521D+02 0.145423891611944D+02 -.238826025776167D+02 0.166370872608238D+02
 0.195454505131492D+03 0.152763144922558D+02 -.151494710220436D+02 -.194266804471279D+03
 0.184295887890447D+03 -.298187036534503D+02 0.390320735996604D+02 0.177629717210456D+03
 0.000000000000000D+00 -.000000000000000D+00 -.000000000000000D+00 -.000000000000000D+00
 0.222308578995232D+03 0.000000000000000D+00 0.000000000000000D+00 0.222308578995232D+03
 0.279900700420464D+03 0.000000000000000D+00 0.000000000000000D+00 -.279900700420464D+03
 0.590593445164672D+02 0.161977889816639D+02 -.211859655030396D+02 0.166370872608238D+02
 0.195470019277961D+03 0.207275464513254D+02 -.626944456488391D+01 -.194266804471279D+03
 0.185500256440635D+03 -.246620955758079D+02 0.474321593972355D+02 0.177629717210456D+03
 0.621796591806328D+02 -.122632398571814D+02 -.199767493293120D+02 -.575921214252325D+02
0.100341848235D-05 0.000000000000D+00 0.000000000000D+00 0.101205295297D-06 0.000000000000D+00  6 2 22 9900012 -13 1 21 0 0.38392746D+00 0.29757318D-02 0.40909327D+04 0.40909327D+04 0.40909327D+04 0.12517793D+01  1  2  2  1  6  1        2 0.146165569953D-04 0.100000000000D+01
0.475971236807D-08 0.000000000000D+00 -.192669558920D-08 0.101205295297D-06 0.000000000000D+00  6 2 22 9900012 -13 1 21 2 0.38392746D+00 0.29757318D-02 0.40909327D+04 0.40909327D+04 0.40909327D+04 0.12517793D+01  1  2  3  1  6  1        2 0.108642362890D-06 0.100000000000D+01
-.147519401508D-06 0.000000000000D+00 0.000000000000D+00 0.101205295297D-06 0.000000000000D+00  6 2 22 9900012 -13 1 21 2 0.38392746D+00 0.29757318D-02 0.40909327D+04 0.40909327D+04 0.40909327D+04 0.12517793D+01  1  2 15  1  6  1        2 -.336719009734D-05 0.100000000000D+01
-.220656097023D-08 0.000000000000D+00 0.000000000000D+00 0.101205295297D-06 0.000000000000D+00  6 2 22 9900012 -13 1 21 2 0.38392746D+00 0.29757318D-02 0.40909327D+04 0.40909327D+04 0.40909327D+04 0.12517793D+01  1  2  4  1  6  1        2 -.503656479909D-07 0.100000000000D+01
  </mgrwgt>
  </event>
  <event>
  5     66 0.14001376E-05 0.37491676E+02 0.78161638E-02 0.12786700E+00
        2 -1    0    0  501    0 0.00000000E+00 0.00000000E+00 0.15940332E+04 0.15940332E+04 0.00000000E+00 0.0000E+00 0.9000E+01
       22 -1    0    0    0    0 0.00000000E+00 0.00000000E+00 -.53129486E+01 0.53129486E+01 0.00000000E+00 0.0000E+00 0.9000E+01
  9900012  1    1    2    0    0 0.25969109E+02 -.73660842E+01 0.48568938E+03 0.48900187E+03 0.50000000E+02 0.0000E+00 0.9000E+01
      -13  1    1    2    0    0 0.11422428E+02 0.10104481E+02 0.14104876E+02 0.20773057E+02 0.00000000E+00 0.0000E+00 0.9000E+01
        1  1    1    2  501    0 -.37391536E+02 -.27383966E+01 0.10889260E+04 0.10895713E+04 0.00000000E+00 0.0000E+00 0.9000E+01
#aMCatNLO 1  0  0  1  5 0.12906739D+02 0.00000000D+00  -5  6  0 0.00000000D+00 0.00000000D+00 0.00000000D+00 0.00000000D+00 0.00000000D+00
  <mgrwgt>
 0.1827968710D-04    9    2    0
 0.920272605467005D+02 0.000000000000000D+00 0.000000000000000D+00 0.920272605467005D+02
 0.920272605467005D+02 0.000000000000000D+00 0.000000000000000D+00 -.920272605467005D+02
 0.568239324947861D+02 0.259691085139071D+02 -.736608418376672D+01 -.552730461065529D+00
 0.587576289471286D+02 0.114224276756773D+02 0.101044807363765D+02 -.567440443970164D+02
 0.684729596514863D+02 -.373915361895844D+02 -.273839655260977D+01 0.572967748580819D+02
 0.000000000000000D+00 -.000000000000000D+00 0.000000000000000D+00 0.000000000000000D+00
 0.114367095765389D+03 0.000000000000000D+00 0.000000000000000D+00 0.114367095765389D+03
 0.939528202397407D+02 0.000000000000000D+00 0.000000000000000D+00 -.939528202397407D+02
 0.574697730929828D+02 0.260233059248445D+02 -.111918209929523D+02 -.552730461065529D+00
 0.582231054538416D+02 0.114778992600614D+02 0.618880139724018D+01 -.567440443970164D+02
 0.687746293322012D+02 -.373264541805441D+02 -.733246540746594D+01 0.572967748580819D+02
 0.238524081261038D+02 -.174751004361869D+00 0.123354850031781D+02 0.204142755256479D+02
0.202282996373D-07 0.000000000000D+00 0.000000000000D+00 0.225860145133D-07 0.000000000000D+00  6 2 22 9900012 -13 1 21 0 0.24523588D+00 0.81737671D-03 0.30010261D+04 0.30010261D+04 0.30010261D+04 0.12676056D+01  1  2  2  1  6  1        2 0.466834368556D-05 0.100000000000D+01
0.124246680168D-09 0.000000000000D+00 -.388409984204D-10 0.225860145133D-07 0.000000000000D+00  6 2 22 9900012 -13 1 21 2 0.24523588D+00 0.81737671D-03 0.30010261D+04 0.30010261D+04 0.30010261D+04 0.12676056D+01  1  2  3  1  6  1        2 0.460740684621D-07 0.100000000000D+01
-.295648281294D-08 0.000000000000D+00 0.000000000000D+00 0.225860145133D-07 0.000000000000D+00  6 2 22 9900012 -13 1 21 2 0.24523588D+00 0.81737671D-03 0.30010261D+04 0.30010261D+04 0.30010261D+04 0.12676056D+01  1  2 15  1  6  1        2 -.109634471800D-05 0.100000000000D+01
0.518612906326D-07 0.000000000000D+00 0.000000000000D+00 0.225860145133D-07 0.000000000000D+00  6 2 22 9900012 -13 1 21 2 0.31114436D+00 0.81737671D-03 0.36532200D+04 0.36532200D+04 0.36532200D+04 0.12574875D+01  1  2 12  1  6  1        2 0.117040506895D-04 0.100000000000D+01
-.158470344914D-07 0.000000000000D+00 0.000000000000D+00 0.225860145133D-07 0.000000000000D+00  6 2 22 9900012 -13 1 21 2 0.24523588D+00 0.81737671D-03 0.30010261D+04 0.30010261D+04 0.30010261D+04 0.12676056D+01  1  2  4  1  6  1        2 -.587651397280D-05 0.100000000000D+01
-.629772993936D-07 0.000000000000D+00 -.897480242015D-08 0.225860145133D-07 0.000000000000D+00  6 2 22 9900012 -13 1 21 2 0.30694940D+00 0.81737671D-03 0.30010261D+04 0.30010261D+04 0.30010261D+04 0.12676056D+01  1  2  5  1  6  1        2 -.147344628019D-04 0.100000000000D+01
0.636042085845D-07 0.000000000000D+00 0.875336307560D-08 0.225860145133D-07 0.000000000000D+00  6 2 22 9900012 -13 1 21 2 0.24523588D+00 0.81737671D-03 0.30010261D+04 0.30010261D+04 0.30010261D+04 0.12676056D+01  1  2  6  1  6  1        2 0.235861807885D-04 0.100000000000D+01
0.169256128635D-08 0.000000000000D+00 0.000000000000D+00 0.225860145133D-07 0.000000000000D+00  6 21 22 9900012 -13 1 -2 2 0.31114436D+00 0.81737671D-03 0.36532200D+04 0.36532200D+04 0.36532200D+04 0.12574875D+01  1  2 12  3  6  1        2 0.105275824674D-06 0.100000000000D+01
-.184135875994D-08 0.000000000000D+00 -.280332874475D-09 0.225860145133D-07 0.000000000000D+00  6 21 22 9900012 -13 1 -2 2 0.30694940D+00 0.81737671D-03 0.30010261D+04 0.30010261D+04 0.30010261D+04 0.12676056D+01  1  2  5  3  6  1        2 -.122916466705D-06 0.100000000000D+01
  </mgrwgt>
  </event>
  <event>
  5     66 0.14001376E-05 0.31216574E+02 0.78161638E-02 0.11765189E+00
        2 -1    0    0  501    0 0.00000000E+00 0.00000000E+00 0.79581670E+03 0.79581670E+03 0.00000000E+00 0.0000E+00 0.9000E+01
       22 -1    0    0    0    0 0.00000000E+00 0.00000000E+00 -.88428453E+02 0.88428453E+02 0.00000000E+00 0.0000E+00 0.9000E+01
  9900012  1    1    2    0    0 0.37614289E+02 0.59718556E+02 0.45900478E+02 0.97918306E+02 0.50000000E+02 0.0000E+00 0.9000E+01
      -13  1    1    2    0    0 0.20671719E+02 -.75441353E+01 -.58292737E+02 0.62307922E+02 0.00000000E+00 0.0000E+00 0.9000E+01
        1  1    1    2  501    0 -.58286008E+02 -.52174421E+02 0.71978051E+03 0.72401893E+03 0.00000000E+00 0.0000E+00 0.9000E+01
#aMCatNLO 1  0  0  5  1 0.17638977D+02 0.00000000D+00  -5  6  0 0.00000000D+00 0.00000000D+00 0.00000000D+00 0.00000000D+00 0.00000000D+00
  <mgrwgt>
 0.3377913691D-04    7    2    0
 0.265278796472231D+03 0.000000000000000D+00 0.000000000000000D+00 0.265278796472231D+03
 0.265278796472231D+03 -.000000000000000D+00 -.000000000000000D+00 -.265278796472231D+03
 0.101995201267748D+03 0.376142887332809D+02 0.597185564943941D+02 -.540544204941980D+02
 0.181565726376422D+03 0.206717188773633D+02 -.754413534969778D+01 -.180227298307105D+03
 0.246996665300294D+03 -.582860076106442D+02 -.521744211446963D+02 0.234281718801303D+03
 0.000000000000000D+00 -.000000000000000D+00 0.000000000000000D+00 0.000000000000000D+00
 0.265278796472231D+03 0.000000000000000D+00 0.000000000000000D+00 0.265278796472231D+03
 0.265278796472231D+03 -.000000000000000D+00 -.000000000000000D+00 -.265278796472231D+03
 0.101595775307840D+03 0.374819134527952D+02 0.596000614401550D+02 -.535223355305794D+02
 0.180608328133139D+03 0.204362325465999D+02 -.775492973241042D+01 -.179280756511105D+03
 0.169901483446562D+03 -.264759575042064D+02 -.257207137600537D+02 0.165843247180135D+03
 0.784520060569228D+02 -.314421884951888D+02 -.261244179476909D+02 0.669598448615499D+02
0.199869612248D-06 0.000000000000D+00 0.000000000000D+00 0.133919145631D-06 0.000000000000D+00  6 2 22 9900012 -13 1 21 0 0.12243334D+00 0.13604377D-01 0.87166201D+04 0.87166201D+04 0.87166201D+04 0.12155636D+01  1  2  2  2  6  5        1 0.289179697629D-05 0.100000000000D+01
0.234946551992D-08 0.000000000000D+00 -.383775968955D-09 0.133919145631D-06 0.000000000000D+00  6 2 22 9900012 -13 1 21 2 0.12243334D+00 0.13604377D-01 0.87166201D+04 0.87166201D+04 0.87166201D+04 0.12155636D+01  1  2  3  2  6  5        1 0.502279549917D-07 0.100000000000D+01
-.325161545807D-07 0.000000000000D+00 0.000000000000D+00 0.133919145631D-06 0.000000000000D+00  6 2 22 9900012 -13 1 21 2 0.12243334D+00 0.13604377D-01 0.87166201D+04 0.87166201D+04 0.87166201D+04 0.12155636D+01  1  2 15  2  6  5        1 -.695145314941D-06 0.100000000000D+01
0.139239307699D-05 0.000000000000D+00 0.000000000000D+00 0.133919145631D-06 0.000000000000D+00  6 2 22 9900012 -13 1 21 2 0.12243334D+00 0.13604377D-01 0.86493676D+04 0.86493676D+04 0.86493676D+04 0.12159183D+01  1  2 12  2  6  5        1 0.297735916128D-04 0.100000000000D+01
-.425643921198D-06 0.000000000000D+00 0.000000000000D+00 0.133919145631D-06 0.000000000000D+00  6 2 22 9900012 -13 1 21 2 0.12243334D+00 0.13604377D-01 0.87166201D+04 0.87166201D+04 0.87166201D+04 0.12155636D+01  1  2  4  2  6  5        1 -.909961160750D-05 0.100000000000D+01
-.139307641286D-05 0.000000000000D+00 0.000000000000D+00 0.133919145631D-06 0.000000000000D+00  6 2 22 9900012 -13 1 21 2 0.12243334D+00 0.13604377D-01 0.87166201D+04 0.87166201D+04 0.87166201D+04 0.12155636D+01  1  2  5  2  6  5        1 -.297818285784D-04 0.100000000000D+01
0.190098377447D-05 0.000000000000D+00 -.000000000000D+00 0.133919145631D-06 0.000000000000D+00  6 2 22 9900012 -13 1 21 2 0.12243334D+00 0.13604377D-01 0.87166201D+04 0.87166201D+04 0.87166201D+04 0.12155636D+01  1  2  6  2  6  5        1 0.406401058685D-04 0.100000000000D+01
  </mgrwgt>
  </event>
  <event>
  5     66 0.14001376E-05 0.44672673E+02 0.78161638E-02 0.12462075E+00
        2 -1    0    0  501    0 0.00000000E+00 0.00000000E+00 0.38876342E+02 0.38876342E+02 0.00000000E+00 0.0000E+00 0.9000E+01
       22 -1    0    0    0    0 -.00000000E+00 -.00000000E+00 -.16094048E+03 0.16094048E+03 0.00000000E+00 0.0000E+00 0.9000E+01
  9900012  1    1    2    0    0 0.22851983E+01 0.32275194E+02 -.10328013E+03 0.11922120E+03 0.50000000E+02 0.0000E+00 0.9000E+01
      -13  1    1    2    0    0 0.13748137E+02 0.14188523E+02 -.24092820E+02 0.31157494E+02 0.00000000E+00 0.0000E+00 0.9000E+01
        1  1    1    2  501    0 -.16033335E+02 -.46463717E+02 0.53088100E+01 0.49438126E+02 0.00000000E+00 0.0000E+00 0.9000E+01
#aMCatNLO 1  0  0  5  1 0.67559872D+01 0.00000000D+00  -5  6  0 0.00000000D+00 0.00000000D+00 0.00000000D+00 0.00000000D+00 0.00000000D+00
  <mgrwgt>
 0.2095201915D-04    8    2    0
 0.790997926062856D+02 0.000000000000000D+00 0.000000000000000D+00 0.790997926062856D+02
 0.790997926062856D+02 -.000000000000000D+00 -.000000000000000D+00 -.790997926062856D+02
 0.708952683257751D+02 0.228519833731274D+01 0.322751937123085D+02 -.384607437574439D+02
 0.207644168693987D+02 0.137481366156097D+02 0.141885232345023D+02 -.639027041279866D+01
 0.665399000173975D+02 -.160333349529224D+02 -.464637169468108D+02 0.448510141702425D+02
 0.000000000000000D+00 0.000000000000000D+00 -.000000000000000D+00 0.000000000000000D+00
 0.790997926062856D+02 0.000000000000000D+00 0.000000000000000D+00 0.790997926062856D+02
 0.790997926062856D+02 -.000000000000000D+00 -.000000000000000D+00 -.790997926062856D+02
 0.698851761578575D+02 0.193031516529633D+01 0.312467619292656D+02 -.374680076720553D+02
 0.204021845137494D+02 0.136443627275987D+02 0.138877922528836D+02 -.609997746155988D+01
 0.598056113005820D+02 -.184285614810832D+02 -.375962635214676D+02 0.427038667335711D+02
 0.810661324038244D+01 0.285388358818816D+01 -.753829066068161D+01 0.864118400044005D+00
0.293809431130D-07 0.000000000000D+00 0.000000000000D+00 0.254526554406D-08 0.000000000000D+00  6 2 22 9900012 -13 1 21 0 0.59809757D-02 0.24760074D-01 0.41258051D+04 0.41258051D+04 0.41258051D+04 0.12513543D+01  1  2  2  2  6  5        1 0.508688152233D-05 0.100000000000D+01
-.202192784175D-11 0.000000000000D+00 -.564152788670D-10 0.254526554406D-08 0.000000000000D+00  6 2 22 9900012 -13 1 21 2 0.59809757D-02 0.24760074D-01 0.41258051D+04 0.41258051D+04 0.41258051D+04 0.12513543D+01  1  2  3  2  6  5        1 -.548166026258D-09 0.100000000000D+01
-.385184445441D-08 0.000000000000D+00 0.000000000000D+00 0.254526554406D-08 0.000000000000D+00  6 2 22 9900012 -13 1 21 2 0.59809757D-02 0.24760074D-01 0.41258051D+04 0.41258051D+04 0.41258051D+04 0.12513543D+01  1  2 15  2  6  5        1 -.104427577718D-05 0.100000000000D+01
0.744535218585D-07 0.000000000000D+00 0.000000000000D+00 0.254526554406D-08 0.000000000000D+00  6 2 22 9900012 -13 1 21 2 0.59809757D-02 0.24760074D-01 0.41210972D+04 0.41210972D+04 0.41210972D+04 0.12514114D+01  1  2 12  2  6  5        1 0.201845198495D-04 0.100000000000D+01
-.236667042926D-07 0.000000000000D+00 0.000000000000D+00 0.254526554406D-08 0.000000000000D+00  6 2 22 9900012 -13 1 21 2 0.59809757D-02 0.24760074D-01 0.41258051D+04 0.41258051D+04 0.41258051D+04 0.12513543D+01  1  2  4  2  6  5        1 -.641629388490D-05 0.100000000000D+01
-.778144226465D-07 0.000000000000D+00 0.000000000000D+00 0.254526554406D-08 0.000000000000D+00  6 2 22 9900012 -13 1 21 2 0.59809757D-02 0.24760074D-01 0.41258051D+04 0.41258051D+04 0.41258051D+04 0.12513543D+01  1  2  5  2  6  5        1 -.210963131161D-04 0.100000000000D+01
0.878672715592D-07 0.000000000000D+00 -.000000000000D+00 0.254526554406D-08 0.000000000000D+00  6 2 22 9900012 -13 1 21 2 0.59809757D-02 0.24760074D-01 0.41258051D+04 0.41258051D+04 0.41258051D+04 0.12513543D+01  1  2  6  2  6  5        1 0.238217467974D-04 0.100000000000D+01
0.153558986901D-08 0.000000000000D+00 0.000000000000D+00 0.254526554406D-08 0.125511830538D-09  6 2 22 9900012 -13 1 21 2 0.59809757D-02 0.24760074D-01 0.41210972D+04 0.41210972D+04 0.41210972D+04 0.12514114D+01  1  2 11  2  6  5        1 0.416301921227D-06 0.100000000000D+01
  </mgrwgt>
  </event>
</LesHouchesEvents>
