<LesHouchesEvents version="3.0">
  <!--
  <scalesfunctionalform>
    muR  H_T/2 := sum_i mT(i)/2, i=final state
    muF1 H_T/2 := sum_i mT(i)/2, i=final state
    muF2 H_T/2 := sum_i mT(i)/2, i=final state
    QES  H_T/2 := sum_i mT(i)/2, i=final state
  </scalesfunctionalform>
PYTHIA8   
  -->
  <header>
        5
  </header>
  <init>
   2212   2212 0.65000000D+04 0.65000000D+04 -1 -1  82200  82200 -4   1
 0.52834444D-05 0.11105760D-06 0.15098626D-05     66
  </init>
  <event>
  6     66 0.15098626E-05 0.72409596E+02 0.78161638E-02 0.11408271E+00
        2 -1    0    0  501    0 0.00000000E+00 0.00000000E+00 0.25811073E+04 0.25811073E+04 0.00000000E+00 0.0000E+00 0.9000E+01
       22 -1    0    0    0    0 0.00000000E+00 0.00000000E+00 -.33532129E+01 0.33532129E+01 0.00000000E+00 0.0000E+00 0.9000E+01
       24  2    1    2    0    0 0.69974061E+02 -.18622040E+02 0.18561002E+04 0.18591830E+04 0.78805431E+02 0.0000E+00 0.0000E+00
  9900012  1    3    3    0    0 0.38367454E+02 -.34163286E+02 0.12838849E+04 0.12858848E+04 0.50000000E+02 0.0000E+00 0.9000E+01
      -11  1    3    3    0    0 0.31606607E+02 0.15541246E+02 0.57221524E+03 0.57329816E+03 0.00000000E+00 0.0000E+00 0.9000E+01
        1  1    1    2  501    0 -.69974061E+02 0.18622040E+02 0.72165394E+03 0.72527758E+03 0.00000000E+00 0.0000E+00 0.9000E+01
#aMCatNLO 1  0  0  1  5 0.10861717D+03 0.00000000D+00  -5  6  0 0.00000000D+00 0.00000000D+00 0.00000000D+00 0.00000000D+00 0.00000000D+00
  <mgrwgt>
 0.7271133914D-05    4    2    0
 0.930322644232125D+02 0.000000000000000D+00 0.000000000000000D+00 0.930322644232125D+02
 0.930322644232125D+02 0.000000000000000D+00 0.000000000000000D+00 -.930322644232125D+02
 0.740541478674895D+02 0.383674542495780D+02 -.341632855794952D+02 0.185694692762178D+02
 0.356666706568196D+02 0.316066070753747D+02 0.155412457233484D+02 0.562169603335293D+01
 0.763437103221159D+02 -.699740613249528D+02 0.186220398561468D+02 -.241911653095707D+02
 0.000000000000000D+00 -.000000000000000D+00 0.000000000000000D+00 -.000000000000000D+00
 0.103880108311152D+03 0.000000000000000D+00 0.000000000000000D+00 0.103880108311152D+03
 0.156424425291852D+03 0.000000000000000D+00 0.000000000000000D+00 -.156424425291852D+03
 0.880228223361729D+02 0.486865836405626D+02 -.503270169614251D+02 0.185694692762178D+02
 0.376174540847375D+02 0.362724665405592D+02 0.823271259002352D+01 0.562169603335293D+01
 0.657078197557015D+02 -.609299132438381D+02 0.445542030689948D+01 -.241911653095707D+02
 0.689564374263922D+02 -.240291369372837D+02 0.376388840645021D+02 -.525443169806991D+02
0.683466982235D-07 0.000000000000D+00 0.000000000000D+00 0.277816942679D-07 0.000000000000D+00  6 2 22 9900012 -11 1 21 0 0.39709343D+00 0.51587890D-03 0.80387898D+04 0.80387898D+04 0.80387898D+04 0.12192869D+01  1  2  2  1  6  1        2 0.941750135241D-05 0.100000000000D+01
-.366891869030D-08 0.000000000000D+00 -.131234658639D-09 0.277816942679D-07 0.000000000000D+00  6 2 22 9900012 -11 1 21 2 0.39709343D+00 0.51587890D-03 0.80387898D+04 0.80387898D+04 0.80387898D+04 0.12192869D+01  1  2  3  1  6  1        2 -.751567640678D-06 0.100000000000D+01
-.500049866221D-08 0.000000000000D+00 0.000000000000D+00 0.277816942679D-07 0.000000000000D+00  6 2 22 9900012 -11 1 21 2 0.39709343D+00 0.51587890D-03 0.80387898D+04 0.80387898D+04 0.80387898D+04 0.12192869D+01  1  2 15  1  6  1        2 -.102433804044D-05 0.100000000000D+01
-.180847869541D-08 0.000000000000D+00 0.000000000000D+00 0.277816942679D-07 0.000000000000D+00  6 2 22 9900012 -11 1 21 2 0.39709343D+00 0.51587890D-03 0.80387898D+04 0.80387898D+04 0.80387898D+04 0.12192869D+01  1  2  4  1  6  1        2 -.370461757552D-06 0.100000000000D+01
  </mgrwgt>
  </event>
  <event>
  7     66 0.15098626E-05 0.34345778E+02 0.78161638E-02 0.12744387E+00
       21 -1    0    0  501  502 0.00000000E+00 0.00000000E+00 0.57596388E+01 0.57596388E+01 0.00000000E+00 0.0000E+00 0.9000E+01
       22 -1    0    0    0    0 0.00000000E+00 0.00000000E+00 -.83244565E+03 0.83244565E+03 0.00000000E+00 0.0000E+00 0.9000E+01
       24  2    1    2    0    0 -.24727768E+02 -.28514361E+02 -.69902247E+03 0.70468372E+03 0.80760133E+02 0.0000E+00 0.0000E+00
  9900012  1    3    3    0    0 -.14299608E+02 -.10223669E+02 -.63667453E+03 0.63887672E+03 0.50000000E+02 0.0000E+00 0.9000E+01
      -11  1    3    3    0    0 -.10428160E+02 -.18290693E+02 -.62347945E+02 0.65807007E+02 0.00000000E+00 0.0000E+00 0.9000E+01
        3  1    1    2  501    0 0.17096685E+02 0.19628336E+02 -.10268862E+03 0.10593640E+03 0.00000000E+00 0.0000E+00 0.9000E+01
       -4  1    1    2    0  502 0.76310825E+01 0.88860254E+01 -.24974917E+02 0.27585165E+02 0.00000000E+00 0.0000E+00 0.9000E+01
#aMCatNLO 2  0  0  1  5 0.12502354D+02 0.00000000D+00  -5  6  0 0.00000000D+00 0.00000000D+00 0.00000000D+00 0.00000000D+00 0.00000000D+00
  <mgrwgt>
 0.7772654956D-05    2    2    0
 0.596387271666103D+02 0.000000000000000D+00 0.000000000000000D+00 0.596387271666103D+02
 0.596387271666103D+02 0.000000000000000D+00 0.000000000000000D+00 -.596387271666103D+02
 0.608440190262494D+02 -.103723444749237D+02 -.565056095906305D+01 -.325957095674880D+02
 0.261351605455800D+02 -.869963499464259D+01 -.162779088406293D+02 0.185038550437306D+02
 0.322982747613912D+02 0.190719794695663D+02 0.219284697996924D+02 0.140918545237574D+02
 0.000000000000000D+00 0.000000000000000D+00 0.000000000000000D+00 0.000000000000000D+00
 0.774831357623989D+02 0.000000000000000D+00 0.000000000000000D+00 0.774831357623989D+02
 0.618790943938547D+02 0.000000000000000D+00 0.000000000000000D+00 -.618790943938547D+02
 0.622212380640620D+02 -.142996078194115D+02 -.102236686286123D+02 -.325957095674880D+02
 0.280301374880034D+02 -.104281601246429D+02 -.182906925109956D+02 0.185038550437306D+02
 0.295998070884985D+02 0.170966854370288D+02 0.196283357120482D+02 0.140918545237574D+02
 0.195110475156898D+02 0.763108250702550D+01 0.888602542755971D+01 0.156040413685441D+02
-.739102318405D-09 0.000000000000D+00 0.000000000000D+00 0.284608245784D-07 0.000000000000D+00  6 21 22 9900012 -11 3 -4 2 0.91938513D-03 0.12343177D+00 0.31246857D+04 0.31246857D+04 0.31246857D+04 0.12655066D+01  1  2 13  3  6  1        4 -.265464932108D-05 0.100000000000D+01
0.296888669759D-08 0.000000000000D+00 0.000000000000D+00 0.284608245784D-07 0.282010457542D-09  6 21 22 9900012 -11 3 -4 2 0.88609828D-03 0.12806856D+00 0.31246857D+04 0.31246857D+04 0.31246857D+04 0.12655066D+01  1  2  1  3  6  1        4 0.104273042768D-04 0.100000000000D+01
  </mgrwgt>
  </event>
  <event>
  6     66 0.15098626E-05 0.33210750E+02 0.78161638E-02 0.11658952E+00
        4 -1    0    0  501    0 0.00000000E+00 0.00000000E+00 0.73556053E+01 0.73556053E+01 0.00000000E+00 0.0000E+00 0.9000E+01
       22 -1    0    0    0    0 0.00000000E+00 0.00000000E+00 -.52190431E+03 0.52190431E+03 0.00000000E+00 0.0000E+00 0.9000E+01
       24  2    1    2    0    0 -.44025037E+01 -.32917653E+02 -.41035144E+03 0.41989802E+03 0.82601997E+02 0.0000E+00 0.0000E+00
  9900012  1    3    3    0    0 0.20967334E+02 -.11709562E+02 -.27787437E+03 0.28335651E+03 0.50000000E+02 0.0000E+00 0.9000E+01
      -11  1    3    3    0    0 -.25369838E+02 -.21208090E+02 -.13247706E+03 0.13654151E+03 0.00000000E+00 0.0000E+00 0.9000E+01
        3  1    1    2  501    0 0.44025037E+01 0.32917653E+02 -.10419726E+03 0.10936189E+03 0.00000000E+00 0.0000E+00 0.9000E+01
#aMCatNLO 1  0  0  1  5 0.16256883D+02 0.00000000D+00  -5  6  0 0.00000000D+00 0.00000000D+00 0.00000000D+00 0.00000000D+00 0.00000000D+00
  <mgrwgt>
 0.1927877313D-05    5    2    0
 0.619590355112804D+02 0.000000000000000D+00 0.000000000000000D+00 0.619590355112804D+02
 0.619590355112804D+02 0.000000000000000D+00 0.000000000000000D+00 -.619590355112804D+02
 0.564029295763036D+02 0.209673341490875D+02 -.117095622089572D+02 -.102248479863779D+02
 0.330867554733029D+02 -.253698378890543D+02 -.212080904395003D+02 0.114961434542985D+01
 0.344283859729544D+02 0.440250373996673D+01 0.329176526484575D+02 0.907523364094807D+01
 0.000000000000000D+00 0.000000000000000D+00 -.000000000000000D+00 0.000000000000000D+00
 0.105730557045664D+03 0.000000000000000D+00 0.000000000000000D+00 0.105730557045664D+03
 0.948265306896347D+02 0.000000000000000D+00 0.000000000000000D+00 -.948265306896347D+02
 0.510480812044442D+02 -.113749346771048D+01 0.255317296520886D+00 -.102248479863779D+02
 0.429632562268333D+02 -.410148503153886D+02 -.127397733918457D+02 0.114961434542985D+01
 0.442533746322560D+02 -.117839122102122D+02 0.416790200667796D+02 0.907523364094807D+01
 0.622923756717654D+02 0.539362559933112D+02 -.291945639714548D+02 0.109040263560294D+02
0.130004810558D-07 0.000000000000D+00 0.000000000000D+00 0.109248424465D-07 0.000000000000D+00  6 4 22 9900012 -11 3 21 0 0.11316316D-02 0.80292970D-01 0.37055175D+04 0.37055175D+04 0.37055175D+04 0.12567661D+01  1  2  2  1  6  1        4 0.200137531180D-05 0.100000000000D+01
-.731858054535D-10 0.000000000000D+00 -.249626351798D-10 0.109248424465D-07 0.000000000000D+00  6 4 22 9900012 -11 3 21 2 0.11316316D-02 0.80292970D-01 0.37055175D+04 0.37055175D+04 0.37055175D+04 0.12567661D+01  1  2  3  1  6  1        4 -.177952814172D-07 0.100000000000D+01
-.111858838457D-08 0.000000000000D+00 0.000000000000D+00 0.109248424465D-07 0.000000000000D+00  6 4 22 9900012 -11 3 21 2 0.11316316D-02 0.80292970D-01 0.37055175D+04 0.37055175D+04 0.37055175D+04 0.12567661D+01  1  2 15  1  6  1        4 -.271987101461D-06 0.100000000000D+01
-.197760924267D-09 0.000000000000D+00 -.299193094096D-08 0.109248424465D-07 0.000000000000D+00  6 4 22 9900012 -11 3 21 2 0.29743909D-02 0.80292970D-01 0.37055175D+04 0.37055175D+04 0.37055175D+04 0.12567661D+01  1  2  5  1  6  1        4 -.117811439924D-07 0.100000000000D+01
0.157420412734D-09 0.000000000000D+00 -.320962595008D-09 0.109248424465D-07 0.000000000000D+00  6 21 22 9900012 -11 3 -4 2 0.29743909D-02 0.80292970D-01 0.37055175D+04 0.37055175D+04 0.37055175D+04 0.12567661D+01  1  2  5  3  6  1        4 0.228065528393D-06 0.100000000000D+01
  </mgrwgt>
  </event>
  <event>
  7     66 -.15098626E-05 0.47213948E+02 0.78161638E-02 0.12086846E+00
        2 -1    0    0  502    0 0.00000000E+00 0.00000000E+00 0.31937665E+02 0.31937665E+02 0.00000000E+00 0.0000E+00 0.9000E+01
       22 -1    0    0    0    0 0.00000000E+00 0.00000000E+00 -.37976686E+03 0.37976686E+03 0.00000000E+00 0.0000E+00 0.9000E+01
       24  2    1    2    0    0 0.48841080E+02 -.28753523E+02 -.33583727E+03 0.34965071E+03 0.79099539E+02 0.0000E+00 0.0000E+00
  9900012  1    3    3    0    0 0.60324036E+02 -.16298879E+02 -.28751017E+03 0.29844051E+03 0.50000000E+02 0.0000E+00 0.9000E+01
      -11  1    3    3    0    0 -.11482956E+02 -.12454644E+02 -.48327097E+02 0.51210201E+02 0.00000000E+00 0.0000E+00 0.9000E+01
        1  1    1    2  501    0 -.46465778E+02 0.21311449E+02 -.46461722E+01 0.51330627E+02 0.00000000E+00 0.0000E+00 0.9000E+01
       21  1    1    2  502  501 -.23753023E+01 0.74420742E+01 -.73457602E+01 0.10723186E+02 0.00000000E+00 0.0000E+00 0.9000E+01
#aMCatNLO 2  0  0  1  5 0.94065639D+01 0.00000000D+00  -5  6  0 0.00000000D+00 0.00000000D+00 0.00000000D+00 0.00000000D+00 0.00000000D+00
  <mgrwgt>
 -.3309094625D-05    3    2    0
 0.105825373373584D+03 0.000000000000000D+00 0.000000000000000D+00 0.105825373373584D+03
 0.105825373373584D+03 0.000000000000000D+00 0.000000000000000D+00 -.105825373373584D+03
 0.101639336869130D+03 0.591771325358469D+02 -.127055082457033D+02 -.645537903166781D+02
 0.189668420502306D+02 -.116974037813263D+02 -.117827564753877D+02 -.916943247844250D+01
 0.910445678278066D+02 -.474797287545206D+02 0.244882647210911D+02 0.737232227951206D+02
 0.000000000000000D+00 -.000000000000000D+00 0.000000000000000D+00 0.000000000000000D+00
 0.111809385440466D+03 0.000000000000000D+00 0.000000000000000D+00 0.111809385440466D+03
 0.108478074676510D+03 0.000000000000000D+00 0.000000000000000D+00 -.108478074676510D+03
 0.102819427518924D+03 0.603240363242118D+02 -.162988794898518D+02 -.645537903166781D+02
 0.192627860009724D+02 -.114829561132552D+02 -.124546437702408D+02 -.916943247844250D+01
 0.897126521580365D+02 -.464657778926118D+02 0.213114491005262D+02 0.737232227951206D+02
 0.849259443904360D+01 -.237530231834477D+01 0.744207415956640D+01 0.333131076395677D+01
-.423758064199D-07 0.000000000000D+00 0.000000000000D+00 0.971554863481D-06 0.000000000000D+00  6 2 22 9900012 -11 1 21 2 0.50366522D-02 0.56996941D-01 0.60763008D+04 0.60763008D+04 0.60763008D+04 0.12324276D+01  1  2 13  1  6  1        2 -.382618191785D-05 0.100000000000D+01
-.527609579062D-09 0.000000000000D+00 0.000000000000D+00 0.971554863481D-06 0.000000000000D+00  6 2 22 9900012 -11 1 21 2 0.46505183D-02 0.56996941D-01 0.55155144D+04 0.55155144D+04 0.55155144D+04 0.12370765D+01  1  2  8  1  6  1        2 -.527003019168D-07 0.100000000000D+01
0.637547286847D-08 0.000000000000D+00 0.000000000000D+00 0.971554863481D-06 0.560757538433D-07  6 2 22 9900012 -11 1 21 2 0.49134869D-02 0.58425671D-01 0.60763008D+04 0.60763008D+04 0.60763008D+04 0.12324276D+01  1  2  1  1  6  1        2 0.569787594885D-06 0.100000000000D+01
  </mgrwgt>
  </event>
  <event>
  6     66 0.15098626E-05 0.70935038E+02 0.78161638E-02 0.11895241E+00
        2 -1    0    0  501    0 0.00000000E+00 0.00000000E+00 0.58011197E+02 0.58011197E+02 0.00000000E+00 0.0000E+00 0.9000E+01
       22 -1    0    0    0    0 0.00000000E+00 0.00000000E+00 -.13703127E+03 0.13703127E+03 0.00000000E+00 0.0000E+00 0.9000E+01
       24  2    1    2    0    0 -.70813601E+02 0.41489113E+01 -.21507868E+02 0.10372197E+03 0.72552594E+02 0.0000E+00 0.0000E+00
  9900012  1    3    3    0    0 -.34142889E+02 0.10035872E+02 -.11803667E+01 0.61382806E+02 0.50000000E+02 0.0000E+00 0.9000E+01
      -11  1    3    3    0    0 -.36670712E+02 -.58869605E+01 -.20327502E+02 0.42339163E+02 0.00000000E+00 0.0000E+00 0.9000E+01
        1  1    1    2  501    0 0.70813601E+02 -.41489113E+01 -.57512202E+02 0.91320496E+02 0.00000000E+00 0.0000E+00 0.9000E+01
#aMCatNLO 1  0  0  1  5 0.82050862D+02 0.00000000D+00  -5  6  0 0.00000000D+00 0.00000000D+00 0.00000000D+00 0.00000000D+00 0.00000000D+00
  <mgrwgt>
 0.1092500044D-05    4    2    0
 0.891591158181822D+02 0.000000000000000D+00 0.000000000000000D+00 0.891591158181822D+02
 0.891591158181822D+02 0.000000000000000D+00 0.000000000000000D+00 -.891591158181822D+02
 0.666167505198036D+02 -.341428892107193D+02 0.100358717719109D+02 0.259101494387830D+02
 0.373021542315321D+02 -.366707120644920D+02 -.588696050185577D+01 -.347178384202096D+01
 0.743993268850287D+02 0.708136012752113D+02 -.414891127005510D+01 -.224383655967621D+02
 0.000000000000000D+00 0.000000000000000D+00 -.000000000000000D+00 -.000000000000000D+00
 0.892362332320203D+02 0.000000000000000D+00 0.000000000000000D+00 0.892362332320203D+02
 0.140631152251261D+03 0.000000000000000D+00 0.000000000000000D+00 -.140631152251261D+03
 0.673016237445306D+02 -.352509265599284D+02 0.107491809630701D+02 0.259101494387830D+02
 0.378535435112487D+02 -.372925484671688D+02 -.548664762274261D+01 -.347178384202096D+01
 0.731976007314150D+02 0.695923879105335D+02 -.336274398245155D+01 -.224383655967621D+02
 0.515146174960870D+02 0.295108711656365D+01 -.189978935787592D+01 -.513949190192406D+02
0.101150901541D-07 0.000000000000D+00 0.000000000000D+00 0.761408574868D-09 0.000000000000D+00  6 2 22 9900012 -11 1 21 0 0.89247996D-02 0.21081734D-01 0.71780489D+04 0.71780489D+04 0.71780489D+04 0.12245535D+01  1  2  2  1  6  1        2 0.142785511902D-05 0.100000000000D+01
-.550326292638D-09 0.000000000000D+00 -.194223047780D-10 0.761408574868D-09 0.000000000000D+00  6 2 22 9900012 -11 1 21 2 0.89247996D-02 0.21081734D-01 0.71780489D+04 0.71780489D+04 0.71780489D+04 0.12245535D+01  1  2  3  1  6  1        2 -.116490404004D-06 0.100000000000D+01
-.718140707759D-09 0.000000000000D+00 0.000000000000D+00 0.761408574868D-09 0.000000000000D+00  6 2 22 9900012 -11 1 21 2 0.89247996D-02 0.21081734D-01 0.71780489D+04 0.71780489D+04 0.71780489D+04 0.12245535D+01  1  2 15  1  6  1        2 -.152012546552D-06 0.100000000000D+01
-.315824139230D-09 0.000000000000D+00 0.000000000000D+00 0.761408574868D-09 0.000000000000D+00  6 2 22 9900012 -11 1 21 2 0.89247996D-02 0.21081734D-01 0.71780489D+04 0.71780489D+04 0.71780489D+04 0.12245535D+01  1  2  4  1  6  1        2 -.668521240310D-07 0.100000000000D+01
  </mgrwgt>
  </event>
</LesHouchesEvents>
