<LesHouchesEvents version="3.0">
  <!--
  <scalesfunctionalform>
    muR  H_T/2 := sum_i mT(i)/2, i=final state
    muF1 H_T/2 := sum_i mT(i)/2, i=final state
    muF2 H_T/2 := sum_i mT(i)/2, i=final state
    QES  H_T/2 := sum_i mT(i)/2, i=final state
  </scalesfunctionalform>
PYTHIA8   
  -->
  <header>
       12
  </header>
  <init>
   2212   2212 0.65000000D+04 0.65000000D+04 -1 -1  82200  82200 -4   1
 0.14038428D-04 0.27266337D-06 0.15071452D-05     66
  </init>
  <event>
  7     66 -.15071452E-05 0.14183329E+03 0.78161638E-02 0.10833435E+00
       22 -1    0    0    0    0 0.00000000E+00 0.00000000E+00 0.83870709E+02 0.83870709E+02 0.00000000E+00 0.0000E+00 0.9000E+01
        2 -1    0    0  502    0 0.00000000E+00 0.00000000E+00 -.36155715E+03 0.36155715E+03 0.00000000E+00 0.0000E+00 0.9000E+01
       24  2    1    2    0    0 -.61203330E+02 -.14410483E+03 -.14885321E+03 0.22827021E+03 0.73742523E+02 0.0000E+00 0.0000E+00
  9900012  1    3    3    0    0 -.24711256E+02 -.63279943E+02 -.74659923E+02 0.11264591E+03 0.50000000E+02 0.0000E+00 0.9000E+01
      -11  1    3    3    0    0 -.36492074E+02 -.80824887E+02 -.74193290E+02 0.11562430E+03 0.00000000E+00 0.0000E+00 0.9000E+01
        1  1    1    2  501    0 0.57313539E+02 0.13508798E+03 -.13963280E+03 0.20256092E+03 0.00000000E+00 0.0000E+00 0.9000E+01
       21  1    1    2  502  501 0.38897905E+01 0.90168465E+01 0.10799573E+02 0.14596738E+02 0.00000000E+00 0.0000E+00 0.9000E+01
#aMCatNLO 2  0  0  2  5 0.53636165D+02 0.00000000D+00  -5  6  0 0.00000000D+00 0.00000000D+00 0.00000000D+00 0.00000000D+00 0.00000000D+00
  <mgrwgt>
 -.1589113653D-05    2    2    0
 0.159917824228791D+03 0.000000000000000D+00 0.000000000000000D+00 0.159917824228791D+03
 0.159917824228791D+03 0.000000000000000D+00 0.000000000000000D+00 -.159917824228791D+03
 0.823120059829898D+02 -.236979947176413D+02 -.609311222970273D+02 0.103426830710847D+01
 0.861069964853189D+02 -.354288042943633D+02 -.783601423811500D+02 0.434772998245371D+01
 0.151416645989273D+03 0.591267990120046D+02 0.139291264678177D+03 -.538199828956217D+01
 0.000000000000000D+00 0.000000000000000D+00 0.000000000000000D+00 0.000000000000000D+00
 0.188538153659051D+03 0.000000000000000D+00 0.000000000000000D+00 0.188538153659051D+03
 0.160837763807001D+03 0.000000000000000D+00 0.000000000000000D+00 -.160837763807001D+03
 0.843567839307118D+02 -.247112556832395D+02 -.632799425312576D+02 0.103426830710847D+01
 0.887875921502585D+02 -.364920739074117D+02 -.808248866734517D+02 0.434772998245371D+01
 0.146841992403197D+03 0.573135390963838D+02 0.135087982676472D+03 -.538199828956217D+01
 0.293895489818847D+02 0.388979049426736D+01 0.901684652823701D+01 0.277003898520495D+02
-.346456796717D-07 0.000000000000D+00 0.000000000000D+00 0.255289938011D-08 0.000000000000D+00  6 22 2 9900012 -11 1 21 2 0.10944466D-01 0.65579180D-01 0.27158205D+05 0.27158205D+05 0.27158205D+05 0.11667774D+01  1  2 13  1  6  2        2 -.198952172779D-05 0.100000000000D+01
0.740526797930D-08 0.000000000000D+00 0.000000000000D+00 0.255289938011D-08 0.780889848710D-11  6 22 2 9900012 -11 1 21 2 0.12903186D-01 0.55624178D-01 0.27158205D+05 0.27158205D+05 0.27158205D+05 0.11667774D+01  1  2  1  1  6  2        2 0.400408074631D-06 0.100000000000D+01
  </mgrwgt>
  </event>
  <event>
  6     66 0.15071452E-05 0.11225774E+02 0.78161638E-02 0.13446640E+00
       22 -1    0    0    0    0 0.00000000E+00 0.00000000E+00 0.47589164E+02 0.47589164E+02 0.00000000E+00 0.0000E+00 0.9000E+01
        2 -1    0    0  501    0 0.00000000E+00 0.00000000E+00 -.47204881E+02 0.47204881E+02 0.00000000E+00 0.0000E+00 0.9000E+01
       24  2    1    2    0    0 -.15671882E+01 0.11115842E+02 -.79073844E+01 0.80838051E+02 0.79663327E+02 0.0000E+00 0.0000E+00
  9900012  1    3    3    0    0 0.10837694E+02 0.11327806E+02 -.26317412E+02 0.58637709E+02 0.50000000E+02 0.0000E+00 0.9000E+01
      -11  1    3    3    0    0 -.12404882E+02 -.21196408E+00 0.18410028E+02 0.22200341E+02 0.00000000E+00 0.0000E+00 0.9000E+01
        1  1    1    2  501    0 0.15671882E+01 -.11115842E+02 0.82916679E+01 0.13955994E+02 0.00000000E+00 0.0000E+00 0.9000E+01
#aMCatNLO 1  0  0  2  5 0.48312983D+01 0.00000000D+00  -5  6  0 0.00000000D+00 0.00000000D+00 0.00000000D+00 0.00000000D+00 0.00000000D+00
  <mgrwgt>
 0.4900513747D-05   11    2    0
 0.473966328124684D+02 0.000000000000000D+00 0.000000000000000D+00 0.473966328124684D+02
 0.473966328124684D+02 0.000000000000000D+00 0.000000000000000D+00 -.473966328124684D+02
 0.587448796999893D+02 0.108376938104181D+02 0.113278056344101D+02 -.265553403922236D+02
 0.221258908975829D+02 -.124048820471712D+02 -.211964075981935D+00 0.183201806933776D+02
 0.139224950273647D+02 0.156718823675318D+01 -.111158415584282D+02 0.823515969884606D+01
 0.000000000000000D+00 0.000000000000000D+00 -.000000000000000D+00 -.000000000000000D+00
 0.476842602773352D+02 0.000000000000000D+00 0.000000000000000D+00 0.476842602773352D+02
 0.728242848158814D+02 0.000000000000000D+00 0.000000000000000D+00 -.728242848158814D+02
 0.584705403857193D+02 0.801153069935368D+01 0.122242940697808D+02 -.265553403922236D+02
 0.227495456081417D+02 -.134868668504732D+02 0.131252796253595D+00 0.183201806933776D+02
 0.136945600871689D+02 0.901317634200588D+00 -.109046204536361D+02 0.823515969884606D+01
 0.255938990121868D+02 0.457401851691892D+01 -.145092641239824D+01 -.251400245385461D+02
0.470845253847D-08 0.000000000000D+00 0.000000000000D+00 0.166913705451D-06 0.000000000000D+00  6 22 2 9900012 -11 1 21 0 0.73214099D-02 0.72622893D-02 0.14452394D+04 0.14452394D+04 0.14452394D+04 0.13075485D+01  1  2  2  1  6  2        2 0.322021806696D-05 0.100000000000D+01
-.676694648847D-11 0.000000000000D+00 -.904084875588D-11 0.166913705451D-06 0.000000000000D+00  6 22 2 9900012 -11 1 21 2 0.73214099D-02 0.72622893D-02 0.14452394D+04 0.14452394D+04 0.14452394D+04 0.13075485D+01  1  2  3  1  6  2        2 -.791253127446D-08 0.100000000000D+01
0.296566300203D-10 0.000000000000D+00 0.000000000000D+00 0.166913705451D-06 0.000000000000D+00  6 22 2 9900012 -11 1 21 2 0.73214099D-02 0.72622893D-02 0.14452394D+04 0.14452394D+04 0.14452394D+04 0.13075485D+01  1  2 15  1  6  2        2 0.346772377955D-07 0.100000000000D+01
0.168440544241D-07 0.000000000000D+00 0.000000000000D+00 0.166913705451D-06 0.000000000000D+00  6 22 2 9900012 -11 1 21 2 0.73214099D-02 0.11226124D-01 0.16532494D+04 0.16532494D+04 0.16532494D+04 0.12999056D+01  1  2 12  1  6  2        2 0.117329194533D-04 0.100000000000D+01
-.487765823792D-07 0.000000000000D+00 0.000000000000D+00 0.166913705451D-06 0.000000000000D+00  6 22 2 9900012 -11 1 21 2 0.73214099D-02 0.72622893D-02 0.14452394D+04 0.14452394D+04 0.14452394D+04 0.13075485D+01  1  2  4  1  6  2        2 -.570340306656D-04 0.100000000000D+01
-.515542538745D-07 0.000000000000D+00 -.137362210385D-08 0.166913705451D-06 0.000000000000D+00  6 22 2 9900012 -11 1 21 2 0.73214099D-02 0.11200838D-01 0.14452394D+04 0.14452394D+04 0.14452394D+04 0.13075485D+01  1  2  5  1  6  2        2 -.358372405056D-04 0.100000000000D+01
0.477190241079D-07 0.000000000000D+00 0.125404916667D-08 0.166913705451D-06 0.000000000000D+00  6 22 2 9900012 -11 1 21 2 0.73214099D-02 0.72622893D-02 0.14452394D+04 0.14452394D+04 0.14452394D+04 0.13075485D+01  1  2  6  1  6  2        2 0.557974370395D-04 0.100000000000D+01
0.372077907641D-07 0.000000000000D+00 0.000000000000D+00 0.166913705451D-06 0.781348560537D-07  6 22 2 9900012 -11 1 21 2 0.73658400D-02 0.11158409D-01 0.16532494D+04 0.16532494D+04 0.16532494D+04 0.12999056D+01  1  2 11  1  6  2        2 0.258873864849D-04 0.100000000000D+01
0.854020705136D-09 0.000000000000D+00 0.000000000000D+00 0.166913705451D-06 0.000000000000D+00  6 22 21 9900012 -11 1 -2 2 0.73214099D-02 0.11226124D-01 0.16532494D+04 0.16532494D+04 0.16532494D+04 0.12999056D+01  1  2 12  3  6  2        2 0.584095177112D-05 0.100000000000D+01
-.255162673325D-08 0.000000000000D+00 -.693744057194D-10 0.166913705451D-06 0.000000000000D+00  6 22 21 9900012 -11 1 -2 2 0.73214099D-02 0.11200838D-01 0.14452394D+04 0.14452394D+04 0.14452394D+04 0.13075485D+01  1  2  5  3  6  2        2 -.174437175879D-04 0.100000000000D+01
0.185547190745D-08 0.000000000000D+00 0.000000000000D+00 0.166913705451D-06 0.384933184783D-08  6 22 21 9900012 -11 1 -2 2 0.73658400D-02 0.11158409D-01 0.16532494D+04 0.16532494D+04 0.16532494D+04 0.12999056D+01  1  2 11  3  6  2        2 0.127098249838D-04 0.100000000000D+01
  </mgrwgt>
  </event>
  <event>
  7     66 0.15071452E-05 0.12519645E+02 0.78161638E-02 0.13401939E+00
       22 -1    0    0    0    0 0.00000000E+00 0.00000000E+00 0.76516510E+02 0.76516510E+02 0.00000000E+00 0.0000E+00 0.9000E+01
        2 -1    0    0  502    0 0.00000000E+00 0.00000000E+00 -.43109231E+03 0.43109231E+03 0.00000000E+00 0.0000E+00 0.9000E+01
       24  2    1    2    0    0 0.11723955E+02 -.16824528E+01 -.34057436E+03 0.34971071E+03 0.78526456E+02 0.0000E+00 0.0000E+00
  9900012  1    3    3    0    0 0.24185529E+02 0.89758495E+00 -.32444238E+03 0.32916349E+03 0.50000000E+02 0.0000E+00 0.9000E+01
      -11  1    3    3    0    0 -.12461574E+02 -.25800377E+01 -.16131974E+02 0.20547214E+02 0.00000000E+00 0.0000E+00 0.9000E+01
        1  1    1    2  501    0 0.14006116E+01 0.86234644E-01 0.71432961E+02 0.71446743E+02 0.00000000E+00 0.0000E+00 0.9000E+01
       21  1    1    2  502  501 -.13124567E+02 0.15962181E+01 -.85434408E+02 0.86451375E+02 0.00000000E+00 0.0000E+00 0.9000E+01
#aMCatNLO 2  0  0  2  5 0.30015624D+03 0.00000000D+00  -5  6  0 0.00000000D+00 0.00000000D+00 0.00000000D+00 0.00000000D+00 0.00000000D+00
  <mgrwgt>
 0.4792578621D-02    1    2    0
 0.161834563384089D+03 0.000000000000000D+00 0.000000000000000D+00 0.161834563384089D+03
 0.161834563384089D+03 0.000000000000000D+00 0.000000000000000D+00 -.161834563384089D+03
 0.157546040483168D+03 0.177826964400416D+02 0.167630152002281D+01 -.148329769744510D+03
 0.138143068517960D+02 -.130112933459201D+02 -.251318049171127D+01 -.390195375140122D+01
 0.152308779433214D+03 -.477140309412147D+01 0.836878971688452D+00 0.152231723495911D+03
 0.000000000000000D+00 -.000000000000000D+00 0.000000000000000D+00 -.000000000000000D+00
 0.163053077608382D+03 0.000000000000000D+00 0.000000000000000D+00 0.163053077608382D+03
 0.202300256158909D+03 0.000000000000000D+00 0.000000000000000D+00 -.202300256158909D+03
 0.158390233513573D+03 0.241855291709908D+02 0.897584950860594D+00 -.148329769744510D+03
 0.133106219430572D+02 -.124615736834221D+02 -.258003774498797D+01 -.390195375140122D+01
 0.152238190962936D+03 0.140061155141428D+01 0.862346441615542D-01 0.152231723495911D+03
 0.414142873477258D+02 -.131245670389829D+02 0.159621814996582D+01 -.392471785505272D+02
0.909542918089D-04 0.000000000000D+00 0.000000000000D+00 0.148013123860D-04 0.729007178500D-05  6 22 2 9900012 -11 1 21 2 0.11771771D-01 0.66321894D-01 0.17180977D+04 0.17180977D+04 0.17180977D+04 0.12977431D+01  1  2  1  1  6  2        2 0.479257862148D-02 0.100000000000D+01
  </mgrwgt>
  </event>
  <event>
  6     66 0.15071452E-05 0.58738623E+02 0.78161638E-02 0.12114720E+00
       22 -1    0    0    0    0 0.00000000E+00 0.00000000E+00 0.27664362E+02 0.27664362E+02 0.00000000E+00 0.0000E+00 0.9000E+01
        2 -1    0    0  501    0 -.00000000E+00 -.00000000E+00 -.24792519E+03 0.24792519E+03 0.00000000E+00 0.0000E+00 0.9000E+01
       24  2    1    2    0    0 -.60307374E+02 0.17809931E+02 -.12303940E+03 0.15980450E+03 0.80278332E+02 0.0000E+00 0.0000E+00
  9900012  1    3    3    0    0 -.41102888E+02 0.32582820E+02 -.11147327E+03 0.13295630E+03 0.50000000E+02 0.0000E+00 0.9000E+01
      -11  1    3    3    0    0 -.19204486E+02 -.14772889E+02 -.11566136E+02 0.26848203E+02 0.00000000E+00 0.0000E+00 0.9000E+01
        1  1    1    2  501    0 0.60307374E+02 -.17809931E+02 -.97221426E+02 0.11578505E+03 0.00000000E+00 0.0000E+00 0.9000E+01
#aMCatNLO 1  0  0  5  2 0.19608904D+02 0.00000000D+00  -5  6  0 0.00000000D+00 0.00000000D+00 0.00000000D+00 0.00000000D+00 0.00000000D+00
  <mgrwgt>
 0.1543517053D-04    5    2    0
 0.828172222636892D+02 0.000000000000000D+00 0.000000000000000D+00 0.828172222636892D+02
 0.828172222636892D+02 -.000000000000000D+00 -.000000000000000D+00 -.828172222636892D+02
 0.729810291550662D+02 -.411028879063561D+02 0.325828201112645D+02 -.866850943860137D+01
 0.292905117229234D+02 -.192044856916728D+02 -.147728886422071D+02 0.164585408670999D+02
 0.633629036493889D+02 0.603073735980288D+02 -.178099314690574D+02 -.779003142849849D+01
 0.000000000000000D+00 0.000000000000000D+00 0.000000000000000D+00 -.000000000000000D+00
 0.828172222636892D+02 0.000000000000000D+00 0.000000000000000D+00 0.828172222636892D+02
 0.828172222636892D+02 -.000000000000000D+00 -.000000000000000D+00 -.828172222636892D+02
 0.686799616069964D+02 -.344723130550842D+02 0.306246833751380D+02 -.952499486316490D+01
 0.278402949653921D+02 -.165304249779744D+02 -.155625903853555D+02 0.161131267699735D+02
 0.193863464447761D+02 0.434749476663579D+01 -.156310130323506D+02 0.106113688708595D+02
 0.497278415102137D+02 0.466552432664228D+02 0.568920042568113D+00 -.171995007776681D+02
0.582281630304D-07 0.000000000000D+00 0.000000000000D+00 0.157343742727D-06 0.000000000000D+00  6 22 2 9900012 -11 1 21 0 0.42560558D-02 0.38142337D-01 0.63661033D+04 0.63661033D+04 0.63661033D+04 0.12302103D+01  1  2  2  2  6  5        1 0.147742653031D-04 0.100000000000D+01
-.194714060049D-08 0.000000000000D+00 -.111805738932D-09 0.157343742727D-06 0.000000000000D+00  6 22 2 9900012 -11 1 21 2 0.42560558D-02 0.38142337D-01 0.63661033D+04 0.63661033D+04 0.63661033D+04 0.12302103D+01  1  2  3  2  6  5        1 -.747702504119D-06 0.100000000000D+01
-.327722480417D-09 0.000000000000D+00 0.000000000000D+00 0.157343742727D-06 0.000000000000D+00  6 22 2 9900012 -11 1 21 2 0.42560558D-02 0.38142337D-01 0.63661033D+04 0.63661033D+04 0.63661033D+04 0.12302103D+01  1  2 15  2  6  5        1 -.125845518912D-06 0.100000000000D+01
0.133545090145D-07 0.000000000000D+00 0.000000000000D+00 0.157343742727D-06 0.000000000000D+00  6 22 2 9900012 -11 1 21 2 0.42560558D-02 0.38142337D-01 0.58984565D+04 0.58984565D+04 0.58984565D+04 0.12338479D+01  1  2 12  2  6  5        1 0.512219455343D-05 0.100000000000D+01
-.934306989963D-08 0.000000000000D+00 0.000000000000D+00 0.157343742727D-06 0.000000000000D+00  6 22 2 9900012 -11 1 21 2 0.42560558D-02 0.38142337D-01 0.63661033D+04 0.63661033D+04 0.63661033D+04 0.12302103D+01  1  2  5  2  6  5        1 -.358774130556D-05 0.100000000000D+01
  </mgrwgt>
  </event>
  <event>
  7     66 -.15071452E-05 0.23352069E+02 0.78161638E-02 0.12836463E+00
       22 -1    0    0    0    0 0.00000000E+00 0.00000000E+00 0.52750601E+01 0.52750601E+01 0.00000000E+00 0.0000E+00 0.9000E+01
        2 -1    0    0  502    0 0.00000000E+00 0.00000000E+00 -.10540516E+04 0.10540516E+04 0.00000000E+00 0.0000E+00 0.9000E+01
       24  2    1    2    0    0 0.22030384E+02 -.79928336E+01 -.10070783E+04 0.10105954E+04 0.80914430E+02 0.0000E+00 0.0000E+00
  9900012  1    3    3    0    0 0.60062778E+01 0.16143583E+02 -.75689881E+03 0.75874403E+03 0.50000000E+02 0.0000E+00 0.9000E+01
      -11  1    3    3    0    0 0.16024106E+02 -.24136417E+02 -.25017947E+03 0.25185135E+03 0.00000000E+00 0.0000E+00 0.9000E+01
        1  1    1    2  501    0 -.22868095E+02 0.71292744E+01 -.40348840E+02 0.46923398E+02 0.00000000E+00 0.0000E+00 0.9000E+01
       21  1    1    2  502  501 0.83771128E+00 0.86355917E+00 -.13494225E+01 0.18078816E+01 0.00000000E+00 0.0000E+00 0.9000E+01
#aMCatNLO 2  0  0  2  5 0.65913705D+01 0.00000000D+00  -5  6  0 0.00000000D+00 0.00000000D+00 0.00000000D+00 0.00000000D+00 0.00000000D+00
  <mgrwgt>
 -.1364229130D-04    5    2    0
 0.728713823039541D+02 0.000000000000000D+00 0.000000000000000D+00 0.728713823039541D+02
 0.728713823039541D+02 0.000000000000000D+00 0.000000000000000D+00 -.728713823039541D+02
 0.659291115879601D+02 0.638484308712421D+01 0.165338290356522D+02 -.391473374694923D+02
 0.294035742015343D+02 0.161932545402989D+02 -.239620487405362D+02 -.530743849464033D+01
 0.504100788184139D+02 -.225780976274231D+02 0.742821970488400D+01 0.444547759641326D+02
 0.000000000000000D+00 0.000000000000000D+00 0.000000000000000D+00 0.000000000000000D+00
 0.761844879018188D+02 0.000000000000000D+00 0.000000000000000D+00 0.761844879018188D+02
 0.729831720486478D+02 0.000000000000000D+00 0.000000000000000D+00 -.729831720486478D+02
 0.657966919683883D+02 0.600627777256931D+01 0.161435829465268D+02 -.391473374694923D+02
 0.294534798584985D+02 0.160241059104750D+02 -.241364165146872D+02 -.530743849464033D+01
 0.504975586191804D+02 -.228680949588208D+02 0.712927439720883D+01 0.444547759641326D+02
 0.341992950439948D+01 0.837711275776491D+00 0.863559170951637D+00 0.320131585317105D+01
-.236357018918D-07 0.000000000000D+00 0.000000000000D+00 0.589841469332D-07 0.000000000000D+00  6 22 2 9900012 -11 1 21 2 0.77625518D-03 0.16953449D+00 0.28628832D+04 0.28628832D+04 0.28628832D+04 0.12700699D+01  1  2 13  1  6  2        2 -.166591407039D-04 0.100000000000D+01
-.695527924683D-08 0.000000000000D+00 0.000000000000D+00 0.589841469332D-07 0.000000000000D+00  6 22 2 9900012 -11 1 21 2 0.77625518D-03 0.16191340D+00 0.27951135D+04 0.27951135D+04 0.27951135D+04 0.12713282D+01  1  2  8  1  6  2        2 -.520979597726D-05 0.100000000000D+01
-.710283017948D-08 0.000000000000D+00 0.000000000000D+00 0.589841469332D-07 0.000000000000D+00  6 22 2 9900012 -11 1 21 2 0.77625518D-03 0.16825834D+00 0.27951135D+04 0.27951135D+04 0.27951135D+04 0.12713282D+01  1  2  9  1  6  2        2 -.505631634434D-05 0.100000000000D+01
0.709758601102D-08 0.000000000000D+00 0.000000000000D+00 0.589841469332D-07 0.000000000000D+00  6 22 2 9900012 -11 1 21 2 0.77625518D-03 0.16191340D+00 0.27951135D+04 0.27951135D+04 0.27951135D+04 0.12713282D+01  1  2 10  1  6  2        2 0.531638971438D-05 0.100000000000D+01
0.112927692052D-07 0.000000000000D+00 0.000000000000D+00 0.589841469332D-07 0.853184175028D-07  6 22 2 9900012 -11 1 21 2 0.81154771D-03 0.16216179D+00 0.28628832D+04 0.28628832D+04 0.28628832D+04 0.12700699D+01  1  2  1  1  6  2        2 0.796657200820D-05 0.100000000000D+01
  </mgrwgt>
  </event>
  <event>
  6     66 -.15071452E-05 0.13267351E+02 0.78161638E-02 0.11710506E+00
       22 -1    0    0    0    0 0.00000000E+00 0.00000000E+00 0.18656786E+03 0.18656786E+03 0.00000000E+00 0.0000E+00 0.9000E+01
        4 -1    0    0  501    0 -.00000000E+00 -.00000000E+00 -.42675287E+03 0.42675287E+03 0.00000000E+00 0.0000E+00 0.9000E+01
  9900012  1    1    2    0    0 -.65454858E+02 0.33836813E+02 -.25261618E+03 0.26785108E+03 0.50000000E+02 0.0000E+00 0.9000E+01
      -11  1    1    2    0    0 0.70036182E+02 -.43783446E+02 -.15520300E+03 0.17581248E+03 0.00000000E+00 0.0000E+00 0.9000E+01
        3  1    1    2  502    0 -.65809519E+01 0.14126364E+02 0.15977963E+03 0.16053782E+03 0.00000000E+00 0.0000E+00 0.9000E+01
       21  1    1    2  501  502 0.19996282E+01 -.41797310E+01 0.78545387E+01 0.91193444E+01 0.00000000E+00 0.0000E+00 0.9000E+01
#aMCatNLO 2  0  0  5  2 0.52571840D+01 0.00000000D+00  -5  6  0 0.00000000D+00 0.00000000D+00 0.00000000D+00 0.00000000D+00 0.00000000D+00
  <mgrwgt>
 -.5611380519D-03    5    2    0
 0.282167270002470D+03 0.000000000000000D+00 0.000000000000000D+00 0.282167270002470D+03
 0.282167270002470D+03 -.000000000000000D+00 -.000000000000000D+00 -.282167270002470D+03
 0.183895125907391D+03 -.654483959459686D+02 0.338227830414136D+02 -.160903524348997D+03
 0.125207363675552D+03 0.700405815869784D+02 -.437929987073142D+02 -.940923701144833D+02
 0.255232050421997D+03 -.459218564100979D+01 0.997021566590064D+01 0.254995894463481D+03
 0.000000000000000D+00 0.000000000000000D+00 0.000000000000000D+00 0.000000000000000D+00
 0.282167270002470D+03 0.000000000000000D+00 0.000000000000000D+00 0.282167270002470D+03
 0.282167270002470D+03 -.000000000000000D+00 -.000000000000000D+00 -.282167270002470D+03
 0.183586141264558D+03 -.654548578368804D+02 0.338368126236291D+02 -.160544707048963D+03
 0.125018047647971D+03 0.700361815550427D+02 -.437834456816386D+02 -.938480441732401D+02
 0.242476465609279D+03 -.658095188137966D+01 0.141263640311002D+02 0.241975150141422D+03
 0.132538854831318D+02 0.199962816321727D+01 -.417973097309060D+01 0.124176010807816D+02
-.417320811080D-03 0.000000000000D+00 0.000000000000D+00 0.339118820800D-08 0.000000000000D+00  6 22 4 9900012 -11 3 21 2 0.28702747D-01 0.65654288D-01 0.92025339D+04 0.92025339D+04 0.92025339D+04 0.12130893D+01  1  2 13  2  6  5        3 -.624896071528D-03 0.100000000000D+01
-.574465196216D-03 0.000000000000D+00 0.000000000000D+00 0.339118820800D-08 0.000000000000D+00  6 22 4 9900012 -11 3 21 2 0.28702747D-01 0.65654288D-01 0.83373193D+04 0.83373193D+04 0.83373193D+04 0.12176053D+01  1  2  8  2  6  5        3 -.860309936132D-03 0.100000000000D+01
-.106118445789D-04 0.000000000000D+00 0.000000000000D+00 0.339118820800D-08 0.000000000000D+00  6 22 4 9900012 -11 3 21 2 0.28702747D-01 0.65654288D-01 0.83373193D+04 0.83373193D+04 0.83373193D+04 0.12176053D+01  1  2  9  2  6  5        3 -.158921295703D-04 0.100000000000D+01
0.111771921891D-04 0.000000000000D+00 0.000000000000D+00 0.339118820800D-08 0.000000000000D+00  6 22 4 9900012 -11 3 21 2 0.28702747D-01 0.65654288D-01 0.83373193D+04 0.83373193D+04 0.83373193D+04 0.12176053D+01  1  2 10  2  6  5        3 0.167387851548D-04 0.100000000000D+01
0.616549662197D-03 0.000000000000D+00 0.000000000000D+00 0.339118820800D-08 0.566359778073D-09  6 22 4 9900012 -11 3 21 2 0.28702747D-01 0.65654288D-01 0.92025339D+04 0.92025339D+04 0.92025339D+04 0.12130893D+01  1  2  1  2  6  5        3 0.923221300207D-03 0.100000000000D+01
  </mgrwgt>
  </event>
  <event>
  7     66 0.15071452E-05 0.24017438E+02 0.78161638E-02 0.12267786E+00
       22 -1    0    0    0    0 0.00000000E+00 0.00000000E+00 0.23859986E+03 0.23859986E+03 0.00000000E+00 0.0000E+00 0.9000E+01
        2 -1    0    0  502    0 0.00000000E+00 0.00000000E+00 -.73450365E+02 0.73450365E+02 0.00000000E+00 0.0000E+00 0.9000E+01
       24  2    1    2    0    0 0.23688919E+02 -.35132385E+02 0.69976041E+00 0.86922288E+02 0.75891667E+02 0.0000E+00 0.0000E+00
  9900012  1    3    3    0    0 0.37292752E+02 -.20902618E+02 -.61653617E+01 0.66073296E+02 0.50000000E+02 0.0000E+00 0.9000E+01
      -11  1    3    3    0    0 -.13603833E+02 -.14229767E+02 0.68651221E+01 0.20848992E+02 0.00000000E+00 0.0000E+00 0.9000E+01
        1  1    1    2  501    0 0.76634527E+01 0.20096390E+02 0.18398954E+03 0.18524239E+03 0.00000000E+00 0.0000E+00 0.9000E+01
       21  1    1    2  502  501 -.31352371E+02 0.15035995E+02 -.19539808E+02 0.39885542E+02 0.00000000E+00 0.0000E+00 0.9000E+01
#aMCatNLO 2  0  0  2  2 0.36557927D+02 0.00000000D+00  -5  6  0 0.00000000D+00 0.00000000D+00 0.00000000D+00 0.00000000D+00 0.00000000D+00
  <mgrwgt>
 0.2191831882D-05    1    2    0
 0.984307162422646D+02 0.000000000000000D+00 0.000000000000000D+00 0.984307162422646D+02
 0.984307162422646D+02 0.000000000000000D+00 0.000000000000000D+00 -.984307162422646D+02
 0.895959448651047D+02 0.226547140263021D+02 -.138824958601287D+02 -.694368315618654D+02
 0.234631955400409D+02 -.171996301900518D+02 -.125052921572426D+02 -.991523748266594D+01
 0.838022920793835D+02 -.545508383625034D+01 0.263877880173713D+02 0.793520690445313D+02
 0.000000000000000D+00 -.000000000000000D+00 0.000000000000000D+00 -.000000000000000D+00
 0.104405744201029D+03 0.000000000000000D+00 0.000000000000000D+00 0.104405744201029D+03
 0.167857112811932D+03 0.000000000000000D+00 0.000000000000000D+00 -.167857112811932D+03
 0.956511491212531D+02 0.372927517320101D+02 -.209026175183873D+02 -.694368315618654D+02
 0.220422885876906D+02 -.136038329327556D+02 -.142297674395278D+02 -.991523748266594D+01
 0.822152312964328D+02 0.766345267996848D+01 0.200963899369952D+02 0.793520690445313D+02
 0.723541880075851D+02 -.313523714792230D+02 0.150359950209198D+02 -.634513686109027D+02
0.324585150152D-07 0.000000000000D+00 0.000000000000D+00 0.152074136983D-07 0.828443064857D-10  6 22 2 9900012 -11 1 21 2 0.36707671D-01 0.11300056D-01 0.50233179D+04 0.50233179D+04 0.50233179D+04 0.12416181D+01  1  2  1  1  6  2        2 0.219183188239D-05 0.100000000000D+01
  </mgrwgt>
  </event>
  <event>
  7     66 0.15071452E-05 0.58231663E+02 0.78161638E-02 0.11653067E+00
       22 -1    0    0    0    0 0.00000000E+00 0.00000000E+00 0.50050944E+03 0.50050944E+03 0.00000000E+00 0.0000E+00 0.9000E+01
        2 -1    0    0  502    0 0.00000000E+00 0.00000000E+00 -.93375205E+02 0.93375205E+02 0.00000000E+00 0.0000E+00 0.9000E+01
       24  2    1    2    0    0 -.33973999E+02 0.62083999E+02 0.33565290E+03 0.35972730E+03 0.10831529E+03 0.0000E+00 0.0000E+00
  9900012  1    3    3    0    0 0.18633242E+02 0.11778796E+02 0.17548335E+03 0.18379430E+03 0.50000000E+02 0.0000E+00 0.9000E+01
      -11  1    3    3    0    0 -.52607241E+02 0.50305204E+02 0.16016955E+03 0.17593300E+03 0.00000000E+00 0.0000E+00 0.9000E+01
        1  1    1    2  501    0 -.71492684E-01 -.83312278E-01 0.13744156E+03 0.13744161E+03 0.00000000E+00 0.0000E+00 0.9000E+01
       21  1    1    2  502  501 0.34045491E+02 -.62000687E+02 -.65960236E+02 0.96715735E+02 0.00000000E+00 0.0000E+00 0.9000E+01
#aMCatNLO 2  0  0  2  2 0.71969773D+02 0.00000000D+00  -5  6  0 0.00000000D+00 0.00000000D+00 0.00000000D+00 0.00000000D+00 0.00000000D+00
  <mgrwgt>
 0.1436011097D+00    1    2    0
 0.677409898890571D+02 0.000000000000000D+00 0.000000000000000D+00 0.677409898890571D+02
 0.677409898890571D+02 0.000000000000000D+00 0.000000000000000D+00 -.677409898890571D+02
 0.609726301997478D+02 0.322895952096288D+02 -.130909668424107D+02 0.191579273524325D+01
 0.500663800661697D+02 -.376609015511320D+02 0.230862312052375D+02 -.235653312309505D+02
 0.244429695121968D+02 0.537130634150320D+01 -.999526436282683D+01 0.216495384957073D+02
 0.000000000000000D+00 0.000000000000000D+00 -.000000000000000D+00 -.000000000000000D+00
 0.788398064400148D+02 0.000000000000000D+00 0.000000000000000D+00 0.788398064400148D+02
 0.592786481771655D+03 0.000000000000000D+00 0.000000000000000D+00 -.592786481771655D+03
 0.546773078563502D+02 0.186332420149413D+02 0.117787955507476D+02 0.191579273524325D+01
 0.765079089973358D+02 -.526072407007410D+02 0.503052037961730D+02 -.235653312309505D+02
 0.216498168402565D+02 -.714926840444372D-01 -.833122780096307D-01 0.216495384957073D+02
 0.518791254517727D+03 0.340454913698441D+02 -.620006870689110D+02 -.513946675331640D+03
0.985853286178D-02 0.000000000000D+00 0.000000000000D+00 0.193090516566D-09 0.250738902572D-07  6 22 2 9900012 -11 1 21 2 0.77001452D-01 0.14365416D-01 0.98282412D+04 0.98282412D+04 0.98282412D+04 0.12101106D+01  1  2  1  1  6  2        2 0.143601109679D+00 0.100000000000D+01
  </mgrwgt>
  </event>
  <event>
  7     66 0.15071452E-05 0.23351302E+02 0.78161638E-02 0.13097509E+00
       22 -1    0    0    0    0 0.00000000E+00 0.00000000E+00 0.14648683E+02 0.14648683E+02 0.00000000E+00 0.0000E+00 0.9000E+01
        2 -1    0    0  502    0 0.00000000E+00 0.00000000E+00 -.10147307E+04 0.10147307E+04 0.00000000E+00 0.0000E+00 0.9000E+01
       24  2    1    2    0    0 -.24898751E+02 0.98588740E+01 -.79482290E+03 0.79922255E+03 0.79347932E+02 0.0000E+00 0.0000E+00
  9900012  1    3    3    0    0 -.22030979E+02 -.13548988E+01 -.76881533E+03 0.77075561E+03 0.50000000E+02 0.0000E+00 0.9000E+01
      -11  1    3    3    0    0 -.28677720E+01 0.11213773E+02 -.26007564E+02 0.28466932E+02 0.00000000E+00 0.0000E+00 0.9000E+01
        1  1    1    2  501    0 0.28188973E+01 0.20911247E+01 0.11461485E+02 0.11986852E+02 0.00000000E+00 0.0000E+00 0.9000E+01
       21  1    1    2  502  501 0.22079853E+02 -.11949999E+02 -.21672063E+03 0.21817001E+03 0.00000000E+00 0.0000E+00 0.9000E+01
#aMCatNLO 2  0  0  2  5 0.27853917D+02 0.00000000D+00  -5  6  0 0.00000000D+00 0.00000000D+00 0.00000000D+00 0.00000000D+00 0.00000000D+00
  <mgrwgt>
 0.3544502619D-03    1    2    0
 0.104612691635951D+03 0.000000000000000D+00 0.000000000000000D+00 0.104612691635951D+03
 0.104612691635951D+03 0.000000000000000D+00 0.000000000000000D+00 -.104612691635951D+03
 0.107604925428317D+03 -.106388311325227D+02 -.752052612110121D+01 -.943879067223607D+02
 0.120539671323804D+02 -.155552694221265D+01 0.105035630241374D+02 0.570557826679559D+01
 0.895664907112055D+02 0.121943580747353D+02 -.298303690303622D+01 0.886823284555651D+02
 0.000000000000000D+00 0.000000000000000D+00 -.000000000000000D+00 -.000000000000000D+00
 0.110846912343647D+03 0.000000000000000D+00 0.000000000000000D+00 0.110846912343647D+03
 0.134099077783934D+03 0.000000000000000D+00 0.000000000000000D+00 -.134099077783934D+03
 0.109070054109278D+03 -.220309785799048D+02 -.135489880934409D+01 -.943879067223607D+02
 0.129045123742749D+02 -.286777203488126D+01 0.112137727734798D+02 0.570557826679559D+01
 0.887517569672283D+02 0.281889730650640D+01 0.209112468413523D+01 0.886823284555651D+02
 0.342196666768000D+02 0.220798533082796D+02 -.119499986482710D+02 -.232521654402869D+02
0.183451123780D-05 0.000000000000D+00 0.000000000000D+00 0.163747461829D-05 0.200805003979D-06  6 22 2 9900012 -11 1 21 2 0.22536435D-02 0.15611242D+00 0.22489413D+04 0.22489413D+04 0.22489413D+04 0.12829192D+01  1  2  1  1  6  2        2 0.354450261915D-03 0.100000000000D+01
  </mgrwgt>
  </event>
  <event>
  6     66 0.15071452E-05 0.24656036E+02 0.78161638E-02 0.13090585E+00
       22 -1    0    0    0    0 0.00000000E+00 0.00000000E+00 0.42981159E+01 0.42981159E+01 0.00000000E+00 0.0000E+00 0.9000E+01
        2 -1    0    0  501    0 -.00000000E+00 -.00000000E+00 -.98185420E+03 0.98185420E+03 0.00000000E+00 0.0000E+00 0.9000E+01
       24  2    1    2    0    0 -.24166079E+02 0.48908792E+01 -.91735118E+03 0.92109426E+03 0.79205611E+02 0.0000E+00 0.0000E+00
  9900012  1    3    3    0    0 -.98591549E+01 -.83574184E+01 -.82945902E+03 0.83106517E+03 0.50000000E+02 0.0000E+00 0.9000E+01
      -11  1    3    3    0    0 -.14306924E+02 0.13248298E+02 -.87892160E+02 0.90029091E+02 0.00000000E+00 0.0000E+00 0.9000E+01
        1  1    1    2  501    0 0.24166079E+02 -.48908792E+01 -.60204901E+02 0.65058052E+02 0.00000000E+00 0.0000E+00 0.9000E+01
#aMCatNLO 1  0  0  5  2 0.24397003D+01 0.00000000D+00  -5  6  0 0.00000000D+00 0.00000000D+00 0.00000000D+00 0.00000000D+00 0.00000000D+00
  <mgrwgt>
 0.1034623774D-04    8    2    0
 0.649624748445552D+02 0.000000000000000D+00 0.000000000000000D+00 0.649624748445552D+02
 0.649624748445552D+02 -.000000000000000D+00 -.000000000000000D+00 -.649624748445552D+02
 0.670704868596071D+02 -.985915488525849D+01 -.835741840398221D+01 -.427948692036090D+02
 0.220348828693012D+02 -.143069244371014D+02 0.132482975962013D+02 0.102630690837284D+02
 0.408195799602020D+02 0.241660793223599D+02 -.489087919221910D+01 0.325318001198805D+02
 0.000000000000000D+00 0.000000000000000D+00 0.000000000000000D+00 0.000000000000000D+00
 0.649624748445552D+02 0.000000000000000D+00 0.000000000000000D+00 0.649624748445552D+02
 0.649624748445552D+02 -.000000000000000D+00 -.000000000000000D+00 -.649624748445552D+02
 0.667122944350027D+02 -.949197081613604D+01 -.843173136552759D+01 -.423005747595432D+02
 0.220184161402708D+02 -.141860144856706D+02 0.132238270994485D+02 0.104258351791294D+02
 0.384993984223657D+02 0.210100207631546D+02 -.442141257961874D+01 0.319567491653431D+02
 0.269484069147116D+01 0.266796453865209D+01 -.370683154302207D+00 -.820095849293336D-01
0.801045932702D-08 0.000000000000D+00 0.000000000000D+00 0.752306186307D-07 0.000000000000D+00  6 22 2 9900012 -11 1 21 0 0.66124860D-03 0.15105449D+00 0.22943323D+04 0.22943323D+04 0.22943323D+04 0.12818404D+01  1  2  2  2  6  5        1 0.490619998341D-05 0.100000000000D+01
-.460266676287D-09 0.000000000000D+00 -.153811365091D-10 0.752306186307D-07 0.000000000000D+00  6 22 2 9900012 -11 1 21 2 0.66124860D-03 0.15105449D+00 0.22943323D+04 0.22943323D+04 0.22943323D+04 0.12818404D+01  1  2  3  2  6  5        1 -.463196497870D-06 0.100000000000D+01
0.221986724091D-09 0.000000000000D+00 0.000000000000D+00 0.752306186307D-07 0.000000000000D+00  6 22 2 9900012 -11 1 21 2 0.66124860D-03 0.15105449D+00 0.22943323D+04 0.22943323D+04 0.22943323D+04 0.12818404D+01  1  2 15  2  6  5        1 0.223399777716D-06 0.100000000000D+01
0.839604217837D-10 0.000000000000D+00 0.000000000000D+00 0.752306186307D-07 0.000000000000D+00  6 22 2 9900012 -11 1 21 2 0.66124860D-03 0.15105449D+00 0.22631029D+04 0.22631029D+04 0.22631029D+04 0.12825800D+01  1  2 12  2  6  5        1 0.844762949652D-07 0.100000000000D+01
-.102038465342D-06 0.000000000000D+00 0.000000000000D+00 0.752306186307D-07 0.000000000000D+00  6 22 2 9900012 -11 1 21 2 0.66124860D-03 0.15105449D+00 0.22943323D+04 0.22943323D+04 0.22943323D+04 0.12818404D+01  1  2  4  2  6  5        1 -.102687989876D-03 0.100000000000D+01
-.575855361313D-07 0.000000000000D+00 0.000000000000D+00 0.752306186307D-07 0.000000000000D+00  6 22 2 9900012 -11 1 21 2 0.66124860D-03 0.15105449D+00 0.22943323D+04 0.22943323D+04 0.22943323D+04 0.12818404D+01  1  2  5  2  6  5        1 -.579520961177D-04 0.100000000000D+01
0.615124361997D-07 0.000000000000D+00 -.000000000000D+00 0.752306186307D-07 0.000000000000D+00  6 22 2 9900012 -11 1 21 2 0.66124860D-03 0.15105449D+00 0.22943323D+04 0.22943323D+04 0.22943323D+04 0.12818404D+01  1  2  6  2  6  5        1 0.619039928177D-04 0.100000000000D+01
0.103694328267D-06 0.000000000000D+00 0.000000000000D+00 0.752306186307D-07 0.198613585320D-06  6 22 2 9900012 -11 1 21 2 0.66124860D-03 0.15105449D+00 0.22631029D+04 0.22631029D+04 0.22631029D+04 0.12825800D+01  1  2 11  2  6  5        1 0.104331451353D-03 0.100000000000D+01
  </mgrwgt>
  </event>
  <event>
  6     66 -.15071452E-05 0.12701085E+02 0.78161638E-02 0.12905387E+00
       22 -1    0    0    0    0 0.00000000E+00 0.00000000E+00 0.31066039E+03 0.31066039E+03 0.00000000E+00 0.0000E+00 0.9000E+01
        4 -1    0    0  501    0 0.00000000E+00 0.00000000E+00 -.19329135E+02 0.19329135E+02 0.00000000E+00 0.0000E+00 0.9000E+01
       24  2    1    2    0    0 -.68507863E+01 0.10695059E+02 0.68686911E+02 0.10698320E+03 0.81032066E+02 0.0000E+00 0.0000E+00
  9900012  1    3    3    0    0 -.23612701E+02 0.69062031E+01 0.27057886E+02 0.61946626E+02 0.50000000E+02 0.0000E+00 0.9000E+01
      -11  1    3    3    0    0 0.16761915E+02 0.37888560E+01 0.41629025E+02 0.45036574E+02 0.00000000E+00 0.0000E+00 0.9000E+01
        3  1    1    2  501    0 0.68507863E+01 -.10695059E+02 0.22264434E+03 0.22300632E+03 0.00000000E+00 0.0000E+00 0.9000E+01
#aMCatNLO 1  0  0  2  5 0.15565241D+03 0.00000000D+00  -5  6  0 0.00000000D+00 0.00000000D+00 0.00000000D+00 0.00000000D+00 0.00000000D+00
  <mgrwgt>
 -.4873150605D-05    7    2    0
 0.774906229266658D+02 0.000000000000000D+00 0.000000000000000D+00 0.774906229266658D+02
 0.774906229266658D+02 0.000000000000000D+00 0.000000000000000D+00 -.774906229266658D+02
 0.810351580086596D+02 -.236127012387143D+02 0.690620311572019D+01 -.588340167949126D+02
 0.176393044925555D+02 0.167619149298773D+02 0.378885600997107D+01 0.397842192337019D+01
 0.563067833521164D+02 0.685078630883706D+01 -.106950591256913D+02 0.548555948715425D+02
 0.000000000000000D+00 0.000000000000000D+00 0.000000000000000D+00 -.000000000000000D+00
 0.805079382300113D+02 0.000000000000000D+00 0.000000000000000D+00 0.805079382300113D+02
 0.100086248026735D+03 0.000000000000000D+00 0.000000000000000D+00 -.100086248026735D+03
 0.828962262740420D+02 -.300996061710504D+02 0.208722461675000D+01 -.588340167949126D+02
 0.161721427744615D+02 0.154239670744038D+02 0.279492407856108D+01 0.397842192337019D+01
 0.566679191106327D+02 0.238028081142120D+01 -.140160989892764D+02 0.548555948715425D+02
 0.248578980976105D+02 0.122953582852254D+02 0.913395029396529D+01 -.195783097967239D+02
0.301777034595D-07 0.000000000000D+00 0.000000000000D+00 0.358771254591D-06 0.000000000000D+00  6 22 4 9900012 -11 3 21 0 0.47793906D-01 0.29737131D-02 0.18322979D+04 0.18322979D+04 0.18322979D+04 0.12941497D+01  1  2  2  1  6  2        4 0.248772647129D-05 0.100000000000D+01
-.162001258506D-08 0.000000000000D+00 -.579451636281D-10 0.358771254591D-06 0.000000000000D+00  6 22 4 9900012 -11 3 21 2 0.47793906D-01 0.29737131D-02 0.18322979D+04 0.18322979D+04 0.18322979D+04 0.12941497D+01  1  2  3  1  6  2        4 -.223668003497D-06 0.100000000000D+01
0.101529454208D-08 0.000000000000D+00 0.000000000000D+00 0.358771254591D-06 0.000000000000D+00  6 22 4 9900012 -11 3 21 2 0.47793906D-01 0.29737131D-02 0.18322979D+04 0.18322979D+04 0.18322979D+04 0.12941497D+01  1  2 15  1  6  2        4 0.140177246326D-06 0.100000000000D+01
-.452352437053D-07 0.000000000000D+00 0.000000000000D+00 0.358771254591D-06 0.000000000000D+00  6 22 4 9900012 -11 3 21 2 0.47793906D-01 0.29737131D-02 0.18322979D+04 0.18322979D+04 0.18322979D+04 0.12941497D+01  1  2  4  1  6  2        4 -.624543089391D-05 0.100000000000D+01
-.513965802241D-07 0.000000000000D+00 -.116537595562D-07 0.358771254591D-06 0.000000000000D+00  6 22 4 9900012 -11 3 21 2 0.47793906D-01 0.39867830D-02 0.18322979D+04 0.18322979D+04 0.18322979D+04 0.12941497D+01  1  2  5  1  6  2        4 -.459794512236D-05 0.100000000000D+01
0.530024860964D-07 0.000000000000D+00 0.111702660186D-07 0.358771254591D-06 0.000000000000D+00  6 22 4 9900012 -11 3 21 2 0.47793906D-01 0.29737131D-02 0.18322979D+04 0.18322979D+04 0.18322979D+04 0.12941497D+01  1  2  6  1  6  2        4 0.731781984590D-05 0.100000000000D+01
-.170185587131D-08 0.000000000000D+00 -.443042527504D-09 0.358771254591D-06 0.000000000000D+00  6 22 21 9900012 -11 3 -4 2 0.47793906D-01 0.39867830D-02 0.18322979D+04 0.18322979D+04 0.18322979D+04 0.12941497D+01  1  2  5  3  6  2        4 -.375183014896D-05 0.100000000000D+01
  </mgrwgt>
  </event>
  <event>
  6     66 0.15071452E-05 0.13568713E+02 0.78161638E-02 0.12220354E+00
       22 -1    0    0    0    0 0.00000000E+00 0.00000000E+00 0.21182192E+02 0.21182192E+02 0.00000000E+00 0.0000E+00 0.9000E+01
        2 -1    0    0  501    0 0.00000000E+00 0.00000000E+00 -.46564668E+03 0.46564668E+03 0.00000000E+00 0.0000E+00 0.9000E+01
       24  2    1    2    0    0 -.10680820E+02 0.83683974E+01 -.45947039E+03 0.46659803E+03 0.80103497E+02 0.0000E+00 0.0000E+00
  9900012  1    3    3    0    0 -.12691714E+02 -.98670067E+01 -.41753416E+03 0.42082444E+03 0.50000000E+02 0.0000E+00 0.9000E+01
      -11  1    3    3    0    0 0.20108948E+01 0.18235404E+02 -.41936234E+02 0.45773588E+02 0.00000000E+00 0.0000E+00 0.9000E+01
        1  1    1    2  501    0 0.10680820E+02 -.83683974E+01 0.15005902E+02 0.20230844E+02 0.00000000E+00 0.0000E+00 0.9000E+01
#aMCatNLO 1  0  0  2  5 0.74979254D+00 0.00000000D+00  -5  6  0 0.00000000D+00 0.00000000D+00 0.00000000D+00 0.00000000D+00 0.00000000D+00
  <mgrwgt>
 0.2397129232D-04    4    2    0
 0.993147391994619D+02 0.000000000000000D+00 0.000000000000000D+00 0.993147391994619D+02
 0.993147391994619D+02 0.000000000000000D+00 0.000000000000000D+00 -.993147391994619D+02
 0.971174196262398D+02 -.126917143842920D+02 -.986700666266911D+01 -.816906099889427D+02
 0.183494292807486D+02 0.201089481210990D+01 0.182354040513965D+02 -.357625594912374D+00
 0.831626294919355D+02 0.106808195721822D+02 -.836839738872737D+01 0.820482355838550D+02
 0.000000000000000D+00 0.000000000000000D+00 0.000000000000000D+00 0.000000000000000D+00
 0.133796772420860D+03 0.000000000000000D+00 0.000000000000000D+00 0.133796772420860D+03
 0.119224010850730D+03 0.000000000000000D+00 0.000000000000000D+00 -.119224010850730D+03
 0.103494147962888D+03 -.333190696824033D+02 -.206766171724891D+02 -.816906099889427D+02
 0.164395432417273D+02 -.156618952704978D+01 0.163608598886441D+02 -.357625594912374D+00
 0.841223150677602D+02 -.651981361625371D+01 -.173822599320414D+02 0.820482355838550D+02
 0.489647769992151D+02 0.414050728257068D+02 0.216980172158863D+02 0.145727615701307D+02
0.185153946647D-06 0.000000000000D+00 0.000000000000D+00 0.135031857443D-05 0.000000000000D+00  6 22 2 9900012 -11 1 21 0 0.32587988D-02 0.71637951D-01 0.17823378D+04 0.17823378D+04 0.17823378D+04 0.12956897D+01  1  2  2  1  6  2        2 0.309440765515D-04 0.100000000000D+01
-.607862283207D-08 0.000000000000D+00 -.355519953639D-09 0.135031857443D-05 0.000000000000D+00  6 22 2 9900012 -11 1 21 2 0.32587988D-02 0.71637951D-01 0.17823378D+04 0.17823378D+04 0.17823378D+04 0.12956897D+01  1  2  3  1  6  2        2 -.170550003869D-05 0.100000000000D+01
0.662408368367D-08 0.000000000000D+00 0.000000000000D+00 0.135031857443D-05 0.000000000000D+00  6 22 2 9900012 -11 1 21 2 0.32587988D-02 0.71637951D-01 0.17823378D+04 0.17823378D+04 0.17823378D+04 0.12956897D+01  1  2 15  1  6  2        2 0.185854185905D-05 0.100000000000D+01
-.253973661587D-07 0.000000000000D+00 0.000000000000D+00 0.135031857443D-05 0.000000000000D+00  6 22 2 9900012 -11 1 21 2 0.32587988D-02 0.71637951D-01 0.17823378D+04 0.17823378D+04 0.17823378D+04 0.12956897D+01  1  2  4  1  6  2        2 -.712582605680D-05 0.100000000000D+01
  </mgrwgt>
  </event>
</LesHouchesEvents>
