<LesHouchesEvents version="3.0">
  <!--
  <scalesfunctionalform>
    muR  H_T/2 := sum_i mT(i)/2, i=final state
    muF1 H_T/2 := sum_i mT(i)/2, i=final state
    muF2 H_T/2 := sum_i mT(i)/2, i=final state
    QES  H_T/2 := sum_i mT(i)/2, i=final state
  </scalesfunctionalform>
PYTHIA8   
  -->
  <header>
       47
  </header>
  <init>
   2212   2212 0.65000000D+04 0.65000000D+04 -1 -1  82200  82200 -4   1
 0.34322166D-04 0.20114004D-06 0.14151431D-05     66
  </init>
  <event>
  7     66 0.14151431E-05 0.16613503E+02 0.78161638E-02 0.13082202E+00
       22 -1    0    0    0    0 0.00000000E+00 0.00000000E+00 0.20984370E+02 0.20984370E+02 0.00000000E+00 0.0000E+00 0.9000E+01
       21 -1    0    0  502  501 0.00000000E+00 0.00000000E+00 -.13073949E+03 0.13073949E+03 0.00000000E+00 0.0000E+00 0.9000E+01
      -24  2    1    2    0    0 0.40621287E+01 -.17107888E+02 -.10516654E+03 0.13277295E+03 0.79116832E+02 0.0000E+00 0.0000E+00
  9900012  1    3    3    0    0 0.18570540E+02 -.27319594E+02 -.62615962E+02 0.86671702E+02 0.50000000E+02 0.0000E+00 0.9000E+01
       11  1    3    3    0    0 -.14508411E+02 0.10211706E+02 -.42550581E+02 0.46101246E+02 0.00000000E+00 0.0000E+00 0.9000E+01
        2  1    1    2  502    0 -.13554935E+01 0.16054078E+01 0.89793032E+00 0.22849454E+01 0.00000000E+00 0.0000E+00 0.9000E+01
       -1  1    1    2    0  501 -.27066352E+01 0.15502481E+02 -.54865103E+01 0.16665971E+02 0.00000000E+00 0.0000E+00 0.9000E+01
#aMCatNLO 2  0  0  2  5 0.82178015D+01 0.00000000D+00  -5  6  0 0.00000000D+00 0.00000000D+00 0.00000000D+00 0.00000000D+00 0.00000000D+00
  <mgrwgt>
 0.4563095224D-03    2    2    0
 0.502082594800516D+02 0.000000000000000D+00 0.000000000000000D+00 0.502082594800516D+02
 0.502082594800516D+02 0.000000000000000D+00 0.000000000000000D+00 -.502082594800516D+02
 0.592974805440081D+02 0.177656368984398D+02 -.263662902646613D+02 0.232208573042529D+01
 0.220783253616581D+02 -.148039516148456D+02 0.105617356215547D+02 -.125197926508759D+02
 0.000000000000000D+00 -.000000000000000D+00 0.000000000000000D+00 0.000000000000000D+00
 0.190407130544370D+02 -.296168528359413D+01 0.158045546431066D+02 0.101977069204506D+02
 0.543403803007767D+02 0.000000000000000D+00 0.000000000000000D+00 0.543403803007767D+02
 0.504870578052899D+02 0.000000000000000D+00 0.000000000000000D+00 -.504870578052899D+02
 0.599718036905509D+02 0.185705395852634D+02 -.273195939807072D+02 0.232208573042529D+01
 0.217144680763261D+02 -.145084108364468D+02 0.102117055782926D+02 -.125197926508759D+02
 0.438893962637743D+01 -.135549353076825D+01 0.160540776060383D+01 0.385332249548678D+01
 0.187522267128121D+02 -.270663521804834D+01 0.155024806418108D+02 0.101977069204506D+02
-.172305245326D-08 0.000000000000D+00 0.000000000000D+00 0.231294335315D-07 0.000000000000D+00  6 22 21 9900012 11 2 -1 2 0.29828751D-02 0.21769124D-01 0.22803862D+04 0.22803862D+04 0.22803862D+04 0.12821693D+01  1  2 13  3  5  2       -2 -.130781185293D-04 0.100000000000D+01
0.598732423722D-07 0.000000000000D+00 0.000000000000D+00 0.231294335315D-07 0.169346006611D-08  6 22 21 9900012 11 2 -1 2 0.32283646D-02 0.20113768D-01 0.22803862D+04 0.22803862D+04 0.22803862D+04 0.12821693D+01  1  2  1  3  5  2       -2 0.469387640955D-03 0.100000000000D+01
  </mgrwgt>
  </event>
  <event>
  6     66 0.14151431E-05 0.39736387E+02 0.78161638E-02 0.12416948E+00
       22 -1    0    0    0    0 0.00000000E+00 0.00000000E+00 0.22719038E+02 0.22719038E+02 0.00000000E+00 0.0000E+00 0.9000E+01
       -4 -1    0    0    0  501 -.00000000E+00 -.00000000E+00 -.26679138E+03 0.26679138E+03 0.00000000E+00 0.0000E+00 0.9000E+01
      -24  2    1    2    0    0 0.28066161E+02 -.28129541E+02 -.86216805E+02 0.12673035E+03 0.83953934E+02 0.0000E+00 0.0000E+00
  9900012  1    3    3    0    0 0.31037522E+02 -.45914638E+02 -.72691288E+02 0.10418976E+03 0.50000000E+02 0.0000E+00 0.9000E+01
       11  1    3    3    0    0 -.29713611E+01 0.17785097E+02 -.13525516E+02 0.22540592E+02 0.00000000E+00 0.0000E+00 0.9000E+01
       -3  1    1    2    0  501 -.28066161E+02 0.28129541E+02 -.15785554E+03 0.16278007E+03 0.00000000E+00 0.0000E+00 0.9000E+01
#aMCatNLO 1  0  0  5  2 0.89325397D+01 0.00000000D+00  -5  6  0 0.00000000D+00 0.00000000D+00 0.00000000D+00 0.00000000D+00 0.00000000D+00
  <mgrwgt>
 0.2478157868D-04    6    2    0
 0.778539875693060D+02 0.000000000000000D+00 0.000000000000000D+00 0.778539875693060D+02
 0.778539875693060D+02 -.000000000000000D+00 -.000000000000000D+00 -.778539875693060D+02
 0.797781017776485D+02 0.310375223282880D+02 -.459146384593734D+02 0.281613867931055D+02
 0.207088402585585D+02 -.297136114498044D+01 0.177850972687118D+02 0.101841736504762D+02
 0.552210331024050D+02 -.280661611833075D+02 0.281295411906616D+02 -.383455604435818D+02
 0.000000000000000D+00 0.000000000000000D+00 0.000000000000000D+00 -.000000000000000D+00
 0.778539875693060D+02 0.000000000000000D+00 0.000000000000000D+00 0.778539875693060D+02
 0.778539875693060D+02 -.000000000000000D+00 -.000000000000000D+00 -.778539875693060D+02
 0.778237099017563D+02 0.296733044128047D+02 -.445473398182807D+02 0.262975159133397D+02
 0.208400420718903D+02 -.333101265557859D+01 0.181455609571934D+02 0.969279762479911D+01
 0.964854167044911D+01 -.152753733340366D+01 0.950228881631532D+01 0.683734826360970D+00
 0.473956814945163D+02 -.248147544238225D+02 0.168994900447720D+02 -.366740483644998D+02
0.561820487329D-06 0.000000000000D+00 0.000000000000D+00 0.194374207726D-07 0.000000000000D+00  6 22 -4 9900012 11 -3 21 0 0.34952365D-02 0.41044828D-01 0.43831251D+04 0.43831251D+04 0.43831251D+04 0.12483377D+01  1  2  2  2  6  5       -3 0.293736370533D-04 0.100000000000D+01
0.841057754083D-08 0.000000000000D+00 -.107876930104D-08 0.194374207726D-07 0.000000000000D+00  6 22 -4 9900012 11 -3 21 2 0.34952365D-02 0.41044828D-01 0.43831251D+04 0.43831251D+04 0.43831251D+04 0.12483377D+01  1  2  3  2  6  5       -3 0.685251702371D-06 0.100000000000D+01
-.851492053189D-07 0.000000000000D+00 0.000000000000D+00 0.194374207726D-07 0.000000000000D+00  6 22 -4 9900012 11 -3 21 2 0.34952365D-02 0.41044828D-01 0.43831251D+04 0.43831251D+04 0.43831251D+04 0.12483377D+01  1  2 15  2  6  5       -3 -.693753046293D-05 0.100000000000D+01
0.104477354601D-06 0.000000000000D+00 0.000000000000D+00 0.194374207726D-07 0.000000000000D+00  6 22 -4 9900012 11 -3 21 2 0.34952365D-02 0.41044828D-01 0.43126638D+04 0.43126638D+04 0.43126638D+04 0.12491436D+01  1  2 12  2  6  5       -3 0.850594003071D-05 0.100000000000D+01
-.840544156217D-07 0.000000000000D+00 0.000000000000D+00 0.194374207726D-07 0.000000000000D+00  6 22 -4 9900012 11 -3 21 2 0.34952365D-02 0.41044828D-01 0.43831251D+04 0.43831251D+04 0.43831251D+04 0.12483377D+01  1  2  5  2  6  5       -3 -.684833248572D-05 0.100000000000D+01
0.320932432038D-10 0.000000000000D+00 0.000000000000D+00 0.194374207726D-07 0.244721387294D-09  6 22 -4 9900012 11 -3 21 2 0.34952365D-02 0.41044828D-01 0.43126638D+04 0.43126638D+04 0.43126638D+04 0.12491436D+01  1  2 11  2  6  5       -3 0.261284565565D-08 0.100000000000D+01
  </mgrwgt>
  </event>
  <event>
  7     66 -.14151431E-05 0.22464701E+02 0.78161638E-02 0.12416449E+00
       22 -1    0    0    0    0 0.00000000E+00 0.00000000E+00 0.14118230E+04 0.14118230E+04 0.00000000E+00 0.0000E+00 0.9000E+01
       -4 -1    0    0    0  502 0.00000000E+00 0.00000000E+00 -.11977525E+02 0.11977525E+02 0.00000000E+00 0.0000E+00 0.9000E+01
      -24  2    1    2    0    0 0.11380360E+01 0.38130159E+02 0.13309887E+04 0.13339620E+04 0.80425638E+02 0.0000E+00 0.0000E+00
  9900012  1    3    3    0    0 -.76017075E+01 0.21194927E+02 0.54702958E+03 0.54977120E+03 0.50000000E+02 0.0000E+00 0.9000E+01
       11  1    3    3    0    0 0.87397435E+01 0.16935231E+02 0.78395916E+03 0.78419076E+03 0.00000000E+00 0.0000E+00 0.9000E+01
       -3  1    1    2    0  501 0.19800223E+02 -.27807885E+02 0.44713706E+02 0.56255158E+02 0.00000000E+00 0.0000E+00 0.9000E+01
       21  1    1    2  501  502 -.20938259E+02 -.10322274E+02 0.24143063E+02 0.33583441E+02 0.00000000E+00 0.0000E+00 0.9000E+01
#aMCatNLO 2  0  0  2  5 0.23942238D+02 0.00000000D+00  -5  6  0 0.00000000D+00 0.00000000D+00 0.00000000D+00 0.00000000D+00 0.00000000D+00
  <mgrwgt>
 -.1074681454D-04    2    2    0
 0.995005750181108D+02 0.000000000000000D+00 0.000000000000000D+00 0.995005750181108D+02
 0.995005750181108D+02 0.000000000000000D+00 0.000000000000000D+00 -.995005750181108D+02
 0.587523694194842D+02 -.137569411085741D+02 0.181604815635101D+02 0.208034706989044D+02
 0.570000796731510D+02 0.268959821868609D+01 0.139525929428039D+02 0.552005461416826D+02
 0.832487009435863D+02 0.110673428898881D+02 -.321130745063140D+02 -.760040168405870D+02
 0.000000000000000D+00 -.000000000000000D+00 -.000000000000000D+00 -.000000000000000D+00
 0.102273734992648D+03 0.000000000000000D+00 0.000000000000000D+00 0.102273734992648D+03
 0.165342023910260D+03 0.000000000000000D+00 0.000000000000000D+00 -.165342023910260D+03
 0.586497679971445D+02 -.760170747061064D+01 0.211949271414166D+02 0.208034706989044D+02
 0.583976495472755D+02 0.873974347389136D+01 0.169352313924832D+02 0.552005461416826D+02
 0.833182924226649D+02 0.198002227428674D+02 -.278078847749572D+02 -.760040168405870D+02
 0.672500489358234D+02 -.209382587461482D+02 -.103222737589426D+02 -.630682889176124D+02
-.123695929257D-05 0.000000000000D+00 0.000000000000D+00 0.222111250242D-05 0.000000000000D+00  6 22 -4 9900012 11 -3 21 2 0.21131405D+00 0.18940536D-02 0.43148415D+04 0.43148415D+04 0.43148415D+04 0.12491185D+01  1  2 13  1  6  2       -4 -.186453051206D-04 0.100000000000D+01
0.540270734088D-06 0.000000000000D+00 0.000000000000D+00 0.222111250242D-05 0.210249944851D-07  6 22 -4 9900012 11 -3 21 2 0.21720354D+00 0.18426962D-02 0.43148415D+04 0.43148415D+04 0.43148415D+04 0.12491185D+01  1  2  1  1  6  2       -4 0.789849057894D-05 0.100000000000D+01
  </mgrwgt>
  </event>
  <event>
  6     66 0.14151431E-05 0.14579699E+03 0.78161638E-02 0.92378276E-01
       22 -1    0    0    0    0 0.00000000E+00 0.00000000E+00 0.26578809E+03 0.26578809E+03 0.00000000E+00 0.0000E+00 0.9000E+01
       -2 -1    0    0    0  501 0.00000000E+00 0.00000000E+00 -.13326899E+04 0.13326899E+04 0.00000000E+00 0.0000E+00 0.9000E+01
      -24  2    1    2    0    0 0.10145723E+03 -.10470527E+03 0.23531045E+03 0.28812935E+03 0.79942199E+02 0.0000E+00 0.0000E+00
  9900012  1    3    3    0    0 0.81023380E+02 -.53740560E+02 0.13444313E+03 0.17328529E+03 0.50000000E+02 0.0000E+00 0.9000E+01
       11  1    3    3    0    0 0.20433849E+02 -.50964711E+02 0.10086731E+03 0.11484406E+03 0.00000000E+00 0.0000E+00 0.9000E+01
       -1  1    1    2    0  501 -.10145723E+03 0.10470527E+03 -.13022123E+04 0.13103486E+04 0.00000000E+00 0.0000E+00 0.9000E+01
#aMCatNLO 1  0  0  2  5 0.15416095D+02 0.00000000D+00  -5  6  0 0.00000000D+00 0.00000000D+00 0.00000000D+00 0.00000000D+00 0.00000000D+00
  <mgrwgt>
 0.6995164653D-04    5    4    0
 0.595158043212320D+03 0.000000000000000D+00 0.000000000000000D+00 0.595158043212320D+03
 0.595158043212320D+03 0.000000000000000D+00 0.000000000000000D+00 -.595158043212320D+03
 0.353208994424957D+03 0.810233800877464D+02 -.537405602998194D+02 0.335862706772436D+03
 0.244633526969598D+03 0.204338490032615D+02 -.509647109817916D+02 0.238391733428488D+03
 0.592473565030085D+03 -.101457229091008D+03 0.104705271281611D+03 -.574254440200924D+03
 0.000000000000000D+00 0.000000000000000D+00 0.000000000000000D+00 -.000000000000000D+00
 0.822620759000190D+03 0.000000000000000D+00 0.000000000000000D+00 0.822620759000190D+03
 0.109095100866983D+04 0.000000000000000D+00 0.000000000000000D+00 -.109095100866983D+04
 0.400138461905097D+03 0.307048697548323D+02 -.209437918889125D+03 0.335862706772436D+03
 0.288102070453249D+03 -.151492825761838D+02 -.161067326512351D+03 0.238391733428488D+03
 0.619943528810510D+03 -.182438483559453D+03 -.145869861657844D+03 -.574254440200924D+03
 0.605387706501167D+03 0.166882896380804D+03 0.516375107059320D+03 -.268330249669642D+03
 0.595158043212320D+03 0.000000000000000D+00 0.000000000000000D+00 0.595158043212320D+03
 0.595158043212320D+03 0.000000000000000D+00 0.000000000000000D+00 -.595158043212320D+03
 0.353208994424957D+03 0.810233800877464D+02 -.537405602998194D+02 0.335862706772436D+03
 0.244633526969598D+03 0.204338490032615D+02 -.509647109817916D+02 0.238391733428488D+03
 0.000000000000000D+00 0.000000000000000D+00 0.000000000000000D+00 -.000000000000000D+00
 0.592473565030085D+03 -.101457229091008D+03 0.104705271281611D+03 -.574254440200924D+03
 0.822620759000190D+03 0.000000000000000D+00 0.000000000000000D+00 0.822620759000190D+03
 0.109095100866983D+04 0.000000000000000D+00 0.000000000000000D+00 -.109095100866983D+04
 0.400138461905097D+03 0.307048697548323D+02 -.209437918889125D+03 0.335862706772436D+03
 0.288102070453249D+03 -.151492825761838D+02 -.161067326512351D+03 0.238391733428488D+03
 0.605387706501167D+03 0.166882896380804D+03 0.516375107059320D+03 -.268330249669642D+03
 0.619943528810510D+03 -.182438483559453D+03 -.145869861657844D+03 -.574254440200924D+03
0.114049774469D-02 0.000000000000D+00 0.000000000000D+00 0.227346988991D-03 0.000000000000D+00  6 22 -2 9900012 11 -1 21 0 0.40890475D-01 0.20502922D+00 0.24030352D+05 0.24030352D+05 0.24030352D+05 0.11717445D+01  1  2  2  1  6  2       -2 0.847420572299D-04 0.100000000000D+01
0.115712798975D-04 0.000000000000D+00 -.218990581978D-05 0.227346988991D-03 0.000000000000D+00  6 22 -2 9900012 11 -1 21 2 0.40890475D-01 0.20502922D+00 0.24030352D+05 0.24030352D+05 0.24030352D+05 0.11717445D+01  1  2  3  1  6  2       -2 0.118046153685D-05 0.100000000000D+01
-.194443444707D-03 0.000000000000D+00 0.000000000000D+00 0.227346988991D-03 0.000000000000D+00  6 22 -2 9900012 11 -1 21 2 0.40890475D-01 0.20502922D+00 0.24030352D+05 0.24030352D+05 0.24030352D+05 0.11717445D+01  1  2 15  1  6  2       -2 -.198364407051D-04 0.100000000000D+01
0.412529131509D-03 0.000000000000D+00 -.265855896085D-03 0.227346988991D-03 0.000000000000D+00  6 22 -2 9900012 11 -1 21 2 0.40890475D-01 0.42706738D+00 0.24030352D+05 0.24030352D+05 0.24030352D+05 0.11717445D+01  1  2  5  1  6  2       -2 0.171362605350D-05 0.100000000000D+01
0.491285879176D-04 0.000000000000D+00 -.210955844400D-04 0.227346988991D-03 0.000000000000D+00  6 22 21 9900012 11 2 -1 2 0.40890475D-01 0.42706738D+00 0.24030352D+05 0.24030352D+05 0.24030352D+05 0.11717445D+01  3  4  5  3  5  2       -2 0.215194241066D-05 0.100000000000D+01
  </mgrwgt>
  </event>
  <event>
  7     66 0.14151431E-05 0.24381112E+02 0.78161638E-02 0.12877863E+00
       22 -1    0    0    0    0 0.00000000E+00 0.00000000E+00 0.85718878E+02 0.85718878E+02 0.00000000E+00 0.0000E+00 0.9000E+01
       21 -1    0    0  502  501 0.00000000E+00 0.00000000E+00 -.10454668E+03 0.10454668E+03 0.00000000E+00 0.0000E+00 0.9000E+01
      -24  2    1    2    0    0 0.24989041E+02 -.13127590E+02 0.61319861E+02 0.10441873E+03 0.79664051E+02 0.0000E+00 0.0000E+00
  9900012  1    3    3    0    0 0.24355269E+02 0.71818015E+01 0.22153676E+02 0.60295462E+02 0.50000000E+02 0.0000E+00 0.9000E+01
       11  1    3    3    0    0 0.63377182E+00 -.20309392E+02 0.39166186E+02 0.44123273E+02 0.00000000E+00 0.0000E+00 0.9000E+01
        4  1    1    2  502    0 -.16841040E+02 0.11051530E+02 -.69021551E+02 0.71900844E+02 0.00000000E+00 0.0000E+00 0.9000E+01
       -3  1    1    2    0  501 -.81480005E+01 0.20760600E+01 -.11126112E+02 0.13945978E+02 0.00000000E+00 0.0000E+00 0.9000E+01
#aMCatNLO 2  0  0  2  2 0.20392848D+02 0.00000000D+00  -5  6  0 0.00000000D+00 0.00000000D+00 0.00000000D+00 0.00000000D+00 0.00000000D+00
  <mgrwgt>
 0.1197816064D-03    1    2    0
 0.526427481626274D+02 0.000000000000000D+00 0.000000000000000D+00 0.526427481626274D+02
 0.526427481626274D+02 0.000000000000000D+00 0.000000000000000D+00 -.526427481626274D+02
 0.540822907660441D+02 0.156140047332629D+02 0.129180474176517D+02 -.377108493777058D+01
 0.286992759860152D+02 -.404891678892395D+01 -.172364894264630D+02 0.225866807479378D+02
 0.000000000000000D+00 -.000000000000000D+00 0.000000000000000D+00 -.000000000000000D+00
 0.225039295731955D+02 -.115650879443390D+02 0.431844200881134D+01 -.188155958101673D+02
 0.545131040645114D+02 0.000000000000000D+00 0.000000000000000D+00 0.545131040645114D+02
 0.164393941060506D+03 0.000000000000000D+00 0.000000000000000D+00 -.164393941060506D+03
 0.562047906155341D+02 0.243552691073687D+02 0.718180153135722D+01 -.377108493777058D+01
 0.303814287837517D+02 0.633771820943352D+00 -.203093919409688D+02 0.225866807479378D+02
 0.111711930011023D+03 -.168410404527430D+02 0.110515304060745D+02 -.109880836995995D+03
 0.206088957147088D+02 -.814800047556898D+01 0.207606000353704D+01 -.188155958101673D+02
0.717406654585D-07 0.000000000000D+00 0.000000000000D+00 0.197177148717D-06 0.666590836035D-08  6 22 21 9900012 11 4 -3 2 0.13187520D-01 0.16084104D-01 0.27535810D+04 0.27535810D+04 0.27535810D+04 0.12721164D+01  1  2  1  3  5  2       -4 0.119781606352D-03 0.100000000000D+01
  </mgrwgt>
  </event>
  <event>
  6     66 0.14151431E-05 0.59278607E+02 0.78161638E-02 0.10809272E+00
       22 -1    0    0    0    0 0.00000000E+00 0.00000000E+00 0.10009646E+03 0.10009646E+03 0.00000000E+00 0.0000E+00 0.9000E+01
       -2 -1    0    0    0  501 0.00000000E+00 0.00000000E+00 -.38606139E+03 0.38606139E+03 0.00000000E+00 0.0000E+00 0.9000E+01
      -24  2    1    2    0    0 0.58573698E+02 0.10571470E+03 0.26512509E+02 0.15112258E+03 0.86767767E+02 0.0000E+00 0.0000E+00
  9900012  1    3    3    0    0 0.32489388E+02 0.28407609E+02 0.25970459E+01 0.66100660E+02 0.50000000E+02 0.0000E+00 0.9000E+01
       11  1    3    3    0    0 0.26084310E+02 0.77307093E+02 0.23915463E+02 0.85021922E+02 0.00000000E+00 0.0000E+00 0.9000E+01
       -1  1    1    2    0  501 -.58573698E+02 -.10571470E+03 -.31247745E+03 0.33503527E+03 0.00000000E+00 0.0000E+00 0.9000E+01
#aMCatNLO 1  0  0  2  5 0.79300069D+02 0.00000000D+00  -5  6  0 0.00000000D+00 0.00000000D+00 0.00000000D+00 0.00000000D+00 0.00000000D+00
  <mgrwgt>
 0.6360893314D-04    9    4    0
 0.196579188941590D+03 0.000000000000000D+00 0.000000000000000D+00 0.196579188941590D+03
 0.196579188941590D+03 0.000000000000000D+00 0.000000000000000D+00 -.196579188941590D+03
 0.836253802137556D+02 0.324893882850077D+02 0.284076091141674D+02 0.512898782332134D+02
 0.122528379379955D+03 0.260843096809183D+02 0.773070931711531D+02 0.914134885417615D+02
 0.187004618289470D+03 -.585736979659261D+02 -.105714702285321D+03 -.142703366774975D+03
 0.000000000000000D+00 -.000000000000000D+00 -.000000000000000D+00 -.000000000000000D+00
 0.220740150624551D+03 0.000000000000000D+00 0.000000000000000D+00 0.220740150624551D+03
 0.248176698682142D+03 0.000000000000000D+00 0.000000000000000D+00 -.248176698682142D+03
 0.917805942031513D+02 0.416027610185305D+02 0.395251330009236D+02 0.512898782332134D+02
 0.136780237108684D+03 0.395569184841866D+02 0.937425067734408D+02 0.914134885417615D+02
 0.169914674576538D+03 -.400296400312622D+02 -.830925608373295D+02 -.142703366774975D+03
 0.704413434183193D+02 -.411300394714549D+02 -.501750789370349D+02 -.274365480575904D+02
 0.196579188941590D+03 0.000000000000000D+00 0.000000000000000D+00 0.196579188941590D+03
 0.196579188941590D+03 0.000000000000000D+00 0.000000000000000D+00 -.196579188941590D+03
 0.836253802137556D+02 0.324893882850077D+02 0.284076091141674D+02 0.512898782332134D+02
 0.122528379379955D+03 0.260843096809183D+02 0.773070931711531D+02 0.914134885417615D+02
 0.000000000000000D+00 -.000000000000000D+00 -.000000000000000D+00 -.000000000000000D+00
 0.187004618289470D+03 -.585736979659261D+02 -.105714702285321D+03 -.142703366774975D+03
 0.220740150624551D+03 0.000000000000000D+00 0.000000000000000D+00 0.220740150624551D+03
 0.248176698682142D+03 0.000000000000000D+00 0.000000000000000D+00 -.248176698682142D+03
 0.917805942031513D+02 0.416027610185305D+02 0.395251330009236D+02 0.512898782332134D+02
 0.136780237108684D+03 0.395569184841866D+02 0.937425067734408D+02 0.914134885417615D+02
 0.704413434183193D+02 -.411300394714549D+02 -.501750789370349D+02 -.274365480575904D+02
 0.169914674576538D+03 -.400296400312622D+02 -.830925608373295D+02 -.142703366774975D+03
0.592006864010D-05 0.000000000000D+00 0.000000000000D+00 0.949224756077D-07 0.000000000000D+00  6 22 -2 9900012 11 -1 21 0 0.15399455D-01 0.59394061D-01 0.18022520D+05 0.18022520D+05 0.18022520D+05 0.11836756D+01  1  2  2  1  6  2       -2 0.426287946326D-04 0.100000000000D+01
-.100663725658D-07 0.000000000000D+00 -.113673111839D-07 0.949224756077D-07 0.000000000000D+00  6 22 -2 9900012 11 -1 21 2 0.15399455D-01 0.59394061D-01 0.18022520D+05 0.18022520D+05 0.18022520D+05 0.11836756D+01  1  2  3  1  6  2       -2 -.101558127511D-06 0.100000000000D+01
-.100099020222D-05 0.000000000000D+00 0.000000000000D+00 0.949224756077D-07 0.000000000000D+00  6 22 -2 9900012 11 -1 21 2 0.15399455D-01 0.59394061D-01 0.18022520D+05 0.18022520D+05 0.18022520D+05 0.11836756D+01  1  2 15  1  6  2       -2 -.100988404641D-04 0.100000000000D+01
0.156329064612D-05 0.000000000000D+00 0.000000000000D+00 0.949224756077D-07 0.000000000000D+00  6 22 -2 9900012 11 -1 21 2 0.15399455D-01 0.84199648D-01 0.28051095D+05 0.28051095D+05 0.28051095D+05 0.11654755D+01  1  2 12  1  6  2       -2 0.748282089287D-05 0.100000000000D+01
-.507911360364D-06 0.000000000000D+00 0.000000000000D+00 0.949224756077D-07 0.000000000000D+00  6 22 -2 9900012 11 -1 21 2 0.15399455D-01 0.59394061D-01 0.18022520D+05 0.18022520D+05 0.18022520D+05 0.11836756D+01  1  2  4  1  6  2       -2 -.512424176264D-05 0.100000000000D+01
-.557996105304D-05 0.000000000000D+00 -.250185288930D-05 0.949224756077D-07 0.000000000000D+00  6 22 -2 9900012 11 -1 21 2 0.15399455D-01 0.82386294D-01 0.18022520D+05 0.18022520D+05 0.18022520D+05 0.11836756D+01  1  2  5  1  6  2       -2 -.283828712662D-04 0.100000000000D+01
0.619235203470D-05 0.000000000000D+00 0.237363509555D-05 0.949224756077D-07 0.000000000000D+00  6 22 -2 9900012 11 -1 21 2 0.15399455D-01 0.59394061D-01 0.18022520D+05 0.18022520D+05 0.18022520D+05 0.11836756D+01  1  2  6  1  6  2       -2 0.624737136859D-04 0.100000000000D+01
0.673923747538D-07 0.000000000000D+00 0.000000000000D+00 0.949224756077D-07 0.000000000000D+00  6 22 21 9900012 11 2 -1 2 0.15399455D-01 0.84199648D-01 0.28051095D+05 0.28051095D+05 0.28051095D+05 0.11654755D+01  3  4 12  3  5  2       -2 0.319545358134D-05 0.100000000000D+01
-.165587825069D-06 0.000000000000D+00 -.102961108027D-06 0.949224756077D-07 0.000000000000D+00  6 22 21 9900012 11 2 -1 2 0.15399455D-01 0.82386294D-01 0.18022520D+05 0.18022520D+05 0.18022520D+05 0.11836756D+01  3  4  5  3  5  2       -2 -.846433803225D-05 0.100000000000D+01
  </mgrwgt>
  </event>
  <event>
  6     66 0.14151431E-05 0.15121443E+02 0.78161638E-02 0.11822520E+00
       22 -1    0    0    0    0 0.00000000E+00 0.00000000E+00 0.21608125E+02 0.21608125E+02 0.00000000E+00 0.0000E+00 0.9000E+01
       -4 -1    0    0    0  501 0.00000000E+00 0.00000000E+00 -.31156619E+03 0.31156619E+03 0.00000000E+00 0.0000E+00 0.9000E+01
      -24  2    1    2    0    0 0.12968817E+02 0.77761065E+01 -.30224988E+03 0.31368723E+03 0.82559232E+02 0.0000E+00 0.0000E+00
  9900012  1    3    3    0    0 0.76722973E+01 0.31520096E+02 -.21339098E+03 0.22155833E+03 0.50000000E+02 0.0000E+00 0.9000E+01
       11  1    3    3    0    0 0.52965194E+01 -.23743990E+02 -.88858900E+02 0.92128900E+02 0.00000000E+00 0.0000E+00 0.9000E+01
       -3  1    1    2    0  501 -.12968817E+02 -.77761065E+01 0.12291814E+02 0.19487091E+02 0.00000000E+00 0.0000E+00 0.9000E+01
#aMCatNLO 1  0  0  2  5 0.14220868D+02 0.00000000D+00  -5  6  0 0.00000000D+00 0.00000000D+00 0.00000000D+00 0.00000000D+00 0.00000000D+00
  <mgrwgt>
 0.4256747652D-04    3    2    0
 0.820509673666383D+02 0.000000000000000D+00 0.000000000000000D+00 0.820509673666383D+02
 0.820509673666383D+02 0.000000000000000D+00 0.000000000000000D+00 -.820509673666383D+02
 0.727785893507044D+02 0.767229731382047D+01 0.315200963583496D+02 -.417653258980121D+02
 0.300400392496044D+02 0.529651935014268D+01 -.237439898916161D+02 -.176231037254558D+02
 0.612833061329679D+02 -.129688166639631D+02 -.777610646673357D+01 0.593884296234678D+02
 0.000000000000000D+00 -.000000000000000D+00 0.000000000000000D+00 0.000000000000000D+00
 0.129262617272773D+03 0.000000000000000D+00 0.000000000000000D+00 0.129262617272773D+03
 0.114076417852744D+03 0.000000000000000D+00 0.000000000000000D+00 -.114076417852744D+03
 0.780323961781237D+02 0.355184129584672D+02 0.241485972024107D+02 -.417653258980121D+02
 0.367539096486039D+02 0.176295202841270D+02 -.270088153033620D+02 -.176231037254558D+02
 0.617425242105137D+02 0.974697878694868D+01 -.137894933652782D+02 0.593884296234678D+02
 0.668102050882762D+02 -.628949120295430D+02 0.166497114662295D+02 0.151861994200291D+02
0.155377661087D-05 0.000000000000D+00 0.000000000000D+00 0.470769899716D-07 0.000000000000D+00  6 22 -4 9900012 11 -3 21 0 0.33243269D-02 0.47933261D-01 0.24527679D+04 0.24527679D+04 0.24527679D+04 0.12782557D+01  1  2  2  1  6  2       -4 0.586968313123D-04 0.100000000000D+01
-.905978568092D-07 0.000000000000D+00 -.298345565227D-08 0.470769899716D-07 0.000000000000D+00  6 22 -4 9900012 11 -3 21 2 0.33243269D-02 0.47933261D-01 0.24527679D+04 0.24527679D+04 0.24527679D+04 0.12782557D+01  1  2  3  1  6  2       -4 -.559215861896D-05 0.100000000000D+01
-.170711786809D-06 0.000000000000D+00 0.000000000000D+00 0.470769899716D-07 0.000000000000D+00  6 22 -4 9900012 11 -3 21 2 0.33243269D-02 0.47933261D-01 0.24527679D+04 0.24527679D+04 0.24527679D+04 0.12782557D+01  1  2 15  1  6  2       -4 -.105371961720D-04 0.100000000000D+01
  </mgrwgt>
  </event>
  <event>
  6     66 0.14151431E-05 0.34678571E+02 0.78161638E-02 0.12334044E+00
       22 -1    0    0    0    0 0.00000000E+00 0.00000000E+00 0.66959625E+03 0.66959625E+03 0.00000000E+00 0.0000E+00 0.9000E+01
       -4 -1    0    0    0  501 0.00000000E+00 0.00000000E+00 -.36389555E+02 0.36389555E+02 0.00000000E+00 0.0000E+00 0.9000E+01
      -24  2    1    2    0    0 0.41318782E+01 0.52953198E+02 0.64458567E+03 0.65166643E+03 0.79732856E+02 0.0000E+00 0.0000E+00
  9900012  1    3    3    0    0 -.57792485E+01 0.39643567E+02 0.60945608E+03 0.61281459E+03 0.50000000E+02 0.0000E+00 0.9000E+01
       11  1    3    3    0    0 0.99111267E+01 0.13309631E+02 0.35129597E+02 0.38851838E+02 0.00000000E+00 0.0000E+00 0.9000E+01
       -3  1    1    2    0  501 -.41318782E+01 -.52953198E+02 -.11378979E+02 0.54319377E+02 0.00000000E+00 0.0000E+00 0.9000E+01
#aMCatNLO 1  0  0  5  2 0.96655862D+01 0.00000000D+00  -5  6  0 0.00000000D+00 0.00000000D+00 0.00000000D+00 0.00000000D+00 0.00000000D+00
  <mgrwgt>
 0.1081662763D-03    8    2    0
 0.156097115604079D+03 0.000000000000000D+00 0.000000000000000D+00 0.156097115604079D+03
 0.156097115604079D+03 -.000000000000000D+00 -.000000000000000D+00 -.156097115604079D+03
 0.149671994741200D+03 -.577924846394303D+01 0.396435668182052D+02 0.135265272361136D+03
 0.166068086424613D+02 0.991112670146805D+01 0.133096307408174D+02 0.639836180490452D+00
 0.145915427824497D+03 -.413187823752503D+01 -.529531975590226D+02 -.135905108541627D+03
 0.000000000000000D+00 0.000000000000000D+00 -.000000000000000D+00 0.000000000000000D+00
 0.156097115604079D+03 0.000000000000000D+00 0.000000000000000D+00 0.156097115604079D+03
 0.156097115604079D+03 -.000000000000000D+00 -.000000000000000D+00 -.156097115604079D+03
 0.149017208419442D+03 -.579904752598780D+01 0.393898266100793D+02 0.134614044633325D+03
 0.165802731041375D+02 0.990892684595392D+01 0.132814379004322D+02 0.567478868576133D+00
 0.988548063678221D+02 -.122586330908191D+02 -.338985533882026D+02 -.920482848017900D+02
 0.477419433167565D+02 0.814875377085299D+01 -.187727111223089D+02 -.431332387001109D+02
0.118790012648D-05 0.000000000000D+00 0.000000000000D+00 0.927230768494D-05 0.000000000000D+00  6 22 -4 9900012 11 -3 21 0 0.10301481D+00 0.55983931D-02 0.44742054D+04 0.44742054D+04 0.44742054D+04 0.12473171D+01  1  2  2  2  6  5       -3 0.110824425203D-04 0.100000000000D+01
0.218076397115D-07 0.000000000000D+00 -.228092463349D-08 0.927230768494D-05 0.000000000000D+00  6 22 -4 9900012 11 -3 21 2 0.10301481D+00 0.55983931D-02 0.44742054D+04 0.44742054D+04 0.44742054D+04 0.12473171D+01  1  2  3  2  6  5       -3 0.316532247890D-06 0.100000000000D+01
-.183195257097D-06 0.000000000000D+00 0.000000000000D+00 0.927230768494D-05 0.000000000000D+00  6 22 -4 9900012 11 -3 21 2 0.10301481D+00 0.55983931D-02 0.44742054D+04 0.44742054D+04 0.44742054D+04 0.12473171D+01  1  2 15  2  6  5       -3 -.265903175671D-05 0.100000000000D+01
0.922124336303D-05 0.000000000000D+00 0.000000000000D+00 0.927230768494D-05 0.000000000000D+00  6 22 -4 9900012 11 -3 21 2 0.10301481D+00 0.55983931D-02 0.46921159D+04 0.46921159D+04 0.46921159D+04 0.12449665D+01  1  2 12  2  6  5       -3 0.134141637231D-03 0.100000000000D+01
-.583723599575D-05 0.000000000000D+00 0.000000000000D+00 0.927230768494D-05 0.000000000000D+00  6 22 -4 9900012 11 -3 21 2 0.10301481D+00 0.55983931D-02 0.44742054D+04 0.44742054D+04 0.44742054D+04 0.12473171D+01  1  2  4  2  6  5       -3 -.847259701483D-04 0.100000000000D+01
-.914480967299D-05 0.000000000000D+00 0.000000000000D+00 0.927230768494D-05 0.000000000000D+00  6 22 -4 9900012 11 -3 21 2 0.10301481D+00 0.55983931D-02 0.44742054D+04 0.44742054D+04 0.44742054D+04 0.12473171D+01  1  2  5  2  6  5       -3 -.132734546270D-03 0.100000000000D+01
0.125903083798D-04 0.000000000000D+00 -.000000000000D+00 0.927230768494D-05 0.000000000000D+00  6 22 -4 9900012 11 -3 21 2 0.10301481D+00 0.55983931D-02 0.44742054D+04 0.44742054D+04 0.44742054D+04 0.12473171D+01  1  2  6  2  6  5       -3 0.182745068509D-03 0.100000000000D+01
0.989943511566D-11 0.000000000000D+00 0.000000000000D+00 0.927230768494D-05 0.281654865724D-06  6 22 -4 9900012 11 -3 21 2 0.10301481D+00 0.55983931D-02 0.46921159D+04 0.46921159D+04 0.46921159D+04 0.12449665D+01  1  2 11  2  6  5       -3 0.144007308103D-09 0.100000000000D+01
  </mgrwgt>
  </event>
  <event>
  6     66 0.14151431E-05 0.51906722E+02 0.78161638E-02 0.11782010E+00
       22 -1    0    0    0    0 0.00000000E+00 0.00000000E+00 0.22840522E+03 0.22840522E+03 0.00000000E+00 0.0000E+00 0.9000E+01
       -2 -1    0    0    0  501 0.00000000E+00 0.00000000E+00 -.50902034E+02 0.50902034E+02 0.00000000E+00 0.0000E+00 0.9000E+01
      -24  2    1    2    0    0 -.42197149E+02 -.32185956E+02 0.19979486E+03 0.22174464E+03 0.80225714E+02 0.0000E+00 0.0000E+00
  9900012  1    3    3    0    0 -.36055429E+02 -.17307338E+01 0.10261991E+03 0.11972400E+03 0.50000000E+02 0.0000E+00 0.9000E+01
       11  1    3    3    0    0 -.61417203E+01 -.30455222E+02 0.97174950E+02 0.10202065E+03 0.00000000E+00 0.0000E+00 0.9000E+01
       -1  1    1    2    0  501 0.42197149E+02 0.32185956E+02 -.22291676E+02 0.57562609E+02 0.00000000E+00 0.0000E+00 0.9000E+01
#aMCatNLO 1  0  0  2  5 0.36073699D+02 0.00000000D+00  -5  6  0 0.00000000D+00 0.00000000D+00 0.00000000D+00 0.00000000D+00 0.00000000D+00
  <mgrwgt>
 0.4673297327D-04    9    4    0
 0.107825276225913D+03 0.000000000000000D+00 0.000000000000000D+00 0.107825276225913D+03
 0.107825276225913D+03 0.000000000000000D+00 0.000000000000000D+00 -.107825276225913D+03
 0.705976387067528D+02 -.360554291977877D+02 -.173073379334271D+01 0.343662214517266D+02
 0.521503100322847D+02 -.614172026944779D+01 -.304552222444295D+02 0.418857200802096D+02
 0.929026037127885D+02 0.421971494672355D+02 0.321859560377722D+02 -.762519415319361D+02
 0.000000000000000D+00 -.000000000000000D+00 -.000000000000000D+00 -.000000000000000D+00
 0.115750526999521D+03 0.000000000000000D+00 0.000000000000000D+00 0.115750526999521D+03
 0.149063779197288D+03 0.000000000000000D+00 0.000000000000000D+00 -.149063779197288D+03
 0.662532783766643D+02 -.265231223494221D+02 0.223242012718293D+01 0.343662214517266D+02
 0.501126870732486D+02 0.981376078158565D+00 -.274937221935643D+02 0.418857200802096D+02
 0.101752924020937D+03 0.557558179777094D+02 0.378231109383833D+02 -.762519415319361D+02
 0.466954167259593D+02 -.302140717064459D+02 -.125618088720019D+02 -.333132521977672D+02
 0.107825276225913D+03 0.000000000000000D+00 0.000000000000000D+00 0.107825276225913D+03
 0.107825276225913D+03 0.000000000000000D+00 0.000000000000000D+00 -.107825276225913D+03
 0.705976387067528D+02 -.360554291977877D+02 -.173073379334271D+01 0.343662214517266D+02
 0.521503100322847D+02 -.614172026944779D+01 -.304552222444295D+02 0.418857200802096D+02
 0.000000000000000D+00 -.000000000000000D+00 -.000000000000000D+00 -.000000000000000D+00
 0.929026037127885D+02 0.421971494672355D+02 0.321859560377722D+02 -.762519415319361D+02
 0.115750526999521D+03 0.000000000000000D+00 0.000000000000000D+00 0.115750526999521D+03
 0.149063779197288D+03 0.000000000000000D+00 0.000000000000000D+00 -.149063779197288D+03
 0.662532783766643D+02 -.265231223494221D+02 0.223242012718293D+01 0.343662214517266D+02
 0.501126870732486D+02 0.981376078158565D+00 -.274937221935643D+02 0.418857200802096D+02
 0.466954167259593D+02 -.302140717064459D+02 -.125618088720019D+02 -.333132521977672D+02
 0.101752924020937D+03 0.557558179777094D+02 0.378231109383833D+02 -.762519415319361D+02
0.423797246678D-06 0.000000000000D+00 0.000000000000D+00 0.156971301150D-05 0.000000000000D+00  6 22 -2 9900012 11 -1 21 0 0.35139264D-01 0.78310821D-02 0.53149753D+04 0.53149753D+04 0.53149753D+04 0.12388695D+01  1  2  2  1  6  2       -2 0.231759401979D-04 0.100000000000D+01
0.616925349999D-08 0.000000000000D+00 -.813746507811D-09 0.156971301150D-05 0.000000000000D+00  6 22 -2 9900012 11 -1 21 2 0.35139264D-01 0.78310821D-02 0.53149753D+04 0.53149753D+04 0.53149753D+04 0.12388695D+01  1  2  3  1  6  2       -2 0.517801088033D-06 0.100000000000D+01
-.645905879809D-07 0.000000000000D+00 0.000000000000D+00 0.156971301150D-05 0.000000000000D+00  6 22 -2 9900012 11 -1 21 2 0.35139264D-01 0.78310821D-02 0.53149753D+04 0.53149753D+04 0.53149753D+04 0.12388695D+01  1  2 15  1  6  2       -2 -.542125181486D-05 0.100000000000D+01
0.313330386844D-06 0.000000000000D+00 0.000000000000D+00 0.156971301150D-05 0.000000000000D+00  6 22 -2 9900012 11 -1 21 2 0.35139264D-01 0.11621862D-01 0.84870346D+04 0.84870346D+04 0.84870346D+04 0.12167872D+01  1  2 12  1  6  2       -2 0.145922054699D-04 0.100000000000D+01
-.667017204634D-07 0.000000000000D+00 0.000000000000D+00 0.156971301150D-05 0.000000000000D+00  6 22 -2 9900012 11 -1 21 2 0.35139264D-01 0.78310821D-02 0.53149753D+04 0.53149753D+04 0.53149753D+04 0.12388695D+01  1  2  4  1  6  2       -2 -.559844451677D-05 0.100000000000D+01
-.522479701073D-06 0.000000000000D+00 -.166492549488D-06 0.156971301150D-05 0.000000000000D+00  6 22 -2 9900012 11 -1 21 2 0.35139264D-01 0.11579549D-01 0.53149753D+04 0.53149753D+04 0.53149753D+04 0.12388695D+01  1  2  5  1  6  2       -2 -.243487928394D-04 0.100000000000D+01
0.556461088187D-06 0.000000000000D+00 0.154520974338D-06 0.156971301150D-05 0.000000000000D+00  6 22 -2 9900012 11 -1 21 2 0.35139264D-01 0.78310821D-02 0.53149753D+04 0.53149753D+04 0.53149753D+04 0.12388695D+01  1  2  6  1  6  2       -2 0.467051900058D-04 0.100000000000D+01
0.147717386338D-07 0.000000000000D+00 0.000000000000D+00 0.156971301150D-05 0.000000000000D+00  6 22 21 9900012 11 2 -1 2 0.35139264D-01 0.11621862D-01 0.84870346D+04 0.84870346D+04 0.84870346D+04 0.12167872D+01  3  4 12  3  5  2       -2 0.990690254056D-05 0.100000000000D+01
-.189536828113D-07 0.000000000000D+00 -.779606186328D-08 0.156971301150D-05 0.000000000000D+00  6 22 21 9900012 11 2 -1 2 0.35139264D-01 0.11579549D-01 0.53149753D+04 0.53149753D+04 0.53149753D+04 0.12388695D+01  3  4  5  3  5  2       -2 -.127965768619D-04 0.100000000000D+01
  </mgrwgt>
  </event>
  <event>
  6     66 0.14151431E-05 0.38425399E+02 0.78161638E-02 0.12522761E+00
       22 -1    0    0    0    0 0.00000000E+00 0.00000000E+00 0.83935374E+02 0.83935374E+02 0.00000000E+00 0.0000E+00 0.9000E+01
       -4 -1    0    0    0  501 -.00000000E+00 -.00000000E+00 -.14975176E+03 0.14975176E+03 0.00000000E+00 0.0000E+00 0.9000E+01
      -24  2    1    2    0    0 -.42217851E+01 -.39434620E+02 0.55834662E+02 0.10573445E+03 0.80556508E+02 0.0000E+00 0.0000E+00
  9900012  1    3    3    0    0 0.23909003E+01 -.50915167E+02 0.31528616E+02 0.78052061E+02 0.50000000E+02 0.0000E+00 0.9000E+01
       11  1    3    3    0    0 -.66126854E+01 0.11480547E+02 0.24306046E+02 0.27682386E+02 0.00000000E+00 0.0000E+00 0.9000E+01
       -3  1    1    2    0  501 0.42217851E+01 0.39434620E+02 -.12165105E+03 0.12795269E+03 0.00000000E+00 0.0000E+00 0.9000E+01
#aMCatNLO 1  0  0  5  2 0.59595451D+01 0.00000000D+00  -5  6  0 0.00000000D+00 0.00000000D+00 0.00000000D+00 0.00000000D+00 0.00000000D+00
  <mgrwgt>
 0.5194946448D-04    8    2    0
 0.112113647536003D+03 0.000000000000000D+00 0.000000000000000D+00 0.112113647536003D+03
 0.112113647536003D+03 -.000000000000000D+00 -.000000000000000D+00 -.112113647536003D+03
 0.905994160923055D+02 0.239090027687709D+01 -.509151673737745D+02 0.557690193874095D+02
 0.359847066924263D+02 -.661268539790027D+01 0.114805474205576D+02 0.334569654704768D+02
 0.976431722872752D+02 0.422178512102318D+01 0.394346199532170D+02 -.892259848578863D+02
 0.000000000000000D+00 0.000000000000000D+00 0.000000000000000D+00 0.000000000000000D+00
 0.112113647536003D+03 0.000000000000000D+00 0.000000000000000D+00 0.112113647536003D+03
 0.112113647536003D+03 -.000000000000000D+00 -.000000000000000D+00 -.112113647536003D+03
 0.903547878638632D+02 0.240432851141713D+01 -.507897376537511D+02 0.554852182423035D+02
 0.358949075898548D+02 -.660735136145277D+01 0.115303712969733D+02 0.333442324341776D+02
 0.602399192862893D+02 0.515201972229563D+01 0.192461662280812D+02 -.568497111155439D+02
 0.377376803319997D+02 -.948996872259980D+00 0.200132001286966D+02 -.319797395609372D+02
0.186100311730D-06 0.000000000000D+00 0.000000000000D+00 0.205409784719D-05 0.000000000000D+00  6 22 -4 9900012 11 -3 21 0 0.12913135D-01 0.23038732D-01 0.38632151D+04 0.38632151D+04 0.38632151D+04 0.12546582D+01  1  2  2  2  6  5       -3 0.471650986586D-05 0.100000000000D+01
0.683923124102D-08 0.000000000000D+00 -.357337099191D-09 0.205409784719D-05 0.000000000000D+00  6 22 -4 9900012 11 -3 21 2 0.12913135D-01 0.23038732D-01 0.38632151D+04 0.38632151D+04 0.38632151D+04 0.12546582D+01  1  2  3  2  6  5       -3 0.272854938908D-06 0.100000000000D+01
-.329602813725D-07 0.000000000000D+00 0.000000000000D+00 0.205409784719D-05 0.000000000000D+00  6 22 -4 9900012 11 -3 21 2 0.12913135D-01 0.23038732D-01 0.38632151D+04 0.38632151D+04 0.38632151D+04 0.12546582D+01  1  2 15  2  6  5       -3 -.131496877987D-05 0.100000000000D+01
0.121597261463D-05 0.000000000000D+00 0.000000000000D+00 0.205409784719D-05 0.000000000000D+00  6 22 -4 9900012 11 -3 21 2 0.12913135D-01 0.23038732D-01 0.38788405D+04 0.38788405D+04 0.38788405D+04 0.12544547D+01  1  2 12  2  6  5       -3 0.485199170425D-04 0.100000000000D+01
-.911687643670D-06 0.000000000000D+00 0.000000000000D+00 0.205409784719D-05 0.000000000000D+00  6 22 -4 9900012 11 -3 21 2 0.12913135D-01 0.23038732D-01 0.38632151D+04 0.38632151D+04 0.38632151D+04 0.12546582D+01  1  2  4  2  6  5       -3 -.363722862337D-04 0.100000000000D+01
-.157011837767D-05 0.000000000000D+00 0.000000000000D+00 0.205409784719D-05 0.000000000000D+00  6 22 -4 9900012 11 -3 21 2 0.12913135D-01 0.23038732D-01 0.38632151D+04 0.38632151D+04 0.38632151D+04 0.12546582D+01  1  2  5  2  6  5       -3 -.626407470253D-04 0.100000000000D+01
0.228148572279D-05 0.000000000000D+00 -.000000000000D+00 0.205409784719D-05 0.000000000000D+00  6 22 -4 9900012 11 -3 21 2 0.12913135D-01 0.23038732D-01 0.38632151D+04 0.38632151D+04 0.38632151D+04 0.12546582D+01  1  2  6  2  6  5       -3 0.910211433966D-04 0.100000000000D+01
0.194150992178D-06 0.000000000000D+00 0.000000000000D+00 0.205409784719D-05 0.113392683969D-06  6 22 -4 9900012 11 -3 21 2 0.12913135D-01 0.23038732D-01 0.38788405D+04 0.38788405D+04 0.38788405D+04 0.12544547D+01  1  2 11  2  6  5       -3 0.774704127446D-05 0.100000000000D+01
  </mgrwgt>
  </event>
  <event>
  6     66 0.14151431E-05 0.40950368E+02 0.78161638E-02 0.12528789E+00
       22 -1    0    0    0    0 0.00000000E+00 0.00000000E+00 0.66352702E+01 0.66352702E+01 0.00000000E+00 0.0000E+00 0.9000E+01
       -2 -1    0    0    0  501 0.00000000E+00 0.00000000E+00 -.73144096E+03 0.73144096E+03 0.00000000E+00 0.0000E+00 0.9000E+01
      -24  2    1    2    0    0 0.83197635E+01 0.40096311E+02 -.57440055E+03 0.58219602E+03 0.85669631E+02 0.0000E+00 0.0000E+00
  9900012  1    3    3    0    0 0.12183249E+02 0.21652810E+02 -.54078143E+03 0.54365599E+03 0.50000000E+02 0.0000E+00 0.9000E+01
       11  1    3    3    0    0 -.38634859E+01 0.18443501E+02 -.33619114E+02 0.38540033E+02 0.00000000E+00 0.0000E+00 0.9000E+01
       -1  1    1    2    0  501 -.83197635E+01 -.40096311E+02 -.15040514E+03 0.15588021E+03 0.00000000E+00 0.0000E+00 0.9000E+01
#aMCatNLO 1  0  0  2  2 0.70961737D+02 0.00000000D+00  -5  6  0 0.00000000D+00 0.00000000D+00 0.00000000D+00 0.00000000D+00 0.00000000D+00
  <mgrwgt>
 0.1583678335D-03    4    2    0
 0.696656902539695D+02 0.000000000000000D+00 0.000000000000000D+00 0.696656902539695D+02
 0.696656902539695D+02 0.000000000000000D+00 0.000000000000000D+00 -.696656902539695D+02
 0.667337325112585D+02 0.121832493629783D+02 0.216528101277385D+02 -.365529110115158D+02
 0.292694766110133D+02 -.386348586816664D+01 0.184435012360595D+02 0.223967185137600D+02
 0.433281713856672D+02 -.831976349481167D+01 -.400963113637980D+02 0.141561924977558D+02
 0.000000000000000D+00 0.000000000000000D+00 -.000000000000000D+00 0.000000000000000D+00
 0.114936929802023D+03 0.000000000000000D+00 0.000000000000000D+00 0.114936929802023D+03
 0.700988562547512D+02 0.000000000000000D+00 0.000000000000000D+00 -.700988562547512D+02
 0.679520798204383D+02 0.117897471420700D+02 0.253450529854146D+02 -.365529110115158D+02
 0.303485756130941D+02 -.403766780723115D+01 0.200778554690867D+02 0.223967185137600D+02
 0.412426836604008D+02 -.856684831175427D+01 -.377779072935726D+02 0.141561924977558D+02
 0.454924469628413D+02 0.814768976915424D+00 -.764500116092873D+01 0.448380735472722D+02
0.343067607873D-05 0.000000000000D+00 0.000000000000D+00 0.616320408920D-08 0.000000000000D+00  6 22 -2 9900012 11 -1 21 0 0.10208108D-02 0.11252938D+00 0.33423863D+04 0.33423863D+04 0.33423863D+04 0.12620305D+01  1  2  2  1  6  2       -2 0.227146357183D-03 0.100000000000D+01
-.164917805324D-06 0.000000000000D+00 -.658734973004D-08 0.616320408920D-08 0.000000000000D+00  6 22 -2 9900012 11 -1 21 2 0.10208108D-02 0.11252938D+00 0.33423863D+04 0.33423863D+04 0.33423863D+04 0.12620305D+01  1  2  3  1  6  2       -2 -.173913494765D-04 0.100000000000D+01
-.407234119465D-06 0.000000000000D+00 0.000000000000D+00 0.616320408920D-08 0.000000000000D+00  6 22 -2 9900012 11 -1 21 2 0.10208108D-02 0.11252938D+00 0.33423863D+04 0.33423863D+04 0.33423863D+04 0.12620305D+01  1  2 15  1  6  2       -2 -.429447316283D-04 0.100000000000D+01
-.800575652458D-07 0.000000000000D+00 0.000000000000D+00 0.616320408920D-08 0.000000000000D+00  6 22 -2 9900012 11 -1 21 2 0.10208108D-02 0.11252938D+00 0.33423863D+04 0.33423863D+04 0.33423863D+04 0.12620305D+01  1  2  4  1  6  2       -2 -.844244254095D-05 0.100000000000D+01
  </mgrwgt>
  </event>
  <event>
  6     66 0.14151431E-05 0.93414668E+02 0.78161638E-02 0.10807004E+00
       22 -1    0    0    0    0 0.00000000E+00 0.00000000E+00 0.12085646E+04 0.12085646E+04 0.00000000E+00 0.0000E+00 0.9000E+01
       -4 -1    0    0    0  501 0.00000000E+00 0.00000000E+00 -.57080243E+02 0.57080243E+02 0.00000000E+00 0.0000E+00 0.9000E+01
      -24  2    1    2    0    0 0.14333184E+03 -.57370493E+02 0.10828959E+04 0.10967077E+04 0.79175903E+02 0.0000E+00 0.0000E+00
  9900012  1    3    3    0    0 0.10424341E+03 -.16247310E+02 0.73628404E+03 0.74548297E+03 0.50000000E+02 0.0000E+00 0.9000E+01
       11  1    3    3    0    0 0.39088429E+02 -.41123183E+02 0.34661185E+03 0.35122471E+03 0.00000000E+00 0.0000E+00 0.9000E+01
       -3  1    1    2    0  501 -.14333184E+03 0.57370493E+02 0.68588470E+02 0.16893717E+03 0.00000000E+00 0.0000E+00 0.9000E+01
#aMCatNLO 1  0  0  5  2 0.12821181D+02 0.00000000D+00  -5  6  0 0.00000000D+00 0.00000000D+00 0.00000000D+00 0.00000000D+00 0.00000000D+00
  <mgrwgt>
 0.1651181509D-04    7    2    0
 0.262650265503051D+03 0.000000000000000D+00 0.000000000000000D+00 0.262650265503051D+03
 0.262650265503051D+03 -.000000000000000D+00 -.000000000000000D+00 -.262650265503051D+03
 0.182175938138426D+03 0.104243411586999D+03 -.162473102526194D+02 0.139847804726689D+03
 0.864412199018862D+02 0.390884290823273D+02 -.411231832272077D+02 0.652155120447860D+02
 0.256683372965789D+03 -.143331840669327D+03 0.573704934798270D+02 -.205063316771475D+03
 0.000000000000000D+00 0.000000000000000D+00 0.000000000000000D+00 -.000000000000000D+00
 0.262650265503051D+03 0.000000000000000D+00 0.000000000000000D+00 0.262650265503051D+03
 0.262650265503051D+03 -.000000000000000D+00 -.000000000000000D+00 -.262650265503051D+03
 0.179568340699411D+03 0.102713958604833D+03 -.156351261633668D+02 0.137659632859891D+03
 0.851923714228321D+02 0.383627631258821D+02 -.408327256859638D+02 0.641773095965239D+02
 0.249501417339533D+03 -.147021992066109D+03 0.498245965545075D+02 -.195327931135127D+03
 0.110384015443253D+02 0.594527033539389D+01 0.664325529482299D+01 -.650901132128791D+01
0.360431883701D-05 0.000000000000D+00 0.000000000000D+00 0.318390768069D-05 0.000000000000D+00  6 22 -4 9900012 11 -3 21 0 0.18593302D+00 0.87815759D-02 0.26875340D+05 0.26875340D+05 0.26875340D+05 0.11671998D+01  1  2  2  2  6  5       -3 0.556649074919D-05 0.100000000000D+01
-.552044844599D-08 0.000000000000D+00 -.692076668653D-08 0.318390768069D-05 0.000000000000D+00  6 22 -4 9900012 11 -3 21 2 0.18593302D+00 0.87815759D-02 0.26875340D+05 0.26875340D+05 0.26875340D+05 0.11671998D+01  1  2  3  2  6  5       -3 -.116151036973D-07 0.100000000000D+01
-.610788964631D-06 0.000000000000D+00 0.000000000000D+00 0.318390768069D-05 0.000000000000D+00  6 22 -4 9900012 11 -3 21 2 0.18593302D+00 0.87815759D-02 0.26875340D+05 0.26875340D+05 0.26875340D+05 0.11671998D+01  1  2 15  2  6  5       -3 -.128510885135D-05 0.100000000000D+01
0.597291180672D-05 0.000000000000D+00 0.000000000000D+00 0.318390768069D-05 0.000000000000D+00  6 22 -4 9900012 11 -3 21 2 0.18593302D+00 0.87815759D-02 0.28136614D+05 0.28136614D+05 0.28136614D+05 0.11653532D+01  1  2 12  2  6  5       -3 0.125756285417D-04 0.100000000000D+01
-.907924319577D-06 0.000000000000D+00 0.000000000000D+00 0.318390768069D-05 0.000000000000D+00  6 22 -4 9900012 11 -3 21 2 0.18593302D+00 0.87815759D-02 0.26875340D+05 0.26875340D+05 0.26875340D+05 0.11671998D+01  1  2  4  2  6  5       -3 -.191028595309D-05 0.100000000000D+01
-.170593730943D-04 0.000000000000D+00 0.000000000000D+00 0.318390768069D-05 0.000000000000D+00  6 22 -4 9900012 11 -3 21 2 0.18593302D+00 0.87815759D-02 0.26875340D+05 0.26875340D+05 0.26875340D+05 0.11671998D+01  1  2  5  2  6  5       -3 -.358931687235D-04 0.100000000000D+01
0.178087527640D-04 0.000000000000D+00 -.000000000000D+00 0.318390768069D-05 0.000000000000D+00  6 22 -4 9900012 11 -3 21 2 0.18593302D+00 0.87815759D-02 0.26875340D+05 0.26875340D+05 0.26875340D+05 0.11671998D+01  1  2  6  2  6  5       -3 0.374698744308D-04 0.100000000000D+01
  </mgrwgt>
  </event>
  <event>
  6     66 0.14151431E-05 0.33253933E+02 0.78161638E-02 0.12599630E+00
       22 -1    0    0    0    0 0.00000000E+00 0.00000000E+00 0.11495114E+04 0.11495114E+04 0.00000000E+00 0.0000E+00 0.9000E+01
       -2 -1    0    0    0  501 0.00000000E+00 0.00000000E+00 -.32913021E+02 0.32913021E+02 0.00000000E+00 0.0000E+00 0.9000E+01
      -24  2    1    2    0    0 -.33181549E+02 0.21929100E+01 0.11390503E+04 0.11423007E+04 0.79431383E+02 0.0000E+00 0.0000E+00
  9900012  1    3    3    0    0 -.35376716E+02 -.17922126E+02 0.95796272E+03 0.96008608E+03 0.50000000E+02 0.0000E+00 0.9000E+01
       11  1    3    3    0    0 0.21951676E+01 0.20115036E+02 0.18108761E+03 0.18221459E+03 0.00000000E+00 0.0000E+00 0.9000E+01
       -1  1    1    2    0  501 0.33181549E+02 -.21929100E+01 -.22451961E+02 0.40123741E+02 0.00000000E+00 0.0000E+00 0.9000E+01
#aMCatNLO 1  0  0  5  2 0.89946886D+01 0.00000000D+00  -5  6  0 0.00000000D+00 0.00000000D+00 0.00000000D+00 0.00000000D+00 0.00000000D+00
  <mgrwgt>
 0.1393148013D-03    8    2    0
 0.194509364180720D+03 0.000000000000000D+00 0.000000000000000D+00 0.194509364180720D+03
 0.194509364180720D+03 -.000000000000000D+00 -.000000000000000D+00 -.194509364180720D+03
 0.168551296882087D+03 -.353767163274829D+02 -.179221258037521D+02 0.156002644301924D+03
 0.340673743064564D+02 0.219516761710990D+01 0.201150358425135D+02 0.274071626463484D+02
 0.186400057172897D+03 0.331815487103731D+02 -.219291003876139D+01 -.183409806948272D+03
 0.000000000000000D+00 0.000000000000000D+00 0.000000000000000D+00 0.000000000000000D+00
 0.194509364180720D+03 0.000000000000000D+00 0.000000000000000D+00 0.194509364180720D+03
 0.194509364180720D+03 -.000000000000000D+00 -.000000000000000D+00 -.194509364180720D+03
 0.167318831163031D+03 -.351448990687067D+02 -.179374461975760D+02 0.154721282812425D+03
 0.338604712020629D+02 0.224205135467838D+01 0.201119373789769D+02 0.271480144874874D+02
 0.173114996192162D+03 0.246162390356889D+02 -.797695690989213D+01 -.171170122512101D+03
 0.147244298041848D+02 0.828660867833949D+01 0.580246572849124D+01 -.106991747878105D+02
0.206840746096D-05 0.000000000000D+00 0.000000000000D+00 0.294084587142D-04 0.000000000000D+00  6 22 -2 9900012 11 -1 21 0 0.17684791D+00 0.50635417D-02 0.34401872D+04 0.34401872D+04 0.34401872D+04 0.12605513D+01  1  2  2  2  6  5       -1 0.102299220678D-04 0.100000000000D+01
0.149407074708D-06 0.000000000000D+00 -.397161463715D-08 0.294084587142D-04 0.000000000000D+00  6 22 -2 9900012 11 -1 21 2 0.17684791D+00 0.50635417D-02 0.34401872D+04 0.34401872D+04 0.34401872D+04 0.12605513D+01  1  2  3  2  6  5       -1 0.117416315453D-05 0.100000000000D+01
-.329005526971D-06 0.000000000000D+00 0.000000000000D+00 0.294084587142D-04 0.000000000000D+00  6 22 -2 9900012 11 -1 21 2 0.17684791D+00 0.50635417D-02 0.34401872D+04 0.34401872D+04 0.34401872D+04 0.12605513D+01  1  2 15  2  6  5       -1 -.258559488004D-05 0.100000000000D+01
0.157453387813D-04 0.000000000000D+00 0.000000000000D+00 0.294084587142D-04 0.000000000000D+00  6 22 -2 9900012 11 -1 21 2 0.17684791D+00 0.50635417D-02 0.35953847D+04 0.35953847D+04 0.35953847D+04 0.12582989D+01  1  2 12  2  6  5       -1 0.123805031960D-03 0.100000000000D+01
-.562200703262D-06 0.000000000000D+00 0.000000000000D+00 0.294084587142D-04 0.000000000000D+00  6 22 -2 9900012 11 -1 21 2 0.17684791D+00 0.50635417D-02 0.34401872D+04 0.34401872D+04 0.34401872D+04 0.12605513D+01  1  2  4  2  6  5       -1 -.441823355762D-05 0.100000000000D+01
-.172163146617D-04 0.000000000000D+00 0.000000000000D+00 0.294084587142D-04 0.000000000000D+00  6 22 -2 9900012 11 -1 21 2 0.17684791D+00 0.50635417D-02 0.34401872D+04 0.34401872D+04 0.34401872D+04 0.12605513D+01  1  2  5  2  6  5       -1 -.135299900437D-03 0.100000000000D+01
0.186298286093D-04 0.000000000000D+00 -.000000000000D+00 0.294084587142D-04 0.000000000000D+00  6 22 -2 9900012 11 -1 21 2 0.17684791D+00 0.50635417D-02 0.34401872D+04 0.34401872D+04 0.34401872D+04 0.12605513D+01  1  2  6  2  6  5       -1 0.146408450678D-03 0.100000000000D+01
0.122391566256D-09 0.000000000000D+00 0.000000000000D+00 0.294084587142D-04 0.149652595641D-06  6 22 -2 9900012 11 -1 21 2 0.17684791D+00 0.50635417D-02 0.35953847D+04 0.35953847D+04 0.35953847D+04 0.12582989D+01  1  2 11  2  6  5       -1 0.962360479026D-09 0.100000000000D+01
  </mgrwgt>
  </event>
  <event>
  6     66 0.14151431E-05 0.47188222E+02 0.78161638E-02 0.12050326E+00
       22 -1    0    0    0    0 0.00000000E+00 0.00000000E+00 0.25163377E+02 0.25163377E+02 0.00000000E+00 0.0000E+00 0.9000E+01
       -4 -1    0    0    0  501 -.00000000E+00 -.00000000E+00 -.13097328E+04 0.13097328E+04 0.00000000E+00 0.0000E+00 0.9000E+01
      -24  2    1    2    0    0 0.56180484E+02 -.33022753E+02 -.83574954E+02 0.13213499E+03 0.78918532E+02 0.0000E+00 0.0000E+00
  9900012  1    3    3    0    0 0.28818827E+02 -.19584209E+02 -.24548146E+02 0.65701427E+02 0.50000000E+02 0.0000E+00 0.9000E+01
       11  1    3    3    0    0 0.27361657E+02 -.13438544E+02 -.59026809E+02 0.66433567E+02 0.00000000E+00 0.0000E+00 0.9000E+01
       -3  1    1    2    0  501 -.56180484E+02 0.33022753E+02 -.12009944E+04 0.12027612E+04 0.00000000E+00 0.0000E+00 0.9000E+01
#aMCatNLO 1  0  0  5  2 0.24593262D+02 0.00000000D+00  -5  6  0 0.00000000D+00 0.00000000D+00 0.00000000D+00 0.00000000D+00 0.00000000D+00
  <mgrwgt>
 0.2113583517D-04    7    2    0
 0.181541454296509D+03 0.000000000000000D+00 0.000000000000000D+00 0.181541454296509D+03
 0.181541454296509D+03 -.000000000000000D+00 -.000000000000000D+00 -.181541454296509D+03
 0.154705121064441D+03 0.288188272054445D+02 -.195842094314681D+02 0.142195669494575D+03
 0.354130722667009D+02 0.273616568301774D+02 -.134385437279023D+02 0.180230675898262D+02
 0.172964715261877D+03 -.561804840356219D+02 0.330227531593704D+02 -.160218737084402D+03
 0.000000000000000D+00 -.000000000000000D+00 0.000000000000000D+00 0.000000000000000D+00
 0.181541454296509D+03 0.000000000000000D+00 0.000000000000000D+00 0.181541454296509D+03
 0.181541454296509D+03 -.000000000000000D+00 -.000000000000000D+00 -.181541454296509D+03
 0.147826472725309D+03 0.264241273110828D+02 -.181766106031608D+02 0.135366326541113D+03
 0.340824236897612D+02 0.268115626904520D+02 -.131151997179245D+02 0.164542774688927D+02
 0.160413317708708D+03 -.330717128737947D+02 0.361455650012670D+02 -.152748788658527D+03
 0.207606944692407D+02 -.201639771277401D+02 -.485375468018163D+01 0.928184648520903D+00
0.907432971476D-05 0.000000000000D+00 0.000000000000D+00 0.587243043873D-05 0.000000000000D+00  6 22 -4 9900012 11 -3 21 0 0.38712888D-02 0.20149735D+00 0.61304126D+04 0.61304126D+04 0.61304126D+04 0.12320047D+01  1  2  2  2  6  5       -3 0.739657804872D-05 0.100000000000D+01
0.139204596130D-06 0.000000000000D+00 -.174239077153D-07 0.587243043873D-05 0.000000000000D+00  6 22 -4 9900012 11 -3 21 2 0.38712888D-02 0.20149735D+00 0.61304126D+04 0.61304126D+04 0.61304126D+04 0.12320047D+01  1  2  3  2  6  5       -3 0.172224371904D-06 0.100000000000D+01
-.156599935847D-05 0.000000000000D+00 0.000000000000D+00 0.587243043873D-05 0.000000000000D+00  6 22 -4 9900012 11 -3 21 2 0.38712888D-02 0.20149735D+00 0.61304126D+04 0.61304126D+04 0.61304126D+04 0.12320047D+01  1  2 15  2  6  5       -3 -.193745941881D-05 0.100000000000D+01
0.115574686428D-04 0.000000000000D+00 0.000000000000D+00 0.587243043873D-05 0.000000000000D+00  6 22 -4 9900012 11 -3 21 2 0.38712888D-02 0.20149735D+00 0.63188046D+04 0.63188046D+04 0.63188046D+04 0.12305644D+01  1  2 12  2  6  5       -3 0.142968574031D-04 0.100000000000D+01
-.513401070759D-06 0.000000000000D+00 0.000000000000D+00 0.587243043873D-05 0.000000000000D+00  6 22 -4 9900012 11 -3 21 2 0.38712888D-02 0.20149735D+00 0.61304126D+04 0.61304126D+04 0.61304126D+04 0.12320047D+01  1  2  4  2  6  5       -3 -.635181448060D-06 0.100000000000D+01
-.117123654591D-04 0.000000000000D+00 0.000000000000D+00 0.587243043873D-05 0.000000000000D+00  6 22 -4 9900012 11 -3 21 2 0.38712888D-02 0.20149735D+00 0.61304126D+04 0.61304126D+04 0.61304126D+04 0.12320047D+01  1  2  5  2  6  5       -3 -.144905760355D-04 0.100000000000D+01
0.132018671090D-04 0.000000000000D+00 -.000000000000D+00 0.587243043873D-05 0.000000000000D+00  6 22 -4 9900012 11 -3 21 2 0.38712888D-02 0.20149735D+00 0.61304126D+04 0.61304126D+04 0.61304126D+04 0.12320047D+01  1  2  6  2  6  5       -3 0.163333922443D-04 0.100000000000D+01
  </mgrwgt>
  </event>
  <event>
  7     66 -.14151431E-05 0.25537862E+02 0.78161638E-02 0.11792938E+00
       22 -1    0    0    0    0 0.00000000E+00 0.00000000E+00 0.28370285E+03 0.28370285E+03 0.00000000E+00 0.0000E+00 0.9000E+01
       -4 -1    0    0    0  501 0.00000000E+00 0.00000000E+00 -.12001841E+03 0.12001841E+03 0.00000000E+00 0.0000E+00 0.9000E+01
      -24  2    1    2    0    0 -.10814140E+02 0.77666584E+02 0.24788955E+03 0.27175846E+03 0.79084709E+02 0.0000E+00 0.0000E+00
  9900012  1    3    3    0    0 -.21830709E+02 0.52006347E+02 0.12697712E+03 0.14766323E+03 0.50000000E+02 0.0000E+00 0.9000E+01
       11  1    3    3    0    0 0.11016569E+02 0.25660237E+02 0.12091242E+03 0.12409523E+03 0.00000000E+00 0.0000E+00 0.9000E+01
       -3  1    1    2    0  502 0.13286891E+02 -.41560806E+02 -.85239017E+02 0.95757674E+02 0.00000000E+00 0.0000E+00 0.9000E+01
       21  1    1    2  502  501 -.24727507E+01 -.36105778E+02 0.10339126E+01 0.36205119E+02 0.00000000E+00 0.0000E+00 0.9000E+01
#aMCatNLO 2  0  0  5  2 0.26563711D+02 0.00000000D+00  -5  6  0 0.00000000D+00 0.00000000D+00 0.00000000D+00 0.00000000D+00 0.00000000D+00
  <mgrwgt>
 -.1703398774D-04    2    2    0
 0.184525239643194D+03 0.000000000000000D+00 0.000000000000000D+00 0.184525239643194D+03
 0.184525239643194D+03 -.000000000000000D+00 -.000000000000000D+00 -.184525239643194D+03
 0.108227610076956D+03 -.220529532939997D+02 0.536024941759388D+02 0.765091854099931D+02
 0.847712551407145D+02 0.108427917626459D+02 0.269082928345395D+02 0.796526417744866D+02
 0.176051614068718D+03 0.112101615313538D+02 -.805107870104782D+02 -.156161827184480D+03
 0.000000000000000D+00 0.000000000000000D+00 -.000000000000000D+00 0.000000000000000D+00
 0.184525239643194D+03 0.000000000000000D+00 0.000000000000000D+00 0.184525239643194D+03
 0.184525239643194D+03 -.000000000000000D+00 -.000000000000000D+00 -.184525239643194D+03
 0.105217599705536D+03 -.218307089315444D+02 0.520063469232991D+02 0.734132366473103D+02
 0.821253518293996D+02 0.110165685836381D+02 0.256602369003646D+02 0.772318643563771D+02
 0.142559655807664D+03 0.132868910009118D+02 -.415608058303305D+02 -.135718139577078D+03
 0.391478719437888D+02 -.247275065300550D+01 -.361057779933331D+02 -.149269614266095D+02
-.206185919733D-05 0.000000000000D+00 0.000000000000D+00 0.496304432663D-05 0.000000000000D+00  6 22 -4 9900012 11 -3 21 2 0.43646592D-01 0.18464370D-01 0.83834640D+04 0.83834640D+04 0.83834640D+04 0.12173514D+01  1  2 13  2  6  5       -3 -.198052059659D-04 0.100000000000D+01
0.288503022580D-06 0.000000000000D+00 0.000000000000D+00 0.496304432663D-05 0.593605072574D-08  6 22 -4 9900012 11 -3 21 2 0.43646592D-01 0.18464370D-01 0.83834640D+04 0.83834640D+04 0.83834640D+04 0.12173514D+01  1  2  1  2  6  5       -3 0.277121822449D-05 0.100000000000D+01
  </mgrwgt>
  </event>
  <event>
  6     66 0.14151431E-05 0.36012016E+02 0.78161638E-02 0.10282328E+00
       22 -1    0    0    0    0 0.00000000E+00 0.00000000E+00 0.38312776E+02 0.38312776E+02 0.00000000E+00 0.0000E+00 0.9000E+01
       -4 -1    0    0    0  501 0.00000000E+00 0.00000000E+00 -.17075867E+03 0.17075867E+03 0.00000000E+00 0.0000E+00 0.9000E+01
      -24  2    1    2    0    0 0.33930101E+02 0.12067043E+02 -.18859609E+02 0.89913109E+02 0.80198610E+02 0.0000E+00 0.0000E+00
  9900012  1    3    3    0    0 -.19675155E+01 0.58009184E+01 -.39098984E+01 0.50525331E+02 0.50000000E+02 0.0000E+00 0.9000E+01
       11  1    3    3    0    0 0.35897617E+02 0.62661243E+01 -.14949711E+02 0.39387778E+02 0.00000000E+00 0.0000E+00 0.9000E+01
       -3  1    1    2    0  501 -.33930101E+02 -.12067043E+02 -.11358629E+03 0.11915834E+03 0.00000000E+00 0.0000E+00 0.9000E+01
#aMCatNLO 1  0  0  2  5 0.13295846D+03 0.00000000D+00  -5  6  0 0.00000000D+00 0.00000000D+00 0.00000000D+00 0.00000000D+00 0.00000000D+00
  <mgrwgt>
 0.3647371738D-04    5    4    0
 0.808841067111712D+02 0.000000000000000D+00 0.000000000000000D+00 0.808841067111712D+02
 0.808841067111712D+02 0.000000000000000D+00 0.000000000000000D+00 -.808841067111712D+02
 0.620984423685137D+02 -.196751553355199D+01 0.580091843089368D+01 0.363138372053817D+02
 0.386653949551200D+02 0.358976165128717D+02 0.626612430708229D+01 0.129270871389655D+02
 0.610043760987087D+02 -.339301009793197D+02 -.120670427379760D+02 -.492409243443473D+02
 0.000000000000000D+00 0.000000000000000D+00 -.000000000000000D+00 -.000000000000000D+00
 0.228550006335024D+03 0.000000000000000D+00 0.000000000000000D+00 0.228550006335024D+03
 0.284282994882337D+03 0.000000000000000D+00 0.000000000000000D+00 -.284282994882337D+03
 0.110704691556101D+03 -.905195790620721D+02 0.155897327231022D+02 0.363138372053817D+02
 0.175183359378491D+02 0.710655703200663D+01 0.944877554415197D+01 0.129270871389655D+02
 0.150679144675156D+03 -.142406215698892D+03 -.757632599070348D-01 -.492409243443473D+02
 0.233930829048255D+03 0.225819237728957D+03 -.249627450073472D+02 -.557329885473133D+02
 0.808841067111712D+02 0.000000000000000D+00 0.000000000000000D+00 0.808841067111712D+02
 0.808841067111712D+02 0.000000000000000D+00 0.000000000000000D+00 -.808841067111712D+02
 0.620984423685137D+02 -.196751553355199D+01 0.580091843089368D+01 0.363138372053817D+02
 0.386653949551200D+02 0.358976165128717D+02 0.626612430708229D+01 0.129270871389655D+02
 0.000000000000000D+00 0.000000000000000D+00 -.000000000000000D+00 -.000000000000000D+00
 0.610043760987087D+02 -.339301009793197D+02 -.120670427379760D+02 -.492409243443473D+02
 0.228550006335024D+03 0.000000000000000D+00 0.000000000000000D+00 0.228550006335024D+03
 0.284282994882337D+03 0.000000000000000D+00 0.000000000000000D+00 -.284282994882337D+03
 0.110704691556101D+03 -.905195790620721D+02 0.155897327231022D+02 0.363138372053817D+02
 0.175183359378491D+02 0.710655703200663D+01 0.944877554415197D+01 0.129270871389655D+02
 0.233930829048255D+03 0.225819237728957D+03 -.249627450073472D+02 -.557329885473133D+02
 0.150679144675156D+03 -.142406215698892D+03 -.757632599070348D-01 -.492409243443473D+02
0.686418981696D-06 0.000000000000D+00 0.000000000000D+00 0.478175044089D-06 0.000000000000D+00  6 22 -4 9900012 11 -3 21 0 0.58942732D-02 0.26270565D-01 0.37715714D+04 0.37715714D+04 0.37715714D+04 0.12558711D+01  1  2  2  1  6  2       -4 0.408388898181D-04 0.100000000000D+01
0.190976322936D-07 0.000000000000D+00 -.131801481399D-08 0.478175044089D-06 0.000000000000D+00  6 22 -4 9900012 11 -3 21 2 0.58942732D-02 0.26270565D-01 0.37715714D+04 0.37715714D+04 0.37715714D+04 0.12558711D+01  1  2  3  1  6  2       -4 0.179206728816D-05 0.100000000000D+01
-.109796568588D-06 0.000000000000D+00 0.000000000000D+00 0.478175044089D-06 0.000000000000D+00  6 22 -4 9900012 11 -3 21 2 0.58942732D-02 0.26270565D-01 0.37715714D+04 0.37715714D+04 0.37715714D+04 0.12558711D+01  1  2 15  1  6  2       -4 -.103029965126D-04 0.100000000000D+01
0.997162602587D-06 0.000000000000D+00 -.372803068615D-06 0.478175044089D-06 0.000000000000D+00  6 22 -4 9900012 11 -3 21 2 0.58942732D-02 0.21267052D+00 0.37715714D+04 0.37715714D+04 0.37715714D+04 0.12558711D+01  1  2  5  1  6  2       -4 0.582610963711D-06 0.100000000000D+01
0.207503708509D-06 0.000000000000D+00 -.945564902408D-07 0.478175044089D-06 0.000000000000D+00  6 22 21 9900012 11 4 -3 2 0.58942732D-02 0.21267052D+00 0.37715714D+04 0.37715714D+04 0.37715714D+04 0.12558711D+01  3  4  5  3  5  2       -4 0.356314582403D-05 0.100000000000D+01
  </mgrwgt>
  </event>
  <event>
  6     66 0.14151431E-05 0.20330971E+02 0.78161638E-02 0.12923058E+00
       22 -1    0    0    0    0 0.00000000E+00 0.00000000E+00 0.41806806E+02 0.41806806E+02 0.00000000E+00 0.0000E+00 0.9000E+01
       -2 -1    0    0    0  501 0.00000000E+00 0.00000000E+00 -.62110629E+02 0.62110629E+02 0.00000000E+00 0.0000E+00 0.9000E+01
      -24  2    1    2    0    0 0.93840605E+00 -.20309302E+02 -.16770857E+02 0.83281781E+02 0.79001550E+02 0.0000E+00 0.0000E+00
  9900012  1    3    3    0    0 -.22155380E+02 -.86721870E+01 -.78475421E+01 0.55925411E+02 0.50000000E+02 0.0000E+00 0.9000E+01
       11  1    3    3    0    0 0.23093786E+02 -.11637115E+02 -.89233146E+01 0.27356369E+02 0.00000000E+00 0.0000E+00 0.9000E+01
       -1  1    1    2    0  501 -.93840605E+00 0.20309302E+02 -.35329659E+01 0.20635654E+02 0.00000000E+00 0.0000E+00 0.9000E+01
#aMCatNLO 1  0  0  2  5 0.27810997D+01 0.00000000D+00  -5  6  0 0.00000000D+00 0.00000000D+00 0.00000000D+00 0.00000000D+00 0.00000000D+00
  <mgrwgt>
 0.2860317735D-03    8    4    0
 0.509573056165768D+02 0.000000000000000D+00 0.000000000000000D+00 0.509573056165768D+02
 0.509573056165768D+02 0.000000000000000D+00 0.000000000000000D+00 -.509573056165768D+02
 0.554610381823643D+02 -.221553800394591D+02 -.867218700024575D+01 0.313991468125746D+01
 0.261162389203847D+02 0.230937860845062D+02 -.116371152670481D+02 -.364863370196591D+01
 0.203373341304046D+02 -.938406045047044D+00 0.203093022672938D+02 0.508719020708448D+00
 0.000000000000000D+00 -.000000000000000D+00 -.000000000000000D+00 0.000000000000000D+00
 0.522306030146118D+02 0.000000000000000D+00 0.000000000000000D+00 0.522306030146118D+02
 0.512377763093290D+02 0.000000000000000D+00 0.000000000000000D+00 -.512377763093290D+02
 0.552042873084702D+02 -.216708433235510D+02 -.824795869756009D+01 0.313991468125746D+01
 0.262310189688376D+02 0.233229831551508D+02 -.114364454703787D+02 -.364863370196591D+01
 0.204862079846868D+02 -.759664375599543D+00 0.204657966516395D+02 0.508719020708448D+00
 0.154686506194616D+01 -.892475456000286D+00 -.781392483700682D+00 0.992826705282872D+00
 0.509573056165768D+02 0.000000000000000D+00 0.000000000000000D+00 0.509573056165768D+02
 0.509573056165768D+02 0.000000000000000D+00 0.000000000000000D+00 -.509573056165768D+02
 0.554610381823643D+02 -.221553800394591D+02 -.867218700024575D+01 0.313991468125746D+01
 0.261162389203847D+02 0.230937860845062D+02 -.116371152670481D+02 -.364863370196591D+01
 0.000000000000000D+00 -.000000000000000D+00 -.000000000000000D+00 0.000000000000000D+00
 0.203373341304046D+02 -.938406045047044D+00 0.203093022672938D+02 0.508719020708448D+00
 0.522306030146118D+02 0.000000000000000D+00 0.000000000000000D+00 0.522306030146118D+02
 0.512377763093290D+02 0.000000000000000D+00 0.000000000000000D+00 -.512377763093290D+02
 0.552042873084702D+02 -.216708433235510D+02 -.824795869756009D+01 0.313991468125746D+01
 0.262310189688376D+02 0.233229831551508D+02 -.114364454703787D+02 -.364863370196591D+01
 0.154686506194616D+01 -.892475456000286D+00 -.781392483700682D+00 0.992826705282872D+00
 0.204862079846868D+02 -.759664375599543D+00 0.204657966516395D+02 0.508719020708448D+00
0.190270849255D-06 0.000000000000D+00 0.000000000000D+00 0.258319651144D-07 0.000000000000D+00  6 22 -2 9900012 11 -1 21 0 0.64318163D-02 0.95554813D-02 0.25787692D+04 0.25787692D+04 0.25787692D+04 0.12755864D+01  1  2  2  1  6  2       -2 0.839455338043D-04 0.100000000000D+01
0.101034348072D-08 0.000000000000D+00 -.365345080302D-09 0.258319651144D-07 0.000000000000D+00  6 22 -2 9900012 11 -1 21 2 0.64318163D-02 0.95554813D-02 0.25787692D+04 0.25787692D+04 0.25787692D+04 0.12755864D+01  1  2  3  1  6  2       -2 0.725294085641D-06 0.100000000000D+01
-.231539349849D-07 0.000000000000D+00 0.000000000000D+00 0.258319651144D-07 0.000000000000D+00  6 22 -2 9900012 11 -1 21 2 0.64318163D-02 0.95554813D-02 0.25787692D+04 0.25787692D+04 0.25787692D+04 0.12755864D+01  1  2 15  1  6  2       -2 -.166214880625D-04 0.100000000000D+01
0.697214057693D-09 0.000000000000D+00 0.000000000000D+00 0.258319651144D-07 0.000000000000D+00  6 22 -2 9900012 11 -1 21 2 0.64318163D-02 0.98481571D-02 0.26397523D+04 0.26397523D+04 0.26397523D+04 0.12743467D+01  1  2 12  1  6  2       -2 0.478997995589D-06 0.100000000000D+01
-.568379195816D-07 0.000000000000D+00 0.000000000000D+00 0.258319651144D-07 0.000000000000D+00  6 22 -2 9900012 11 -1 21 2 0.64318163D-02 0.95554813D-02 0.25787692D+04 0.25787692D+04 0.25787692D+04 0.12755864D+01  1  2  4  1  6  2       -2 -.408021704491D-04 0.100000000000D+01
0.546088059332D-07 0.000000000000D+00 0.000000000000D+00 0.258319651144D-07 0.194762836021D-07  6 22 -2 9900012 11 -1 21 2 0.65925315D-02 0.96080750D-02 0.26397523D+04 0.26397523D+04 0.26397523D+04 0.12743467D+01  1  2 11  1  6  2       -2 0.376271102827D-04 0.100000000000D+01
0.248635749880D-10 0.000000000000D+00 0.000000000000D+00 0.258319651144D-07 0.000000000000D+00  6 22 21 9900012 11 2 -1 2 0.64318163D-02 0.98481571D-02 0.26397523D+04 0.26397523D+04 0.26397523D+04 0.12743467D+01  3  4 12  3  5  2       -2 0.255009094571D-06 0.100000000000D+01
0.213582628511D-07 0.000000000000D+00 0.000000000000D+00 0.258319651144D-07 0.139710606060D-08  6 22 21 9900012 11 2 -1 2 0.65925315D-02 0.96080750D-02 0.26397523D+04 0.26397523D+04 0.26397523D+04 0.12743467D+01  3  4 11  3  5  2       -2 0.220423486713D-03 0.100000000000D+01
  </mgrwgt>
  </event>
  <event>
  6     66 0.14151431E-05 0.10411687E+03 0.78161638E-02 0.90798029E-01
       22 -1    0    0    0    0 0.00000000E+00 0.00000000E+00 0.17502756E+04 0.17502756E+04 0.00000000E+00 0.0000E+00 0.9000E+01
       -2 -1    0    0    0  501 0.00000000E+00 0.00000000E+00 -.22478932E+03 0.22478932E+03 0.00000000E+00 0.0000E+00 0.9000E+01
      -24  2    1    2    0    0 -.23185907E+02 -.10150239E+03 0.17356119E+04 0.17405588E+04 0.79725229E+02 0.0000E+00 0.0000E+00
  9900012  1    3    3    0    0 -.38507435E+02 -.95714206E+02 0.14940457E+04 0.14984381E+04 0.50000000E+02 0.0000E+00 0.9000E+01
       11  1    3    3    0    0 0.15321528E+02 -.57881886E+01 0.24156612E+03 0.24212072E+03 0.00000000E+00 0.0000E+00 0.9000E+01
       -1  1    1    2    0  501 0.23185907E+02 0.10150239E+03 -.21012562E+03 0.23450607E+03 0.00000000E+00 0.0000E+00 0.9000E+01
#aMCatNLO 1  0  0  2  5 0.52216198D+01 0.00000000D+00  -5  6  0 0.00000000D+00 0.00000000D+00 0.00000000D+00 0.00000000D+00 0.00000000D+00
  <mgrwgt>
 0.1334152209D-03    5    4    0
 0.627250553845662D+03 0.000000000000000D+00 0.000000000000000D+00 0.627250553845662D+03
 0.627250553845662D+03 0.000000000000000D+00 0.000000000000000D+00 -.627250553845662D+03
 0.542340080270276D+03 -.385074353035065D+02 -.957142062086263D+02 0.530083701714897D+03
 0.874437962357059D+02 0.153215281507181D+02 -.578818860787015D+01 0.858962464132055D+02
 0.624717231185343D+03 0.231859071527884D+02 0.101502394816496D+03 -.615979948128103D+03
 0.000000000000000D+00 -.000000000000000D+00 0.000000000000000D+00 -.000000000000000D+00
 0.884068074875159D+03 0.000000000000000D+00 0.000000000000000D+00 0.884068074875159D+03
 0.131054857172557D+04 0.000000000000000D+00 0.000000000000000D+00 -.131054857172557D+04
 0.627950910388463D+03 0.181673187760667D+03 -.278977540104592D+03 0.530083701714897D+03
 0.106652027960907D+03 0.518390608386430D+02 -.361828922512216D+02 0.858962464132055D+02
 0.679819405105927D+03 0.268623744136369D+03 -.102783321355339D+03 -.615979948128103D+03
 0.780194303145432D+03 -.502135992735678D+03 0.417943753711152D+03 -.426480496850410D+03
 0.627250553845662D+03 0.000000000000000D+00 0.000000000000000D+00 0.627250553845662D+03
 0.627250553845662D+03 0.000000000000000D+00 0.000000000000000D+00 -.627250553845662D+03
 0.542340080270276D+03 -.385074353035065D+02 -.957142062086263D+02 0.530083701714897D+03
 0.874437962357059D+02 0.153215281507181D+02 -.578818860787015D+01 0.858962464132055D+02
 0.000000000000000D+00 -.000000000000000D+00 0.000000000000000D+00 -.000000000000000D+00
 0.624717231185343D+03 0.231859071527884D+02 0.101502394816496D+03 -.615979948128103D+03
 0.884068074875159D+03 0.000000000000000D+00 0.000000000000000D+00 0.884068074875159D+03
 0.131054857172557D+04 0.000000000000000D+00 0.000000000000000D+00 -.131054857172557D+04
 0.627950910388463D+03 0.181673187760667D+03 -.278977540104592D+03 0.530083701714897D+03
 0.106652027960907D+03 0.518390608386430D+02 -.361828922512216D+02 0.858962464132055D+02
 0.780194303145432D+03 -.502135992735678D+03 0.417943753711152D+03 -.426480496850410D+03
 0.679819405105927D+03 0.268623744136369D+03 -.102783321355339D+03 -.615979948128103D+03
0.134800847176D-02 0.000000000000D+00 0.000000000000D+00 0.714390361939D-03 0.000000000000D+00  6 22 -2 9900012 11 -1 21 0 0.26927317D+00 0.34582972D-01 0.13823023D+05 0.13823023D+05 0.13823023D+05 0.11950217D+01  1  2  2  1  6  2       -2 0.120433143989D-03 0.100000000000D+01
0.227948837164D-04 0.000000000000D+00 -.258835373516D-05 0.714390361939D-03 0.000000000000D+00  6 22 -2 9900012 11 -1 21 2 0.26927317D+00 0.34582972D-01 0.13823023D+05 0.13823023D+05 0.13823023D+05 0.11950217D+01  1  2  3  1  6  2       -2 0.290832103572D-05 0.100000000000D+01
-.237979892602D-03 0.000000000000D+00 0.000000000000D+00 0.714390361939D-03 0.000000000000D+00  6 22 -2 9900012 11 -1 21 2 0.26927317D+00 0.34582972D-01 0.13823023D+05 0.13823023D+05 0.13823023D+05 0.11950217D+01  1  2 15  1  6  2       -2 -.303630383179D-04 0.100000000000D+01
0.116442800643D-02 0.000000000000D+00 -.384718043218D-03 0.714390361939D-03 0.000000000000D+00  6 22 -2 9900012 11 -1 21 2 0.26927317D+00 0.10160783D+00 0.13823023D+05 0.13823023D+05 0.13823023D+05 0.11950217D+01  1  2  5  1  6  2       -2 0.170427871302D-04 0.100000000000D+01
0.162197773344D-03 0.000000000000D+00 -.469903409573D-04 0.714390361939D-03 0.000000000000D+00  6 22 21 9900012 11 2 -1 2 0.26927317D+00 0.10160783D+00 0.13823023D+05 0.13823023D+05 0.13823023D+05 0.11950217D+01  3  4  5  3  5  2       -2 0.233940070147D-04 0.100000000000D+01
  </mgrwgt>
  </event>
  <event>
  6     66 0.14151431E-05 0.88255025E+02 0.78161638E-02 0.10787104E+00
       22 -1    0    0    0    0 0.00000000E+00 0.00000000E+00 0.26290309E+03 0.26290309E+03 0.00000000E+00 0.0000E+00 0.9000E+01
       -4 -1    0    0    0  501 0.00000000E+00 0.00000000E+00 -.13046330E+03 0.13046330E+03 0.00000000E+00 0.0000E+00 0.9000E+01
      -24  2    1    2    0    0 0.56575384E+02 -.15370345E+03 0.13829770E+03 0.22947668E+03 0.81900951E+02 0.0000E+00 0.0000E+00
  9900012  1    3    3    0    0 0.29448721E+02 -.11025253E+03 0.12514790E+03 0.17659231E+03 0.50000000E+02 0.0000E+00 0.9000E+01
       11  1    3    3    0    0 0.27126663E+02 -.43450927E+02 0.13149796E+02 0.52884365E+02 0.00000000E+00 0.0000E+00 0.9000E+01
       -3  1    1    2    0  501 -.56575384E+02 0.15370345E+03 -.58579046E+01 0.16388972E+03 0.00000000E+00 0.0000E+00 0.9000E+01
#aMCatNLO 1  0  0  5  2 0.51043705D+01 0.00000000D+00  -5  6  0 0.00000000D+00 0.00000000D+00 0.00000000D+00 0.00000000D+00 0.00000000D+00
  <mgrwgt>
 0.1576446327D-04    6    2    0
 0.185200446786943D+03 0.000000000000000D+00 0.000000000000000D+00 0.185200446786943D+03
 0.185200446786943D+03 -.000000000000000D+00 -.000000000000000D+00 -.185200446786943D+03
 0.142793711058784D+03 0.294487206169289D+02 -.110252525534434D+03 0.697653021583420D+02
 0.514614732143489D+02 0.271266632062700D+02 -.434509268120297D+02 -.494412053457211D+01
 0.176145709300753D+03 -.565753838231990D+02 0.153703452346463D+03 -.648211816237699D+02
 0.000000000000000D+00 0.000000000000000D+00 0.000000000000000D+00 0.000000000000000D+00
 0.185200446786943D+03 0.000000000000000D+00 0.000000000000000D+00 0.185200446786943D+03
 0.185200446786943D+03 -.000000000000000D+00 -.000000000000000D+00 -.185200446786943D+03
 0.141622869745318D+03 0.290395531896930D+02 -.109140903448927D+03 0.692964990442831D+02
 0.510621291626792D+02 0.269791706849234D+02 -.430502205649966D+02 -.511310992303534D+01
 0.407408109273741D+01 -.385633788581388D+01 -.890938697235208D+00 -.965931207903376D+00
 0.173641813573152D+03 -.521623859888025D+02 0.153082062711159D+03 -.632174579133444D+02
0.262438036390D-05 0.000000000000D+00 0.000000000000D+00 0.963185479176D-07 0.000000000000D+00  6 22 -4 9900012 11 -3 21 0 0.40446630D-01 0.20071277D-01 0.28831893D+05 0.28831893D+05 0.28831893D+05 0.11643743D+01  1  2  2  2  6  5       -3 0.185805832475D-04 0.100000000000D+01
-.744120587820D-07 0.000000000000D+00 -.503915580630D-08 0.963185479176D-07 0.000000000000D+00  6 22 -4 9900012 11 -3 21 2 0.40446630D-01 0.20071277D-01 0.28831893D+05 0.28831893D+05 0.28831893D+05 0.11643743D+01  1  2  3  2  6  5       -3 -.714267803479D-06 0.100000000000D+01
-.381111363677D-06 0.000000000000D+00 0.000000000000D+00 0.963185479176D-07 0.000000000000D+00  6 22 -4 9900012 11 -3 21 2 0.40446630D-01 0.20071277D-01 0.28831893D+05 0.28831893D+05 0.28831893D+05 0.11643743D+01  1  2 15  2  6  5       -3 -.365821858809D-05 0.100000000000D+01
0.180836299907D-06 0.000000000000D+00 0.000000000000D+00 0.963185479176D-07 0.000000000000D+00  6 22 -4 9900012 11 -3 21 2 0.40446630D-01 0.20071277D-01 0.28899973D+05 0.28899973D+05 0.28899973D+05 0.11642798D+01  1  2 12  2  6  5       -3 0.173587785255D-05 0.100000000000D+01
-.253103383524D-06 0.000000000000D+00 0.000000000000D+00 0.963185479176D-07 0.000000000000D+00  6 22 -4 9900012 11 -3 21 2 0.40446630D-01 0.20071277D-01 0.28831893D+05 0.28831893D+05 0.28831893D+05 0.11643743D+01  1  2  5  2  6  5       -3 -.242949329399D-05 0.100000000000D+01
0.234393446821D-06 0.000000000000D+00 0.000000000000D+00 0.963185479176D-07 0.309578651577D-09  6 22 -4 9900012 11 -3 21 2 0.40446630D-01 0.20071277D-01 0.28899973D+05 0.28899973D+05 0.28899973D+05 0.11642798D+01  1  2 11  2  6  5       -3 0.224998185281D-05 0.100000000000D+01
  </mgrwgt>
  </event>
  <event>
  6     66 0.14151431E-05 0.44311459E+02 0.78161638E-02 0.12142143E+00
       22 -1    0    0    0    0 0.00000000E+00 0.00000000E+00 0.26813667E+03 0.26813667E+03 0.00000000E+00 0.0000E+00 0.9000E+01
       -2 -1    0    0    0  501 0.00000000E+00 0.00000000E+00 -.24652743E+03 0.24652743E+03 0.00000000E+00 0.0000E+00 0.9000E+01
      -24  2    1    2    0    0 -.49699120E+02 -.13649089E+02 0.25708789E+03 0.27361122E+03 0.78183220E+02 0.0000E+00 0.0000E+00
  9900012  1    3    3    0    0 -.57802529E+02 -.98745522E+00 0.18873259E+03 0.20362244E+03 0.50000000E+02 0.0000E+00 0.9000E+01
       11  1    3    3    0    0 0.81034099E+01 -.12661634E+02 0.68355294E+02 0.69988774E+02 0.00000000E+00 0.0000E+00 0.9000E+01
       -1  1    1    2    0  501 0.49699120E+02 0.13649089E+02 -.23547865E+03 0.24105288E+03 0.00000000E+00 0.0000E+00 0.9000E+01
#aMCatNLO 1  0  0  5  2 0.13356049D+02 0.00000000D+00  -5  6  0 0.00000000D+00 0.00000000D+00 0.00000000D+00 0.00000000D+00 0.00000000D+00
  <mgrwgt>
 0.1709821441D-03    7    2    0
 0.257105123090509D+03 0.000000000000000D+00 0.000000000000000D+00 0.257105123090509D+03
 0.257105123090509D+03 -.000000000000000D+00 -.000000000000000D+00 -.257105123090509D+03
 0.195870841210285D+03 -.578025294781211D+02 -.987455222330218D+00 0.180342116419154D+03
 0.671779750873560D+02 0.810340987330081D+01 -.126616335268460D+02 0.654744081431407D+02
 0.251161429883377D+03 0.496991196048202D+02 0.136490887491762D+02 -.245816524562295D+03
 0.000000000000000D+00 0.000000000000000D+00 0.000000000000000D+00 0.000000000000000D+00
 0.257105123090509D+03 0.000000000000000D+00 0.000000000000000D+00 0.257105123090509D+03
 0.257105123090509D+03 -.000000000000000D+00 -.000000000000000D+00 -.257105123090509D+03
 0.194006825702277D+03 -.574180744385311D+02 -.881870636583900D+00 0.178440565598256D+03
 0.665517427755319D+02 0.823527960665198D+01 -.126254175594777D+02 0.648221680269155D+02
 0.234544672548448D+03 0.465283781812795D+02 0.127435014117676D+00 -.229883225149196D+03
 0.191070051547607D+02 0.265441665059956D+01 0.133798531819439D+02 -.133795084759754D+02
0.472390515885D-05 0.000000000000D+00 0.000000000000D+00 0.197937401754D-04 0.000000000000D+00  6 22 -2 9900012 11 -1 21 0 0.41251796D-01 0.37927297D-01 0.51126570D+04 0.51126570D+04 0.51126570D+04 0.12407574D+01  1  2  2  2  6  5       -1 0.163237648147D-04 0.100000000000D+01
0.185451379529D-06 0.000000000000D+00 -.907051982139D-08 0.197937401754D-04 0.000000000000D+00  6 22 -2 9900012 11 -1 21 2 0.41251796D-01 0.37927297D-01 0.51126570D+04 0.51126570D+04 0.51126570D+04 0.12407574D+01  1  2  3  2  6  5       -1 0.986558806164D-06 0.100000000000D+01
-.789861556591D-06 0.000000000000D+00 0.000000000000D+00 0.197937401754D-04 0.000000000000D+00  6 22 -2 9900012 11 -1 21 2 0.41251796D-01 0.37927297D-01 0.51126570D+04 0.51126570D+04 0.51126570D+04 0.12407574D+01  1  2 15  2  6  5       -1 -.420188232777D-05 0.100000000000D+01
0.283490423940D-04 0.000000000000D+00 0.000000000000D+00 0.197937401754D-04 0.000000000000D+00  6 22 -2 9900012 11 -1 21 2 0.41251796D-01 0.37927297D-01 0.57293604D+04 0.57293604D+04 0.57293604D+04 0.12352436D+01  1  2 12  2  6  5       -1 0.150458428085D-03 0.100000000000D+01
-.109167808570D-05 0.000000000000D+00 0.000000000000D+00 0.197937401754D-04 0.000000000000D+00  6 22 -2 9900012 11 -1 21 2 0.41251796D-01 0.37927297D-01 0.51126570D+04 0.51126570D+04 0.51126570D+04 0.12407574D+01  1  2  4  2  6  5       -1 -.580747704159D-05 0.100000000000D+01
-.314793670090D-04 0.000000000000D+00 0.000000000000D+00 0.197937401754D-04 0.000000000000D+00  6 22 -2 9900012 11 -1 21 2 0.41251796D-01 0.37927297D-01 0.51126570D+04 0.51126570D+04 0.51126570D+04 0.12407574D+01  1  2  5  2  6  5       -1 -.167463012753D-03 0.100000000000D+01
0.339649538159D-04 0.000000000000D+00 -.000000000000D+00 0.197937401754D-04 0.000000000000D+00  6 22 -2 9900012 11 -1 21 2 0.41251796D-01 0.37927297D-01 0.51126570D+04 0.51126570D+04 0.51126570D+04 0.12407574D+01  1  2  6  2  6  5       -1 0.180685764501D-03 0.100000000000D+01
  </mgrwgt>
  </event>
  <event>
  6     66 0.14151431E-05 0.38993707E+02 0.78161638E-02 0.12530748E+00
       22 -1    0    0    0    0 0.00000000E+00 0.00000000E+00 0.41452579E+02 0.41452579E+02 0.00000000E+00 0.0000E+00 0.9000E+01
       -2 -1    0    0    0  501 0.00000000E+00 0.00000000E+00 -.16329612E+03 0.16329612E+03 0.00000000E+00 0.0000E+00 0.9000E+01
      -24  2    1    2    0    0 -.50347062E+01 -.38710046E+02 -.15391993E+02 0.91365507E+02 0.81159882E+02 0.0000E+00 0.0000E+00
  9900012  1    3    3    0    0 -.17010818E+02 -.46533003E+02 -.50408027E-01 0.70389565E+02 0.50000000E+02 0.0000E+00 0.9000E+01
       11  1    3    3    0    0 0.11976112E+02 0.78229567E+01 -.15341585E+02 0.20975942E+02 0.00000000E+00 0.0000E+00 0.9000E+01
       -1  1    1    2    0  501 0.50347062E+01 0.38710046E+02 -.10645155E+03 0.11338319E+03 0.00000000E+00 0.0000E+00 0.9000E+01
#aMCatNLO 1  0  0  2  5 0.38206027D+01 0.00000000D+00  -5  6  0 0.00000000D+00 0.00000000D+00 0.00000000D+00 0.00000000D+00 0.00000000D+00
  <mgrwgt>
 0.8936498162D-03   10    4    0
 0.822742072951327D+02 0.000000000000000D+00 0.000000000000000D+00 0.822742072951327D+02
 0.822742072951327D+02 0.000000000000000D+00 0.000000000000000D+00 -.822742072951327D+02
 0.875488826201235D+02 -.170108183282789D+02 -.465330031325114D+02 0.520587987501069D+02
 0.147404870945949D+02 0.119761121281113D+02 0.782295672333481D+01 -.355753372234948D+01
 0.622590448755470D+02 0.503470620016761D+01 0.387100464091766D+02 -.485012650277574D+02
 0.000000000000000D+00 -.000000000000000D+00 0.000000000000000D+00 0.000000000000000D+00
 0.841979473568997D+02 0.000000000000000D+00 0.000000000000000D+00 0.841979473568997D+02
 0.822915749695799D+02 0.000000000000000D+00 0.000000000000000D+00 -.822915749695799D+02
 0.876506226453599D+02 -.170046488040834D+02 -.467263848576469D+02 0.520587987501069D+02
 0.147240968413291D+02 0.119771497021800D+02 0.779043430231944D+01 -.355753372234948D+01
 0.621740964608587D+02 0.503908802347835D+01 0.385726995856270D+02 -.485012650277574D+02
 0.194070637893187D+01 -.115889215749295D-01 0.363250969700431D+00 0.190637238731977D+01
 0.822742072951327D+02 0.000000000000000D+00 0.000000000000000D+00 0.822742072951327D+02
 0.822742072951327D+02 0.000000000000000D+00 0.000000000000000D+00 -.822742072951327D+02
 0.875488826201235D+02 -.170108183282789D+02 -.465330031325114D+02 0.520587987501069D+02
 0.147404870945949D+02 0.119761121281113D+02 0.782295672333481D+01 -.355753372234948D+01
 0.000000000000000D+00 -.000000000000000D+00 0.000000000000000D+00 0.000000000000000D+00
 0.622590448755470D+02 0.503470620016761D+01 0.387100464091766D+02 -.485012650277574D+02
 0.841979473568997D+02 0.000000000000000D+00 0.000000000000000D+00 0.841979473568997D+02
 0.822915749695799D+02 0.000000000000000D+00 0.000000000000000D+00 -.822915749695799D+02
 0.876506226453599D+02 -.170046488040834D+02 -.467263848576469D+02 0.520587987501069D+02
 0.147240968413291D+02 0.119771497021800D+02 0.779043430231944D+01 -.355753372234948D+01
 0.194070637893187D+01 -.115889215749295D-01 0.363250969700431D+00 0.190637238731977D+01
 0.621740964608587D+02 0.503908802347835D+01 0.385726995856270D+02 -.485012650277574D+02
0.520230382694D-06 0.000000000000D+00 0.000000000000D+00 0.243010155916D-06 0.000000000000D+00  6 22 -2 9900012 11 -1 21 0 0.63773198D-02 0.25122480D-01 0.38273020D+04 0.38273020D+04 0.38273020D+04 0.12551296D+01  1  2  2  1  6  2       -2 0.543810066964D-04 0.100000000000D+01
0.900781827992D-08 0.000000000000D+00 -.998910824676D-09 0.243010155916D-06 0.000000000000D+00  6 22 -2 9900012 11 -1 21 2 0.63773198D-02 0.25122480D-01 0.38273020D+04 0.38273020D+04 0.38273020D+04 0.12551296D+01  1  2  3  1  6  2       -2 0.148336599857D-05 0.100000000000D+01
-.870865632202D-07 0.000000000000D+00 0.000000000000D+00 0.243010155916D-06 0.000000000000D+00  6 22 -2 9900012 11 -1 21 2 0.63773198D-02 0.25122480D-01 0.38273020D+04 0.38273020D+04 0.38273020D+04 0.12551296D+01  1  2 15  1  6  2       -2 -.143410138614D-04 0.100000000000D+01
0.856157986686D-08 0.000000000000D+00 0.000000000000D+00 0.243010155916D-06 0.000000000000D+00  6 22 -2 9900012 11 -1 21 2 0.63773198D-02 0.25715322D-01 0.38482049D+04 0.38482049D+04 0.38482049D+04 0.12548547D+01  1  2 12  1  6  2       -2 0.135728810932D-05 0.100000000000D+01
-.560149612223D-07 0.000000000000D+00 0.000000000000D+00 0.243010155916D-06 0.000000000000D+00  6 22 -2 9900012 11 -1 21 2 0.63773198D-02 0.25122480D-01 0.38273020D+04 0.38273020D+04 0.38273020D+04 0.12551296D+01  1  2  4  1  6  2       -2 -.922428564903D-05 0.100000000000D+01
0.909331382758D-07 0.000000000000D+00 0.000000000000D+00 0.243010155916D-06 0.000000000000D+00  6 22 -2 9900012 11 -1 21 2 0.63773198D-02 0.25702029D-01 0.38273020D+04 0.38273020D+04 0.38273020D+04 0.12551296D+01  1  2  5  1  6  2       -2 0.144267554233D-04 0.100000000000D+01
-.909094937594D-07 0.000000000000D+00 0.000000000000D+00 0.243010155916D-06 0.000000000000D+00  6 22 -2 9900012 11 -1 21 2 0.63773198D-02 0.25122480D-01 0.38273020D+04 0.38273020D+04 0.38273020D+04 0.12551296D+01  1  2  6  1  6  2       -2 -.149705564433D-04 0.100000000000D+01
0.555166715021D-07 0.000000000000D+00 0.000000000000D+00 0.243010155916D-06 0.187112778649D-07  6 22 -2 9900012 11 -1 21 2 0.65264346D-02 0.25127783D-01 0.38482049D+04 0.38482049D+04 0.38482049D+04 0.12548547D+01  1  2 11  1  6  2       -2 0.885371506484D-05 0.100000000000D+01
0.439043675976D-09 0.000000000000D+00 0.000000000000D+00 0.243010155916D-06 0.000000000000D+00  6 22 21 9900012 11 2 -1 2 0.63773198D-02 0.25715322D-01 0.38482049D+04 0.38482049D+04 0.38482049D+04 0.12548547D+01  3  4 12  3  5  2       -2 0.888539816236D-06 0.100000000000D+01
0.416198678181D-06 0.000000000000D+00 0.000000000000D+00 0.243010155916D-06 0.536657430558D-07  6 22 21 9900012 11 2 -1 2 0.65264346D-02 0.25127783D-01 0.38482049D+04 0.38482049D+04 0.38482049D+04 0.12548547D+01  3  4 11  3  5  2       -2 0.850795000997D-03 0.100000000000D+01
  </mgrwgt>
  </event>
  <event>
  6     66 0.14151431E-05 0.83109795E+02 0.78161638E-02 0.11464360E+00
       22 -1    0    0    0    0 0.00000000E+00 0.00000000E+00 0.13448358E+03 0.13448358E+03 0.00000000E+00 0.0000E+00 0.9000E+01
       -4 -1    0    0    0  501 -.00000000E+00 -.00000000E+00 -.21214293E+03 0.21214293E+03 0.00000000E+00 0.0000E+00 0.9000E+01
      -24  2    1    2    0    0 -.81822723E+02 0.14569831E+02 0.99197821E+02 0.15121490E+03 0.78220835E+02 0.0000E+00 0.0000E+00
  9900012  1    3    3    0    0 -.56473723E+02 0.16888563E+01 0.39658801E+02 0.85234700E+02 0.50000000E+02 0.0000E+00 0.9000E+01
       11  1    3    3    0    0 -.25349000E+02 0.12880975E+02 0.59539020E+02 0.65980196E+02 0.00000000E+00 0.0000E+00 0.9000E+01
       -3  1    1    2    0  501 0.81822723E+02 -.14569831E+02 -.17685717E+03 0.19541161E+03 0.00000000E+00 0.0000E+00 0.9000E+01
#aMCatNLO 1  0  0  5  5 0.46575593D+02 0.00000000D+00  -5  6  0 0.00000000D+00 0.00000000D+00 0.00000000D+00 0.00000000D+00 0.00000000D+00
  <mgrwgt>
 0.2146475853D-04    4    2    0
 0.168907489560069D+03 0.000000000000000D+00 0.000000000000000D+00 0.168907489560069D+03
 0.168907489560069D+03 -.000000000000000D+00 -.000000000000000D+00 -.168907489560069D+03
 0.965750046146912D+02 -.564737230151329D+02 0.168885631961757D+01 0.602876263379921D+02
 0.813884762800311D+02 -.253490002123379D+02 0.128809751494112D+02 0.762600336914450D+02
 0.159851498225415D+03 0.818227232274709D+02 -.145698314690288D+02 -.136547660029437D+03
 0.000000000000000D+00 0.000000000000000D+00 0.000000000000000D+00 0.000000000000000D+00
 0.168907489560069D+03 0.000000000000000D+00 0.000000000000000D+00 0.168907489560069D+03
 0.168907489560069D+03 -.000000000000000D+00 -.000000000000000D+00 -.168907489560069D+03
 0.890137431745613D+02 -.517443543496081D+02 0.846717342892977D+00 0.523951461170803D+02
 0.738782878289203D+02 -.213923283897113D+02 0.121764270806105D+02 0.696570479000519D+02
 0.538307120018181D+02 -.148598916689450D+02 -.316010534727113D+02 -.409670915934332D+02
 0.121092236114838D+03 0.879965744082644D+02 0.185779090492077D+02 -.810851024236989D+02
0.555670884791D-05 0.000000000000D+00 0.000000000000D+00 0.140388471105D-05 0.000000000000D+00  6 22 -4 9900012 11 -3 21 0 0.20689781D-01 0.32637374D-01 0.87413157D+04 0.87413157D+04 0.87413157D+04 0.12154342D+01  1  2  2  2  6  5       -3 0.403689144536D-04 0.100000000000D+01
0.213484836938D-07 0.000000000000D+00 -.106696125455D-07 0.140388471105D-05 0.000000000000D+00  6 22 -4 9900012 11 -3 21 2 0.20689781D-01 0.32637374D-01 0.87413157D+04 0.87413157D+04 0.87413157D+04 0.12154342D+01  1  2  3  2  6  5       -3 0.229118073931D-06 0.100000000000D+01
-.100573248062D-05 0.000000000000D+00 0.000000000000D+00 0.140388471105D-05 0.000000000000D+00  6 22 -4 9900012 11 -3 21 2 0.20689781D-01 0.32637374D-01 0.87413157D+04 0.87413157D+04 0.87413157D+04 0.12154342D+01  1  2 15  2  6  5       -3 -.107938105654D-04 0.100000000000D+01
-.777044325235D-06 0.000000000000D+00 0.000000000000D+00 0.140388471105D-05 0.000000000000D+00  6 22 -4 9900012 11 -3 21 2 0.20689781D-01 0.32637374D-01 0.87413157D+04 0.87413157D+04 0.87413157D+04 0.12154342D+01  1  2  5  2  6  5       -3 -.833946343498D-05 0.100000000000D+01
  </mgrwgt>
  </event>
  <event>
  6     66 0.14151431E-05 0.38679329E+02 0.78161638E-02 0.12354169E+00
       22 -1    0    0    0    0 0.00000000E+00 0.00000000E+00 0.32913275E+02 0.32913275E+02 0.00000000E+00 0.0000E+00 0.9000E+01
       -2 -1    0    0    0  501 -.00000000E+00 -.00000000E+00 -.36664222E+03 0.36664222E+03 0.00000000E+00 0.0000E+00 0.9000E+01
      -24  2    1    2    0    0 0.13051727E+01 -.38657302E+02 -.29022431E+02 0.92403822E+02 0.78740551E+02 0.0000E+00 0.0000E+00
  9900012  1    3    3    0    0 0.11179374E+02 -.49967169E+02 -.29438630E+02 0.77384296E+02 0.50000000E+02 0.0000E+00 0.9000E+01
       11  1    3    3    0    0 -.98742009E+01 0.11309867E+02 0.41619853E+00 0.15019526E+02 0.00000000E+00 0.0000E+00 0.9000E+01
       -1  1    1    2    0  501 -.13051727E+01 0.38657302E+02 -.30470651E+03 0.30715167E+03 0.00000000E+00 0.0000E+00 0.9000E+01
#aMCatNLO 1  0  0  5  5 0.36113451D+02 0.00000000D+00  -5  6  0 0.00000000D+00 0.00000000D+00 0.00000000D+00 0.00000000D+00 0.00000000D+00
  <mgrwgt>
 0.4334480462D-04    4    2    0
 0.109851700581233D+03 0.000000000000000D+00 0.000000000000000D+00 0.109851700581233D+03
 0.109851700581233D+03 -.000000000000000D+00 -.000000000000000D+00 -.109851700581233D+03
 0.960148899244264D+02 0.111793736348773D+02 -.499671690663529D+02 0.640090830103511D+02
 0.279469115567779D+02 -.987420089463959D+01 0.113098669291165D+02 0.235715280009664D+02
 0.957415996812627D+02 -.130517274023774D+01 0.386573021372365D+02 -.875806110113175D+02
 0.000000000000000D+00 0.000000000000000D+00 0.000000000000000D+00 0.000000000000000D+00
 0.109851700581233D+03 0.000000000000000D+00 0.000000000000000D+00 0.109851700581233D+03
 0.109851700581233D+03 -.000000000000000D+00 -.000000000000000D+00 -.109851700581233D+03
 0.820493468510961D+02 0.109372262612163D+02 -.427951190405092D+02 0.477603411494420D+02
 0.251109218595121D+02 -.994635359215232D+01 0.134469239957987D+02 0.187298873970350D+02
 0.867511225815881D+02 0.195713529569329D+02 0.238835775573033D+02 -.810696869098751D+02
 0.257920098702706D+02 -.205622256259968D+02 0.546461748740720D+01 0.145794583633980D+02
0.157240363891D-05 0.000000000000D+00 0.000000000000D+00 0.126649306295D-05 0.000000000000D+00  6 22 -2 9900012 11 -1 21 0 0.50635808D-02 0.56406495D-01 0.39224615D+04 0.39224615D+04 0.39224615D+04 0.12538912D+01  1  2  2  2  6  5       -1 0.545273527560D-04 0.100000000000D+01
0.655851389946D-07 0.000000000000D+00 -.301922199841D-08 0.126649306295D-05 0.000000000000D+00  6 22 -2 9900012 11 -1 21 2 0.50635808D-02 0.56406495D-01 0.39224615D+04 0.39224615D+04 0.39224615D+04 0.12538912D+01  1  2  3  2  6  5       -1 0.357581906625D-05 0.100000000000D+01
-.255236809004D-06 0.000000000000D+00 0.000000000000D+00 0.126649306295D-05 0.000000000000D+00  6 22 -2 9900012 11 -1 21 2 0.50635808D-02 0.56406495D-01 0.39224615D+04 0.39224615D+04 0.39224615D+04 0.12538912D+01  1  2 15  2  6  5       -1 -.139159672761D-04 0.100000000000D+01
-.154507024389D-07 0.000000000000D+00 0.000000000000D+00 0.126649306295D-05 0.000000000000D+00  6 22 -2 9900012 11 -1 21 2 0.50635808D-02 0.56406495D-01 0.39224615D+04 0.39224615D+04 0.39224615D+04 0.12538912D+01  1  2  4  2  6  5       -1 -.842399928017D-06 0.100000000000D+01
  </mgrwgt>
  </event>
  <event>
  6     66 0.14151431E-05 0.16208772E+03 0.78161638E-02 0.10086761E+00
       22 -1    0    0    0    0 0.00000000E+00 0.00000000E+00 0.91241583E+02 0.91241583E+02 0.00000000E+00 0.0000E+00 0.9000E+01
       -2 -1    0    0    0  501 0.00000000E+00 0.00000000E+00 -.10687192E+04 0.10687192E+04 0.00000000E+00 0.0000E+00 0.9000E+01
      -24  2    1    2    0    0 0.14240491E+03 0.77416223E+02 -.94729712E+01 0.17847954E+03 0.74113301E+02 0.0000E+00 0.0000E+00
  9900012  1    3    3    0    0 0.12832389E+03 0.76162035E+02 0.60375391E+01 0.15749326E+03 0.50000000E+02 0.0000E+00 0.9000E+01
       11  1    3    3    0    0 0.14081018E+02 0.12541876E+01 -.15510510E+02 0.20986281E+02 0.00000000E+00 0.0000E+00 0.9000E+01
       -1  1    1    2    0  501 -.14240491E+03 -.77416223E+02 -.96800465E+03 0.98148125E+03 0.00000000E+00 0.0000E+00 0.9000E+01
#aMCatNLO 1  0  0  2  5 0.74728830D+01 0.00000000D+00  -5  6  0 0.00000000D+00 0.00000000D+00 0.00000000D+00 0.00000000D+00 0.00000000D+00
  <mgrwgt>
 0.6799429718D-04    7    4    0
 0.312268526011579D+03 0.000000000000000D+00 0.000000000000000D+00 0.312268526011579D+03
 0.312268526011579D+03 0.000000000000000D+00 0.000000000000000D+00 -.312268526011579D+03
 0.301963780400624D+03 0.128323888719381D+03 0.761620352724138D+02 0.257710008810165D+03
 0.147022280364980D+02 0.140810179979319D+02 0.125418755327896D+01 0.403824899681851D+01
 0.307871043586037D+03 -.142404906717313D+03 -.774162228256928D+02 -.261748257806984D+03
 0.000000000000000D+00 -.000000000000000D+00 0.000000000000000D+00 -.000000000000000D+00
 0.415754656079515D+03 0.000000000000000D+00 0.000000000000000D+00 0.415754656079515D+03
 0.419836249209173D+03 0.000000000000000D+00 0.000000000000000D+00 -.419836249209173D+03
 0.302938732391272D+03 0.150960047420833D+03 -.827593043682120D+01 0.257710008810165D+03
 0.160481806423028D+02 0.152317342146247D+02 -.303824287750488D+01 0.403824899681851D+01
 0.332194199674021D+03 -.118452917563149D+03 -.166762532221268D+03 -.261748257806984D+03
 0.184409792581092D+03 -.477388640723087D+02 0.178076705535595D+03 -.408159312965832D+01
 0.312268526011579D+03 0.000000000000000D+00 0.000000000000000D+00 0.312268526011579D+03
 0.312268526011579D+03 0.000000000000000D+00 0.000000000000000D+00 -.312268526011579D+03
 0.301963780400624D+03 0.128323888719381D+03 0.761620352724138D+02 0.257710008810165D+03
 0.147022280364980D+02 0.140810179979319D+02 0.125418755327896D+01 0.403824899681851D+01
 0.000000000000000D+00 -.000000000000000D+00 0.000000000000000D+00 -.000000000000000D+00
 0.307871043586037D+03 -.142404906717313D+03 -.774162228256928D+02 -.261748257806984D+03
 0.415754656079515D+03 0.000000000000000D+00 0.000000000000000D+00 0.415754656079515D+03
 0.419836249209173D+03 0.000000000000000D+00 0.000000000000000D+00 -.419836249209173D+03
 0.302938732391272D+03 0.150960047420833D+03 -.827593043682120D+01 0.257710008810165D+03
 0.160481806423028D+02 0.152317342146247D+02 -.303824287750488D+01 0.403824899681851D+01
 0.184409792581092D+03 -.477388640723087D+02 0.178076705535595D+03 -.408159312965832D+01
 0.332194199674021D+03 -.118452917563149D+03 -.166762532221268D+03 -.261748257806984D+03
0.825052497811D-04 0.000000000000D+00 0.000000000000D+00 0.486528700340D-06 0.000000000000D+00  6 22 -2 9900012 11 -1 21 0 0.14037167D-01 0.16441834D+00 0.27822570D+05 0.27822570D+05 0.27822570D+05 0.11658043D+01  1  2  2  1  6  2       -2 0.616792344765D-04 0.100000000000D+01
-.584864409000D-07 0.000000000000D+00 -.158420941645D-06 0.486528700340D-06 0.000000000000D+00  6 22 -2 9900012 11 -1 21 2 0.14037167D-01 0.16441834D+00 0.27822570D+05 0.27822570D+05 0.27822570D+05 0.11658043D+01  1  2  3  1  6  2       -2 -.594242743108D-07 0.100000000000D+01
-.127073593964D-04 0.000000000000D+00 0.000000000000D+00 0.486528700340D-06 0.000000000000D+00  6 22 -2 9900012 11 -1 21 2 0.14037167D-01 0.16441834D+00 0.27822570D+05 0.27822570D+05 0.27822570D+05 0.11658043D+01  1  2 15  1  6  2       -2 -.129111226280D-04 0.100000000000D+01
-.160461781565D-05 0.000000000000D+00 0.000000000000D+00 0.486528700340D-06 0.000000000000D+00  6 22 -2 9900012 11 -1 21 2 0.14037167D-01 0.16441834D+00 0.27822570D+05 0.27822570D+05 0.27822570D+05 0.11658043D+01  1  2  4  1  6  2       -2 -.163034795372D-05 0.100000000000D+01
-.103194582331D-04 0.000000000000D+00 -.241239464863D-04 0.486528700340D-06 0.000000000000D+00  6 22 -2 9900012 11 -1 21 2 0.14037167D-01 0.26492617D+00 0.27822570D+05 0.27822570D+05 0.27822570D+05 0.11658043D+01  1  2  5  1  6  2       -2 -.215454865046D-05 0.100000000000D+01
0.218056364507D-04 0.000000000000D+00 0.216172842155D-04 0.486528700340D-06 0.000000000000D+00  6 22 -2 9900012 11 -1 21 2 0.14037167D-01 0.16441834D+00 0.27822570D+05 0.27822570D+05 0.27822570D+05 0.11658043D+01  1  2  6  1  6  2       -2 0.221552910731D-04 0.100000000000D+01
0.469758631134D-06 0.000000000000D+00 -.131095644461D-05 0.486528700340D-06 0.000000000000D+00  6 22 21 9900012 11 2 -1 2 0.14037167D-01 0.26492617D+00 0.27822570D+05 0.27822570D+05 0.27822570D+05 0.11658043D+01  3  4  5  3  5  2       -2 0.915215136244D-06 0.100000000000D+01
  </mgrwgt>
  </event>
  <event>
  7     66 0.14151431E-05 0.37170999E+02 0.78161638E-02 0.12316063E+00
       22 -1    0    0    0    0 0.00000000E+00 0.00000000E+00 0.16187141E+02 0.16187141E+02 0.00000000E+00 0.0000E+00 0.9000E+01
       21 -1    0    0  502  501 0.00000000E+00 0.00000000E+00 -.16267076E+04 0.16267076E+04 0.00000000E+00 0.0000E+00 0.9000E+01
      -24  2    1    2    0    0 -.14285219E+01 -.52849913E+02 -.13364594E+03 0.16480738E+03 0.80654070E+02 0.0000E+00 0.0000E+00
  9900012  1    3    3    0    0 -.11978725E+02 -.51564484E+02 -.13568098E+03 0.15398608E+03 0.50000000E+02 0.0000E+00 0.9000E+01
       11  1    3    3    0    0 0.10550203E+02 -.12854294E+01 0.20350303E+01 0.10821297E+02 0.00000000E+00 0.0000E+00 0.9000E+01
        2  1    1    2  502    0 -.55651579E+01 0.10367407E+02 -.63819221E+03 0.63830068E+03 0.00000000E+00 0.0000E+00 0.9000E+01
       -1  1    1    2    0  501 0.69936798E+01 0.42482507E+02 -.83868234E+03 0.83978672E+03 0.00000000E+00 0.0000E+00 0.9000E+01
#aMCatNLO 2  0  0  2  5 0.93417889D+02 0.00000000D+00  -5  6  0 0.00000000D+00 0.00000000D+00 0.00000000D+00 0.00000000D+00 0.00000000D+00
  <mgrwgt>
 0.3414348317D-04    1    2    0
 0.126143332516775D+03 0.000000000000000D+00 0.000000000000000D+00 0.126143332516775D+03
 0.126143332516775D+03 0.000000000000000D+00 0.000000000000000D+00 -.126143332516775D+03
 0.883880705286963D+02 -.139467723340718D+02 -.478981832574050D+02 0.531385226919925D+02
 0.506474991037530D+02 0.943104591319288D+01 0.799464102264697D+00 0.497552549545985D+02
 0.000000000000000D+00 -.000000000000000D+00 0.000000000000000D+00 -.000000000000000D+00
 0.113251095401100D+03 0.451572642087894D+01 0.470987191551403D+02 -.102893777646591D+03
 0.126704960328735D+03 0.000000000000000D+00 0.000000000000000D+00 0.126704960328735D+03
 0.207819371740447D+03 0.000000000000000D+00 0.000000000000000D+00 -.207819371740447D+03
 0.901448194406326D+02 -.119787253992902D+02 -.515644840554548D+02 0.531385226919925D+02
 0.508777408913775D+02 0.105502034947999D+02 -.128542943460848D+01 0.497552549545985D+02
 0.819634177162183D+02 -.556515794548695D+01 0.103674067199397D+02 -.811144114117117D+02
 0.111538354020954D+03 0.699367984997723D+01 0.424825067701235D+02 -.102893777646591D+03
0.108737924615D-05 0.000000000000D+00 0.000000000000D+00 0.265550385186D-05 0.132758000901D-07  6 22 21 9900012 11 2 -1 2 0.24903293D-02 0.25026271D+00 0.47794190D+04 0.47794190D+04 0.47794190D+04 0.12440587D+01  1  2  1  3  5  2       -2 0.341434831662D-04 0.100000000000D+01
  </mgrwgt>
  </event>
  <event>
  6     66 0.14151431E-05 0.11319226E+02 0.78161638E-02 0.13113495E+00
       22 -1    0    0    0    0 0.00000000E+00 0.00000000E+00 0.97857711E+02 0.97857711E+02 0.00000000E+00 0.0000E+00 0.9000E+01
       -4 -1    0    0    0  501 0.00000000E+00 0.00000000E+00 -.11400390E+03 0.11400390E+03 0.00000000E+00 0.0000E+00 0.9000E+01
      -24  2    1    2    0    0 0.35406020E+01 -.10751233E+02 0.80643627E+02 0.11441217E+03 0.80365574E+02 0.0000E+00 0.0000E+00
  9900012  1    3    3    0    0 -.18598561E+02 -.42837990E+01 0.72152124E+02 0.89834217E+02 0.50000000E+02 0.0000E+00 0.9000E+01
       11  1    3    3    0    0 0.22139163E+02 -.64674341E+01 0.84915026E+01 0.24577955E+02 0.00000000E+00 0.0000E+00 0.9000E+01
       -3  1    1    2    0  501 -.35406020E+01 0.10751233E+02 -.96789813E+02 0.97449437E+02 0.00000000E+00 0.0000E+00 0.9000E+01
#aMCatNLO 1  0  0  2  5 0.50999457D+01 0.00000000D+00  -5  6  0 0.00000000D+00 0.00000000D+00 0.00000000D+00 0.00000000D+00 0.00000000D+00
  <mgrwgt>
 0.2235004761D-04   11    4    0
 0.105622727230900D+03 0.000000000000000D+00 0.000000000000000D+00 0.105622727230900D+03
 0.105622727230900D+03 0.000000000000000D+00 0.000000000000000D+00 -.105622727230900D+03
 0.956110671372363D+02 -.185985612288447D+02 -.428379895914056D+01 0.792289009504467D+02
 0.252986767038145D+02 0.221391632100968D+02 -.646743414320987D+01 0.103948444396280D+02
 0.903357106207487D+02 -.354060198125218D+01 0.107512331023504D+02 -.896237453900747D+02
 0.000000000000000D+00 -.000000000000000D+00 -.000000000000000D+00 -.000000000000000D+00
 0.105871205859443D+03 0.000000000000000D+00 0.000000000000000D+00 0.105871205859443D+03
 0.135203651858762D+03 0.000000000000000D+00 0.000000000000000D+00 -.135203651858762D+03
 0.953243857535124D+02 -.174417645958435D+02 -.230317633974068D+01 0.792289009504467D+02
 0.254400856670871D+02 0.224465677731818D+02 -.594110789572316D+01 0.103948444396280D+02
 0.905419618396705D+02 -.244474115855302D+01 0.126275237754320D+02 -.896237453900747D+02
 0.297684244579342D+02 -.256006201878520D+01 -.438323953996811D+01 -.293324459993191D+02
 0.105622727230900D+03 0.000000000000000D+00 0.000000000000000D+00 0.105622727230900D+03
 0.105622727230900D+03 0.000000000000000D+00 0.000000000000000D+00 -.105622727230900D+03
 0.956110671372363D+02 -.185985612288447D+02 -.428379895914056D+01 0.792289009504467D+02
 0.252986767038145D+02 0.221391632100968D+02 -.646743414320987D+01 0.103948444396280D+02
 0.000000000000000D+00 -.000000000000000D+00 -.000000000000000D+00 -.000000000000000D+00
 0.903357106207487D+02 -.354060198125218D+01 0.107512331023504D+02 -.896237453900747D+02
 0.105871205859443D+03 0.000000000000000D+00 0.000000000000000D+00 0.105871205859443D+03
 0.135203651858762D+03 0.000000000000000D+00 0.000000000000000D+00 -.135203651858762D+03
 0.953243857535124D+02 -.174417645958435D+02 -.230317633974068D+01 0.792289009504467D+02
 0.254400856670871D+02 0.224465677731818D+02 -.594110789572316D+01 0.103948444396280D+02
 0.297684244579342D+02 -.256006201878520D+01 -.438323953996811D+01 -.293324459993191D+02
 0.905419618396705D+02 -.244474115855302D+01 0.126275237754320D+02 -.896237453900747D+02
0.415410472538D-07 0.000000000000D+00 0.000000000000D+00 0.271574053098D-05 0.000000000000D+00  6 22 -4 9900012 11 -3 21 0 0.15055033D-01 0.17539061D-01 0.19317108D+04 0.19317108D+04 0.19317108D+04 0.12912232D+01  1  2  2  1  6  2       -4 0.124589673421D-05 0.100000000000D+01
0.890350399720D-08 0.000000000000D+00 -.797642797317D-10 0.271574053098D-05 0.000000000000D+00  6 22 -4 9900012 11 -3 21 2 0.15055033D-01 0.17539061D-01 0.19317108D+04 0.19317108D+04 0.19317108D+04 0.12912232D+01  1  2  3  1  6  2       -4 0.445213406973D-06 0.100000000000D+01
-.656402701249D-08 0.000000000000D+00 0.000000000000D+00 0.271574053098D-05 0.000000000000D+00  6 22 -4 9900012 11 -3 21 2 0.15055033D-01 0.17539061D-01 0.19317108D+04 0.19317108D+04 0.19317108D+04 0.12912232D+01  1  2 15  1  6  2       -4 -.328229518470D-06 0.100000000000D+01
0.533680866028D-06 0.000000000000D+00 0.000000000000D+00 0.271574053098D-05 0.000000000000D+00  6 22 -4 9900012 11 -3 21 2 0.15055033D-01 0.22503904D-01 0.22166440D+04 0.22166440D+04 0.22166440D+04 0.12837018D+01  1  2 12  1  6  2       -4 0.174085296844D-04 0.100000000000D+01
-.160800740321D-06 0.000000000000D+00 0.000000000000D+00 0.271574053098D-05 0.000000000000D+00  6 22 -4 9900012 11 -3 21 2 0.15055033D-01 0.17539061D-01 0.19317108D+04 0.19317108D+04 0.19317108D+04 0.12912232D+01  1  2  4  1  6  2       -4 -.804072705134D-05 0.100000000000D+01
-.122749168101D-05 0.000000000000D+00 -.227815792616D-07 0.271574053098D-05 0.000000000000D+00  6 22 -4 9900012 11 -3 21 2 0.15055033D-01 0.22477540D-01 0.19317108D+04 0.19317108D+04 0.19317108D+04 0.12912232D+01  1  2  5  1  6  2       -4 -.398720806285D-04 0.100000000000D+01
0.119680791247D-05 0.000000000000D+00 0.220980528820D-07 0.271574053098D-05 0.000000000000D+00  6 22 -4 9900012 11 -3 21 2 0.15055033D-01 0.17539061D-01 0.19317108D+04 0.19317108D+04 0.19317108D+04 0.12912232D+01  1  2  6  1  6  2       -4 0.598455314188D-04 0.100000000000D+01
0.670882687412D-07 0.000000000000D+00 0.000000000000D+00 0.271574053098D-05 0.126070990448D-06  6 22 -4 9900012 11 -3 21 2 0.15090450D-01 0.22451088D-01 0.22166440D+04 0.22166440D+04 0.22166440D+04 0.12837018D+01  1  2 11  1  6  2       -4 0.219016646298D-05 0.100000000000D+01
0.180219353588D-07 0.000000000000D+00 0.000000000000D+00 0.271574053098D-05 0.000000000000D+00  6 22 21 9900012 11 4 -3 2 0.15055033D-01 0.22503904D-01 0.22166440D+04 0.22166440D+04 0.22166440D+04 0.12837018D+01  3  4 12  3  5  2       -4 0.139393354190D-04 0.100000000000D+01
-.409302936891D-07 0.000000000000D+00 -.766641153571D-09 0.271574053098D-05 0.000000000000D+00  6 22 21 9900012 11 4 -3 2 0.15055033D-01 0.22477540D-01 0.19317108D+04 0.19317108D+04 0.19317108D+04 0.12912232D+01  3  4  5  3  5  2       -4 -.317632395596D-04 0.100000000000D+01
0.940452129331D-08 0.000000000000D+00 0.000000000000D+00 0.271574053098D-05 0.171881270175D-07  6 22 21 9900012 11 4 -3 2 0.15090450D-01 0.22451088D-01 0.22166440D+04 0.22166440D+04 0.22166440D+04 0.12837018D+01  3  4 11  3  5  2       -4 0.727965123877D-05 0.100000000000D+01
  </mgrwgt>
  </event>
  <event>
  6     66 -.14151431E-05 0.40366997E+02 0.78161638E-02 0.12437655E+00
       22 -1    0    0    0    0 0.00000000E+00 0.00000000E+00 0.26922062E+03 0.26922062E+03 0.00000000E+00 0.0000E+00 0.9000E+01
       -4 -1    0    0    0  501 -.00000000E+00 -.00000000E+00 -.45658836E+03 0.45658836E+03 0.00000000E+00 0.0000E+00 0.9000E+01
      -24  2    1    2    0    0 -.24398109E+00 0.40366259E+02 0.26075735E+03 0.27586944E+03 0.80498796E+02 0.0000E+00 0.0000E+00
  9900012  1    3    3    0    0 0.15682346E+02 0.48785068E+02 0.21855401E+03 0.22998211E+03 0.50000000E+02 0.0000E+00 0.9000E+01
       11  1    3    3    0    0 -.15926327E+02 -.84188090E+01 0.42203344E+02 0.45887324E+02 0.00000000E+00 0.0000E+00 0.9000E+01
       -3  1    1    2    0  501 0.24398109E+00 -.40366259E+02 -.44812509E+03 0.44993954E+03 0.00000000E+00 0.0000E+00 0.9000E+01
#aMCatNLO 1  0  0  5  2 0.41835221D+01 0.00000000D+00  -5  6  0 0.00000000D+00 0.00000000D+00 0.00000000D+00 0.00000000D+00 0.00000000D+00
  <mgrwgt>
 -.7151701209D-05    1    2    0
 0.350603765534663D+03 0.000000000000000D+00 0.000000000000000D+00 0.350603765534663D+03
 0.350603765534663D+03 -.000000000000000D+00 -.000000000000000D+00 -.350603765534663D+03
 0.296450113774998D+03 0.156823457603629D+02 0.487850684611603D+02 0.287674731396245D+03
 0.587742925464083D+02 -.159263268515088D+02 -.841880900957700D+01 0.559454487175673D+02
 0.345983124747919D+03 0.243981091145882D+00 -.403662594515834D+02 -.343620180113812D+03
 0.000000000000000D+00 0.000000000000000D+00 0.000000000000000D+00 0.000000000000000D+00
 0.350603765534663D+03 0.000000000000000D+00 0.000000000000000D+00 0.350603765534663D+03
 0.350603765534663D+03 -.000000000000000D+00 -.000000000000000D+00 -.350603765534663D+03
 0.964964246018971D+02 0.158316910133388D+02 0.240761485970215D+02 0.773385840919130D+02
 0.239608096353041D+02 -.158948821292411D+02 -.136212851993494D+02 0.116590612827446D+02
 0.323446369729547D+03 0.132960538380348D+03 0.109656601676423D+03 -.273705095008494D+03
 0.257303927102578D+03 -.132897347264445D+03 -.120111465074095D+03 0.184707449633837D+03
-.985728200152D-05 0.000000000000D+00 0.000000000000D+00 0.256021798415D-03 0.000000000000D+00  6 22 -4 9900012 11 -3 21 2 0.41418557D-01 0.70244363D-01 0.42235100D+04 0.42235100D+04 0.42235100D+04 0.12501847D+01  1  2 14  2  6  5       -3 -.715170120942D-05 0.100000000000D+01
  </mgrwgt>
  </event>
  <event>
  6     66 -.14151431E-05 0.20444313E+02 0.78161638E-02 0.12564814E+00
       22 -1    0    0    0    0 0.00000000E+00 0.00000000E+00 0.14468610E+03 0.14468610E+03 0.00000000E+00 0.0000E+00 0.9000E+01
       -2 -1    0    0    0  501 -.00000000E+00 -.00000000E+00 -.47875333E+03 0.47875333E+03 0.00000000E+00 0.0000E+00 0.9000E+01
      -24  2    1    2    0    0 0.28449791E+01 0.20245395E+02 0.13218963E+03 0.15673456E+03 0.81692444E+02 0.0000E+00 0.0000E+00
  9900012  1    3    3    0    0 -.84397192E+00 -.15434949E+01 0.46716799E+02 0.68451106E+02 0.50000000E+02 0.0000E+00 0.9000E+01
       11  1    3    3    0    0 0.36889510E+01 0.21788890E+02 0.85472830E+02 0.88283457E+02 0.00000000E+00 0.0000E+00 0.9000E+01
       -1  1    1    2    0  501 -.28449791E+01 -.20245395E+02 -.46625686E+03 0.46670486E+03 0.00000000E+00 0.0000E+00 0.9000E+01
#aMCatNLO 1  0  0  5  2 0.45678906D+01 0.00000000D+00  -5  6  0 0.00000000D+00 0.00000000D+00 0.00000000D+00 0.00000000D+00 0.00000000D+00
  <mgrwgt>
 -.8809015740D-04    4    2    0
 0.263189952026593D+03 0.000000000000000D+00 0.000000000000000D+00 0.263189952026593D+03
 0.263189952026593D+03 -.000000000000000D+00 -.000000000000000D+00 -.263189952026593D+03
 0.110721685323199D+03 -.843971919287564D+00 -.154349487575692D+01 0.987734627102714D+02
 0.158807467108921D+03 0.368895102675872D+01 0.217888901954664D+02 0.157262352500283D+03
 0.256850751621065D+03 -.284497910747118D+01 -.202453953197096D+02 -.256035815210554D+03
 0.000000000000000D+00 -.000000000000000D+00 0.000000000000000D+00 0.000000000000000D+00
 0.263189952026593D+03 0.000000000000000D+00 0.000000000000000D+00 0.263189952026593D+03
 0.263189952026593D+03 -.000000000000000D+00 -.000000000000000D+00 -.263189952026593D+03
 0.109815994854575D+03 -.855280535883949D+00 -.162396907428850D+01 0.977557361260742D+02
 0.157346509632632D+03 0.367273944737913D+01 0.216735256107372D+02 0.155803380470785D+03
 0.724892346511519D+02 0.214245746149230D+02 -.765141061406340D+01 -.688268309490881D+02
 0.186728164914826D+03 -.242420335264183D+02 -.123981459223854D+02 -.184732285647772D+03
0.317577687434D-04 0.000000000000D+00 0.000000000000D+00 0.522907645696D-04 0.000000000000D+00  6 22 -2 9900012 11 -1 21 0 0.22259400D-01 0.73654358D-01 0.21424962D+04 0.21424962D+04 0.21424962D+04 0.12855487D+01  1  2  2  2  6  5       -1 0.770661544535D-04 0.100000000000D+01
0.383722924776D-05 0.000000000000D+00 -.609790969935D-07 0.522907645696D-04 0.000000000000D+00  6 22 -2 9900012 11 -1 21 2 0.22259400D-01 0.73654358D-01 0.21424962D+04 0.21424962D+04 0.21424962D+04 0.12855487D+01  1  2  3  2  6  5       -1 0.153889335759D-04 0.100000000000D+01
-.516271637160D-05 0.000000000000D+00 0.000000000000D+00 0.522907645696D-04 0.000000000000D+00  6 22 -2 9900012 11 -1 21 2 0.22259400D-01 0.73654358D-01 0.21424962D+04 0.21424962D+04 0.21424962D+04 0.12855487D+01  1  2 15  2  6  5       -1 -.207047049274D-04 0.100000000000D+01
-.398562248615D-04 0.000000000000D+00 0.000000000000D+00 0.522907645696D-04 0.000000000000D+00  6 22 -2 9900012 11 -1 21 2 0.22259400D-01 0.73654358D-01 0.21424962D+04 0.21424962D+04 0.21424962D+04 0.12855487D+01  1  2  5  2  6  5       -1 -.159840540498D-03 0.100000000000D+01
  </mgrwgt>
  </event>
  <event>
  7     66 -.14151431E-05 0.87734002E+02 0.78161638E-02 0.11519541E+00
       22 -1    0    0    0    0 0.00000000E+00 0.00000000E+00 0.49259163E+03 0.49259163E+03 0.00000000E+00 0.0000E+00 0.9000E+01
       -2 -1    0    0    0  501 0.00000000E+00 0.00000000E+00 -.55208140E+02 0.55208140E+02 0.00000000E+00 0.0000E+00 0.9000E+01
      -24  2    1    2    0    0 -.31000834E+02 -.87275536E+02 0.43603098E+03 0.45219470E+03 0.76019427E+02 0.0000E+00 0.0000E+00
  9900012  1    3    3    0    0 -.42172306E+02 -.56241006E+02 0.33426754E+03 0.34521926E+03 0.50000000E+02 0.0000E+00 0.9000E+01
       11  1    3    3    0    0 0.11171473E+02 -.31034530E+02 0.10176345E+03 0.10697543E+03 0.00000000E+00 0.0000E+00 0.9000E+01
       -1  1    1    2    0  502 0.34037948E+02 0.74124065E+02 -.23817221E+01 0.81600438E+02 0.00000000E+00 0.0000E+00 0.9000E+01
       21  1    1    2  502  501 -.30371147E+01 0.13151471E+02 0.37342242E+01 0.14004631E+02 0.00000000E+00 0.0000E+00 0.9000E+01
#aMCatNLO 2  0  0  5  2 0.75982428D+01 0.00000000D+00  -5  6  0 0.00000000D+00 0.00000000D+00 0.00000000D+00 0.00000000D+00 0.00000000D+00
  <mgrwgt>
 -.4313711215D-04    2    2    0
 0.164909269792337D+03 0.000000000000000D+00 0.000000000000000D+00 0.164909269792337D+03
 0.164909269792337D+03 -.000000000000000D+00 -.000000000000000D+00 -.164909269792337D+03
 0.130742546039776D+03 -.423144765193095D+02 -.566412536584890D+02 0.979533909870117D+02
 0.429275308957762D+02 0.111247875616317D+02 -.311659606510157D+02 0.273440104449900D+02
 0.156148462649122D+03 0.311896889576778D+02 0.878072143095047D+02 -.125297401432002D+03
 0.000000000000000D+00 0.000000000000000D+00 0.000000000000000D+00 0.000000000000000D+00
 0.164909269792337D+03 0.000000000000000D+00 0.000000000000000D+00 0.164909269792337D+03
 0.164909269792337D+03 -.000000000000000D+00 -.000000000000000D+00 -.164909269792337D+03
 0.130095571162053D+03 -.421723061314630D+02 -.562410064572090D+02 0.973822541545180D+02
 0.427249035603880D+02 0.111714726088835D+02 -.310345299094444D+02 0.271564640057063D+02
 0.138689677141428D+03 0.340379481761843D+02 0.741240649454285D+02 -.112168924509041D+03
 0.183083877208041D+02 -.303711465360482D+01 0.131514714212249D+02 -.123697936511833D+02
-.442287667173D-05 0.000000000000D+00 0.000000000000D+00 0.206859653770D-06 0.000000000000D+00  6 22 -2 9900012 11 -1 21 2 0.75783327D-01 0.84935600D-02 0.11482377D+05 0.11482377D+05 0.11482377D+05 0.12031576D+01  1  2 13  2  6  5       -1 -.914334601985D-04 0.100000000000D+01
0.233622123310D-05 0.000000000000D+00 0.000000000000D+00 0.206859653770D-06 0.131772543467D-07  6 22 -2 9900012 11 -1 21 2 0.75783327D-01 0.84935600D-02 0.11482377D+05 0.11482377D+05 0.11482377D+05 0.12031576D+01  1  2  1  2  6  5       -1 0.482963480527D-04 0.100000000000D+01
  </mgrwgt>
  </event>
  <event>
  6     66 0.14151431E-05 0.17893325E+02 0.78161638E-02 0.12507344E+00
       22 -1    0    0    0    0 0.00000000E+00 0.00000000E+00 0.57591641E+03 0.57591641E+03 0.00000000E+00 0.0000E+00 0.9000E+01
       -2 -1    0    0    0  501 0.00000000E+00 0.00000000E+00 -.49796260E+01 0.49796260E+01 0.00000000E+00 0.0000E+00 0.9000E+01
      -24  2    1    2    0    0 -.83356098E+01 0.15833151E+02 0.52011037E+03 0.52701194E+03 0.83106081E+02 0.0000E+00 0.0000E+00
  9900012  1    3    3    0    0 -.28025341E+02 0.23044050E+02 0.32856881E+03 0.33432605E+03 0.50000000E+02 0.0000E+00 0.9000E+01
       11  1    3    3    0    0 0.19689732E+02 -.72108987E+01 0.19154156E+03 0.19268589E+03 0.00000000E+00 0.0000E+00 0.9000E+01
       -1  1    1    2    0  501 0.83356098E+01 -.15833151E+02 0.50826419E+02 0.53884097E+02 0.00000000E+00 0.0000E+00 0.9000E+01
#aMCatNLO 1  0  0  2  2 0.48744735D+03 0.00000000D+00  -5  6  0 0.00000000D+00 0.00000000D+00 0.00000000D+00 0.00000000D+00 0.00000000D+00
  <mgrwgt>
 0.3441004184D-04    4    2    0
 0.535522952943393D+02 0.000000000000000D+00 0.000000000000000D+00 0.535522952943393D+02
 0.535522952943393D+02 0.000000000000000D+00 0.000000000000000D+00 -.535522952943393D+02
 0.617775597135225D+02 -.280253413573719D+02 0.230440497503425D+02 -.137466593610773D+00
 0.240171480311005D+02 0.196897315382689D+02 -.721089872433024D+01 0.117107135173800D+02
 0.213098828440555D+02 0.833560981910297D+01 -.158331510260122D+02 -.115732469237692D+02
 0.000000000000000D+00 -.000000000000000D+00 -.000000000000000D+00 0.000000000000000D+00
 0.766272275751435D+02 0.000000000000000D+00 0.000000000000000D+00 0.766272275751435D+02
 0.601348790809548D+02 0.000000000000000D+00 0.000000000000000D+00 -.601348790809548D+02
 0.585493741958049D+02 -.161569309904704D+02 0.258256442828673D+02 -.137466593610773D+00
 0.281028589544206D+02 0.248305725048980D+02 -.600604190835477D+01 0.117107135173800D+02
 0.226736258705170D+02 0.126739097644344D+02 -.148163854242733D+02 -.115732469237692D+02
 0.274362476353558D+02 -.213475512788620D+02 -.500321695023925D+01 0.164923484941886D+02
0.147600318011D-06 0.000000000000D+00 0.000000000000D+00 0.107181142050D-07 0.000000000000D+00  6 22 -2 9900012 11 -1 21 0 0.88602525D-01 0.76609630D-03 0.25320692D+04 0.25320692D+04 0.25320692D+04 0.12765583D+01  1  2  2  1  6  2       -2 0.414436624513D-04 0.100000000000D+01
0.597679428222D-08 0.000000000000D+00 -.283412042608D-09 0.107181142050D-07 0.000000000000D+00  6 22 -2 9900012 11 -1 21 2 0.88602525D-01 0.76609630D-03 0.25320692D+04 0.25320692D+04 0.25320692D+04 0.12765583D+01  1  2  3  1  6  2       -2 0.273476754277D-05 0.100000000000D+01
-.195558120052D-07 0.000000000000D+00 0.000000000000D+00 0.107181142050D-07 0.000000000000D+00  6 22 -2 9900012 11 -1 21 2 0.88602525D-01 0.76609630D-03 0.25320692D+04 0.25320692D+04 0.25320692D+04 0.12765583D+01  1  2 15  1  6  2       -2 -.894804094285D-05 0.100000000000D+01
-.179285678601D-08 0.000000000000D+00 0.000000000000D+00 0.107181142050D-07 0.000000000000D+00  6 22 -2 9900012 11 -1 21 2 0.88602525D-01 0.76609630D-03 0.25320692D+04 0.25320692D+04 0.25320692D+04 0.12765583D+01  1  2  4  1  6  2       -2 -.820347215531D-06 0.100000000000D+01
  </mgrwgt>
  </event>
  <event>
  6     66 0.14151431E-05 0.54767308E+02 0.78161638E-02 0.12031435E+00
       22 -1    0    0    0    0 0.00000000E+00 0.00000000E+00 0.20470504E+03 0.20470504E+03 0.00000000E+00 0.0000E+00 0.9000E+01
       -2 -1    0    0    0  501 0.00000000E+00 0.00000000E+00 -.26138237E+03 0.26138237E+03 0.00000000E+00 0.0000E+00 0.9000E+01
      -24  2    1    2    0    0 -.12193916E+02 -.55284790E+02 0.19009633E+03 0.21290300E+03 0.77369085E+02 0.0000E+00 0.0000E+00
  9900012  1    3    3    0    0 -.25627431E+01 -.62760469E+02 0.14040132E+03 0.16173427E+03 0.50000000E+02 0.0000E+00 0.9000E+01
       11  1    3    3    0    0 -.96311725E+01 0.74756789E+01 0.49695006E+02 0.51168730E+02 0.00000000E+00 0.0000E+00 0.9000E+01
       -1  1    1    2    0  501 0.12193916E+02 0.55284790E+02 -.24677366E+03 0.25318440E+03 0.00000000E+00 0.0000E+00 0.9000E+01
#aMCatNLO 1  0  0  2  5 0.36486258D+02 0.00000000D+00  -5  6  0 0.00000000D+00 0.00000000D+00 0.00000000D+00 0.00000000D+00 0.00000000D+00
  <mgrwgt>
 0.8488527181D-04    6    4    0
 0.231314259851520D+03 0.000000000000000D+00 0.000000000000000D+00 0.231314259851520D+03
 0.231314259851520D+03 0.000000000000000D+00 0.000000000000000D+00 -.231314259851520D+03
 0.180144277609281D+03 -.256274306527986D+01 -.627604686532922D+02 0.161265361059870D+03
 0.576395091450802D+02 -.963117248682861D+01 0.747567887284984D+01 0.563353153572852D+02
 0.224844732948679D+03 0.121939155521085D+02 0.552847897804423D+02 -.217600676417155D+03
 0.000000000000000D+00 0.000000000000000D+00 0.000000000000000D+00 0.000000000000000D+00
 0.248635302231972D+03 0.000000000000000D+00 0.000000000000000D+00 0.248635302231972D+03
 0.234543458984167D+03 0.000000000000000D+00 0.000000000000000D+00 -.234543458984167D+03
 0.182141036113590D+03 -.440335842950062D+01 -.681868813871371D+02 0.161265361059870D+03
 0.575422411142864D+02 -.102163612625663D+02 0.575045377362849D+01 0.563353153572852D+02
 0.223176763806485D+03 0.991771163438759D+01 0.485741960496454D+02 -.217600676417155D+03
 0.203187201817774D+02 0.470200805767932D+01 0.138622315638633D+02 0.140918432478055D+02
 0.231314259851520D+03 0.000000000000000D+00 0.000000000000000D+00 0.231314259851520D+03
 0.231314259851520D+03 0.000000000000000D+00 0.000000000000000D+00 -.231314259851520D+03
 0.180144277609281D+03 -.256274306527986D+01 -.627604686532922D+02 0.161265361059870D+03
 0.576395091450802D+02 -.963117248682861D+01 0.747567887284984D+01 0.563353153572852D+02
 0.000000000000000D+00 0.000000000000000D+00 0.000000000000000D+00 0.000000000000000D+00
 0.224844732948679D+03 0.121939155521085D+02 0.552847897804423D+02 -.217600676417155D+03
 0.248635302231972D+03 0.000000000000000D+00 0.000000000000000D+00 0.248635302231972D+03
 0.234543458984167D+03 0.000000000000000D+00 0.000000000000000D+00 -.234543458984167D+03
 0.182141036113590D+03 -.440335842950062D+01 -.681868813871371D+02 0.161265361059870D+03
 0.575422411142864D+02 -.102163612625663D+02 0.575045377362849D+01 0.563353153572852D+02
 0.203187201817774D+02 0.470200805767932D+01 0.138622315638633D+02 0.140918432478055D+02
 0.223176763806485D+03 0.991771163438759D+01 0.485741960496454D+02 -.217600676417155D+03
0.109051496454D-04 0.000000000000D+00 0.000000000000D+00 0.768573032299D-05 0.000000000000D+00  6 22 -2 9900012 11 -1 21 0 0.31493082D-01 0.40212672D-01 0.55568928D+04 0.55568928D+04 0.55568928D+04 0.12367156D+01  1  2  2  1  6  2       -2 0.522917470770D-04 0.100000000000D+01
0.340416968003D-06 0.000000000000D+00 -.209393230151D-07 0.768573032299D-05 0.000000000000D+00  6 22 -2 9900012 11 -1 21 2 0.31493082D-01 0.40212672D-01 0.55568928D+04 0.55568928D+04 0.55568928D+04 0.12367156D+01  1  2  3  1  6  2       -2 0.249661989008D-05 0.100000000000D+01
-.184137742032D-05 0.000000000000D+00 0.000000000000D+00 0.768573032299D-05 0.000000000000D+00  6 22 -2 9900012 11 -1 21 2 0.31493082D-01 0.40212672D-01 0.55568928D+04 0.55568928D+04 0.55568928D+04 0.12367156D+01  1  2 15  1  6  2       -2 -.135046719900D-04 0.100000000000D+01
0.603399970658D-05 0.000000000000D+00 0.000000000000D+00 0.768573032299D-05 0.000000000000D+00  6 22 -2 9900012 11 -1 21 2 0.31493082D-01 0.43827251D-01 0.64486422D+04 0.64486422D+04 0.64486422D+04 0.12295994D+01  1  2 12  1  6  2       -2 0.377838960610D-04 0.100000000000D+01
-.860319035997D-07 0.000000000000D+00 0.000000000000D+00 0.768573032299D-05 0.000000000000D+00  6 22 -2 9900012 11 -1 21 2 0.31493082D-01 0.40212672D-01 0.55568928D+04 0.55568928D+04 0.55568928D+04 0.12367156D+01  1  2  4  1  6  2       -2 -.630958447719D-06 0.100000000000D+01
0.898690961650D-07 0.000000000000D+00 0.000000000000D+00 0.768573032299D-05 0.000000000000D+00  6 22 21 9900012 11 2 -1 2 0.31493082D-01 0.43827251D-01 0.64486422D+04 0.64486422D+04 0.64486422D+04 0.12295994D+01  3  4 12  3  5  2       -2 0.644863922450D-05 0.100000000000D+01
  </mgrwgt>
  </event>
  <event>
  6     66 0.14151431E-05 0.22035048E+02 0.78161638E-02 0.13118754E+00
       22 -1    0    0    0    0 0.00000000E+00 0.00000000E+00 0.44365237E+02 0.44365237E+02 0.00000000E+00 0.0000E+00 0.9000E+01
       -2 -1    0    0    0  501 -.00000000E+00 -.00000000E+00 -.55239686E+02 0.55239686E+02 0.00000000E+00 0.0000E+00 0.9000E+01
      -24  2    1    2    0    0 0.12825581E+02 0.17917806E+02 0.46509884E+01 0.72649728E+02 0.69071036E+02 0.0000E+00 0.0000E+00
  9900012  1    3    3    0    0 0.25588947E+02 0.18476744E+02 0.73757541E+01 0.59586794E+02 0.50000000E+02 0.0000E+00 0.9000E+01
       11  1    3    3    0    0 -.12763365E+02 -.55893740E+00 -.27247657E+01 0.13062934E+02 0.00000000E+00 0.0000E+00 0.9000E+01
       -1  1    1    2    0  501 -.12825581E+02 -.17917806E+02 -.15525437E+02 0.26955195E+02 0.00000000E+00 0.0000E+00 0.9000E+01
#aMCatNLO 1  0  0  5  2 0.26416220D-01 0.00000000D+00  -5  6  0 0.00000000D+00 0.00000000D+00 0.00000000D+00 0.00000000D+00 0.00000000D+00
  <mgrwgt>
 0.6012427917D-04    7    2    0
 0.495047650843371D+02 0.000000000000000D+00 0.000000000000000D+00 0.495047650843371D+02
 0.495047650843371D+02 -.000000000000000D+00 -.000000000000000D+00 -.495047650843371D+02
 0.607552149160312D+02 0.255889468721231D+02 0.184767438300827D+02 0.139646652271475D+02
 0.128422208950253D+02 -.127633654474335D+02 -.558937401180095D+00 -.130641836845902D+01
 0.254120943576177D+02 -.128255814246896D+02 -.179178064289026D+02 -.126582468586884D+02
 0.000000000000000D+00 0.000000000000000D+00 -.000000000000000D+00 0.000000000000000D+00
 0.495047650843371D+02 0.000000000000000D+00 0.000000000000000D+00 0.495047650843371D+02
 0.495047650843371D+02 -.000000000000000D+00 -.000000000000000D+00 -.495047650843371D+02
 0.607551160097319D+02 0.255888546857620D+02 0.184766150423639D+02 0.139645742435361D+02
 0.128422434027194D+02 -.127633849334911D+02 -.558964623915321D+00 -.130643760028318D+01
 0.241802831795482D+02 -.122148486383306D+02 -.170306584205054D+02 -.120598607433869D+02
 0.123188757667469D+01 -.610621113940351D+00 -.886991997943178D+00 -.598275899865990D+00
0.273390772787D-08 0.000000000000D+00 0.000000000000D+00 0.132782581091D-08 0.000000000000D+00  6 22 -2 9900012 11 -1 21 0 0.68254211D-02 0.84984132D-02 0.22061427D+04 0.22061427D+04 0.22061427D+04 0.12839591D+01  1  2  2  2  6  5       -1 0.129659393261D-05 0.100000000000D+01
0.456672409685D-10 0.000000000000D+00 -.524946276473D-11 0.132782581091D-08 0.000000000000D+00  6 22 -2 9900012 11 -1 21 2 0.68254211D-02 0.84984132D-02 0.22061427D+04 0.22061427D+04 0.22061427D+04 0.12839591D+01  1  2  3  2  6  5       -1 0.357048572526D-07 0.100000000000D+01
-.368751233357D-09 0.000000000000D+00 0.000000000000D+00 0.132782581091D-08 0.000000000000D+00  6 22 -2 9900012 11 -1 21 2 0.68254211D-02 0.84984132D-02 0.22061427D+04 0.22061427D+04 0.22061427D+04 0.12839591D+01  1  2 15  2  6  5       -1 -.288307545398D-06 0.100000000000D+01
-.338270448858D-04 0.000000000000D+00 0.000000000000D+00 0.132782581091D-08 0.000000000000D+00  6 22 -2 9900012 11 -1 21 2 0.68254211D-02 0.84984132D-02 0.22061427D+04 0.22061427D+04 0.22061427D+04 0.12839591D+01  1  2  4  2  6  5       -1 -.264476194162D-01 0.100000000000D+01
-.330684169040D-04 0.000000000000D+00 0.000000000000D+00 0.132782581091D-08 0.000000000000D+00  6 22 -2 9900012 11 -1 21 2 0.68254211D-02 0.84984132D-02 0.22061427D+04 0.22061427D+04 0.22061427D+04 0.12839591D+01  1  2  5  2  6  5       -1 -.258544873762D-01 0.100000000000D+01
0.347102625300D-04 0.000000000000D+00 -.000000000000D+00 0.132782581091D-08 0.000000000000D+00  6 22 -2 9900012 11 -1 21 2 0.68254211D-02 0.84984132D-02 0.22061427D+04 0.22061427D+04 0.22061427D+04 0.12839591D+01  1  2  6  2  6  5       -1 0.271381616789D-01 0.100000000000D+01
0.322607660545D-04 0.000000000000D+00 0.000000000000D+00 0.132782581091D-08 0.147957255370D-04  6 22 -2 9900012 11 -1 21 2 0.68254211D-02 0.84984132D-02 0.22061398D+04 0.22061398D+04 0.22061398D+04 0.12839592D+01  1  2 11  2  6  5       -1 0.252230254015D-01 0.100000000000D+01
  </mgrwgt>
  </event>
  <event>
  6     66 0.14151431E-05 0.41215313E+02 0.78161638E-02 0.12337911E+00
       22 -1    0    0    0    0 0.00000000E+00 0.00000000E+00 0.86738760E+01 0.86738760E+01 0.00000000E+00 0.0000E+00 0.9000E+01
       -2 -1    0    0    0  501 -.00000000E+00 -.00000000E+00 -.82064849E+03 0.82064849E+03 0.00000000E+00 0.0000E+00 0.9000E+01
      -24  2    1    2    0    0 -.52765626E+02 -.99971499E+01 -.32678510E+03 0.34116971E+03 0.82000689E+02 0.0000E+00 0.0000E+00
  9900012  1    3    3    0    0 -.36592015E+02 0.55678482E+01 -.29923439E+03 0.30563245E+03 0.50000000E+02 0.0000E+00 0.9000E+01
       11  1    3    3    0    0 -.16173611E+02 -.15564998E+02 -.27550719E+02 0.35537262E+02 0.00000000E+00 0.0000E+00 0.9000E+01
       -1  1    1    2    0  501 0.52765626E+02 0.99971499E+01 -.48518951E+03 0.48815266E+03 0.00000000E+00 0.0000E+00 0.9000E+01
#aMCatNLO 1  0  0  5  2 0.14495516D+02 0.00000000D+00  -5  6  0 0.00000000D+00 0.00000000D+00 0.00000000D+00 0.00000000D+00 0.00000000D+00
  <mgrwgt>
 0.1287939337D-03    7    2    0
 0.843694449290326D+02 0.000000000000000D+00 0.000000000000000D+00 0.843694449290326D+02
 0.843694449290326D+02 -.000000000000000D+00 -.000000000000000D+00 -.843694449290326D+02
 0.622091394968326D+02 -.365920146415306D+02 0.556784818906169D+01 0.238317843531308D-01
 0.420849148513344D+02 -.161736113849319D+02 -.155649981255977D+02 0.355989492283608D+02
 0.644448355098983D+02 0.527656260264625D+02 0.999714993653599D+01 -.356227810127139D+02
 0.000000000000000D+00 0.000000000000000D+00 0.000000000000000D+00 -.000000000000000D+00
 0.843694449290326D+02 0.000000000000000D+00 0.000000000000000D+00 0.843694449290326D+02
 0.843694449290326D+02 -.000000000000000D+00 -.000000000000000D+00 -.843694449290326D+02
 0.606224775692704D+02 -.336723324503822D+02 0.612102082871361D+01 -.194728477683083D+01
 0.401025671809926D+02 -.142200318965500D+02 -.151948664976985D+02 0.342800615443474D+02
 0.527012791234749D+02 0.471695079811476D+02 0.148902440002454D+02 -.181863402497594D+02
 0.153125659843274D+02 0.722856365784604D+00 -.581639833126049D+01 -.141464365177572D+02
0.204604846532D-05 0.000000000000D+00 0.000000000000D+00 0.106928764887D-06 0.000000000000D+00  6 22 -2 9900012 11 -1 21 0 0.13344425D-02 0.12625361D+00 0.47858841D+04 0.47858841D+04 0.47858841D+04 0.12439922D+01  1  2  2  2  6  5       -1 0.737292391300D-04 0.100000000000D+01
-.283355756884D-07 0.000000000000D+00 -.392868242189D-08 0.106928764887D-06 0.000000000000D+00  6 22 -2 9900012 11 -1 21 2 0.13344425D-02 0.12625361D+00 0.47858841D+04 0.47858841D+04 0.47858841D+04 0.12439922D+01  1  2  3  2  6  5       -1 -.158012412647D-05 0.100000000000D+01
-.281665513994D-06 0.000000000000D+00 0.000000000000D+00 0.106928764887D-06 0.000000000000D+00  6 22 -2 9900012 11 -1 21 2 0.13344425D-02 0.12625361D+00 0.47858841D+04 0.47858841D+04 0.47858841D+04 0.12439922D+01  1  2 15  2  6  5       -1 -.157069854218D-04 0.100000000000D+01
0.153754292987D-05 0.000000000000D+00 0.000000000000D+00 0.106928764887D-06 0.000000000000D+00  6 22 -2 9900012 11 -1 21 2 0.13344425D-02 0.12625361D+00 0.46735802D+04 0.46735802D+04 0.46735802D+04 0.12451617D+01  1  2 12  2  6  5       -1 0.857462674262D-04 0.100000000000D+01
-.617794011795D-06 0.000000000000D+00 0.000000000000D+00 0.106928764887D-06 0.000000000000D+00  6 22 -2 9900012 11 -1 21 2 0.13344425D-02 0.12625361D+00 0.47858841D+04 0.47858841D+04 0.47858841D+04 0.12439922D+01  1  2  4  2  6  5       -1 -.344510813531D-04 0.100000000000D+01
-.142582236975D-05 0.000000000000D+00 0.000000000000D+00 0.106928764887D-06 0.000000000000D+00  6 22 -2 9900012 11 -1 21 2 0.13344425D-02 0.12625361D+00 0.47858841D+04 0.47858841D+04 0.47858841D+04 0.12439922D+01  1  2  5  2  6  5       -1 -.795105189067D-04 0.100000000000D+01
0.180342017029D-05 0.000000000000D+00 -.000000000000D+00 0.106928764887D-06 0.000000000000D+00  6 22 -2 9900012 11 -1 21 2 0.13344425D-02 0.12625361D+00 0.47858841D+04 0.47858841D+04 0.47858841D+04 0.12439922D+01  1  2  6  2  6  5       -1 0.100567136965D-03 0.100000000000D+01
  </mgrwgt>
  </event>
  <event>
  7     66 -.14151431E-05 0.27763115E+02 0.78161638E-02 0.12740312E+00
       22 -1    0    0    0    0 0.00000000E+00 0.00000000E+00 0.15733591E+03 0.15733591E+03 0.00000000E+00 0.0000E+00 0.9000E+01
       -4 -1    0    0    0  502 0.00000000E+00 0.00000000E+00 -.12103470E+03 0.12103470E+03 0.00000000E+00 0.0000E+00 0.9000E+01
      -24  2    1    2    0    0 0.23504292E+02 0.20202188E+02 0.14277119E+03 0.16622242E+03 0.79282410E+02 0.0000E+00 0.0000E+00
  9900012  1    3    3    0    0 0.35475607E+02 0.21386308E+02 0.83664258E+02 0.10590373E+03 0.50000000E+02 0.0000E+00 0.9000E+01
       11  1    3    3    0    0 -.11971315E+02 -.11841206E+01 0.59106936E+02 0.60318690E+02 0.00000000E+00 0.0000E+00 0.9000E+01
       -3  1    1    2    0  501 -.25693192E+02 -.15860444E+02 -.95213182E+02 0.99886154E+02 0.00000000E+00 0.0000E+00 0.9000E+01
       21  1    1    2  501  502 0.21889007E+01 -.43417437E+01 -.11256796E+02 0.12262034E+02 0.00000000E+00 0.0000E+00 0.9000E+01
#aMCatNLO 2  0  0  2  5 0.49415970D+01 0.00000000D+00  -5  6  0 0.00000000D+00 0.00000000D+00 0.00000000D+00 0.00000000D+00 0.00000000D+00
  <mgrwgt>
 -.2045759460D-04    2    2    0
 0.130889618953943D+03 0.000000000000000D+00 0.000000000000000D+00 0.130889618953943D+03
 0.130889618953943D+03 0.000000000000000D+00 0.000000000000000D+00 -.130889618953943D+03
 0.923976455669782D+02 0.362483113080461D+02 0.198536284366614D+02 0.657967952983646D+02
 0.504977011302496D+02 -.115488087618566D+02 -.202217370971668D+01 0.491177528914934D+02
 0.118883891210658D+03 -.246995025461895D+02 -.178314547269447D+02 -.114914548189858D+03
 0.000000000000000D+00 0.000000000000000D+00 -.000000000000000D+00 -.000000000000000D+00
 0.131331742392015D+03 0.000000000000000D+00 0.000000000000000D+00 0.131331742392015D+03
 0.145000017911933D+03 0.000000000000000D+00 0.000000000000000D+00 -.145000017911933D+03
 0.924397703734452D+02 0.354756070576827D+02 0.213863082145860D+02 0.657967952983646D+02
 0.505694391882932D+02 -.119713152576268D+02 -.118412064891852D+01 0.491177528914934D+02
 0.118815180869281D+03 -.256931924999746D+02 -.158604438298557D+02 -.114914548189858D+03
 0.145073698729283D+02 0.218890069991863D+01 -.434174373581175D+01 -.136682755199177D+02
-.115654370382D-05 0.000000000000D+00 0.000000000000D+00 0.529042575333D-05 0.000000000000D+00  6 22 -4 9900012 11 -3 21 2 0.24124038D-01 0.18683621D-01 0.31369082D+04 0.31369082D+04 0.31369082D+04 0.12653042D+01  1  2 13  1  6  2       -4 -.265957304153D-04 0.100000000000D+01
0.266711978528D-06 0.000000000000D+00 0.000000000000D+00 0.529042575333D-05 0.775101208800D-06  6 22 -4 9900012 11 -3 21 2 0.24205525D-01 0.18620723D-01 0.31369082D+04 0.31369082D+04 0.31369082D+04 0.12653042D+01  1  2  1  1  6  2       -4 0.613813581698D-05 0.100000000000D+01
  </mgrwgt>
  </event>
  <event>
  6     66 0.14151431E-05 0.16273646E+03 0.78161638E-02 0.10312189E+00
       22 -1    0    0    0    0 0.00000000E+00 0.00000000E+00 0.49662673E+03 0.49662673E+03 0.00000000E+00 0.0000E+00 0.9000E+01
       -4 -1    0    0    0  501 0.00000000E+00 0.00000000E+00 -.25297441E+03 0.25297441E+03 0.00000000E+00 0.0000E+00 0.9000E+01
      -24  2    1    2    0    0 -.16239935E+03 -.10469335E+02 0.45095160E+03 0.48605580E+03 0.80060849E+02 0.0000E+00 0.0000E+00
  9900012  1    3    3    0    0 -.11299255E+03 0.68875958E+01 0.36499441E+03 0.38540326E+03 0.50000000E+02 0.0000E+00 0.9000E+01
       11  1    3    3    0    0 -.49406797E+02 -.17356931E+02 0.85957190E+02 0.10065254E+03 0.00000000E+00 0.0000E+00 0.9000E+01
       -3  1    1    2    0  501 0.16239935E+03 0.10469335E+02 -.20729928E+03 0.26354534E+03 0.00000000E+00 0.0000E+00 0.9000E+01
#aMCatNLO 1  0  0  5  5 0.17692884D+03 0.00000000D+00  -5  6  0 0.00000000D+00 0.00000000D+00 0.00000000D+00 0.00000000D+00 0.00000000D+00
  <mgrwgt>
 0.2344169565D-04    3    2    0
 0.354448662248409D+03 0.000000000000000D+00 0.000000000000000D+00 0.354448662248409D+03
 0.354448662248409D+03 -.000000000000000D+00 -.000000000000000D+00 -.354448662248409D+03
 0.282081739501695D+03 -.112992549811278D+03 0.688759579539938D+01 0.253486395042430D+03
 0.768878450890324D+02 -.494067971424816D+02 -.173569310742694D+02 0.562978335483682D+02
 0.349927739906091D+03 0.162399346953760D+03 0.104693352788700D+02 -.309784228590799D+03
 0.000000000000000D+00 0.000000000000000D+00 0.000000000000000D+00 0.000000000000000D+00
 0.354448662248409D+03 0.000000000000000D+00 0.000000000000000D+00 0.354448662248409D+03
 0.354448662248409D+03 -.000000000000000D+00 -.000000000000000D+00 -.354448662248409D+03
 0.212116338361601D+03 -.796631840532602D+02 0.903622700173132D+01 0.189909095906443D+03
 0.584455484863971D+02 -.402797357964499D+02 -.167685403748312D+02 0.388875439664379D+02
 0.212144722697540D+03 -.895450974314139D+02 0.754404433848934D+02 -.176906185296913D+03
 0.226190714951280D+03 0.209488017281124D+03 -.677081300117935D+02 -.518904545759687D+02
0.449138492093D-04 0.000000000000D+00 0.000000000000D+00 0.165974428057D-04 0.000000000000D+00  6 22 -4 9900012 11 -3 21 0 0.76404112D-01 0.38919140D-01 0.28705878D+05 0.28705878D+05 0.28705878D+05 0.11645497D+01  1  2  2  2  6  5       -3 0.301379804281D-04 0.100000000000D+01
0.115316821287D-06 0.000000000000D+00 -.862405035260D-07 0.165974428057D-04 0.000000000000D+00  6 22 -4 9900012 11 -3 21 2 0.76404112D-01 0.38919140D-01 0.28705878D+05 0.28705878D+05 0.28705878D+05 0.11645497D+01  1  2  3  2  6  5       -3 0.104940375449D-06 0.100000000000D+01
-.747372650916D-05 0.000000000000D+00 0.000000000000D+00 0.165974428057D-04 0.000000000000D+00  6 22 -4 9900012 11 -3 21 2 0.76404112D-01 0.38919140D-01 0.28705878D+05 0.28705878D+05 0.28705878D+05 0.11645497D+01  1  2 15  2  6  5       -3 -.680122515625D-05 0.100000000000D+01
  </mgrwgt>
  </event>
  <event>
  6     66 0.14151431E-05 0.22908314E+02 0.78161638E-02 0.12857902E+00
       22 -1    0    0    0    0 0.00000000E+00 0.00000000E+00 0.52006443E+02 0.52006443E+02 0.00000000E+00 0.0000E+00 0.9000E+01
       -4 -1    0    0    0  501 -.00000000E+00 -.00000000E+00 -.30188307E+03 0.30188307E+03 0.00000000E+00 0.0000E+00 0.9000E+01
      -24  2    1    2    0    0 0.40189338E+01 -.22553026E+02 0.17865618E+02 0.85169027E+02 0.80061176E+02 0.0000E+00 0.0000E+00
  9900012  1    3    3    0    0 -.19937271E+02 -.63926960E+01 0.14234358E+02 0.56044431E+02 0.50000000E+02 0.0000E+00 0.9000E+01
       11  1    3    3    0    0 0.23956204E+02 -.16160330E+02 0.36312600E+01 0.29124595E+02 0.00000000E+00 0.0000E+00 0.9000E+01
       -3  1    1    2    0  501 -.40189338E+01 0.22553026E+02 -.26774224E+03 0.26872049E+03 0.00000000E+00 0.0000E+00 0.9000E+01
#aMCatNLO 1  0  0  5  2 0.52378773D+01 0.00000000D+00  -5  6  0 0.00000000D+00 0.00000000D+00 0.00000000D+00 0.00000000D+00 0.00000000D+00
  <mgrwgt>
 0.2020156049D-04    8    2    0
 0.125299101368472D+03 0.000000000000000D+00 0.000000000000000D+00 0.125299101368472D+03
 0.125299101368472D+03 -.000000000000000D+00 -.000000000000000D+00 -.125299101368472D+03
 0.933381381777673D+02 -.199372706101108D+02 -.639269598430932D+01 0.759845162988052D+02
 0.447499455015549D+02 0.239562044592514D+02 -.161603304378789D+02 0.341687226925041D+02
 0.112510119057622D+03 -.401893384914063D+01 0.225530264221883D+02 -.110153238991309D+03
 0.000000000000000D+00 -.000000000000000D+00 0.000000000000000D+00 0.000000000000000D+00
 0.125299101368472D+03 0.000000000000000D+00 0.000000000000000D+00 0.125299101368472D+03
 0.125299101368472D+03 -.000000000000000D+00 -.000000000000000D+00 -.125299101368472D+03
 0.927745735753997D+02 -.199623784005997D+02 -.625179875047697D+01 0.752963476077829D+02
 0.444676019820257D+02 0.239441684437151D+02 -.160927880033438D+02 0.338388326904207D+02
 0.105472324827851D+03 -.165671145770120D+01 0.167186159861380D+02 -.104125666822574D+03
 0.788370235166778D+01 -.232507858541429D+01 0.562597076768278D+01 -.500951347563002D+01
0.247814492455D-06 0.000000000000D+00 0.000000000000D+00 0.581159928418D-05 0.000000000000D+00  6 22 -4 9900012 11 -3 21 0 0.80009913D-02 0.46443549D-01 0.28096521D+04 0.28096521D+04 0.28096521D+04 0.12710554D+01  1  2  2  2  6  5       -3 0.307899284136D-05 0.100000000000D+01
0.269922344925D-07 0.000000000000D+00 -.475836451042D-09 0.581159928418D-05 0.000000000000D+00  6 22 -4 9900012 11 -3 21 2 0.80009913D-02 0.46443549D-01 0.28096521D+04 0.28096521D+04 0.28096521D+04 0.12710554D+01  1  2  3  2  6  5       -3 0.541813451099D-06 0.100000000000D+01
-.399159982683D-07 0.000000000000D+00 0.000000000000D+00 0.581159928418D-05 0.000000000000D+00  6 22 -4 9900012 11 -3 21 2 0.80009913D-02 0.46443549D-01 0.28096521D+04 0.28096521D+04 0.28096521D+04 0.12710554D+01  1  2 15  2  6  5       -3 -.801231360887D-06 0.100000000000D+01
0.748945145068D-06 0.000000000000D+00 0.000000000000D+00 0.581159928418D-05 0.000000000000D+00  6 22 -4 9900012 11 -3 21 2 0.80009913D-02 0.46443549D-01 0.28056662D+04 0.28056662D+04 0.28056662D+04 0.12711300D+01  1  2 12  2  6  5       -3 0.150328373285D-04 0.100000000000D+01
-.689786273198D-07 0.000000000000D+00 0.000000000000D+00 0.581159928418D-05 0.000000000000D+00  6 22 -4 9900012 11 -3 21 2 0.80009913D-02 0.46443549D-01 0.28096521D+04 0.28096521D+04 0.28096521D+04 0.12710554D+01  1  2  4  2  6  5       -3 -.138460371373D-05 0.100000000000D+01
-.202155270224D-05 0.000000000000D+00 0.000000000000D+00 0.581159928418D-05 0.000000000000D+00  6 22 -4 9900012 11 -3 21 2 0.80009913D-02 0.46443549D-01 0.28096521D+04 0.28096521D+04 0.28096521D+04 0.12710554D+01  1  2  5  2  6  5       -3 -.405785021793D-04 0.100000000000D+01
0.216815482221D-05 0.000000000000D+00 -.000000000000D+00 0.581159928418D-05 0.000000000000D+00  6 22 -4 9900012 11 -3 21 2 0.80009913D-02 0.46443549D-01 0.28096521D+04 0.28096521D+04 0.28096521D+04 0.12710554D+01  1  2  6  2  6  5       -3 0.435212374529D-04 0.100000000000D+01
0.394089338321D-07 0.000000000000D+00 0.000000000000D+00 0.581159928418D-05 0.873531884264D-07  6 22 -4 9900012 11 -3 21 2 0.80009913D-02 0.46443549D-01 0.28056662D+04 0.28056662D+04 0.28056662D+04 0.12711300D+01  1  2 11  2  6  5       -3 0.791016665891D-06 0.100000000000D+01
  </mgrwgt>
  </event>
  <event>
  6     66 0.14151431E-05 0.25632999E+02 0.78161638E-02 0.12041734E+00
       22 -1    0    0    0    0 0.00000000E+00 0.00000000E+00 0.13452902E+04 0.13452902E+04 0.00000000E+00 0.0000E+00 0.9000E+01
       -4 -1    0    0    0  501 0.00000000E+00 0.00000000E+00 -.43382246E+02 0.43382246E+02 0.00000000E+00 0.0000E+00 0.9000E+01
      -24  2    1    2    0    0 -.33447046E+02 0.37735616E+02 0.13284349E+04 0.13316957E+04 0.78304342E+02 0.0000E+00 0.0000E+00
  9900012  1    3    3    0    0 -.19603725E+02 0.46135322E+02 0.12206232E+04 0.12226749E+04 0.50000000E+02 0.0000E+00 0.9000E+01
       11  1    3    3    0    0 -.13843321E+02 -.83997061E+01 0.10781164E+03 0.10902083E+03 0.00000000E+00 0.0000E+00 0.9000E+01
       -3  1    1    2    0  501 0.33447046E+02 -.37735616E+02 -.26526856E+02 0.56976799E+02 0.00000000E+00 0.0000E+00 0.9000E+01
#aMCatNLO 1  0  0  2  5 0.22048067D+02 0.00000000D+00  -5  6  0 0.00000000D+00 0.00000000D+00 0.00000000D+00 0.00000000D+00 0.00000000D+00
  <mgrwgt>
 0.8316714921D-04    9    4    0
 0.241581689955303D+03 0.000000000000000D+00 0.000000000000000D+00 0.241581689955303D+03
 0.241581689955303D+03 0.000000000000000D+00 0.000000000000000D+00 -.241581689955303D+03
 0.225091176741953D+03 -.196037249586229D+02 0.461353216157266D+02 0.213666244208666D+03
 0.228357477223808D+02 -.138433210526572D+02 -.839970608265131D+01 0.161021356968059D+02
 0.235236455446272D+03 0.334470460112801D+02 -.377356155330753D+02 -.229768379905472D+03
 0.000000000000000D+00 -.000000000000000D+00 -.000000000000000D+00 -.000000000000000D+00
 0.242947100162020D+03 0.000000000000000D+00 0.000000000000000D+00 0.242947100162020D+03
 0.348953357447644D+03 0.000000000000000D+00 0.000000000000000D+00 -.348953357447644D+03
 0.227126883432869D+03 -.170704357331916D+02 0.560531666150060D+02 0.213666244208666D+03
 0.223353566822108D+02 -.135902761564742D+02 -.740903354790598D+01 0.161021356968059D+02
 0.234196514883758D+03 0.360767717797281D+02 -.274402207947831D+02 -.229768379905472D+03
 0.108241702610827D+03 -.541605989006222D+01 -.212039122723169D+02 -.106006257285623D+03
 0.241581689955303D+03 0.000000000000000D+00 0.000000000000000D+00 0.241581689955303D+03
 0.241581689955303D+03 0.000000000000000D+00 0.000000000000000D+00 -.241581689955303D+03
 0.225091176741953D+03 -.196037249586229D+02 0.461353216157266D+02 0.213666244208666D+03
 0.228357477223808D+02 -.138433210526572D+02 -.839970608265131D+01 0.161021356968059D+02
 0.000000000000000D+00 -.000000000000000D+00 -.000000000000000D+00 -.000000000000000D+00
 0.235236455446272D+03 0.334470460112801D+02 -.377356155330753D+02 -.229768379905472D+03
 0.242947100162020D+03 0.000000000000000D+00 0.000000000000000D+00 0.242947100162020D+03
 0.348953357447644D+03 0.000000000000000D+00 0.000000000000000D+00 -.348953357447644D+03
 0.227126883432869D+03 -.170704357331916D+02 0.560531666150060D+02 0.213666244208666D+03
 0.223353566822108D+02 -.135902761564742D+02 -.740903354790598D+01 0.161021356968059D+02
 0.108241702610827D+03 -.541605989006222D+01 -.212039122723169D+02 -.106006257285623D+03
 0.234196514883758D+03 0.360767717797281D+02 -.274402207947831D+02 -.229768379905472D+03
0.450056569468D-05 0.000000000000D+00 0.000000000000D+00 0.202992259927D-04 0.000000000000D+00  6 22 -4 9900012 11 -3 21 0 0.20696773D+00 0.66741917D-02 0.47209485D+04 0.47209485D+04 0.47209485D+04 0.12446646D+01  1  2  2  1  6  2       -4 0.697619288820D-05 0.100000000000D+01
0.162783303252D-06 0.000000000000D+00 -.864167864687D-08 0.202992259927D-04 0.000000000000D+00  6 22 -4 9900012 11 -3 21 2 0.20696773D+00 0.66741917D-02 0.47209485D+04 0.47209485D+04 0.47209485D+04 0.12446646D+01  1  2  3  1  6  2       -4 0.390900242157D-06 0.100000000000D+01
-.743632031016D-06 0.000000000000D+00 0.000000000000D+00 0.202992259927D-04 0.000000000000D+00  6 22 -4 9900012 11 -3 21 2 0.20696773D+00 0.66741917D-02 0.47209485D+04 0.47209485D+04 0.47209485D+04 0.12446646D+01  1  2 15  1  6  2       -4 -.178572332170D-05 0.100000000000D+01
0.582476305469D-04 0.000000000000D+00 0.000000000000D+00 0.202992259927D-04 0.000000000000D+00  6 22 -4 9900012 11 -3 21 2 0.20696773D+00 0.96950432D-02 0.63774787D+04 0.63774787D+04 0.63774787D+04 0.12301256D+01  1  2 12  1  6  2       -4 0.779313521736D-04 0.100000000000D+01
-.233226178321D-04 0.000000000000D+00 0.000000000000D+00 0.202992259927D-04 0.000000000000D+00  6 22 -4 9900012 11 -3 21 2 0.20696773D+00 0.66741917D-02 0.47209485D+04 0.47209485D+04 0.47209485D+04 0.12446646D+01  1  2  4  1  6  2       -4 -.560058481195D-04 0.100000000000D+01
-.596984226427D-04 0.000000000000D+00 -.183354235600D-05 0.202992259927D-04 0.000000000000D+00  6 22 -4 9900012 11 -3 21 2 0.20696773D+00 0.96768960D-02 0.47209485D+04 0.47209485D+04 0.47209485D+04 0.12446646D+01  1  2  5  1  6  2       -4 -.795381046790D-04 0.100000000000D+01
0.565518398529D-04 0.000000000000D+00 0.171391007087D-05 0.202992259927D-04 0.000000000000D+00  6 22 -4 9900012 11 -3 21 2 0.20696773D+00 0.66741917D-02 0.47209485D+04 0.47209485D+04 0.47209485D+04 0.12446646D+01  1  2  6  1  6  2       -4 0.135800954098D-03 0.100000000000D+01
0.263665141072D-05 0.000000000000D+00 0.000000000000D+00 0.202992259927D-04 0.000000000000D+00  6 22 21 9900012 11 4 -3 2 0.20696773D+00 0.96950432D-02 0.63774787D+04 0.63774787D+04 0.63774787D+04 0.12301256D+01  3  4 12  3  5  2       -4 0.804036630024D-04 0.100000000000D+01
-.263599051372D-05 0.000000000000D+00 -.826951929790D-07 0.202992259927D-04 0.000000000000D+00  6 22 21 9900012 11 4 -3 2 0.20696773D+00 0.96768960D-02 0.47209485D+04 0.47209485D+04 0.47209485D+04 0.12446646D+01  3  4  5  3  5  2       -4 -.810062370790D-04 0.100000000000D+01
  </mgrwgt>
  </event>
  <event>
  6     66 0.14151431E-05 0.27268155E+02 0.78161638E-02 0.12655988E+00
       22 -1    0    0    0    0 0.00000000E+00 0.00000000E+00 0.50869915E+03 0.50869915E+03 0.00000000E+00 0.0000E+00 0.9000E+01
       -4 -1    0    0    0  501 0.00000000E+00 0.00000000E+00 -.12004606E+02 0.12004606E+02 0.00000000E+00 0.0000E+00 0.9000E+01
      -24  2    1    2    0    0 0.10459827E+02 -.25182222E+02 0.48369198E+03 0.49049417E+03 0.76701028E+02 0.0000E+00 0.0000E+00
  9900012  1    3    3    0    0 -.14275217E+02 -.12009878E+02 0.32133941E+03 0.32574075E+03 0.50000000E+02 0.0000E+00 0.9000E+01
       11  1    3    3    0    0 0.24735044E+02 -.13172344E+02 0.16235257E+03 0.16475342E+03 0.00000000E+00 0.0000E+00 0.9000E+01
       -3  1    1    2    0  501 -.10459827E+02 0.25182222E+02 0.13002560E+02 0.30209582E+02 0.00000000E+00 0.0000E+00 0.9000E+01
#aMCatNLO 1  0  0  5  2 0.11325305D+02 0.00000000D+00  -5  6  0 0.00000000D+00 0.00000000D+00 0.00000000D+00 0.00000000D+00 0.00000000D+00
  <mgrwgt>
 0.2213805583D-04    5    2    0
 0.781455883913715D+02 0.000000000000000D+00 0.000000000000000D+00 0.781455883913715D+02
 0.781455883913715D+02 -.000000000000000D+00 -.000000000000000D+00 -.781455883913715D+02
 0.640272855401601D+02 -.142752166467664D+02 -.120098781352404D+02 0.353761828142290D+02
 0.329390954222807D+02 0.247350439577775D+02 -.131723437270540D+02 0.173104294684236D+02
 0.593247958203023D+02 -.104598273110111D+02 0.251822218622944D+02 -.526866122826526D+02
 0.000000000000000D+00 -.000000000000000D+00 0.000000000000000D+00 0.000000000000000D+00
 0.781455883913715D+02 0.000000000000000D+00 0.000000000000000D+00 0.781455883913715D+02
 0.781455883913715D+02 -.000000000000000D+00 -.000000000000000D+00 -.781455883913715D+02
 0.628961542484855D+02 -.146598174660751D+02 -.110839447644231D+02 0.334389314956364D+02
 0.320877855003718D+02 0.245380008290884D+02 -.126979588605021D+02 0.163179145238148D+02
 0.179381924789848D+02 0.828536874917814D+01 0.518798857014182D+01 -.150404849888335D+02
 0.433690445549009D+02 -.181635521121914D+02 0.185939150547833D+02 -.347163610306176D+02
0.318182370591D-06 0.000000000000D+00 0.000000000000D+00 0.633944863058D-07 0.000000000000D+00  6 22 -4 9900012 11 -3 21 0 0.78261408D-01 0.18468625D-02 0.29516828D+04 0.29516828D+04 0.29516828D+04 0.12684708D+01  1  2  2  2  6  5       -3 0.244221290249D-04 0.100000000000D+01
0.171828064137D-07 0.000000000000D+00 -.610952041207D-09 0.633944863058D-07 0.000000000000D+00  6 22 -4 9900012 11 -3 21 2 0.78261408D-01 0.18468625D-02 0.29516828D+04 0.29516828D+04 0.29516828D+04 0.12684708D+01  1  2  3  2  6  5       -3 0.212208339965D-05 0.100000000000D+01
-.493805026324D-07 0.000000000000D+00 0.000000000000D+00 0.633944863058D-07 0.000000000000D+00  6 22 -4 9900012 11 -3 21 2 0.78261408D-01 0.18468625D-02 0.29516828D+04 0.29516828D+04 0.29516828D+04 0.12684708D+01  1  2 15  2  6  5       -3 -.609851163889D-05 0.100000000000D+01
0.104132098983D-06 0.000000000000D+00 0.000000000000D+00 0.633944863058D-07 0.000000000000D+00  6 22 -4 9900012 11 -3 21 2 0.78261408D-01 0.18468625D-02 0.34028750D+04 0.34028750D+04 0.34028750D+04 0.12611099D+01  1  2 12  2  6  5       -3 0.130023040884D-04 0.100000000000D+01
-.915782410244D-07 0.000000000000D+00 0.000000000000D+00 0.633944863058D-07 0.000000000000D+00  6 22 -4 9900012 11 -3 21 2 0.78261408D-01 0.18468625D-02 0.29516828D+04 0.29516828D+04 0.29516828D+04 0.12684708D+01  1  2  5  2  6  5       -3 -.113099490484D-04 0.100000000000D+01
  </mgrwgt>
  </event>
  <event>
  7     66 -.14151431E-05 0.56783586E+02 0.78161638E-02 0.11933340E+00
       22 -1    0    0    0    0 0.00000000E+00 0.00000000E+00 0.22032647E+03 0.22032647E+03 0.00000000E+00 0.0000E+00 0.9000E+01
       21 -1    0    0  502  501 0.00000000E+00 0.00000000E+00 -.28552008E+03 0.28552008E+03 0.00000000E+00 0.0000E+00 0.9000E+01
      -24  2    1    2    0    0 0.54722550E+02 0.19668964E+01 0.20454176E+03 0.22602494E+03 0.79066540E+02 0.0000E+00 0.0000E+00
  9900012  1    3    3    0    0 0.14262659E+02 0.12007886E+02 0.97423246E+02 0.11108061E+03 0.50000000E+02 0.0000E+00 0.9000E+01
       11  1    3    3    0    0 0.40459892E+02 -.10040989E+02 0.10711851E+03 0.11494434E+03 0.00000000E+00 0.0000E+00 0.9000E+01
        4  1    1    2  502    0 0.75245025E+01 -.89778590E+01 -.37543928E+02 0.39328953E+02 0.00000000E+00 0.0000E+00 0.9000E+01
       -3  1    1    2    0  501 -.62247053E+02 0.70109625E+01 -.23219145E+03 0.24049265E+03 0.00000000E+00 0.0000E+00 0.9000E+01
#aMCatNLO 2  0  0  2  5 0.11889038D+02 0.00000000D+00  -5  6  0 0.00000000D+00 0.00000000D+00 0.00000000D+00 0.00000000D+00 0.00000000D+00
  <mgrwgt>
 -.5421441348D-05    2    2    0
 0.232775076246141D+03 0.000000000000000D+00 0.000000000000000D+00 0.232775076246141D+03
 0.232775076246141D+03 0.000000000000000D+00 0.000000000000000D+00 -.232775076246141D+03
 0.117096503916185D+03 0.161546525012766D+02 0.975045360988951D+01 0.104189956744196D+03
 0.122392690810941D+03 0.424306041778389D+02 -.123923446335449D+02 0.114131697558258D+03
 0.000000000000000D+00 0.000000000000000D+00 -.000000000000000D+00 -.000000000000000D+00
 0.226060957765155D+03 -.585852566791155D+02 0.264189102365540D+01 -.218321654302454D+03
 0.233795827202024D+03 0.000000000000000D+00 0.000000000000000D+00 0.233795827202024D+03
 0.269070806244549D+03 0.000000000000000D+00 0.000000000000000D+00 -.269070806244549D+03
 0.117060496491077D+03 0.142626585415600D+02 0.120078858966450D+02 0.104189956744196D+03
 0.121506661138368D+03 0.404598917931385D+02 -.100409894707631D+02 0.114131697558258D+03
 0.371691301514107D+02 0.752450252046977D+01 -.897785896421451D+01 -.352749790425256D+02
 0.227130345665718D+03 -.622470528551683D+02 0.701096253833268D+01 -.218321654302454D+03
-.426078325935D-06 0.000000000000D+00 0.000000000000D+00 0.268986123977D-04 0.000000000000D+00  6 22 21 9900012 11 4 -3 2 0.33748388D-01 0.44118789D-01 0.71745119D+04 0.71745119D+04 0.71745119D+04 0.12245765D+01  1  2 13  3  5  2       -4 -.269518819097D-04 0.100000000000D+01
0.339718411023D-06 0.000000000000D+00 0.000000000000D+00 0.268986123977D-04 0.306358405550D-07  6 22 21 9900012 11 4 -3 2 0.33896380D-01 0.43926167D-01 0.71745119D+04 0.71745119D+04 0.71745119D+04 0.12245765D+01  1  2  1  3  5  2       -4 0.215304405613D-04 0.100000000000D+01
  </mgrwgt>
  </event>
  <event>
  6     66 0.14151431E-05 0.36965431E+02 0.78161638E-02 0.12568833E+00
       22 -1    0    0    0    0 0.00000000E+00 0.00000000E+00 0.10178321E+03 0.10178321E+03 0.00000000E+00 0.0000E+00 0.9000E+01
       -4 -1    0    0    0  501 0.00000000E+00 0.00000000E+00 -.53409312E+02 0.53409312E+02 0.00000000E+00 0.0000E+00 0.9000E+01
      -24  2    1    2    0    0 -.37584397E+02 0.14072105E+02 0.69173345E+02 0.10999045E+03 0.75513811E+02 0.0000E+00 0.0000E+00
  9900012  1    3    3    0    0 -.40348231E+02 0.27637700E+02 0.48509238E+02 0.85117379E+02 0.50000000E+02 0.0000E+00 0.9000E+01
       11  1    3    3    0    0 0.27638341E+01 -.13565594E+02 0.20664107E+02 0.24873067E+02 0.00000000E+00 0.0000E+00 0.9000E+01
       -3  1    1    2    0  501 0.37584397E+02 -.14072105E+02 -.20799445E+02 0.45202079E+02 0.00000000E+00 0.0000E+00 0.9000E+01
#aMCatNLO 1  0  0  5  2 0.16574166D+02 0.00000000D+00  -5  6  0 0.00000000D+00 0.00000000D+00 0.00000000D+00 0.00000000D+00 0.00000000D+00
  <mgrwgt>
 0.4946992879D-04    5    2    0
 0.737303966994984D+02 0.000000000000000D+00 0.000000000000000D+00 0.737303966994984D+02
 0.737303966994984D+02 -.000000000000000D+00 -.000000000000000D+00 -.737303966994984D+02
 0.736670390379277D+02 -.403482306102011D+02 0.276376996463210D+02 0.231302936752076D+02
 0.193984484520401D+02 0.276383410964379D+01 -.135655944160544D+02 0.135880709263654D+02
 0.543953059090290D+02 0.375843965005573D+02 -.140721052302666D+02 -.367183646015730D+02
 0.000000000000000D+00 0.000000000000000D+00 0.000000000000000D+00 0.000000000000000D+00
 0.737303966994984D+02 0.000000000000000D+00 0.000000000000000D+00 0.737303966994984D+02
 0.737303966994984D+02 -.000000000000000D+00 -.000000000000000D+00 -.737303966994984D+02
 0.680808066642405D+02 -.344491535712384D+02 0.254290055981806D+02 0.173671450896985D+02
 0.190859386403501D+02 0.436542715771224D+01 -.141652524658557D+02 0.120233823066759D+02
 0.484445003128796D+02 0.316504107322748D+02 -.200746751511013D+01 -.366209118567340D+02
 0.118495477815265D+02 -.156668431874863D+01 -.925628561721469D+01 0.723038446035969D+01
0.332575918282D-06 0.000000000000D+00 0.000000000000D+00 0.273952178211D-07 0.000000000000D+00  6 22 -4 9900012 11 -3 21 0 0.15658956D-01 0.82168173D-02 0.38389339D+04 0.38389339D+04 0.38389339D+04 0.12549764D+01  1  2  2  2  6  5       -3 0.359849261069D-04 0.100000000000D+01
0.269749818871D-08 0.000000000000D+00 -.638589547726D-09 0.273952178211D-07 0.000000000000D+00  6 22 -4 9900012 11 -3 21 2 0.15658956D-01 0.82168173D-02 0.38389339D+04 0.38389339D+04 0.38389339D+04 0.12549764D+01  1  2  3  2  6  5       -3 0.459686878169D-06 0.100000000000D+01
-.481801573016D-07 0.000000000000D+00 0.000000000000D+00 0.273952178211D-07 0.000000000000D+00  6 22 -4 9900012 11 -3 21 2 0.15658956D-01 0.82168173D-02 0.38389339D+04 0.38389339D+04 0.38389339D+04 0.12549764D+01  1  2 15  2  6  5       -3 -.821049155562D-05 0.100000000000D+01
0.144494180177D-06 0.000000000000D+00 0.000000000000D+00 0.273952178211D-07 0.000000000000D+00  6 22 -4 9900012 11 -3 21 2 0.15658956D-01 0.82168173D-02 0.37059488D+04 0.37059488D+04 0.37059488D+04 0.12567602D+01  1  2 12  2  6  5       -3 0.245687450420D-04 0.100000000000D+01
-.195580813573D-07 0.000000000000D+00 0.000000000000D+00 0.273952178211D-07 0.000000000000D+00  6 22 -4 9900012 11 -3 21 2 0.15658956D-01 0.82168173D-02 0.38389339D+04 0.38389339D+04 0.38389339D+04 0.12549764D+01  1  2  4  2  6  5       -3 -.333293768269D-05 0.100000000000D+01
  </mgrwgt>
  </event>
  <event>
  6     66 0.14151431E-05 0.38021590E+02 0.78161638E-02 0.12293423E+00
       22 -1    0    0    0    0 0.00000000E+00 0.00000000E+00 0.95691828E+01 0.95691828E+01 0.00000000E+00 0.0000E+00 0.9000E+01
       -4 -1    0    0    0  501 -.00000000E+00 -.00000000E+00 -.88068852E+03 0.88068852E+03 0.00000000E+00 0.0000E+00 0.9000E+01
      -24  2    1    2    0    0 -.88200502E+01 -.63366091E+02 -.33297562E+03 0.34832439E+03 0.79775075E+02 0.0000E+00 0.0000E+00
  9900012  1    3    3    0    0 -.75917182E+01 -.46057151E+02 -.15397925E+03 0.16848889E+03 0.50000000E+02 0.0000E+00 0.9000E+01
       11  1    3    3    0    0 -.12283320E+01 -.17308940E+02 -.17899636E+03 0.17983550E+03 0.00000000E+00 0.0000E+00 0.9000E+01
       -3  1    1    2    0  501 0.88200502E+01 0.63366091E+02 -.53814372E+03 0.54193332E+03 0.00000000E+00 0.0000E+00 0.9000E+01
#aMCatNLO 1  0  0  5  2 0.25030750D+02 0.00000000D+00  -5  6  0 0.00000000D+00 0.00000000D+00 0.00000000D+00 0.00000000D+00 0.00000000D+00
  <mgrwgt>
 0.2184543627D-04    5    2    0
 0.918012498326101D+02 0.000000000000000D+00 0.000000000000000D+00 0.918012498326101D+02
 0.918012498326101D+02 -.000000000000000D+00 -.000000000000000D+00 -.918012498326101D+02
 0.864052852597558D+02 -.759171824803114D+01 -.460571511239248D+02 0.527918361606246D+02
 0.227270536165817D+02 -.122833195799055D+01 -.173089402823937D+02 -.146768781759777D+02
 0.744701607888827D+02 0.882005020602170D+01 0.633660914063185D+02 -.381149579846469D+02
 0.000000000000000D+00 0.000000000000000D+00 0.000000000000000D+00 0.000000000000000D+00
 0.918012498326101D+02 0.000000000000000D+00 0.000000000000000D+00 0.918012498326101D+02
 0.918012498326101D+02 -.000000000000000D+00 -.000000000000000D+00 -.918012498326101D+02
 0.794710260225405D+02 -.650201952332352D+01 -.382284032843683D+02 0.480828129535007D+02
 0.220481499391038D+02 -.934188196075573D+00 -.151957164266635D+02 -.159479907960829D+02
 0.278358358970550D+02 0.737757963757072D+01 -.563772068729239D+00 -.268344412990768D+02
 0.542474878065209D+02 0.586280818283784D-01 0.539878917797610D+02 -.530038085834099D+01
0.273357432328D-05 0.000000000000D+00 0.000000000000D+00 0.309487947417D-06 0.000000000000D+00  6 22 -4 9900012 11 -3 21 0 0.14721820D-02 0.13549054D+00 0.56049111D+04 0.56049111D+04 0.56049111D+04 0.12363007D+01  1  2  2  2  6  5       -3 0.273302340648D-04 0.100000000000D+01
-.562057984408D-07 0.000000000000D+00 -.524882258403D-08 0.309487947417D-06 0.000000000000D+00  6 22 -4 9900012 11 -3 21 2 0.14721820D-02 0.13549054D+00 0.56049111D+04 0.56049111D+04 0.56049111D+04 0.12363007D+01  1  2  3  2  6  5       -3 -.858898417378D-06 0.100000000000D+01
-.406545855886D-06 0.000000000000D+00 0.000000000000D+00 0.309487947417D-06 0.000000000000D+00  6 22 -4 9900012 11 -3 21 2 0.14721820D-02 0.13549054D+00 0.56049111D+04 0.56049111D+04 0.56049111D+04 0.12363007D+01  1  2 15  2  6  5       -3 -.621255461000D-05 0.100000000000D+01
0.445663433863D-06 0.000000000000D+00 0.000000000000D+00 0.309487947417D-06 0.000000000000D+00  6 22 -4 9900012 11 -3 21 2 0.14721820D-02 0.13549054D+00 0.48920312D+04 0.48920312D+04 0.48920312D+04 0.12429148D+01  1  2 12  2  6  5       -3 0.678468580453D-05 0.100000000000D+01
-.340156009725D-06 0.000000000000D+00 0.000000000000D+00 0.309487947417D-06 0.000000000000D+00  6 22 -4 9900012 11 -3 21 2 0.14721820D-02 0.13549054D+00 0.56049111D+04 0.56049111D+04 0.56049111D+04 0.12363007D+01  1  2  5  2  6  5       -3 -.519803056836D-05 0.100000000000D+01
  </mgrwgt>
  </event>
  <event>
  6     66 -.14151431E-05 0.14461430E+02 0.78161638E-02 0.13060864E+00
       22 -1    0    0    0    0 0.00000000E+00 0.00000000E+00 0.51483015E+03 0.51483015E+03 0.00000000E+00 0.0000E+00 0.9000E+01
       -4 -1    0    0    0  501 0.00000000E+00 0.00000000E+00 -.19644346E+02 0.19644346E+02 0.00000000E+00 0.0000E+00 0.9000E+01
      -24  2    1    2    0    0 -.79071224E+01 0.12108277E+02 0.50828771E+03 0.51496059E+03 0.81356531E+02 0.0000E+00 0.0000E+00
  9900012  1    3    3    0    0 -.29325171E+02 0.16167080E+02 0.39989930E+03 0.40440177E+03 0.50000000E+02 0.0000E+00 0.9000E+01
       11  1    3    3    0    0 0.21418049E+02 -.40588032E+01 0.10838841E+03 0.11055883E+03 0.00000000E+00 0.0000E+00 0.9000E+01
       -3  1    1    2    0  501 0.79071224E+01 -.12108277E+02 -.13101897E+02 0.19513909E+02 0.00000000E+00 0.0000E+00 0.9000E+01
#aMCatNLO 1  0  0  5  2 0.25030750D+02 0.00000000D+00  -5  6  0 0.00000000D+00 0.00000000D+00 0.00000000D+00 0.00000000D+00 0.00000000D+00
  <mgrwgt>
 -.4961447350D-05    1    2    0
 0.100565906535369D+03 0.000000000000000D+00 0.000000000000000D+00 0.100565906535369D+03
 0.100565906535369D+03 -.000000000000000D+00 -.000000000000000D+00 -.100565906535369D+03
 0.900801041564916D+02 -.293251710503267D+02 0.161670802173057D+02 0.670304783285980D+02
 0.269399005405081D+02 0.214180486641332D+02 -.405880323933426D+01 0.158288201966432D+02
 0.841118083737388D+02 0.790712238619353D+01 -.121082769779715D+02 -.828592985252412D+02
 0.000000000000000D+00 0.000000000000000D+00 0.000000000000000D+00 0.000000000000000D+00
 0.100565906535369D+03 0.000000000000000D+00 0.000000000000000D+00 0.100565906535369D+03
 0.100565906535369D+03 -.000000000000000D+00 -.000000000000000D+00 -.100565906535369D+03
 0.760680187439542D+02 -.275510517007183D+02 0.134503487152683D+02 0.484393553348163D+02
 0.246533553817065D+02 0.219689582503687D+02 -.490241808860067D+01 0.100557994140113D+02
 0.659812797842126D+02 -.261684730051198D+02 0.463035316052691D+01 -.603928814691902D+02
 0.344291591608652D+02 0.317505664554694D+02 -.131782837871946D+02 0.189772672036258D+01
-.858724698592D-07 0.000000000000D+00 0.000000000000D+00 0.850991310515D-06 0.000000000000D+00  6 22 -4 9900012 11 -3 21 2 0.79204639D-01 0.30222070D-02 0.23250834D+04 0.23250834D+04 0.23250834D+04 0.12811232D+01  1  2 14  2  6  5       -3 -.496144734994D-05 0.100000000000D+01
  </mgrwgt>
  </event>
  <event>
  6     66 0.14151431E-05 0.10013119E+03 0.78161638E-02 0.10670000E+00
       22 -1    0    0    0    0 0.00000000E+00 0.00000000E+00 0.58944174E+03 0.58944174E+03 0.00000000E+00 0.0000E+00 0.9000E+01
       -2 -1    0    0    0  501 0.00000000E+00 0.00000000E+00 -.39912730E+02 0.39912730E+02 0.00000000E+00 0.0000E+00 0.9000E+01
      -24  2    1    2    0    0 0.14564025E+02 -.99066359E+02 0.50371758E+03 0.51924116E+03 0.76509635E+02 0.0000E+00 0.0000E+00
  9900012  1    3    3    0    0 0.22328040E+02 -.71850269E+02 0.44476706E+03 0.45384881E+03 0.50000000E+02 0.0000E+00 0.9000E+01
       11  1    3    3    0    0 -.77640147E+01 -.27216090E+02 0.58950515E+02 0.65392344E+02 0.00000000E+00 0.0000E+00 0.9000E+01
       -1  1    1    2    0  501 -.14564025E+02 0.99066359E+02 0.45811426E+02 0.11011331E+03 0.00000000E+00 0.0000E+00 0.9000E+01
#aMCatNLO 1  0  0  2  2 0.13981524D+03 0.00000000D+00  -5  6  0 0.00000000D+00 0.00000000D+00 0.00000000D+00 0.00000000D+00 0.00000000D+00
  <mgrwgt>
 0.5034174925D-04    5    4    0
 0.153382623297357D+03 0.000000000000000D+00 0.000000000000000D+00 0.153382623297357D+03
 0.153382623297357D+03 0.000000000000000D+00 0.000000000000000D+00 -.153382623297357D+03
 0.134367809937378D+03 0.223280400614679D+02 -.718502690531991D+02 0.994671091937616D+02
 0.285558618708267D+02 -.776401466163143D+01 -.272160896863444D+02 0.380023495386341D+01
 0.143841574786510D+03 -.145640253998365D+02 0.990663587395435D+02 -.103267344147625D+03
 0.000000000000000D+00 -.000000000000000D+00 0.000000000000000D+00 -.000000000000000D+00
 0.189885851565633D+03 0.000000000000000D+00 0.000000000000000D+00 0.189885851565633D+03
 0.324526333473388D+03 0.000000000000000D+00 0.000000000000000D+00 -.324526333473388D+03
 0.171077722933985D+03 0.670480010713364D+02 -.111258469454023D+03 0.994671091937616D+02
 0.357542098078405D+02 0.165155567255001D+01 -.355132946533968D+02 0.380023495386341D+01
 0.124222388260259D+03 0.246829390684602D+02 0.644810816962712D+02 -.103267344147625D+03
 0.183357864036937D+03 -.933824958123466D+02 0.822906824111483D+02 -.134640481907755D+03
 0.153382623297357D+03 0.000000000000000D+00 0.000000000000000D+00 0.153382623297357D+03
 0.153382623297357D+03 0.000000000000000D+00 0.000000000000000D+00 -.153382623297357D+03
 0.134367809937378D+03 0.223280400614679D+02 -.718502690531991D+02 0.994671091937616D+02
 0.285558618708267D+02 -.776401466163143D+01 -.272160896863444D+02 0.380023495386341D+01
 0.000000000000000D+00 -.000000000000000D+00 0.000000000000000D+00 -.000000000000000D+00
 0.143841574786510D+03 -.145640253998365D+02 0.990663587395435D+02 -.103267344147625D+03
 0.189885851565633D+03 0.000000000000000D+00 0.000000000000000D+00 0.189885851565633D+03
 0.324526333473388D+03 0.000000000000000D+00 0.000000000000000D+00 -.324526333473388D+03
 0.171077722933985D+03 0.670480010713364D+02 -.111258469454023D+03 0.994671091937616D+02
 0.357542098078405D+02 0.165155567255001D+01 -.355132946533968D+02 0.380023495386341D+01
 0.183357864036937D+03 -.933824958123466D+02 0.822906824111483D+02 -.134640481907755D+03
 0.124222388260259D+03 0.246829390684602D+02 0.644810816962712D+02 -.103267344147625D+03
0.440430412654D-05 0.000000000000D+00 0.000000000000D+00 0.164966789337D-06 0.000000000000D+00  6 22 -2 9900012 11 -1 21 0 0.90683344D-01 0.61404201D-02 0.11965222D+05 0.11965222D+05 0.11965222D+05 0.12013370D+01  1  2  2  1  6  2       -2 0.737010164554D-04 0.100000000000D+01
-.308256516077D-07 0.000000000000D+00 -.845684376291D-08 0.164966789337D-06 0.000000000000D+00  6 22 -2 9900012 11 -1 21 2 0.90683344D-01 0.61404201D-02 0.11965222D+05 0.11965222D+05 0.11965222D+05 0.12013370D+01  1  2  3  1  6  2       -2 -.744454477116D-06 0.100000000000D+01
-.658585702822D-06 0.000000000000D+00 0.000000000000D+00 0.164966789337D-06 0.000000000000D+00  6 22 -2 9900012 11 -1 21 2 0.90683344D-01 0.61404201D-02 0.11965222D+05 0.11965222D+05 0.11965222D+05 0.12013370D+01  1  2 15  1  6  2       -2 -.159051649993D-04 0.100000000000D+01
-.913452071811D-06 0.000000000000D+00 -.126290354955D-05 0.164966789337D-06 0.000000000000D+00  6 22 -2 9900012 11 -1 21 2 0.90683344D-01 0.15980810D-01 0.11965222D+05 0.11965222D+05 0.11965222D+05 0.12013370D+01  1  2  5  1  6  2       -2 -.512163940028D-05 0.100000000000D+01
-.208069074571D-07 0.000000000000D+00 -.133862051439D-06 0.164966789337D-06 0.000000000000D+00  6 22 21 9900012 11 2 -1 2 0.90683344D-01 0.15980810D-01 0.11965222D+05 0.11965222D+05 0.11965222D+05 0.12013370D+01  3  4  5  3  5  2       -2 -.158800832540D-05 0.100000000000D+01
  </mgrwgt>
  </event>
  <event>
  6     66 0.14151431E-05 0.12700926E+02 0.78161638E-02 0.12901705E+00
       22 -1    0    0    0    0 0.00000000E+00 0.00000000E+00 0.75718087E+02 0.75718087E+02 0.00000000E+00 0.0000E+00 0.9000E+01
       -4 -1    0    0    0  501 0.00000000E+00 0.00000000E+00 -.46054929E+02 0.46054929E+02 0.00000000E+00 0.0000E+00 0.9000E+01
      -24  2    1    2    0    0 0.10104995E+02 0.76943226E+01 0.52383616E+02 0.95743557E+02 0.79129463E+02 0.0000E+00 0.0000E+00
  9900012  1    3    3    0    0 0.23804358E+02 0.21808032E+02 0.45457482E+02 0.74890723E+02 0.50000000E+02 0.0000E+00 0.9000E+01
       11  1    3    3    0    0 -.13699363E+02 -.14113709E+02 0.69261341E+01 0.20852834E+02 0.00000000E+00 0.0000E+00 0.9000E+01
       -3  1    1    2    0  501 -.10104995E+02 -.76943226E+01 -.22720458E+02 0.26029459E+02 0.00000000E+00 0.0000E+00 0.9000E+01
#aMCatNLO 1  0  0  2  5 0.26085307D+02 0.00000000D+00  -5  6  0 0.00000000D+00 0.00000000D+00 0.00000000D+00 0.00000000D+00 0.00000000D+00
  <mgrwgt>
 0.6372334820D-05    4    2    0
 0.590524436466474D+02 0.000000000000000D+00 0.000000000000000D+00 0.590524436466474D+02
 0.590524436466474D+02 0.000000000000000D+00 0.000000000000000D+00 -.590524436466474D+02
 0.657996200511283D+02 0.238043580431710D+02 0.218080318607889D+02 0.280597983489580D+02
 0.197609218611503D+02 -.136993633425289D+02 -.141137092592976D+02 0.190386127537768D+01
 0.325443453810162D+02 -.101049947006422D+02 -.769432260149132D+01 -.299636596243356D+02
 0.000000000000000D+00 0.000000000000000D+00 0.000000000000000D+00 0.000000000000000D+00
 0.723296006415949D+02 0.000000000000000D+00 0.000000000000000D+00 0.723296006415949D+02
 0.612379212331413D+02 0.000000000000000D+00 0.000000000000000D+00 -.612379212331413D+02
 0.633030479451964D+02 0.203499765003690D+02 0.174871968080100D+02 0.280597983489580D+02
 0.215145306026017D+02 -.148037646951457D+02 -.154951247218329D+02 0.190386127537768D+01
 0.337217995351370D+02 -.118780684214542D+02 -.991213177778498D+01 -.299636596243356D+02
 0.150281437918012D+02 0.633185661623099D+01 0.792005969160794D+01 0.110916794084535D+02
0.357138330986D-07 0.000000000000D+00 0.000000000000D+00 0.120372053223D-06 0.000000000000D+00  6 22 -4 9900012 11 -3 21 0 0.11648936D-01 0.70853736D-02 0.21107878D+04 0.21107878D+04 0.21107878D+04 0.12863607D+01  1  2  2  1  6  2       -4 0.678273142183D-05 0.100000000000D+01
0.421241538857D-08 0.000000000000D+00 -.685752613834D-10 0.120372053223D-06 0.000000000000D+00  6 22 -4 9900012 11 -3 21 2 0.11648936D-01 0.70853736D-02 0.21107878D+04 0.21107878D+04 0.21107878D+04 0.12863607D+01  1  2  3  1  6  2       -4 0.132380769849D-05 0.100000000000D+01
-.535820648705D-08 0.000000000000D+00 0.000000000000D+00 0.120372053223D-06 0.000000000000D+00  6 22 -4 9900012 11 -3 21 2 0.11648936D-01 0.70853736D-02 0.21107878D+04 0.21107878D+04 0.21107878D+04 0.12863607D+01  1  2 15  1  6  2       -4 -.168388782761D-05 0.100000000000D+01
-.160109270343D-09 0.000000000000D+00 0.000000000000D+00 0.120372053223D-06 0.000000000000D+00  6 22 -4 9900012 11 -3 21 2 0.11648936D-01 0.70853736D-02 0.21107878D+04 0.21107878D+04 0.21107878D+04 0.12863607D+01  1  2  4  1  6  2       -4 -.503164728849D-07 0.100000000000D+01
  </mgrwgt>
  </event>
  <event>
  7     66 -.14151431E-05 0.21788635E+02 0.78161638E-02 0.12621735E+00
       22 -1    0    0    0    0 0.00000000E+00 0.00000000E+00 0.10720816E+04 0.10720816E+04 0.00000000E+00 0.0000E+00 0.9000E+01
       -2 -1    0    0    0  501 0.00000000E+00 0.00000000E+00 -.18977010E+02 0.18977010E+02 0.00000000E+00 0.0000E+00 0.9000E+01
      -24  2    1    2    0    0 -.12473295E+02 -.32840007E+02 0.10290695E+04 0.10325394E+04 0.76937607E+02 0.0000E+00 0.0000E+00
  9900012  1    3    3    0    0 -.25158801E+02 -.39730106E+02 0.76407087E+03 0.76714780E+03 0.50000000E+02 0.0000E+00 0.9000E+01
       11  1    3    3    0    0 0.12685506E+02 0.68900995E+01 0.26499867E+03 0.26539158E+03 0.00000000E+00 0.0000E+00 0.9000E+01
       -1  1    1    2    0  502 0.11567030E+02 0.23706429E+02 -.60520934E+01 0.27063237E+02 0.00000000E+00 0.0000E+00 0.9000E+01
       21  1    1    2  502  501 0.90626517E+00 0.91335779E+01 0.30087141E+02 0.31455995E+02 0.00000000E+00 0.0000E+00 0.9000E+01
#aMCatNLO 2  0  0  5  2 0.10136615D+02 0.00000000D+00  -5  6  0 0.00000000D+00 0.00000000D+00 0.00000000D+00 0.00000000D+00 0.00000000D+00
  <mgrwgt>
 -.4759392089D-04    3    2    0
 0.142635560670003D+03 0.000000000000000D+00 0.000000000000000D+00 0.142635560670003D+03
 0.142635560670003D+03 -.000000000000000D+00 -.000000000000000D+00 -.142635560670003D+03
 0.115602884144345D+03 -.253984583978301D+02 -.403610811684650D+02 0.926818658660748D+02
 0.374077109969765D+02 0.126078963057285D+02 0.668576689188815D+01 0.345785817211269D+02
 0.132260526198685D+03 0.127905620921016D+02 0.336753142765769D+02 -.127260447587202D+03
 0.000000000000000D+00 0.000000000000000D+00 0.000000000000000D+00 0.000000000000000D+00
 0.142635560670003D+03 0.000000000000000D+00 0.000000000000000D+00 0.142635560670003D+03
 0.142635560670003D+03 -.000000000000000D+00 -.000000000000000D+00 -.142635560670003D+03
 0.113424266616349D+03 -.251588013914481D+02 -.397301061612383D+02 0.902973844273415D+02
 0.367596003006706D+02 0.126855059504277D+02 0.689009952069039D+01 0.338064000100826D+02
 0.125848927842080D+03 0.115670302673729D+02 0.237064287281045D+02 -.123053491160365D+03
 0.923832658090605D+01 0.906265173647535D+00 0.913357791244341D+01 -.105029327705869D+01
-.239802249774D-05 0.000000000000D+00 0.000000000000D+00 0.119323731583D-05 0.000000000000D+00  6 22 -2 9900012 11 -1 21 2 0.16493563D+00 0.29195400D-02 0.35183978D+04 0.35183978D+04 0.35183978D+04 0.12594022D+01  1  2 13  2  6  5       -1 -.488339904676D-04 0.100000000000D+01
-.189430506732D-07 0.000000000000D+00 0.000000000000D+00 0.119323731583D-05 0.000000000000D+00  6 22 -2 9900012 11 -1 21 2 0.16493563D+00 0.29195400D-02 0.35633925D+04 0.35633925D+04 0.35633925D+04 0.12587541D+01  1  2  8  2  6  5       -1 -.385877767091D-06 0.100000000000D+01
0.798431230139D-07 0.000000000000D+00 0.000000000000D+00 0.119323731583D-05 0.338365062741D-08  6 22 -2 9900012 11 -1 21 2 0.16493563D+00 0.29195400D-02 0.35183978D+04 0.35183978D+04 0.35183978D+04 0.12594022D+01  1  2  1  2  6  5       -1 0.162594734280D-05 0.100000000000D+01
  </mgrwgt>
  </event>
  <event>
  6     66 0.14151431E-05 0.30759234E+02 0.78161638E-02 0.12879951E+00
       22 -1    0    0    0    0 0.00000000E+00 0.00000000E+00 0.33733851E+03 0.33733851E+03 0.00000000E+00 0.0000E+00 0.9000E+01
       -4 -1    0    0    0  501 0.00000000E+00 0.00000000E+00 -.88052235E+01 0.88052235E+01 0.00000000E+00 0.0000E+00 0.9000E+01
      -24  2    1    2    0    0 0.15749791E+02 0.26421101E+02 0.22367670E+03 0.23686870E+03 0.71619703E+02 0.0000E+00 0.0000E+00
  9900012  1    3    3    0    0 0.14933539E+02 0.37457499E+02 0.16316956E+03 0.17535786E+03 0.50000000E+02 0.0000E+00 0.9000E+01
       11  1    3    3    0    0 0.81625248E+00 -.11036399E+02 0.60507144E+02 0.61510835E+02 0.00000000E+00 0.0000E+00 0.9000E+01
       -3  1    1    2    0  501 -.15749791E+02 -.26421101E+02 0.10485658E+03 0.10927504E+03 0.00000000E+00 0.0000E+00 0.9000E+01
#aMCatNLO 1  0  0  5  2 0.13681535D+02 0.00000000D+00  -5  6  0 0.00000000D+00 0.00000000D+00 0.00000000D+00 0.00000000D+00 0.00000000D+00
  <mgrwgt>
 0.2361006441D-03    5    2    0
 0.545008348225427D+02 0.000000000000000D+00 0.000000000000000D+00 0.545008348225427D+02
 0.545008348225427D+02 -.000000000000000D+00 -.000000000000000D+00 -.545008348225427D+02
 0.650668348416447D+02 0.149335386858109D+02 0.374574992527780D+02 -.103739176957110D+02
 0.129629138263342D+02 0.816252475499052D+00 -.110363987083999D+02 0.675046445175715D+01
 0.309719209771066D+02 -.157497911613100D+02 -.264211005443782D+02 0.362345324395385D+01
 0.000000000000000D+00 0.000000000000000D+00 0.000000000000000D+00 0.000000000000000D+00
 0.545008348225427D+02 0.000000000000000D+00 0.000000000000000D+00 0.545008348225427D+02
 0.545008348225427D+02 -.000000000000000D+00 -.000000000000000D+00 -.545008348225427D+02
 0.601461169077400D+02 0.106469972861809D+02 0.302666012816684D+02 -.938774066131406D+01
 0.144050212618416D+02 -.120661678658560D+00 -.126081213309359D+02 0.696601427057179D+01
 0.152860819194425D+02 -.147613149545517D+02 -.945943580398376D-01 -.396975228041529D+01
 0.191644495560614D+02 0.423497934702935D+01 -.175638855926926D+02 0.639147867115756D+01
0.122041070111D-05 0.000000000000D+00 0.000000000000D+00 0.300190382419D-08 0.000000000000D+00  6 22 -4 9900012 11 -3 21 0 0.51898233D-01 0.13546498D-02 0.28121972D+04 0.28121972D+04 0.28121972D+04 0.12710078D+01  1  2  2  2  6  5       -3 0.295586374589D-03 0.100000000000D+01
-.338355989738D-07 0.000000000000D+00 -.234334921690D-08 0.300190382419D-08 0.000000000000D+00  6 22 -4 9900012 11 -3 21 2 0.51898233D-01 0.13546498D-02 0.28121972D+04 0.28121972D+04 0.28121972D+04 0.12710078D+01  1  2  3  2  6  5       -3 -.132388028664D-04 0.100000000000D+01
-.157492306095D-06 0.000000000000D+00 0.000000000000D+00 0.300190382419D-08 0.000000000000D+00  6 22 -4 9900012 11 -3 21 2 0.51898233D-01 0.13546498D-02 0.28121972D+04 0.28121972D+04 0.28121972D+04 0.12710078D+01  1  2 15  2  6  5       -3 -.616217728250D-04 0.100000000000D+01
0.182911294988D-06 0.000000000000D+00 0.000000000000D+00 0.300190382419D-08 0.000000000000D+00  6 22 -4 9900012 11 -3 21 2 0.51898233D-01 0.13546498D-02 0.27481985D+04 0.27481985D+04 0.27481985D+04 0.12722195D+01  1  2 12  2  6  5       -3 0.714197765728D-04 0.100000000000D+01
-.143239071020D-06 0.000000000000D+00 0.000000000000D+00 0.300190382419D-08 0.000000000000D+00  6 22 -4 9900012 11 -3 21 2 0.51898233D-01 0.13546498D-02 0.28121972D+04 0.28121972D+04 0.28121972D+04 0.12710078D+01  1  2  4  2  6  5       -3 -.560449314189D-04 0.100000000000D+01
  </mgrwgt>
  </event>
  <event>
  7     66 0.14151431E-05 0.13522851E+02 0.78161638E-02 0.12952770E+00
       22 -1    0    0    0    0 0.00000000E+00 0.00000000E+00 0.96995159E+02 0.96995159E+02 0.00000000E+00 0.0000E+00 0.9000E+01
       -4 -1    0    0    0  501 0.00000000E+00 0.00000000E+00 -.61456272E+02 0.61456272E+02 0.00000000E+00 0.0000E+00 0.9000E+01
      -24  2    1    2    0    0 -.70152338E+01 -.22549866E+02 -.29544084E+02 0.82403483E+02 0.73210458E+02 0.0000E+00 0.0000E+00
  9900012  1    3    3    0    0 -.10906465E+01 -.72534609E+01 -.38669130E+02 0.63632569E+02 0.50000000E+02 0.0000E+00 0.9000E+01
       11  1    3    3    0    0 -.59245873E+01 -.15296405E+02 0.91250463E+01 0.18770914E+02 0.00000000E+00 0.0000E+00 0.9000E+01
       -3  1    1    2    0  502 -.93904516E+01 0.10282038E+02 0.45963599E+02 0.48026590E+02 0.00000000E+00 0.0000E+00 0.9000E+01
       21  1    1    2  502  501 0.16405685E+02 0.12267828E+02 0.19119372E+02 0.28021358E+02 0.00000000E+00 0.0000E+00 0.9000E+01
#aMCatNLO 2  0  0  5  2 0.15317699D+02 0.00000000D+00  -5  6  0 0.00000000D+00 0.00000000D+00 0.00000000D+00 0.00000000D+00 0.00000000D+00
  <mgrwgt>
 0.1212513256D-04    2    2    0
 0.772072589258166D+02 0.000000000000000D+00 0.000000000000000D+00 0.772072589258166D+02
 0.772072589258166D+02 -.000000000000000D+00 -.000000000000000D+00 -.772072589258166D+02
 0.772325674175149D+02 -.163476411398768D+01 -.900248013715305D+01 -.581476772328248D+02
 0.173298314347774D+02 -.604852259308094D+01 -.156947841893500D+02 0.417279058287346D+01
 0.598521189993409D+02 0.768328670706862D+01 0.246972643265030D+02 0.539748866499513D+02
 0.000000000000000D+00 0.000000000000000D+00 0.000000000000000D+00 0.000000000000000D+00
 0.772072589258166D+02 0.000000000000000D+00 0.000000000000000D+00 0.772072589258166D+02
 0.772072589258166D+02 -.000000000000000D+00 -.000000000000000D+00 -.772072589258166D+02
 0.741959343494546D+02 -.109064651996079D+01 -.725346092744170D+01 -.543252654731769D+02
 0.171614961251632D+02 -.592458728402275D+01 -.152964047973144D+02 0.504343286310860D+01
 0.387035287890847D+02 -.939045163328782D+01 0.102820379164645D+02 0.361118021585018D+02
 0.243535585879308D+02 0.164056854372714D+02 0.122678278082916D+02 0.131700304515665D+02
-.728195878080D-07 0.000000000000D+00 0.000000000000D+00 0.243949012587D-08 0.000000000000D+00  6 22 -4 9900012 11 -3 21 2 0.14922332D-01 0.94548110D-02 0.25679016D+04 0.25679016D+04 0.25679016D+04 0.12758108D+01  1  2 13  2  6  5       -3 -.103712892736D-04 0.100000000000D+01
0.157953377071D-06 0.000000000000D+00 0.000000000000D+00 0.243949012587D-08 0.817192740261D-10  6 22 -4 9900012 11 -3 21 2 0.14922332D-01 0.94548110D-02 0.25679016D+04 0.25679016D+04 0.25679016D+04 0.12758108D+01  1  2  1  2  6  5       -3 0.224964218373D-04 0.100000000000D+01
  </mgrwgt>
  </event>
</LesHouchesEvents>
