<LesHouchesEvents version="3.0">
  <!--
  <scalesfunctionalform>
    muR  H_T/2 := sum_i mT(i)/2, i=final state
    muF1 H_T/2 := sum_i mT(i)/2, i=final state
    muF2 H_T/2 := sum_i mT(i)/2, i=final state
    QES  H_T/2 := sum_i mT(i)/2, i=final state
  </scalesfunctionalform>
PYTHIA8   
  -->
  <header>
       85
  </header>
  <init>
   2212   2212 0.65000000D+04 0.65000000D+04 -1 -1  82200  82200 -4   1
 0.41349223D-04 0.19178434D-06 0.92480518D-06     66
  </init>
  <event>
  7     66 -.92480518E-06 0.40152703E+02 0.78161638E-02 0.12321282E+00
       22 -1    0    0    0    0 0.00000000E+00 0.00000000E+00 0.72799348E+02 0.72799348E+02 0.00000000E+00 0.0000E+00 0.9000E+01
       -1 -1    0    0    0  501 -.00000000E+00 -.00000000E+00 -.18389775E+03 0.18389775E+03 0.00000000E+00 0.0000E+00 0.9000E+01
       24  2    1    2    0    0 -.76771867E+01 0.45478223E+02 0.37790772E+02 0.99419317E+02 0.79554071E+02 0.0000E+00 0.0000E+00
  9900012  1    3    3    0    0 0.13528019E+02 0.47568715E+02 0.25412985E+02 0.74777067E+02 0.50000000E+02 0.0000E+00 0.9000E+01
      -11  1    3    3    0    0 -.21205206E+02 -.20904913E+01 0.12377787E+02 0.24642251E+02 0.00000000E+00 0.0000E+00 0.9000E+01
       -2  1    1    2    0  502 0.41459205E+01 -.34042982E+02 -.13320543E+03 0.13754926E+03 0.00000000E+00 0.0000E+00 0.9000E+01
       21  1    1    2  502  501 0.35312662E+01 -.11435241E+02 -.15683747E+02 0.19728520E+02 0.00000000E+00 0.0000E+00 0.9000E+01
#aMCatNLO 2  0  0  5  2 0.72742484D+01 0.00000000D+00  -5  6  0 0.00000000D+00 0.00000000D+00 0.00000000D+00 0.00000000D+00 0.00000000D+00
  <mgrwgt>
 -.9396745734D-04    2    2    0
 0.115704953261677D+03 0.000000000000000D+00 0.000000000000000D+00 0.115704953261677D+03
 0.115704953261677D+03 -.000000000000000D+00 -.000000000000000D+00 -.115704953261677D+03
 0.958806095956006D+02 0.134596725534129D+02 0.479735871700242D+02 0.648880840002152D+02
 0.334988884380514D+02 -.212290971418356D+02 -.194896384089916D+01 0.258399400361996D+02
 0.102030408489701D+03 0.776942458842265D+01 -.460246233291250D+02 -.907280240364148D+02
 0.000000000000000D+00 0.000000000000000D+00 0.000000000000000D+00 0.000000000000000D+00
 0.115704953261677D+03 0.000000000000000D+00 0.000000000000000D+00 0.115704953261677D+03
 0.115704953261677D+03 -.000000000000000D+00 -.000000000000000D+00 -.115704953261677D+03
 0.951488996627341D+02 0.135280191453827D+02 0.475687146964660D+02 0.640899616723042D+02
 0.332775144092164D+02 -.212052058614971D+02 -.209049133317539D+01 0.255609478621794D+02
 0.886288148219098D+02 0.414592050245668D+01 -.340429820267611D+02 -.817248648493793D+02
 0.143546776294929D+02 0.353126621365772D+01 -.114352413365295D+02 -.792604468510432D+01
-.175351594529D-05 0.000000000000D+00 0.000000000000D+00 0.245490049414D-05 0.000000000000D+00  6 22 -1 9900012 -11 -2 21 2 0.11199900D-01 0.28291961D-01 0.47538877D+04 0.47538877D+04 0.47538877D+04 0.12443223D+01  1  2 13  2  6  5       -2 -.118206678043D-03 0.100000000000D+01
0.359572409140D-06 0.000000000000D+00 0.000000000000D+00 0.245490049414D-05 0.677102374992D-07  6 22 -1 9900012 -11 -2 21 2 0.11199900D-01 0.28291961D-01 0.47538877D+04 0.47538877D+04 0.47538877D+04 0.12443223D+01  1  2  1  2  6  5       -2 0.242392207009D-04 0.100000000000D+01
  </mgrwgt>
  </event>
  <event>
  7     66 -.92480518E-06 0.52609350E+02 0.78161638E-02 0.12068822E+00
       22 -1    0    0    0    0 0.00000000E+00 0.00000000E+00 0.31274778E+02 0.31274778E+02 0.00000000E+00 0.0000E+00 0.9000E+01
       -3 -1    0    0    0  502 0.00000000E+00 0.00000000E+00 -.81950704E+03 0.81950704E+03 0.00000000E+00 0.0000E+00 0.9000E+01
       24  2    1    2    0    0 -.58283778E+02 -.12352378E+01 -.50390698E+02 0.11012746E+03 0.78678526E+02 0.0000E+00 0.0000E+00
  9900012  1    3    3    0    0 -.23090662E+02 -.11969399E+02 -.46616695E+02 0.73140696E+02 0.50000000E+02 0.0000E+00 0.9000E+01
      -11  1    3    3    0    0 -.35193117E+02 0.10734161E+02 -.37740035E+01 0.36986765E+02 0.00000000E+00 0.0000E+00 0.9000E+01
       -4  1    1    2    0  501 0.55833145E+02 0.86041891E+01 -.66714930E+03 0.66953682E+03 0.00000000E+00 0.0000E+00 0.9000E+01
       21  1    1    2  501  502 0.24506340E+01 -.73689514E+01 -.70692262E+02 0.71117529E+02 0.00000000E+00 0.0000E+00 0.9000E+01
#aMCatNLO 2  0  0  2  5 0.80651102D+01 0.00000000D+00  -5  6  0 0.00000000D+00 0.00000000D+00 0.00000000D+00 0.00000000D+00 0.00000000D+00
  <mgrwgt>
 -.4931551440D-04    3    2    0
 0.152440515427208D+03 0.000000000000000D+00 0.000000000000000D+00 0.152440515427208D+03
 0.152440515427208D+03 0.000000000000000D+00 0.000000000000000D+00 -.152440515427208D+03
 0.774317129441852D+02 -.224688838170285D+02 -.138390578724157D+02 0.529084105477712D+02
 0.851608124337602D+02 -.345066375743398D+02 0.866994710015859D+01 0.773723978882114D+02
 0.142288505476470D+03 0.569755213913683D+02 0.516911077225706D+01 -.130280808435983D+03
 0.000000000000000D+00 0.000000000000000D+00 -.000000000000000D+00 -.000000000000000D+00
 0.153533817358988D+03 0.000000000000000D+00 0.000000000000000D+00 0.153533817358988D+03
 0.166933257808738D+03 0.000000000000000D+00 0.000000000000000D+00 -.166933257808738D+03
 0.773029434402789D+02 -.230906616233638D+02 -.119693986329623D+02 0.529084105477712D+02
 0.856753502369641D+02 -.351931168476334D+02 0.107341608802729D+02 0.773723978882114D+02
 0.142001623736637D+03 0.558331445183703D+02 0.860418911338832D+01 -.130280808435983D+03
 0.154871577538464D+02 0.245063395262698D+01 -.736895136069891D+01 -.133994404497505D+02
-.112240214080D-04 0.000000000000D+00 0.000000000000D+00 0.347847408205D-05 0.000000000000D+00  6 22 -3 9900012 -11 -4 21 2 0.47772419D-02 0.12698224D+00 0.61946085D+04 0.61946085D+04 0.61946085D+04 0.12315084D+01  1  2 13  1  6  2       -3 -.674211653558D-04 0.100000000000D+01
-.151110533551D-07 0.000000000000D+00 0.000000000000D+00 0.347847408205D-05 0.000000000000D+00  6 22 -3 9900012 -11 -4 21 2 0.47772419D-02 0.11513222D+00 0.55744984D+04 0.55744984D+04 0.55744984D+04 0.12365630D+01  1  2  8  1  6  2       -3 -.117528132401D-06 0.100000000000D+01
0.300545916857D-05 0.000000000000D+00 0.000000000000D+00 0.347847408205D-05 0.217450646632D-06  6 22 -3 9900012 -11 -4 21 2 0.48115042D-02 0.12607801D+00 0.61946085D+04 0.61946085D+04 0.61946085D+04 0.12315084D+01  1  2  1  1  6  2       -3 0.182231790858D-04 0.100000000000D+01
  </mgrwgt>
  </event>
  <event>
  6     66 0.92480518E-06 0.19199120E+03 0.78161638E-02 0.10571606E+00
       22 -1    0    0    0    0 0.00000000E+00 0.00000000E+00 0.18545535E+04 0.18545535E+04 0.00000000E+00 0.0000E+00 0.9000E+01
       -3 -1    0    0    0  501 0.00000000E+00 0.00000000E+00 -.29336768E+02 0.29336768E+02 0.00000000E+00 0.0000E+00 0.9000E+01
       24  2    1    2    0    0 0.19128131E+03 0.16494800E+02 0.14249864E+04 0.14399928E+04 0.78310282E+02 0.0000E+00 0.0000E+00
  9900012  1    3    3    0    0 0.12212043E+03 0.35947738E+01 0.76942423E+03 0.78066637E+03 0.50000000E+02 0.0000E+00 0.9000E+01
      -11  1    3    3    0    0 0.69160887E+02 0.12900026E+02 0.65556213E+03 0.65932643E+03 0.00000000E+00 0.0000E+00 0.9000E+01
       -4  1    1    2    0  501 -.19128131E+03 -.16494800E+02 0.40023040E+03 0.44389750E+03 0.00000000E+00 0.0000E+00 0.9000E+01
#aMCatNLO 1  0  0  2  5 0.80651102D+01 0.00000000D+00  -5  6  0 0.00000000D+00 0.00000000D+00 0.00000000D+00 0.00000000D+00 0.00000000D+00
  <mgrwgt>
 0.7454794992D-06    1    2    0
 0.233252238544371D+03 0.000000000000000D+00 0.000000000000000D+00 0.233252238544371D+03
 0.233252238544371D+03 0.000000000000000D+00 0.000000000000000D+00 -.233252238544371D+03
 0.142171801068211D+03 0.122120427381476D+03 0.359477379367094D+01 0.527873075323702D+02
 0.976532578744168D+02 0.691608866953512D+02 0.129000264408224D+02 0.677238498819007D+02
 0.226679418146114D+03 -.191281314076827D+03 -.164948002344933D+02 -.120511157414271D+03
 0.000000000000000D+00 0.000000000000000D+00 -.000000000000000D+00 0.000000000000000D+00
 0.357597423802123D+03 0.000000000000000D+00 0.000000000000000D+00 0.357597423802123D+03
 0.309251099797614D+03 0.000000000000000D+00 0.000000000000000D+00 -.309251099797614D+03
 0.108328269979702D+03 0.796372202187459D+02 0.103163654505431D+02 0.527873075323702D+02
 0.801284119025158D+02 0.390102545008203D+02 0.176703875162445D+02 0.677238498819007D+02
 0.306390341219522D+03 -.281686530029781D+03 -.219110270620976D+01 -.120511157414271D+03
 0.172001500497997D+03 0.163039055310215D+03 -.257956502605778D+02 0.483463240045099D+02
0.316644033190D-06 0.000000000000D+00 0.000000000000D+00 0.348175033532D-06 0.000000000000D+00  6 22 -3 9900012 -11 -4 21 2 0.28531593D+00 0.45133489D-02 0.38878702D+05 0.38878702D+05 0.38878702D+05 0.11525915D+01  1  2 14  1  6  2       -3 0.745479499249D-06 0.100000000000D+01
  </mgrwgt>
  </event>
  <event>
  6     66 0.92480518E-06 0.19022246E+02 0.78161638E-02 0.12877160E+00
       22 -1    0    0    0    0 0.00000000E+00 0.00000000E+00 0.55217895E+02 0.55217895E+02 0.00000000E+00 0.0000E+00 0.9000E+01
       -3 -1    0    0    0  501 -.00000000E+00 -.00000000E+00 -.13423463E+03 0.13423463E+03 0.00000000E+00 0.0000E+00 0.9000E+01
       24  2    1    2    0    0 -.16133115E+02 -.10078117E+02 0.23543324E+02 0.85143314E+02 0.79581719E+02 0.0000E+00 0.0000E+00
  9900012  1    3    3    0    0 0.10970572E+02 -.61078216E+01 0.25817953E+02 0.57656098E+02 0.50000000E+02 0.0000E+00 0.9000E+01
      -11  1    3    3    0    0 -.27103687E+02 -.39702953E+01 -.22746294E+01 0.27487216E+02 0.00000000E+00 0.0000E+00 0.9000E+01
       -4  1    1    2    0  501 0.16133115E+02 0.10078117E+02 -.10256006E+03 0.10430922E+03 0.00000000E+00 0.0000E+00 0.9000E+01
#aMCatNLO 1  0  0  5  2 0.14953514D+02 0.00000000D+00  -5  6  0 0.00000000D+00 0.00000000D+00 0.00000000D+00 0.00000000D+00 0.00000000D+00
  <mgrwgt>
 0.2428785495D-04    6    2    0
 0.860938670822470D+02 0.000000000000000D+00 0.000000000000000D+00 0.860938670822470D+02
 0.860938670822470D+02 -.000000000000000D+00 -.000000000000000D+00 -.860938670822470D+02
 0.752849451147305D+02 0.109705724044608D+02 -.610782157175960D+01 0.548649616576374D+02
 0.291994595954896D+02 -.271036871416260D+02 -.397029532452079D+01 0.101111492439572D+02
 0.677033294542738D+02 0.161331147371652D+02 0.100781168962804D+02 -.649761109015945D+02
 0.000000000000000D+00 0.000000000000000D+00 0.000000000000000D+00 0.000000000000000D+00
 0.860938670822470D+02 0.000000000000000D+00 0.000000000000000D+00 0.860938670822470D+02
 0.860938670822470D+02 -.000000000000000D+00 -.000000000000000D+00 -.860938670822470D+02
 0.731511622830424D+02 0.117353282131760D+02 -.563008998905497D+01 0.517849080505526D+02
 0.285019823815244D+02 -.268064042655336D+02 -.378458713206497D+01 0.891384262085204D+01
 0.454063258627159D+02 -.404695779997614D+01 0.533564374320276D+01 -.449097702817769D+02
 0.251282636372112D+02 0.191180338523338D+02 0.407903337791717D+01 -.157889803896277D+02
0.248873994212D-06 0.000000000000D+00 0.000000000000D+00 0.146254601238D-05 0.000000000000D+00  6 22 -3 9900012 -11 -4 21 0 0.84950608D-02 0.20651482D-01 0.23994162D+04 0.23994162D+04 0.23994162D+04 0.12794329D+01  1  2  2  2  6  5       -4 0.177870024390D-04 0.100000000000D+01
0.261677329829D-07 0.000000000000D+00 -.477870833902D-09 0.146254601238D-05 0.000000000000D+00  6 22 -3 9900012 -11 -4 21 2 0.84950608D-02 0.20651482D-01 0.23994162D+04 0.23994162D+04 0.23994162D+04 0.12794329D+01  1  2  3  2  6  5       -4 0.306143021398D-05 0.100000000000D+01
-.319647027889D-07 0.000000000000D+00 0.000000000000D+00 0.146254601238D-05 0.000000000000D+00  6 22 -3 9900012 -11 -4 21 2 0.84950608D-02 0.20651482D-01 0.23994162D+04 0.23994162D+04 0.23994162D+04 0.12794329D+01  1  2 15  2  6  5       -4 -.373963258349D-05 0.100000000000D+01
-.107155942316D-07 0.000000000000D+00 0.000000000000D+00 0.146254601238D-05 0.000000000000D+00  6 22 -3 9900012 -11 -4 21 2 0.84950608D-02 0.20651482D-01 0.23994162D+04 0.23994162D+04 0.23994162D+04 0.12794329D+01  1  2  4  2  6  5       -4 -.125364485959D-05 0.100000000000D+01
-.166375552625D-06 0.000000000000D+00 0.000000000000D+00 0.146254601238D-05 0.000000000000D+00  6 22 -3 9900012 -11 -4 21 2 0.84950608D-02 0.20651482D-01 0.23994162D+04 0.23994162D+04 0.23994162D+04 0.12794329D+01  1  2  5  2  6  5       -4 -.194647027317D-04 0.100000000000D+01
0.238454489502D-06 0.000000000000D+00 -.000000000000D+00 0.146254601238D-05 0.000000000000D+00  6 22 -3 9900012 -11 -4 21 2 0.84950608D-02 0.20651482D-01 0.23994162D+04 0.23994162D+04 0.23994162D+04 0.12794329D+01  1  2  6  2  6  5       -4 0.278974024727D-04 0.100000000000D+01
  </mgrwgt>
  </event>
  <event>
  7     66 0.92480518E-06 0.31634866E+02 0.78161638E-02 0.12560894E+00
       22 -1    0    0    0    0 0.00000000E+00 0.00000000E+00 0.15597518E+04 0.15597518E+04 0.00000000E+00 0.0000E+00 0.9000E+01
       21 -1    0    0  502  501 0.00000000E+00 0.00000000E+00 -.42113412E+02 0.42113412E+02 0.00000000E+00 0.0000E+00 0.9000E+01
       24  2    1    2    0    0 0.14390070E+02 0.24134202E+02 0.15438930E+04 0.15461990E+04 0.79600391E+02 0.0000E+00 0.0000E+00
  9900012  1    3    3    0    0 0.21218361E+01 0.36384824E+02 0.13811212E+04 0.13825065E+04 0.50000000E+02 0.0000E+00 0.9000E+01
      -11  1    3    3    0    0 0.12268234E+02 -.12250622E+02 0.16277171E+03 0.16369245E+03 0.00000000E+00 0.0000E+00 0.9000E+01
        3  1    1    2  502    0 -.16215431E+02 -.31501251E+02 -.30691491E+02 0.46874690E+02 0.00000000E+00 0.0000E+00 0.9000E+01
       -4  1    1    2    0  501 0.18253606E+01 0.73670487E+01 0.44369268E+01 0.87915679E+01 0.00000000E+00 0.0000E+00 0.9000E+01
#aMCatNLO 2  0  0  2  5 0.39346597D+02 0.00000000D+00  -5  6  0 0.00000000D+00 0.00000000D+00 0.00000000D+00 0.00000000D+00 0.00000000D+00
  <mgrwgt>
 0.2799356798D-03    1    2    0
 0.696685702183053D+02 0.000000000000000D+00 0.000000000000000D+00 0.696685702183053D+02
 0.696685702183053D+02 0.000000000000000D+00 0.000000000000000D+00 -.696685702183053D+02
 0.730074927042759D+02 -.658274826998583D+01 0.194746786834028D+02 0.490662644426607D+02
 0.193980958365259D+02 0.101548790381716D+02 -.163561761759005D+02 -.237487993508071D+01
 0.000000000000000D+00 -.000000000000000D+00 -.000000000000000D+00 -.000000000000000D+00
 0.469315518958089D+02 -.357213076818577D+01 -.311850250750225D+01 -.466913845075800D+02
 0.722603812523774D+02 0.000000000000000D+00 0.000000000000000D+00 0.722603812523774D+02
 0.909024682391525D+03 0.000000000000000D+00 0.000000000000000D+00 -.909024682391525D+03
 0.789674358953887D+02 0.212183609839907D+01 0.363848242692850D+02 0.490662644426607D+02
 0.174993533722419D+02 0.122682339354255D+02 -.122506224268900D+02 -.237487993508071D+01
 0.837514038470540D+03 -.162154306347615D+02 -.315012505097320D+02 -.836764301139148D+03
 0.473042359057310D+02 0.182536060093688D+01 0.736704866733711D+01 -.466913845075800D+02
0.701684385725D-05 0.000000000000D+00 0.000000000000D+00 0.904113302682D-06 0.746426978173D-07  6 22 21 9900012 -11 3 -4 2 0.23996182D+00 0.64789865D-02 0.37350904D+04 0.37350904D+04 0.37350904D+04 0.12563632D+01  1  2  1  3  5  2       -3 0.279935679817D-03 0.100000000000D+01
  </mgrwgt>
  </event>
  <event>
  6     66 0.92480518E-06 0.51947548E+02 0.78161638E-02 0.12232246E+00
       22 -1    0    0    0    0 0.00000000E+00 0.00000000E+00 0.30108613E+03 0.30108613E+03 0.00000000E+00 0.0000E+00 0.9000E+01
       -3 -1    0    0    0  501 0.00000000E+00 0.00000000E+00 -.18308575E+02 0.18308575E+02 0.00000000E+00 0.0000E+00 0.9000E+01
       24  2    1    2    0    0 -.58362323E+01 -.51618660E+02 0.17214025E+03 0.19716884E+03 0.80899567E+02 0.0000E+00 0.0000E+00
  9900012  1    3    3    0    0 0.11857528E+02 -.16979035E+02 0.74635109E+02 0.92191584E+02 0.50000000E+02 0.0000E+00 0.9000E+01
      -11  1    3    3    0    0 -.17693760E+02 -.34639625E+02 0.97505140E+02 0.10497726E+03 0.00000000E+00 0.0000E+00 0.9000E+01
       -4  1    1    2    0  501 0.58362323E+01 0.51618660E+02 0.11063730E+03 0.12222586E+03 0.00000000E+00 0.0000E+00 0.9000E+01
#aMCatNLO 1  0  0  5  2 0.16475738D+02 0.00000000D+00  -5  6  0 0.00000000D+00 0.00000000D+00 0.00000000D+00 0.00000000D+00 0.00000000D+00
  <mgrwgt>
 0.9912564075D-04    5    2    0
 0.742459290619024D+02 0.000000000000000D+00 0.000000000000000D+00 0.742459290619024D+02
 0.742459290619024D+02 -.000000000000000D+00 -.000000000000000D+00 -.742459290619024D+02
 0.561671870755625D+02 0.118575281016366D+02 -.169790347764832D+02 -.150287826971818D+02
 0.401161115617486D+02 -.176937604062960D+02 -.346396254834531D+02 0.981476417879535D+01
 0.522085594864937D+02 0.583623230465945D+01 0.516186602599363D+02 0.521401851838649D+01
 0.000000000000000D+00 0.000000000000000D+00 0.000000000000000D+00 -.000000000000000D+00
 0.742459290619024D+02 0.000000000000000D+00 0.000000000000000D+00 0.742459290619024D+02
 0.742459290619024D+02 -.000000000000000D+00 -.000000000000000D+00 -.742459290619024D+02
 0.543164089870202D+02 0.127337712471885D+02 -.922908671508885D+01 -.142459577942270D+02
 0.354954894883008D+02 -.170940863414984D+02 -.293357975681775D+02 0.103505056495992D+02
 0.486918821284211D+02 0.305842146113997D+01 0.482018119864499D+02 0.617501130339253D+01
 0.998807752006276D+01 0.130189363316989D+01 -.963692770318355D+01 -.227955915876472D+01
0.619521597103D-06 0.000000000000D+00 0.000000000000D+00 0.109014056003D-06 0.000000000000D+00  6 22 -3 9900012 -11 -4 21 0 0.46320942D-01 0.28167039D-02 0.52536190D+04 0.52536190D+04 0.52536190D+04 0.12394333D+01  1  2  2  2  6  5       -4 0.871137725852D-04 0.100000000000D+01
-.240735827691D-07 0.000000000000D+00 -.118956302833D-08 0.109014056003D-06 0.000000000000D+00  6 22 -3 9900012 -11 -4 21 2 0.46320942D-01 0.28167039D-02 0.52536190D+04 0.52536190D+04 0.52536190D+04 0.12394333D+01  1  2  3  2  6  5       -4 -.520016892364D-05 0.100000000000D+01
-.554238832156D-07 0.000000000000D+00 0.000000000000D+00 0.109014056003D-06 0.000000000000D+00  6 22 -3 9900012 -11 -4 21 2 0.46320942D-01 0.28167039D-02 0.52536190D+04 0.52536190D+04 0.52536190D+04 0.12394333D+01  1  2 15  2  6  5       -4 -.119721920036D-04 0.100000000000D+01
0.239267750547D-06 0.000000000000D+00 0.000000000000D+00 0.109014056003D-06 0.000000000000D+00  6 22 -3 9900012 -11 -4 21 2 0.46320942D-01 0.28167039D-02 0.52121906D+04 0.52121906D+04 0.52121906D+04 0.12398183D+01  1  2 12  2  6  5       -4 0.516665769543D-04 0.100000000000D+01
-.104079438581D-06 0.000000000000D+00 0.000000000000D+00 0.109014056003D-06 0.000000000000D+00  6 22 -3 9900012 -11 -4 21 2 0.46320942D-01 0.28167039D-02 0.52536190D+04 0.52536190D+04 0.52536190D+04 0.12394333D+01  1  2  4  2  6  5       -4 -.224823478620D-04 0.100000000000D+01
  </mgrwgt>
  </event>
  <event>
  7     66 -.92480518E-06 0.44782987E+02 0.78161638E-02 0.12162711E+00
       22 -1    0    0    0    0 0.00000000E+00 0.00000000E+00 0.15614391E+03 0.15614391E+03 0.00000000E+00 0.0000E+00 0.9000E+01
       -3 -1    0    0    0  501 0.00000000E+00 0.00000000E+00 -.86287700E+02 0.86287700E+02 0.00000000E+00 0.0000E+00 0.9000E+01
       24  2    1    2    0    0 0.53311132E+02 0.13447143E+02 0.12435813E+03 0.15771262E+03 0.79908848E+02 0.0000E+00 0.0000E+00
  9900012  1    3    3    0    0 0.49805778E+02 0.29852072E+02 0.82390446E+02 0.11251643E+03 0.50000000E+02 0.0000E+00 0.9000E+01
      -11  1    3    3    0    0 0.35053542E+01 -.16404929E+02 0.41967679E+02 0.45196187E+02 0.00000000E+00 0.0000E+00 0.9000E+01
       -4  1    1    2    0  502 -.45984278E+02 -.15844958E+02 -.58464700E+02 0.76050889E+02 0.00000000E+00 0.0000E+00 0.9000E+01
       21  1    1    2  502  501 -.73268537E+01 0.23978152E+01 0.39627818E+01 0.86680991E+01 0.00000000E+00 0.0000E+00 0.9000E+01
#aMCatNLO 2  0  0  5  2 0.90598395D+01 0.00000000D+00  -5  6  0 0.00000000D+00 0.00000000D+00 0.00000000D+00 0.00000000D+00 0.00000000D+00
  <mgrwgt>
 -.4471431040D-04    3    2    0
 0.116074538621915D+03 0.000000000000000D+00 0.000000000000000D+00 0.116074538621915D+03
 0.116074538621915D+03 -.000000000000000D+00 -.000000000000000D+00 -.116074538621915D+03
 0.946185608712582D+02 0.510821951622133D+02 0.301740337117348D+02 0.541554160571280D+02
 0.352088303051733D+02 0.398081446157745D+01 -.162849989994339D+02 0.309614866450147D+02
 0.102321686067398D+03 -.550630096237907D+02 -.138890347123009D+02 -.851169027021426D+02
 0.000000000000000D+00 -.000000000000000D+00 0.000000000000000D+00 0.000000000000000D+00
 0.116074538621915D+03 0.000000000000000D+00 0.000000000000000D+00 0.116074538621915D+03
 0.116074538621915D+03 -.000000000000000D+00 -.000000000000000D+00 -.116074538621915D+03
 0.927079070839550D+02 0.498057777934029D+02 0.298520715584868D+02 0.521823184416751D+02
 0.345695161747282D+02 0.350535418953991D+01 -.164049285904201D+02 0.302265158181337D+02
 0.970120652150240D+02 -.459842783179444D+02 -.158449581275478D+02 -.839388125172030D+02
 0.785958877012252D+01 -.732685366499833D+01 0.239781515948111D+01 0.152997825739424D+01
-.880666758267D-06 0.000000000000D+00 0.000000000000D+00 0.175503714590D-05 0.000000000000D+00  6 22 -3 9900012 -11 -4 21 2 0.24022139D-01 0.13275031D-01 0.56062294D+04 0.56062294D+04 0.56062294D+04 0.12362893D+01  1  2 13  2  6  5       -4 -.494526307679D-04 0.100000000000D+01
-.199708247365D-07 0.000000000000D+00 0.000000000000D+00 0.175503714590D-05 0.000000000000D+00  6 22 -3 9900012 -11 -4 21 2 0.24022139D-01 0.13275031D-01 0.57108205D+04 0.57108205D+04 0.57108205D+04 0.12353994D+01  1  2  8  2  6  5       -4 -.112187646827D-05 0.100000000000D+01
0.104360080990D-06 0.000000000000D+00 0.000000000000D+00 0.175503714590D-05 0.197335632339D-07  6 22 -3 9900012 -11 -4 21 2 0.24022139D-01 0.13275031D-01 0.56062294D+04 0.56062294D+04 0.56062294D+04 0.12362893D+01  1  2  1  2  6  5       -4 0.586019683797D-05 0.100000000000D+01
  </mgrwgt>
  </event>
  <event>
  6     66 0.92480518E-06 0.72226050E+02 0.78161638E-02 0.78629209E-01
       22 -1    0    0    0    0 0.00000000E+00 0.00000000E+00 0.97850808E+03 0.97850808E+03 0.00000000E+00 0.0000E+00 0.9000E+01
       -1 -1    0    0    0  501 0.00000000E+00 0.00000000E+00 -.26156166E+03 0.26156166E+03 0.00000000E+00 0.0000E+00 0.9000E+01
       24  2    1    2    0    0 0.63833019E+02 0.33792721E+02 0.97050639E+03 0.97642364E+03 0.79396830E+02 0.0000E+00 0.0000E+00
  9900012  1    3    3    0    0 0.18348605E+02 0.82167971E+01 0.41828260E+03 0.42173987E+03 0.50000000E+02 0.0000E+00 0.9000E+01
      -11  1    3    3    0    0 0.45484414E+02 0.25575924E+02 0.55222379E+03 0.55468376E+03 0.00000000E+00 0.0000E+00 0.9000E+01
       -2  1    1    2    0  501 -.63833019E+02 -.33792721E+02 -.25355998E+03 0.26364610E+03 0.00000000E+00 0.0000E+00 0.9000E+01
#aMCatNLO 1  0  0  2  5 0.86184432D+01 0.00000000D+00  -5  6  0 0.00000000D+00 0.00000000D+00 0.00000000D+00 0.00000000D+00 0.00000000D+00
  <mgrwgt>
 0.3263307967D-03    5    4    0
 0.505905321702276D+03 0.000000000000000D+00 0.000000000000000D+00 0.505905321702276D+03
 0.505905321702276D+03 0.000000000000000D+00 0.000000000000000D+00 -.505905321702276D+03
 0.220496435370543D+03 0.183486054032321D+02 0.821679708656546D+01 0.213809473448934D+03
 0.288524022871178D+03 0.454844138627622D+02 0.255759242015703D+02 0.283766016236202D+03
 0.502790185162831D+03 -.638330192659943D+02 -.337927212881358D+02 -.497575489685136D+03
 0.000000000000000D+00 -.000000000000000D+00 -.000000000000000D+00 -.000000000000000D+00
 0.187370051776944D+04 0.000000000000000D+00 0.000000000000000D+00 0.187370051776944D+04
 0.482122389849802D+04 0.000000000000000D+00 0.000000000000000D+00 -.482122389849802D+04
 0.654390551078741D+03 0.607475469837903D+03 0.104814388086019D+03 0.213809473448934D+03
 0.916530717881696D+03 0.856937929445520D+03 0.158627834656461D+03 0.283766016236202D+03
 0.120415708348610D+04 0.108558228546464D+04 0.154673899736570D+03 -.497575489685136D+03
 0.391984606382092D+04 -.254999568474807D+04 -.418116122479050D+03 -.294752338072858D+04
 0.505905321702276D+03 0.000000000000000D+00 0.000000000000000D+00 0.505905321702276D+03
 0.505905321702276D+03 0.000000000000000D+00 0.000000000000000D+00 -.505905321702276D+03
 0.220496435370543D+03 0.183486054032321D+02 0.821679708656546D+01 0.213809473448934D+03
 0.288524022871178D+03 0.454844138627622D+02 0.255759242015703D+02 0.283766016236202D+03
 0.000000000000000D+00 -.000000000000000D+00 -.000000000000000D+00 -.000000000000000D+00
 0.502790185162831D+03 -.638330192659943D+02 -.337927212881358D+02 -.497575489685136D+03
 0.187370051776944D+04 0.000000000000000D+00 0.000000000000000D+00 0.187370051776944D+04
 0.482122389849802D+04 0.000000000000000D+00 0.000000000000000D+00 -.482122389849802D+04
 0.654390551078741D+03 0.607475469837903D+03 0.104814388086019D+03 0.213809473448934D+03
 0.916530717881696D+03 0.856937929445520D+03 0.158627834656461D+03 0.283766016236202D+03
 0.391984606382092D+04 -.254999568474807D+04 -.418116122479050D+03 -.294752338072858D+04
 0.120415708348610D+04 0.108558228546464D+04 0.154673899736570D+03 -.497575489685136D+03
0.122986065461D-02 0.000000000000D+00 0.000000000000D+00 0.681670765463D-03 0.000000000000D+00  6 22 -1 9900012 -11 -2 21 0 0.15053970D+00 0.40240255D-01 0.79475930D+04 0.79475930D+04 0.79475930D+04 0.12198145D+01  1  2  2  1  6  2       -1 0.405805928915D-03 0.100000000000D+01
0.330438825298D-04 0.000000000000D+00 -.236149437172D-05 0.681670765463D-03 0.000000000000D+00  6 22 -1 9900012 -11 -2 21 2 0.15053970D+00 0.40240255D-01 0.79475930D+04 0.79475930D+04 0.79475930D+04 0.12198145D+01  1  2  3  1  6  2       -1 0.162233730788D-04 0.100000000000D+01
-.195102640266D-03 0.000000000000D+00 0.000000000000D+00 0.681670765463D-03 0.000000000000D+00  6 22 -1 9900012 -11 -2 21 2 0.15053970D+00 0.40240255D-01 0.79475930D+04 0.79475930D+04 0.79475930D+04 0.12198145D+01  1  2 15  1  6  2       -1 -.957884691318D-04 0.100000000000D+01
0.755780363633D-02 0.000000000000D+00 -.128686485286D-02 0.681670765463D-03 0.000000000000D+00  6 22 -1 9900012 -11 -2 21 2 0.15053970D+00 0.67616610D+00 0.79475930D+04 0.79475930D+04 0.79475930D+04 0.12198145D+01  1  2  5  1  6  2       -1 -.188779531984D-06 0.100000000000D+01
0.205540639290D-02 0.000000000000D+00 -.401627573497D-03 0.681670765463D-03 0.000000000000D+00  6 22 21 9900012 -11 1 -2 2 0.15053970D+00 0.67616610D+00 0.79475930D+04 0.79475930D+04 0.79475930D+04 0.12198145D+01  3  4  5  3  5  2       -1 0.278743399913D-06 0.100000000000D+01
  </mgrwgt>
  </event>
  <event>
  6     66 0.92480518E-06 0.37811860E+02 0.78161638E-02 0.11637991E+00
       22 -1    0    0    0    0 0.00000000E+00 0.00000000E+00 0.84944087E+03 0.84944087E+03 0.00000000E+00 0.0000E+00 0.9000E+01
       -1 -1    0    0    0  501 0.00000000E+00 0.00000000E+00 -.58018918E+02 0.58018918E+02 0.00000000E+00 0.0000E+00 0.9000E+01
       24  2    1    2    0    0 0.71900405E+02 0.46054183E+02 0.81140620E+03 0.81976699E+03 0.79669597E+02 0.0000E+00 0.0000E+00
  9900012  1    3    3    0    0 0.29694364E+02 0.35050208E+02 0.60528725E+03 0.60908368E+03 0.50000000E+02 0.0000E+00 0.9000E+01
      -11  1    3    3    0    0 0.42206040E+02 0.11003975E+02 0.20611895E+03 0.21068331E+03 0.00000000E+00 0.0000E+00 0.9000E+01
       -2  1    1    2    0  501 -.71900405E+02 -.46054183E+02 -.19984250E+02 0.87692794E+02 0.00000000E+00 0.0000E+00 0.9000E+01
#aMCatNLO 1  0  0  2  5 0.10110849D+02 0.00000000D+00  -5  6  0 0.00000000D+00 0.00000000D+00 0.00000000D+00 0.00000000D+00 0.00000000D+00
  <mgrwgt>
 0.7622051086D-04    6    4    0
 0.221999189518662D+03 0.000000000000000D+00 0.000000000000000D+00 0.221999189518662D+03
 0.221999189518662D+03 0.000000000000000D+00 0.000000000000000D+00 -.221999189518662D+03
 0.165949544740914D+03 0.296943644169005D+02 0.350502082355603D+02 0.151423178622814D+03
 0.631974690027885D+02 0.422060400921641D+02 0.110039748598183D+02 0.457327323192211D+02
 0.214851365293622D+03 -.719004045090646D+02 -.460541830953786D+02 -.197155910942035D+03
 0.000000000000000D+00 0.000000000000000D+00 0.000000000000000D+00 0.000000000000000D+00
 0.226908635768699D+03 0.000000000000000D+00 0.000000000000000D+00 0.226908635768699D+03
 0.222406430768509D+03 0.000000000000000D+00 0.000000000000000D+00 -.222406430768509D+03
 0.165665368048827D+03 0.289023217157637D+02 0.343611837100389D+02 0.151423178622814D+03
 0.629513921714582D+02 0.419047409620700D+02 0.107418646353883D+02 0.457327323192211D+02
 0.215390518269454D+03 -.729280119249456D+02 -.469481332714657D+02 -.197155910942035D+03
 0.530778804746913D+01 0.212094924711180D+01 0.184508492603847D+01 0.450220500019021D+01
 0.221999189518662D+03 0.000000000000000D+00 0.000000000000000D+00 0.221999189518662D+03
 0.221999189518662D+03 0.000000000000000D+00 0.000000000000000D+00 -.221999189518662D+03
 0.165949544740914D+03 0.296943644169005D+02 0.350502082355603D+02 0.151423178622814D+03
 0.631974690027885D+02 0.422060400921641D+02 0.110039748598183D+02 0.457327323192211D+02
 0.000000000000000D+00 0.000000000000000D+00 0.000000000000000D+00 0.000000000000000D+00
 0.214851365293622D+03 -.719004045090646D+02 -.460541830953786D+02 -.197155910942035D+03
 0.226908635768699D+03 0.000000000000000D+00 0.000000000000000D+00 0.226908635768699D+03
 0.222406430768509D+03 0.000000000000000D+00 0.000000000000000D+00 -.222406430768509D+03
 0.165665368048827D+03 0.289023217157637D+02 0.343611837100389D+02 0.151423178622814D+03
 0.629513921714582D+02 0.419047409620700D+02 0.107418646353883D+02 0.457327323192211D+02
 0.530778804746913D+01 0.212094924711180D+01 0.184508492603847D+01 0.450220500019021D+01
 0.215390518269454D+03 -.729280119249456D+02 -.469481332714657D+02 -.197155910942035D+03
0.121021546663D-04 0.000000000000D+00 0.000000000000D+00 0.153038856427D-04 0.000000000000D+00  6 22 -1 9900012 -11 -2 21 0 0.13068321D+00 0.89259874D-02 0.96925268D+04 0.96925268D+04 0.96925268D+04 0.12107383D+01  1  2  2  1  6  2       -1 0.564075030116D-04 0.100000000000D+01
0.150684675094D-06 0.000000000000D+00 -.232377302445D-07 0.153038856427D-04 0.000000000000D+00  6 22 -1 9900012 -11 -2 21 2 0.13068321D+00 0.89259874D-02 0.96925268D+04 0.96925268D+04 0.96925268D+04 0.12107383D+01  1  2  3  1  6  2       -1 0.102954133939D-05 0.100000000000D+01
-.159248988456D-05 0.000000000000D+00 0.000000000000D+00 0.153038856427D-04 0.000000000000D+00  6 22 -1 9900012 -11 -2 21 2 0.13068321D+00 0.89259874D-02 0.96925268D+04 0.96925268D+04 0.96925268D+04 0.12107383D+01  1  2 15  1  6  2       -1 -.108805634527D-04 0.100000000000D+01
0.263532022680D-05 0.000000000000D+00 0.000000000000D+00 0.153038856427D-04 0.000000000000D+00  6 22 -1 9900012 -11 -2 21 2 0.13068321D+00 0.91401192D-02 0.10000531D+05 0.10000531D+05 0.10000531D+05 0.12093275D+01  1  2 12  1  6  2       -1 0.173855280195D-04 0.100000000000D+01
-.562983382886D-07 0.000000000000D+00 0.000000000000D+00 0.153038856427D-04 0.000000000000D+00  6 22 -1 9900012 -11 -2 21 2 0.13068321D+00 0.89259874D-02 0.96925268D+04 0.96925268D+04 0.96925268D+04 0.12107383D+01  1  2  4  1  6  2       -1 -.384654023845D-06 0.100000000000D+01
0.132112290833D-06 0.000000000000D+00 0.000000000000D+00 0.153038856427D-04 0.000000000000D+00  6 22 21 9900012 -11 1 -2 2 0.13068321D+00 0.91401192D-02 0.10000531D+05 0.10000531D+05 0.10000531D+05 0.12093275D+01  3  4 12  3  5  2       -1 0.126631559666D-04 0.100000000000D+01
  </mgrwgt>
  </event>
  <event>
  7     66 0.92480518E-06 0.51866498E+02 0.78161638E-02 0.12143158E+00
       22 -1    0    0    0    0 0.00000000E+00 0.00000000E+00 0.17779581E+02 0.17779581E+02 0.00000000E+00 0.0000E+00 0.9000E+01
       -1 -1    0    0    0  501 -.00000000E+00 -.00000000E+00 -.34627969E+03 0.34627969E+03 0.00000000E+00 0.0000E+00 0.9000E+01
       24  2    1    2    0    0 -.19522681E+02 0.52546152E+02 -.19599435E+03 0.21879222E+03 0.79460775E+02 0.0000E+00 0.0000E+00
  9900012  1    3    3    0    0 -.30196063E+02 0.21325514E+02 -.10538573E+03 0.12236312E+03 0.50000000E+02 0.0000E+00 0.9000E+01
      -11  1    3    3    0    0 0.10673381E+02 0.31220638E+02 -.90608619E+02 0.96429099E+02 0.00000000E+00 0.0000E+00 0.9000E+01
       -2  1    1    2    0  502 0.15493446E+02 -.44665113E+02 -.88053925E+02 0.99942548E+02 0.00000000E+00 0.0000E+00 0.9000E+01
       21  1    1    2  502  501 0.40292355E+01 -.78810390E+01 -.44451829E+02 0.45324504E+02 0.00000000E+00 0.0000E+00 0.9000E+01
#aMCatNLO 2  0  0  5  2 0.80678847D+01 0.00000000D+00  -5  6  0 0.00000000D+00 0.00000000D+00 0.00000000D+00 0.00000000D+00 0.00000000D+00
  <mgrwgt>
 0.1166880279D-03    2    2    0
 0.784646907604300D+02 0.000000000000000D+00 0.000000000000000D+00 0.784646907604300D+02
 0.784646907604300D+02 -.000000000000000D+00 -.000000000000000D+00 -.784646907604300D+02
 0.639789671211454D+02 -.306915524089579D+02 0.226591459469725D+02 0.117430809232755D+02
 0.346030996136130D+02 0.104061075515096D+02 0.319400173389003D+02 -.830197090375449D+01
 0.583473147861015D+02 0.202854448574483D+02 -.545991632858728D+02 -.344111001952105D+01
 0.000000000000000D+00 0.000000000000000D+00 0.000000000000000D+00 -.000000000000000D+00
 0.784646907604300D+02 0.000000000000000D+00 0.000000000000000D+00 0.784646907604300D+02
 0.784646907604300D+02 -.000000000000000D+00 -.000000000000000D+00 -.784646907604300D+02
 0.632654145497177D+02 -.301960626361569D+02 0.213255135222583D+02 0.116590287945824D+02
 0.340342020413447D+02 0.106733812853760D+02 0.312206383782739D+02 -.834730973314795D+01
 0.475327630900003D+02 0.154934458161467D+02 -.446651129391175D+02 0.493400343008578D+01
 0.120970018397973D+02 0.402923553463422D+01 -.788103896141474D+01 -.824572249152022D+01
-.648385517265D-06 0.000000000000D+00 0.000000000000D+00 0.198963617611D-06 0.000000000000D+00  6 22 -1 9900012 -11 -2 21 2 0.27353201D-02 0.53273798D-01 0.57232103D+04 0.57232103D+04 0.57232103D+04 0.12352952D+01  1  2 13  2  6  5       -2 -.107115802414D-03 0.100000000000D+01
0.135471292756D-05 0.000000000000D+00 0.000000000000D+00 0.198963617611D-06 0.511683432275D-07  6 22 -1 9900012 -11 -2 21 2 0.27353201D-02 0.53273798D-01 0.57232103D+04 0.57232103D+04 0.57232103D+04 0.12352952D+01  1  2  1  2  6  5       -2 0.223803830301D-03 0.100000000000D+01
  </mgrwgt>
  </event>
  <event>
  7     66 -.92480518E-06 0.34822665E+02 0.78161638E-02 0.12124264E+00
       22 -1    0    0    0    0 0.00000000E+00 0.00000000E+00 0.38412288E+03 0.38412288E+03 0.00000000E+00 0.0000E+00 0.9000E+01
       -1 -1    0    0    0  501 0.00000000E+00 0.00000000E+00 -.45157702E+02 0.45157702E+02 0.00000000E+00 0.0000E+00 0.9000E+01
       24  2    1    2    0    0 0.42143739E+02 0.46087183E+02 0.33877551E+03 0.35357860E+03 0.79679735E+02 0.0000E+00 0.0000E+00
  9900012  1    3    3    0    0 0.18848440E+02 0.37524100E+02 0.15582007E+03 0.16894737E+03 0.50000000E+02 0.0000E+00 0.9000E+01
      -11  1    3    3    0    0 0.23295298E+02 0.85630836E+01 0.18295544E+03 0.18463123E+03 0.00000000E+00 0.0000E+00 0.9000E+01
       -2  1    1    2    0  502 -.31648376E+02 -.30739186E+02 -.19837777E+02 0.48374112E+02 0.00000000E+00 0.0000E+00 0.9000E+01
       21  1    1    2  502  501 -.10495362E+02 -.15347997E+02 0.20027440E+02 0.27327861E+02 0.00000000E+00 0.0000E+00 0.9000E+01
#aMCatNLO 2  0  0  5  2 0.15377474D+02 0.00000000D+00  -5  6  0 0.00000000D+00 0.00000000D+00 0.00000000D+00 0.00000000D+00 0.00000000D+00
  <mgrwgt>
 -.5230471860D-04    2    2    0
 0.131704617516634D+03 0.000000000000000D+00 0.000000000000000D+00 0.131704617516634D+03
 0.131704617516634D+03 -.000000000000000D+00 -.000000000000000D+00 -.131704617516634D+03
 0.764073685035385D+02 0.196643092784418D+02 0.384163105371486D+02 0.384133829146910D+02
 0.673485733263282D+02 0.240118053004378D+02 0.934663496113366D+01 0.622246249503281D+02
 0.119653293203401D+03 -.436761145788796D+02 -.477629454982823D+02 -.100638007865019D+03
 0.000000000000000D+00 0.000000000000000D+00 -.000000000000000D+00 0.000000000000000D+00
 0.131704617516634D+03 0.000000000000000D+00 0.000000000000000D+00 0.131704617516634D+03
 0.131704617516634D+03 -.000000000000000D+00 -.000000000000000D+00 -.131704617516634D+03
 0.748198899267956D+02 0.188484402030285D+02 0.375240995298640D+02 0.365334666442090D+02
 0.654611745588507D+02 0.232952984528123D+02 0.856308363468785D+01 0.605736579982096D+02
 0.104363774230204D+03 -.316483763406921D+02 -.307391863610367D+02 -.945794907389139D+02
 0.187643963174172D+02 -.104953623151487D+02 -.153479968035151D+02 -.252763390350469D+01
-.139073809027D-05 0.000000000000D+00 0.000000000000D+00 0.301646078393D-05 0.000000000000D+00  6 22 -1 9900012 -11 -2 21 2 0.59095827D-01 0.69473388D-02 0.58389573D+04 0.58389573D+04 0.58389573D+04 0.12343338D+01  1  2 13  2  6  5       -2 -.606449587672D-04 0.100000000000D+01
0.191262223869D-06 0.000000000000D+00 0.000000000000D+00 0.301646078393D-05 0.128201685686D-07  6 22 -1 9900012 -11 -2 21 2 0.59095827D-01 0.69473388D-02 0.58389573D+04 0.58389573D+04 0.58389573D+04 0.12343338D+01  1  2  1  2  6  5       -2 0.834024016556D-05 0.100000000000D+01
  </mgrwgt>
  </event>
  <event>
  6     66 0.92480518E-06 0.18647407E+02 0.78161638E-02 0.12146308E+00
       22 -1    0    0    0    0 0.00000000E+00 0.00000000E+00 0.42055593E+03 0.42055593E+03 0.00000000E+00 0.0000E+00 0.9000E+01
       -1 -1    0    0    0  501 0.00000000E+00 0.00000000E+00 -.20609560E+02 0.20609560E+02 0.00000000E+00 0.0000E+00 0.9000E+01
       24  2    1    2    0    0 0.29938827E+01 -.50059923E+02 0.36788618E+03 0.38164394E+03 0.88300026E+02 0.0000E+00 0.0000E+00
  9900012  1    3    3    0    0 -.53133103E+00 0.66976918E+00 0.16024956E+03 0.16787094E+03 0.50000000E+02 0.0000E+00 0.9000E+01
      -11  1    3    3    0    0 0.35252137E+01 -.50729692E+02 0.20763662E+03 0.21377300E+03 0.00000000E+00 0.0000E+00 0.9000E+01
       -2  1    1    2    0  501 -.29938827E+01 0.50059923E+02 0.32060188E+02 0.59521549E+02 0.00000000E+00 0.0000E+00 0.9000E+01
#aMCatNLO 1  0  0  5  2 0.51666321D+00 0.00000000D+00  -5  6  0 0.00000000D+00 0.00000000D+00 0.00000000D+00 0.00000000D+00 0.00000000D+00
  <mgrwgt>
 0.1890450864D-04    6    2    0
 0.930992620826741D+02 0.000000000000000D+00 0.000000000000000D+00 0.930992620826741D+02
 0.930992620826741D+02 -.000000000000000D+00 -.000000000000000D+00 -.930992620826741D+02
 0.535323013691831D+02 -.531331027133738D+00 0.669769179978128D+00 0.191043551701229D+02
 0.605040081021322D+02 0.352521367943704D+01 -.507296920622966D+02 0.327842371910915D+02
 0.721622146940329D+02 -.299388265230330D+01 0.500599228823185D+02 -.518885923612143D+02
 0.000000000000000D+00 -.000000000000000D+00 0.000000000000000D+00 0.000000000000000D+00
 0.930992620826741D+02 0.000000000000000D+00 0.000000000000000D+00 0.930992620826741D+02
 0.930992620826741D+02 -.000000000000000D+00 -.000000000000000D+00 -.930992620826741D+02
 0.535273333706960D+02 -.532164328662641D+00 0.683702595251596D+00 0.190899127726181D+02
 0.604819077003592D+02 0.352427198232721D+01 -.507139461930788D+02 0.327679161314060D+02
 0.196519480165196D+01 0.384575480904099D+00 0.117251641228329D+01 -.152947624069589D+01
 0.702240882926411D+02 -.337668313456867D+01 0.488577271855439D+02 -.503283526633282D+02
0.294488150372D-06 0.000000000000D+00 0.000000000000D+00 0.172661599383D-07 0.000000000000D+00  6 22 -1 9900012 -11 -2 21 0 0.64700913D-01 0.31707015D-02 0.57009073D+04 0.57009073D+04 0.57009073D+04 0.12354830D+01  1  2  2  2  6  5       -2 0.221707469705D-04 0.100000000000D+01
0.327190075044D-08 0.000000000000D+00 -.565456018970D-09 0.172661599383D-07 0.000000000000D+00  6 22 -1 9900012 -11 -2 21 2 0.64700913D-01 0.31707015D-02 0.57009073D+04 0.57009073D+04 0.57009073D+04 0.12354830D+01  1  2  3  2  6  5       -2 0.375998533643D-06 0.100000000000D+01
-.328600788712D-07 0.000000000000D+00 0.000000000000D+00 0.172661599383D-07 0.000000000000D+00  6 22 -1 9900012 -11 -2 21 2 0.64700913D-01 0.31707015D-02 0.57009073D+04 0.57009073D+04 0.57009073D+04 0.12354830D+01  1  2 15  2  6  5       -2 -.377619690001D-05 0.100000000000D+01
0.608880784291D-17 0.000000000000D+00 0.000000000000D+00 0.172661599383D-07 0.000000000000D+00  6 22 -1 9900012 -11 -2 21 2 0.64700913D-01 0.31707015D-02 0.57041774D+04 0.57041774D+04 0.57041774D+04 0.12354554D+01  1  2 12  2  6  5       -2 0.699722870359D-15 0.100000000000D+01
-.629954522053D-06 0.000000000000D+00 0.000000000000D+00 0.172661599383D-07 0.000000000000D+00  6 22 -1 9900012 -11 -2 21 2 0.64700913D-01 0.31707015D-02 0.57009073D+04 0.57009073D+04 0.57009073D+04 0.12354830D+01  1  2  5  2  6  5       -2 -.723927755210D-04 0.100000000000D+01
0.631108936100D-06 0.000000000000D+00 0.000000000000D+00 0.172661599383D-07 0.708467576157D-08  6 22 -1 9900012 -11 -2 21 2 0.64700913D-01 0.31707015D-02 0.57041774D+04 0.57041774D+04 0.57041774D+04 0.12354554D+01  1  2 11  2  6  5       -2 0.725267355565D-04 0.100000000000D+01
  </mgrwgt>
  </event>
  <event>
  7     66 -.92480518E-06 0.37321758E+02 0.78161638E-02 0.12426099E+00
       22 -1    0    0    0    0 0.00000000E+00 0.00000000E+00 0.41524291E+03 0.41524291E+03 0.00000000E+00 0.0000E+00 0.9000E+01
       -1 -1    0    0    0  502 0.00000000E+00 0.00000000E+00 -.54461470E+02 0.54461470E+02 0.00000000E+00 0.0000E+00 0.9000E+01
       24  2    1    2    0    0 0.11796751E+02 -.40510570E+02 0.39994025E+03 0.41005036E+03 0.80055152E+02 0.0000E+00 0.0000E+00
  9900012  1    3    3    0    0 0.17272954E+02 -.54207997E+02 0.33477799E+03 0.34323922E+03 0.50000000E+02 0.0000E+00 0.9000E+01
      -11  1    3    3    0    0 -.54762033E+01 0.13697427E+02 0.65162261E+02 0.66811141E+02 0.00000000E+00 0.0000E+00 0.9000E+01
       -2  1    1    2    0  501 -.69444287E+01 0.39221984E+02 -.36214663E+02 0.53833920E+02 0.00000000E+00 0.0000E+00 0.9000E+01
       21  1    1    2  501  502 -.48523220E+01 0.12885863E+01 -.29441494E+01 0.58200944E+01 0.00000000E+00 0.0000E+00 0.9000E+01
#aMCatNLO 2  0  0  2  5 0.51274047D+01 0.00000000D+00  -5  6  0 0.00000000D+00 0.00000000D+00 0.00000000D+00 0.00000000D+00 0.00000000D+00
  <mgrwgt>
 -.1219290491D-03    4    2    0
 0.143933248576607D+03 0.000000000000000D+00 0.000000000000000D+00 0.143933248576607D+03
 0.143933248576607D+03 0.000000000000000D+00 0.000000000000000D+00 -.143933248576607D+03
 0.129581923660778D+03 0.150845352862806D+02 -.536268389903088D+02 0.105773786330697D+03
 0.254829214947595D+02 -.590438761520176D+01 0.138111360903327D+02 0.205856749875208D+02
 0.132801651997678D+03 -.918014767107886D+01 0.398157028999761D+02 -.126359461318218D+03
 0.000000000000000D+00 -.000000000000000D+00 0.000000000000000D+00 -.000000000000000D+00
 0.144455381043777D+03 0.000000000000000D+00 0.000000000000000D+00 0.144455381043777D+03
 0.156551725476667D+03 0.000000000000000D+00 0.000000000000000D+00 -.156551725476667D+03
 0.130095948293845D+03 0.172729539648706D+02 -.542079970951717D+02 0.105773786330697D+03
 0.253254482300624D+02 -.547620332480548D+01 0.136974271491811D+02 0.205856749875208D+02
 0.132488877113869D+03 -.694442868281564D+01 0.392219836894171D+02 -.126359461318218D+03
 0.130968328826685D+02 -.485232195724950D+01 0.128858625657348D+01 -.120963444328901D+02
-.416228391824D-05 0.000000000000D+00 0.000000000000D+00 0.878518008257D-05 0.000000000000D+00  6 22 -1 9900012 -11 -2 21 2 0.63652618D-01 0.84090823D-02 0.45796447D+04 0.45796447D+04 0.45796447D+04 0.12461642D+01  1  2 13  1  6  2       -1 -.120536030551D-03 0.100000000000D+01
-.431339582386D-07 0.000000000000D+00 0.000000000000D+00 0.878518008257D-05 0.000000000000D+00  6 22 -1 9900012 -11 -2 21 2 0.63652618D-01 0.77033437D-02 0.42729980D+04 0.42729980D+04 0.42729980D+04 0.12496038D+01  1  2  8  1  6  2       -1 -.141783801853D-05 0.100000000000D+01
-.655270356268D-08 0.000000000000D+00 0.000000000000D+00 0.878518008257D-05 0.000000000000D+00  6 22 -1 9900012 -11 -2 21 2 0.63652618D-01 0.84041742D-02 0.42729980D+04 0.42729980D+04 0.42729980D+04 0.12496038D+01  1  2  9  1  6  2       -1 -.189757707967D-06 0.100000000000D+01
0.652794086492D-08 0.000000000000D+00 0.000000000000D+00 0.878518008257D-05 0.000000000000D+00  6 22 -1 9900012 -11 -2 21 2 0.63652618D-01 0.77033437D-02 0.42729980D+04 0.42729980D+04 0.42729980D+04 0.12496038D+01  1  2 10  1  6  2       -1 0.214577171189D-06 0.100000000000D+01
  </mgrwgt>
  </event>
  <event>
  6     66 0.92480518E-06 0.16796787E+02 0.78161638E-02 0.12708038E+00
       22 -1    0    0    0    0 0.00000000E+00 0.00000000E+00 0.21900323E+02 0.21900323E+02 0.00000000E+00 0.0000E+00 0.9000E+01
       -3 -1    0    0    0  501 -.00000000E+00 -.00000000E+00 -.22086766E+03 0.22086766E+03 0.00000000E+00 0.0000E+00 0.9000E+01
       24  2    1    2    0    0 -.10754911E+02 -.12902091E+02 -.94593177E+02 0.13705092E+03 0.97739211E+02 0.0000E+00 0.0000E+00
  9900012  1    3    3    0    0 0.15216049E+02 -.20393376E+02 -.23195284E+02 0.60707818E+02 0.50000000E+02 0.0000E+00 0.9000E+01
      -11  1    3    3    0    0 -.25970960E+02 0.74912856E+01 -.71397893E+02 0.76343102E+02 0.00000000E+00 0.0000E+00 0.9000E+01
       -4  1    1    2    0  501 0.10754911E+02 0.12902091E+02 -.10437416E+03 0.10571707E+03 0.00000000E+00 0.0000E+00 0.9000E+01
#aMCatNLO 1  0  0  5  2 0.17058660D+02 0.00000000D+00  -5  6  0 0.00000000D+00 0.00000000D+00 0.00000000D+00 0.00000000D+00 0.00000000D+00
  <mgrwgt>
 0.2238174587D-04    4    2    0
 0.695490697692933D+02 0.000000000000000D+00 0.000000000000000D+00 0.695490697692933D+02
 0.695490697692933D+02 -.000000000000000D+00 -.000000000000000D+00 -.695490697692933D+02
 0.727745944763701D+02 0.152160485002343D+02 -.203933763200112D+02 0.463543274302307D+02
 0.311133725119079D+02 -.259709595177349D+02 0.749128561333744D+01 -.154088237919813D+02
 0.352101725503085D+02 0.107549110175006D+02 0.129020907066738D+02 -.309455036382494D+02
 0.000000000000000D+00 0.000000000000000D+00 0.000000000000000D+00 0.000000000000000D+00
 0.695490697692933D+02 0.000000000000000D+00 0.000000000000000D+00 0.695490697692933D+02
 0.695490697692933D+02 -.000000000000000D+00 -.000000000000000D+00 -.695490697692933D+02
 0.658626507025142D+02 0.191597684016474D+02 -.156623067828528D+02 0.350069161537608D+02
 0.332275540870785D+02 -.241406967165924D+02 0.968695386563315D+01 -.206751067095754D+02
 0.128495611485010D+02 -.937675253056683D+01 -.770355089179439D+01 0.422410195747078D+01
 0.271583736004928D+02 0.143576808455117D+02 0.136789038090140D+02 -.185559114016561D+02
0.240205836024D-06 0.000000000000D+00 0.000000000000D+00 0.192215274243D-08 0.000000000000D+00  6 22 -3 9900012 -11 -4 21 0 0.33692804D-02 0.33979640D-01 0.24964233D+04 0.24964233D+04 0.24964233D+04 0.12773137D+01  1  2  2  2  6  5       -4 0.250182266557D-04 0.100000000000D+01
0.164185414057D-07 0.000000000000D+00 -.461226828991D-09 0.192215274243D-08 0.000000000000D+00  6 22 -3 9900012 -11 -4 21 2 0.33692804D-02 0.33979640D-01 0.24964233D+04 0.24964233D+04 0.24964233D+04 0.12773137D+01  1  2  3  2  6  5       -4 0.278999039953D-05 0.100000000000D+01
-.308094439230D-07 0.000000000000D+00 0.000000000000D+00 0.192215274243D-08 0.000000000000D+00  6 22 -3 9900012 -11 -4 21 2 0.33692804D-02 0.33979640D-01 0.24964233D+04 0.24964233D+04 0.24964233D+04 0.12773137D+01  1  2 15  2  6  5       -4 -.523542564690D-05 0.100000000000D+01
-.112426517640D-08 0.000000000000D+00 0.000000000000D+00 0.192215274243D-08 0.000000000000D+00  6 22 -3 9900012 -11 -4 21 2 0.33692804D-02 0.33979640D-01 0.24964233D+04 0.24964233D+04 0.24964233D+04 0.12773137D+01  1  2  4  2  6  5       -4 -.191045536334D-06 0.100000000000D+01
  </mgrwgt>
  </event>
  <event>
  6     66 0.92480518E-06 0.28235507E+02 0.78161638E-02 0.13018880E+00
       22 -1    0    0    0    0 0.00000000E+00 0.00000000E+00 0.20462420E+04 0.20462420E+04 0.00000000E+00 0.0000E+00 0.9000E+01
       -3 -1    0    0    0  501 0.00000000E+00 0.00000000E+00 -.23105750E+01 0.23105750E+01 0.00000000E+00 0.0000E+00 0.9000E+01
       24  2    1    2    0    0 0.29124517E+02 -.12411755E+02 0.18537894E+04 0.18557929E+04 0.80187233E+02 0.0000E+00 0.0000E+00
  9900012  1    3    3    0    0 0.25851148E+02 0.90447658E+01 0.92820912E+03 0.92995820E+03 0.50000000E+02 0.0000E+00 0.9000E+01
      -11  1    3    3    0    0 0.32733689E+01 -.21456521E+02 0.92558025E+03 0.92583471E+03 0.00000000E+00 0.0000E+00 0.9000E+01
       -4  1    1    2    0  501 -.29124517E+02 0.12411755E+02 0.19014209E+03 0.19275970E+03 0.00000000E+00 0.0000E+00 0.9000E+01
#aMCatNLO 1  0  0  5  2 0.20208488D+02 0.00000000D+00  -5  6  0 0.00000000D+00 0.00000000D+00 0.00000000D+00 0.00000000D+00 0.00000000D+00
  <mgrwgt>
 0.6375358188D-04    5    2    0
 0.687604225092328D+02 0.000000000000000D+00 0.000000000000000D+00 0.687604225092328D+02
 0.687604225092328D+02 -.000000000000000D+00 -.000000000000000D+00 -.687604225092328D+02
 0.572457430374585D+02 0.258511476925381D+02 0.904476583978856D+01 0.519475406469877D+01
 0.348929254614954D+02 0.327336892365747D+01 -.214565206690525D+02 0.273206702686744D+02
 0.453821765195117D+02 -.291245166161956D+02 0.124117548292639D+02 -.325154243333732D+02
 0.000000000000000D+00 0.000000000000000D+00 0.000000000000000D+00 0.000000000000000D+00
 0.687604225092328D+02 0.000000000000000D+00 0.000000000000000D+00 0.687604225092328D+02
 0.687604225092328D+02 -.000000000000000D+00 -.000000000000000D+00 -.687604225092328D+02
 0.548012384294185D+02 0.186751649677250D+02 0.121028951613199D+02 -.281671360637334D+01
 0.300421858445561D+02 -.885361912869263D+00 -.196842286779413D+02 0.226777469329870D+02
 0.376942817371083D+02 -.129213772214897D+02 0.117497893523771D+02 -.334041814231576D+02
 0.149831390073828D+02 -.486842583336602D+01 -.416845583575571D+01 0.135431480965440D+02
0.146427557726D-05 0.000000000000D+00 0.000000000000D+00 0.281965917743D-06 0.000000000000D+00  6 22 -3 9900012 -11 -4 21 0 0.31480647D+00 0.35547308D-03 0.30455653D+04 0.30455653D+04 0.30455653D+04 0.12668385D+01  1  2  2  2  6  5       -4 0.551835581430D-04 0.100000000000D+01
0.217817354905D-07 0.000000000000D+00 -.281160188465D-08 0.281965917743D-06 0.000000000000D+00  6 22 -3 9900012 -11 -4 21 2 0.31480647D+00 0.35547308D-03 0.30455653D+04 0.30455653D+04 0.30455653D+04 0.12668385D+01  1  2  3  2  6  5       -4 0.131741272744D-05 0.100000000000D+01
-.165554801354D-06 0.000000000000D+00 0.000000000000D+00 0.281965917743D-06 0.000000000000D+00  6 22 -3 9900012 -11 -4 21 2 0.31480647D+00 0.35547308D-03 0.30455653D+04 0.30455653D+04 0.30455653D+04 0.12668385D+01  1  2 15  2  6  5       -4 -.100131599930D-04 0.100000000000D+01
0.327720769271D-06 0.000000000000D+00 0.000000000000D+00 0.281965917743D-06 0.000000000000D+00  6 22 -3 9900012 -11 -4 21 2 0.31480647D+00 0.35547308D-03 0.24160627D+04 0.24160627D+04 0.24160627D+04 0.12790624D+01  1  2 12  2  6  5       -4 0.195413992256D-04 0.100000000000D+01
-.376246038372D-07 0.000000000000D+00 0.000000000000D+00 0.281965917743D-06 0.000000000000D+00  6 22 -3 9900012 -11 -4 21 2 0.31480647D+00 0.35547308D-03 0.30455653D+04 0.30455653D+04 0.30455653D+04 0.12668385D+01  1  2  4  2  6  5       -4 -.227562821988D-05 0.100000000000D+01
  </mgrwgt>
  </event>
  <event>
  6     66 0.92480518E-06 0.55939397E+02 0.78161638E-02 0.12197027E+00
       22 -1    0    0    0    0 0.00000000E+00 0.00000000E+00 0.72998191E+02 0.72998191E+02 0.00000000E+00 0.0000E+00 0.9000E+01
       -1 -1    0    0    0  501 0.00000000E+00 0.00000000E+00 -.64758482E+03 0.64758482E+03 0.00000000E+00 0.0000E+00 0.9000E+01
       24  2    1    2    0    0 0.55606849E+02 0.60905306E+01 0.33049313E+02 0.11037759E+03 0.89228581E+02 0.0000E+00 0.0000E+00
  9900012  1    3    3    0    0 0.49324135E+02 -.76608919E+01 0.50831711E+02 0.87036902E+02 0.50000000E+02 0.0000E+00 0.9000E+01
      -11  1    3    3    0    0 0.62827139E+01 0.13751422E+02 -.17782399E+02 0.23340690E+02 0.00000000E+00 0.0000E+00 0.9000E+01
       -2  1    1    2    0  501 -.55606849E+02 -.60905306E+01 -.60763594E+03 0.61020542E+03 0.00000000E+00 0.0000E+00 0.9000E+01
#aMCatNLO 1  0  0  2  2 0.57138954D+02 0.00000000D+00  -5  6  0 0.00000000D+00 0.00000000D+00 0.00000000D+00 0.00000000D+00 0.00000000D+00
  <mgrwgt>
 0.7083272024D-04    4    2    0
 0.217422447184137D+03 0.000000000000000D+00 0.000000000000000D+00 0.217422447184137D+03
 0.217422447184137D+03 0.000000000000000D+00 0.000000000000000D+00 -.217422447184137D+03
 0.211396145697258D+03 0.493241346049010D+02 -.766089185084333D+01 0.199240485085696D+03
 0.151809906467755D+02 0.628271392862749D+01 0.137514224267686D+02 0.137417755369594D+01
 0.208267758024242D+03 -.556068485335285D+02 -.609053057592525D+01 -.200614662639392D+03
 0.000000000000000D+00 -.000000000000000D+00 -.000000000000000D+00 0.000000000000000D+00
 0.247759205691563D+03 0.000000000000000D+00 0.000000000000000D+00 0.247759205691563D+03
 0.217722778200927D+03 0.000000000000000D+00 0.000000000000000D+00 -.217722778200927D+03
 0.211481903479829D+03 0.500366847853192D+02 -.491475105807200D+01 0.199240485085696D+03
 0.153821406419076D+02 0.633421285309585D+01 0.139498972867194D+02 0.137417755369594D+01
 0.208019997065723D+03 -.549054030090505D+02 -.338718669697866D+01 -.200614662639392D+03
 0.305979427050302D+02 -.146549462936456D+01 -.564795953166870D+01 0.300364274906363D+02
0.194968267465D-04 0.000000000000D+00 0.000000000000D+00 0.375767427781D-06 0.000000000000D+00  6 22 -1 9900012 -11 -2 21 0 0.11230491D-01 0.99628434D-01 0.50203626D+04 0.50203626D+04 0.50203626D+04 0.12416468D+01  1  2  2  1  6  2       -1 0.903667690311D-04 0.100000000000D+01
0.460490203053D-06 0.000000000000D+00 -.374364741696D-07 0.375767427781D-06 0.000000000000D+00  6 22 -1 9900012 -11 -2 21 2 0.11230491D-01 0.99628434D-01 0.50203626D+04 0.50203626D+04 0.50203626D+04 0.12416468D+01  1  2  3  1  6  2       -1 0.329049620885D-05 0.100000000000D+01
-.310723915504D-05 0.000000000000D+00 0.000000000000D+00 0.375767427781D-06 0.000000000000D+00  6 22 -1 9900012 -11 -2 21 2 0.11230491D-01 0.99628434D-01 0.50203626D+04 0.50203626D+04 0.50203626D+04 0.12416468D+01  1  2 15  1  6  2       -1 -.222032056097D-04 0.100000000000D+01
-.869536639675D-07 0.000000000000D+00 0.000000000000D+00 0.375767427781D-06 0.000000000000D+00  6 22 -1 9900012 -11 -2 21 2 0.11230491D-01 0.99628434D-01 0.50203626D+04 0.50203626D+04 0.50203626D+04 0.12416468D+01  1  2  4  1  6  2       -1 -.621339389489D-06 0.100000000000D+01
  </mgrwgt>
  </event>
  <event>
  6     66 0.92480518E-06 0.10131718E+03 0.78161638E-02 0.11153002E+00
       22 -1    0    0    0    0 0.00000000E+00 0.00000000E+00 0.47852435E+03 0.47852435E+03 0.00000000E+00 0.0000E+00 0.9000E+01
       -1 -1    0    0    0  501 0.00000000E+00 0.00000000E+00 -.59529114E+02 0.59529114E+02 0.00000000E+00 0.0000E+00 0.9000E+01
       24  2    1    2    0    0 0.10072481E+03 0.74799926E+02 0.37814472E+03 0.40610923E+03 0.78681399E+02 0.0000E+00 0.0000E+00
  9900012  1    3    3    0    0 0.68808839E+02 0.41688900E+02 0.30796590E+03 0.32220431E+03 0.50000000E+02 0.0000E+00 0.9000E+01
      -11  1    3    3    0    0 0.31915973E+02 0.33111026E+02 0.70178815E+02 0.83904919E+02 0.00000000E+00 0.0000E+00 0.9000E+01
       -2  1    1    2    0  501 -.10072481E+03 -.74799926E+02 0.40850520E+02 0.13194424E+03 0.00000000E+00 0.0000E+00 0.9000E+01
#aMCatNLO 1  0  0  5  2 0.61884198D+01 0.00000000D+00  -5  6  0 0.00000000D+00 0.00000000D+00 0.00000000D+00 0.00000000D+00 0.00000000D+00
  <mgrwgt>
 0.2884942448D-04    8    2    0
 0.168778348422068D+03 0.000000000000000D+00 0.000000000000000D+00 0.168778348422068D+03
 0.168778348422068D+03 -.000000000000000D+00 -.000000000000000D+00 -.168778348422068D+03
 0.131316902329877D+03 0.688088385179475D+02 0.416888999608315D+02 0.909478322962194D+02
 0.466314056237262D+02 0.319159726910813D+02 0.331110260932968D+02 0.771483173346360D+01
 0.159608388890533D+03 -.100724811209029D+03 -.747999260541284D+02 -.986626640296830D+02
 0.000000000000000D+00 0.000000000000000D+00 0.000000000000000D+00 -.000000000000000D+00
 0.168778348422068D+03 0.000000000000000D+00 0.000000000000000D+00 0.168778348422068D+03
 0.168778348422068D+03 -.000000000000000D+00 -.000000000000000D+00 -.168778348422068D+03
 0.129805296565027D+03 0.677564496885416D+02 0.409073784501444D+02 0.899169891081513D+02
 0.461188189334821D+02 0.315421657123488D+02 0.328334307914830D+02 0.734867773513939D+01
 0.156968387136190D+03 -.101738636471625D+03 -.746130111537992D+02 -.933874883246917D+02
 0.466419420943714D+01 0.244002107073443D+01 0.872201912171732D+00 -.387817851859903D+01
0.119988153487D-05 0.000000000000D+00 0.000000000000D+00 0.608880813496D-06 0.000000000000D+00  6 22 -1 9900012 -11 -2 21 0 0.73619131D-01 0.91583253D-02 0.17712140D+05 0.17712140D+05 0.17712140D+05 0.11844080D+01  1  2  2  2  6  5       -2 0.170828231652D-04 0.100000000000D+01
-.170107566755D-07 0.000000000000D+00 -.230393051498D-08 0.608880813496D-06 0.000000000000D+00  6 22 -1 9900012 -11 -2 21 2 0.73619131D-01 0.91583253D-02 0.17712140D+05 0.17712140D+05 0.17712140D+05 0.11844080D+01  1  2  3  2  6  5       -2 -.339740697610D-06 0.100000000000D+01
-.151019647542D-06 0.000000000000D+00 0.000000000000D+00 0.608880813496D-06 0.000000000000D+00  6 22 -1 9900012 -11 -2 21 2 0.73619131D-01 0.91583253D-02 0.17712140D+05 0.17712140D+05 0.17712140D+05 0.11844080D+01  1  2 15  2  6  5       -2 -.301618096052D-05 0.100000000000D+01
0.696919539695D-06 0.000000000000D+00 0.000000000000D+00 0.608880813496D-06 0.000000000000D+00  6 22 -1 9900012 -11 -2 21 2 0.73619131D-01 0.91583253D-02 0.17943256D+05 0.17943256D+05 0.17943256D+05 0.11838613D+01  1  2 12  2  6  5       -2 0.139197498018D-04 0.100000000000D+01
-.330588225586D-06 0.000000000000D+00 0.000000000000D+00 0.608880813496D-06 0.000000000000D+00  6 22 -1 9900012 -11 -2 21 2 0.73619131D-01 0.91583253D-02 0.17712140D+05 0.17712140D+05 0.17712140D+05 0.11844080D+01  1  2  4  2  6  5       -2 -.660254429152D-05 0.100000000000D+01
-.649231959701D-05 0.000000000000D+00 0.000000000000D+00 0.608880813496D-06 0.000000000000D+00  6 22 -1 9900012 -11 -2 21 2 0.73619131D-01 0.91583253D-02 0.17712140D+05 0.17712140D+05 0.17712140D+05 0.11844080D+01  1  2  5  2  6  5       -2 -.129665318896D-03 0.100000000000D+01
0.668481385408D-05 0.000000000000D+00 -.000000000000D+00 0.608880813496D-06 0.000000000000D+00  6 22 -1 9900012 -11 -2 21 2 0.73619131D-01 0.91583253D-02 0.17712140D+05 0.17712140D+05 0.17712140D+05 0.11844080D+01  1  2  6  2  6  5       -2 0.133509835306D-03 0.100000000000D+01
0.198305263166D-06 0.000000000000D+00 0.000000000000D+00 0.608880813496D-06 0.252416247295D-06  6 22 -1 9900012 -11 -2 21 2 0.73619131D-01 0.91583253D-02 0.17943256D+05 0.17943256D+05 0.17943256D+05 0.11838613D+01  1  2 11  2  6  5       -2 0.396080105438D-05 0.100000000000D+01
  </mgrwgt>
  </event>
  <event>
  6     66 0.92480518E-06 0.11722351E+02 0.78161638E-02 0.12932512E+00
       22 -1    0    0    0    0 0.00000000E+00 0.00000000E+00 0.26651179E+03 0.26651179E+03 0.00000000E+00 0.0000E+00 0.9000E+01
       -1 -1    0    0    0  501 0.00000000E+00 0.00000000E+00 -.19736618E+02 0.19736618E+02 0.00000000E+00 0.0000E+00 0.9000E+01
       24  2    1    2    0    0 -.21634819E+02 0.10448745E+02 0.24853120E+03 0.26215846E+03 0.79887795E+02 0.0000E+00 0.0000E+00
  9900012  1    3    3    0    0 0.25782696E+01 -.41130842E+01 0.11223536E+03 0.12296480E+03 0.50000000E+02 0.0000E+00 0.9000E+01
      -11  1    3    3    0    0 -.24213088E+02 0.14561829E+02 0.13629584E+03 0.13919367E+03 0.00000000E+00 0.0000E+00 0.9000E+01
       -2  1    1    2    0  501 0.21634819E+02 -.10448745E+02 -.17560334E+01 0.24089942E+02 0.00000000E+00 0.0000E+00 0.9000E+01
#aMCatNLO 1  0  0  5  2 0.22873809D+01 0.00000000D+00  -5  6  0 0.00000000D+00 0.00000000D+00 0.00000000D+00 0.00000000D+00 0.00000000D+00
  <mgrwgt>
 0.3620087547D-04    6    2    0
 0.725261427089229D+02 0.000000000000000D+00 0.000000000000000D+00 0.725261427089229D+02
 0.725261427089229D+02 -.000000000000000D+00 -.000000000000000D+00 -.725261427089229D+02
 0.517163636265341D+02 0.257826963441307D+01 -.411308422968235D+01 0.122889108778483D+02
 0.428089490403471D+02 -.242130882084140D+02 0.145618293032590D+02 0.321603110167384D+02
 0.505269727509647D+02 0.216348185740009D+02 -.104487450735766D+02 -.444492218945867D+02
 0.000000000000000D+00 0.000000000000000D+00 0.000000000000000D+00 0.000000000000000D+00
 0.725261427089229D+02 0.000000000000000D+00 0.000000000000000D+00 0.725261427089229D+02
 0.725261427089229D+02 -.000000000000000D+00 -.000000000000000D+00 -.725261427089229D+02
 0.515967931345740D+02 0.288968706843385D+01 -.426348629422570D+01 0.116490967477097D+02
 0.422264590930887D+02 -.239567654956828D+02 0.144380357677258D+02 0.316336902320141D+02
 0.498773437949595D+02 0.211769653184316D+02 -.919872943536790D+01 -.442116380686966D+02
 0.135168939522371D+01 -.109886891182576D+00 -.975820038132185D+00 0.928851088972918D+00
0.266616055571D-06 0.000000000000D+00 0.000000000000D+00 0.619066356541D-06 0.000000000000D+00  6 22 -1 9900012 -11 -2 21 0 0.41001813D-01 0.30364028D-02 0.26273578D+04 0.26273578D+04 0.26273578D+04 0.12745960D+01  1  2  2  2  6  5       -2 0.416515737081D-04 0.100000000000D+01
0.142028814738D-07 0.000000000000D+00 -.511937927506D-09 0.619066356541D-06 0.000000000000D+00  6 22 -1 9900012 -11 -2 21 2 0.41001813D-01 0.30364028D-02 0.26273578D+04 0.26273578D+04 0.26273578D+04 0.12745960D+01  1  2  3  2  6  5       -2 0.360467973515D-05 0.100000000000D+01
-.338281187676D-07 0.000000000000D+00 0.000000000000D+00 0.619066356541D-06 0.000000000000D+00  6 22 -1 9900012 -11 -2 21 2 0.41001813D-01 0.30364028D-02 0.26273578D+04 0.26273578D+04 0.26273578D+04 0.12745960D+01  1  2 15  2  6  5       -2 -.858554895529D-05 0.100000000000D+01
0.142006438069D-09 0.000000000000D+00 0.000000000000D+00 0.619066356541D-06 0.000000000000D+00  6 22 -1 9900012 -11 -2 21 2 0.41001813D-01 0.30364028D-02 0.26166406D+04 0.26166406D+04 0.26166406D+04 0.12748127D+01  1  2 12  2  6  5       -2 0.360349005046D-07 0.100000000000D+01
-.475487841531D-07 0.000000000000D+00 0.000000000000D+00 0.619066356541D-06 0.000000000000D+00  6 22 -1 9900012 -11 -2 21 2 0.41001813D-01 0.30364028D-02 0.26273578D+04 0.26273578D+04 0.26273578D+04 0.12745960D+01  1  2  4  2  6  5       -2 -.120678426405D-04 0.100000000000D+01
0.455634785333D-07 0.000000000000D+00 0.000000000000D+00 0.619066356541D-06 0.656351658971D-07  6 22 -1 9900012 -11 -2 21 2 0.41001813D-01 0.30364028D-02 0.26166406D+04 0.26166406D+04 0.26166406D+04 0.12748127D+01  1  2 11  2  6  5       -2 0.115619787238D-04 0.100000000000D+01
  </mgrwgt>
  </event>
  <event>
  6     66 0.92480518E-06 0.65779580E+02 0.78161638E-02 0.11755704E+00
       22 -1    0    0    0    0 0.00000000E+00 0.00000000E+00 0.25014827E+03 0.25014827E+03 0.00000000E+00 0.0000E+00 0.9000E+01
       -1 -1    0    0    0  501 -.00000000E+00 -.00000000E+00 -.31014190E+03 0.31014190E+03 0.00000000E+00 0.0000E+00 0.9000E+01
       24  2    1    2    0    0 -.71974973E+02 0.56811330E+01 0.23291472E+03 0.25861490E+03 0.86137836E+02 0.0000E+00 0.0000E+00
  9900012  1    3    3    0    0 -.31935035E+02 0.28491027E+02 0.12484533E+03 0.14113093E+03 0.50000000E+02 0.0000E+00 0.9000E+01
      -11  1    3    3    0    0 -.40039938E+02 -.22809894E+02 0.10806940E+03 0.11748397E+03 0.00000000E+00 0.0000E+00 0.9000E+01
       -2  1    1    2    0  501 0.71974973E+02 -.56811330E+01 -.29290835E+03 0.30167527E+03 0.00000000E+00 0.0000E+00 0.9000E+01
#aMCatNLO 1  0  0  5  2 0.98650666D+01 0.00000000D+00  -5  6  0 0.00000000D+00 0.00000000D+00 0.00000000D+00 0.00000000D+00 0.00000000D+00
  <mgrwgt>
 0.2432062835D-03    8    2    0
 0.278534487475813D+03 0.000000000000000D+00 0.000000000000000D+00 0.278534487475813D+03
 0.278534487475813D+03 -.000000000000000D+00 -.000000000000000D+00 -.278534487475813D+03
 0.155392244981360D+03 -.319350347704405D+02 0.284910271116335D+02 0.140766347997957D+03
 0.129801854731299D+03 -.400399383654149D+02 -.228098941334876D+02 0.121346749264239D+03
 0.271874875238967D+03 0.719749731358554D+02 -.568113297814586D+01 -.262113097262196D+03
 0.000000000000000D+00 0.000000000000000D+00 0.000000000000000D+00 -.000000000000000D+00
 0.278534487475813D+03 0.000000000000000D+00 0.000000000000000D+00 0.278534487475813D+03
 0.278534487475813D+03 -.000000000000000D+00 -.000000000000000D+00 -.278534487475813D+03
 0.155172504326828D+03 -.318725829451132D+02 0.284860976603402D+02 0.140538915591205D+03
 0.129608896139570D+03 -.399877731569117D+02 -.228140116409132D+02 0.121156777892603D+03
 0.189463196436137D+03 0.495979066897542D+02 -.138005866624351D+02 -.182334566836805D+03
 0.828243780490917D+02 0.222624494122707D+02 0.812850064300815D+01 -.793611266470025D+02
0.417657224330D-05 0.000000000000D+00 0.000000000000D+00 0.175022557671D-05 0.000000000000D+00  6 22 -1 9900012 -11 -2 21 0 0.38484350D-01 0.47714138D-01 0.84727362D+04 0.84727362D+04 0.84727362D+04 0.12168646D+01  1  2  2  2  6  5       -2 0.126620560938D-04 0.100000000000D+01
0.115670783549D-06 0.000000000000D+00 -.801956856550D-08 0.175022557671D-05 0.000000000000D+00  6 22 -1 9900012 -11 -2 21 2 0.38484350D-01 0.47714138D-01 0.84727362D+04 0.84727362D+04 0.84727362D+04 0.12168646D+01  1  2  3  2  6  5       -2 0.519269033819D-06 0.100000000000D+01
-.656748439618D-06 0.000000000000D+00 0.000000000000D+00 0.175022557671D-05 0.000000000000D+00  6 22 -1 9900012 -11 -2 21 2 0.38484350D-01 0.47714138D-01 0.84727362D+04 0.84727362D+04 0.84727362D+04 0.12168646D+01  1  2 15  2  6  5       -2 -.294827368881D-05 0.100000000000D+01
0.105743159943D-03 0.000000000000D+00 0.000000000000D+00 0.175022557671D-05 0.000000000000D+00  6 22 -1 9900012 -11 -2 21 2 0.38484350D-01 0.47714138D-01 0.87424842D+04 0.87424842D+04 0.87424842D+04 0.12154281D+01  1  2 12  2  6  5       -2 0.474308610183D-03 0.100000000000D+01
-.904766691421D-04 0.000000000000D+00 0.000000000000D+00 0.175022557671D-05 0.000000000000D+00  6 22 -1 9900012 -11 -2 21 2 0.38484350D-01 0.47714138D-01 0.84727362D+04 0.84727362D+04 0.84727362D+04 0.12168646D+01  1  2  4  2  6  5       -2 -.406167669372D-03 0.100000000000D+01
-.105467162056D-03 0.000000000000D+00 0.000000000000D+00 0.175022557671D-05 0.000000000000D+00  6 22 -1 9900012 -11 -2 21 2 0.38484350D-01 0.47714138D-01 0.84727362D+04 0.84727362D+04 0.84727362D+04 0.12168646D+01  1  2  5  2  6  5       -2 -.473462958061D-03 0.100000000000D+01
0.142184696190D-03 0.000000000000D+00 -.000000000000D+00 0.175022557671D-05 0.000000000000D+00  6 22 -1 9900012 -11 -2 21 2 0.38484350D-01 0.47714138D-01 0.84727362D+04 0.84727362D+04 0.84727362D+04 0.12168646D+01  1  2  6  2  6  5       -2 0.638295233671D-03 0.100000000000D+01
0.349343886418D-11 0.000000000000D+00 0.000000000000D+00 0.175022557671D-05 0.625185142193D-07  6 22 -1 9900012 -11 -2 21 2 0.38484350D-01 0.47714138D-01 0.87424842D+04 0.87424842D+04 0.87424842D+04 0.12154281D+01  1  2 11  2  6  5       -2 0.156697429255D-10 0.100000000000D+01
  </mgrwgt>
  </event>
  <event>
  6     66 0.92480518E-06 0.36397785E+02 0.78161638E-02 0.12560939E+00
       22 -1    0    0    0    0 0.00000000E+00 0.00000000E+00 0.49834340E+02 0.49834340E+02 0.00000000E+00 0.0000E+00 0.9000E+01
       -3 -1    0    0    0  501 -.00000000E+00 -.00000000E+00 -.12888942E+03 0.12888942E+03 0.00000000E+00 0.0000E+00 0.9000E+01
       24  2    1    2    0    0 -.27191327E+02 -.24195670E+02 0.30114809E+01 0.88947822E+02 0.81103929E+02 0.0000E+00 0.0000E+00
  9900012  1    3    3    0    0 -.14877499E+02 0.90979093E+00 0.20398553E+02 0.56020252E+02 0.50000000E+02 0.0000E+00 0.9000E+01
      -11  1    3    3    0    0 -.12313828E+02 -.25105461E+02 -.17387072E+02 0.32927570E+02 0.00000000E+00 0.0000E+00 0.9000E+01
       -4  1    1    2    0  501 0.27191327E+02 0.24195670E+02 -.82066559E+02 0.89775937E+02 0.00000000E+00 0.0000E+00 0.9000E+01
#aMCatNLO 1  0  0  5  2 0.15202631D+02 0.00000000D+00  -5  6  0 0.00000000D+00 0.00000000D+00 0.00000000D+00 0.00000000D+00 0.00000000D+00
  <mgrwgt>
 0.6308913660D-04    7    2    0
 0.801443645206653D+02 0.000000000000000D+00 0.000000000000000D+00 0.801443645206653D+02
 0.801443645206653D+02 -.000000000000000D+00 -.000000000000000D+00 -.801443645206653D+02
 0.725238722089316D+02 -.148774990043141D+02 0.909790929788604D+00 0.503740443484355D+02
 0.281392377443409D+02 -.123138284391733D+02 -.251054612732709D+02 -.314676727125493D+01
 0.596256190880581D+02 0.271913274434873D+02 0.241956703434823D+02 -.472272770771806D+02
 0.000000000000000D+00 0.000000000000000D+00 0.000000000000000D+00 0.000000000000000D+00
 0.801443645206653D+02 0.000000000000000D+00 0.000000000000000D+00 0.801443645206653D+02
 0.801443645206653D+02 -.000000000000000D+00 -.000000000000000D+00 -.801443645206653D+02
 0.698359479503141D+02 -.129011638216622D+02 0.266839409717918D+01 0.469414451322896D+02
 0.273802749831695D+02 -.115430690619534D+02 -.244196161322377D+02 -.448546126269208D+01
 0.442826061737747D+02 0.255557101287601D+02 0.416861951286122D+01 -.359232167367207D+02
 0.187898999340722D+02 -.111147724514454D+01 0.175826025221973D+02 -.653276713287686D+01
0.366381275235D-06 0.000000000000D+00 0.000000000000D+00 0.406027795190D-06 0.000000000000D+00  6 22 -3 9900012 -11 -4 21 0 0.76668216D-02 0.19829141D-01 0.33950967D+04 0.33950967D+04 0.33950967D+04 0.12612273D+01  1  2  2  2  6  5       -4 0.336619255338D-04 0.100000000000D+01
0.629025867228D-08 0.000000000000D+00 -.703500283653D-09 0.406027795190D-06 0.000000000000D+00  6 22 -3 9900012 -11 -4 21 2 0.76668216D-02 0.19829141D-01 0.33950967D+04 0.33950967D+04 0.33950967D+04 0.12612273D+01  1  2  3  2  6  5       -4 0.919307704831D-06 0.100000000000D+01
-.451789539533D-07 0.000000000000D+00 0.000000000000D+00 0.406027795190D-06 0.000000000000D+00  6 22 -3 9900012 -11 -4 21 2 0.76668216D-02 0.19829141D-01 0.33950967D+04 0.33950967D+04 0.33950967D+04 0.12612273D+01  1  2 15  2  6  5       -4 -.660280643919D-05 0.100000000000D+01
0.212256466078D-06 0.000000000000D+00 0.000000000000D+00 0.406027795190D-06 0.000000000000D+00  6 22 -3 9900012 -11 -4 21 2 0.76668216D-02 0.19829141D-01 0.37349222D+04 0.37349222D+04 0.37349222D+04 0.12563655D+01  1  2 12  2  6  5       -4 0.311138495369D-04 0.100000000000D+01
-.432801970704D-07 0.000000000000D+00 0.000000000000D+00 0.406027795190D-06 0.000000000000D+00  6 22 -3 9900012 -11 -4 21 2 0.76668216D-02 0.19829141D-01 0.33950967D+04 0.33950967D+04 0.33950967D+04 0.12612273D+01  1  2  4  2  6  5       -4 -.632530722604D-05 0.100000000000D+01
-.195414153426D-06 0.000000000000D+00 0.000000000000D+00 0.406027795190D-06 0.000000000000D+00  6 22 -3 9900012 -11 -4 21 2 0.76668216D-02 0.19829141D-01 0.33950967D+04 0.33950967D+04 0.33950967D+04 0.12612273D+01  1  2  5  2  6  5       -4 -.285593560197D-04 0.100000000000D+01
0.266042413400D-06 0.000000000000D+00 -.000000000000D+00 0.406027795190D-06 0.000000000000D+00  6 22 -3 9900012 -11 -4 21 2 0.76668216D-02 0.19829141D-01 0.33950967D+04 0.33950967D+04 0.33950967D+04 0.12612273D+01  1  2  6  2  6  5       -4 0.388815235100D-04 0.100000000000D+01
  </mgrwgt>
  </event>
  <event>
  7     66 0.92480518E-06 0.98663876E+01 0.78161638E-02 0.12683523E+00
       22 -1    0    0    0    0 0.00000000E+00 0.00000000E+00 0.61063365E+02 0.61063365E+02 0.00000000E+00 0.0000E+00 0.9000E+01
       21 -1    0    0  502  501 0.00000000E+00 0.00000000E+00 -.22993772E+03 0.22993772E+03 0.00000000E+00 0.0000E+00 0.9000E+01
       24  2    1    2    0    0 0.21730619E+02 0.14627020E+02 0.28401487E+02 0.88790521E+02 0.79943371E+02 0.0000E+00 0.0000E+00
  9900012  1    3    3    0    0 -.79438817E+01 0.28280388E+01 0.92172867E+01 0.51536991E+02 0.50000000E+02 0.0000E+00 0.9000E+01
      -11  1    3    3    0    0 0.29674500E+02 0.11798981E+02 0.19184200E+02 0.37253530E+02 0.00000000E+00 0.0000E+00 0.9000E+01
        3  1    1    2  502    0 -.67219845E+01 -.16054074E+02 -.33584495E+02 0.37826402E+02 0.00000000E+00 0.0000E+00 0.9000E+01
       -4  1    1    2    0  501 -.15008634E+02 0.14270538E+01 -.16369135E+03 0.16438416E+03 0.00000000E+00 0.0000E+00 0.9000E+01
#aMCatNLO 2  0  0  2  2 0.19252922D+02 0.00000000D+00  -5  6  0 0.00000000D+00 0.00000000D+00 0.00000000D+00 0.00000000D+00 0.00000000D+00
  <mgrwgt>
 0.2730391282D-05    1    2    0
 0.106643279081535D+03 0.000000000000000D+00 0.000000000000000D+00 0.106643279081535D+03
 0.106643279081535D+03 0.000000000000000D+00 0.000000000000000D+00 -.106643279081535D+03
 0.670593784153549D+02 -.100497497523500D+02 -.220139291616009D+01 0.434869708372242D+02
 0.545659572615056D+02 0.279318955009851D+02 0.763712932807883D+01 0.462485368548315D+02
 0.000000000000000D+00 -.000000000000000D+00 -.000000000000000D+00 -.000000000000000D+00
 0.916612224862088D+02 -.178821457486351D+02 -.543573641191875D+01 -.897355076920556D+02
 0.110847902282253D+03 0.000000000000000D+00 0.000000000000000D+00 0.110847902282253D+03
 0.126666997562245D+03 0.000000000000000D+00 0.000000000000000D+00 -.126666997562245D+03
 0.667998479933133D+02 -.794388167505110D+01 0.282803876652335D+01 0.434869708372242D+02
 0.562024829380816D+02 0.296745002391624D+02 0.117989814284370D+02 0.462485368548315D+02
 0.235193992837619D+02 -.672198451768981D+01 -.160540739793828D+02 -.158190952799919D+02
 0.909931696293409D+02 -.150086340464215D+02 0.142705378442249D+01 -.897355076920556D+02
0.416489066485D-08 0.000000000000D+00 0.000000000000D+00 0.380008503052D-05 0.766430675922D-08  6 22 21 9900012 -11 3 -4 2 0.93943638D-02 0.35375034D-01 0.33132170D+04 0.33132170D+04 0.33132170D+04 0.12624811D+01  1  2  1  3  5  2       -3 0.273039128168D-05 0.100000000000D+01
  </mgrwgt>
  </event>
  <event>
  7     66 -.92480518E-06 0.23236133E+02 0.78161638E-02 0.12609667E+00
       22 -1    0    0    0    0 0.00000000E+00 0.00000000E+00 0.10384580E+03 0.10384580E+03 0.00000000E+00 0.0000E+00 0.9000E+01
       -3 -1    0    0    0  502 0.00000000E+00 0.00000000E+00 -.49363223E+02 0.49363223E+02 0.00000000E+00 0.0000E+00 0.9000E+01
       24  2    1    2    0    0 -.15328742E+02 0.25986538E+02 0.69193741E+02 0.11026964E+03 0.80382516E+02 0.0000E+00 0.0000E+00
  9900012  1    3    3    0    0 -.10725145E+02 -.15018208E+01 0.22496164E+02 0.55887043E+02 0.50000000E+02 0.0000E+00 0.9000E+01
      -11  1    3    3    0    0 -.46035971E+01 0.27488359E+02 0.46697577E+02 0.54382595E+02 0.00000000E+00 0.0000E+00 0.9000E+01
       -4  1    1    2    0  501 0.42568302E+01 -.28610484E+02 -.11376451E+02 0.31082214E+02 0.00000000E+00 0.0000E+00 0.9000E+01
       21  1    1    2  501  502 0.11071912E+02 0.26239453E+01 -.33347090E+01 0.11857175E+02 0.00000000E+00 0.0000E+00 0.9000E+01
#aMCatNLO 2  0  0  2  5 0.12806179D+02 0.00000000D+00  -5  6  0 0.00000000D+00 0.00000000D+00 0.00000000D+00 0.00000000D+00 0.00000000D+00
  <mgrwgt>
 -.2517028161D-04    2    2    0
 0.642417985372217D+02 0.000000000000000D+00 0.000000000000000D+00 0.642417985372217D+02
 0.642417985372217D+02 0.000000000000000D+00 0.000000000000000D+00 -.642417985372217D+02
 0.504062884758482D+02 -.635747761298797D+01 -.466722305675461D+00 -.398204219175494D+00
 0.389801551745719D+02 -.126468071582178D+01 0.282796529169365D+02 0.267976549537146D+02
 0.390971534240233D+02 0.762215832880975D+01 -.278129306112610D+02 -.263994507345391D+02
 0.000000000000000D+00 0.000000000000000D+00 0.000000000000000D+00 -.000000000000000D+00
 0.672529016266894D+02 0.000000000000000D+00 0.000000000000000D+00 0.672529016266894D+02
 0.762221919965712D+02 0.000000000000000D+00 0.000000000000000D+00 -.762221919965712D+02
 0.511609495605521D+02 -.107251446389976D+02 -.150182083144801D+01 -.398204219175494D+00
 0.386641605276706D+02 -.460359712239208D+01 0.274883592057773D+02 0.267976549537146D+02
 0.391613505682890D+02 0.425683015803122D+01 -.286104836773646D+02 -.263994507345391D+02
 0.144886329667488D+02 0.110719116033585D+02 0.262394530303534D+01 -.896929036988182D+01
-.137497738793D-06 0.000000000000D+00 0.000000000000D+00 0.239525587687D-06 0.000000000000D+00  6 22 -3 9900012 -11 -4 21 2 0.15260974D-01 0.79502994D-02 0.35601869D+04 0.35601869D+04 0.35601869D+04 0.12588000D+01  1  2 13  1  6  2       -3 -.336154027806D-04 0.100000000000D+01
0.343826791330D-07 0.000000000000D+00 0.000000000000D+00 0.239525587687D-06 0.714119182044D-08  6 22 -3 9900012 -11 -4 21 2 0.15976278D-01 0.75943420D-02 0.35601869D+04 0.35601869D+04 0.35601869D+04 0.12588000D+01  1  2  1  1  6  2       -3 0.844512116693D-05 0.100000000000D+01
  </mgrwgt>
  </event>
  <event>
  6     66 0.92480518E-06 0.43373514E+02 0.78161638E-02 0.11958176E+00
       22 -1    0    0    0    0 0.00000000E+00 0.00000000E+00 0.36232531E+02 0.36232531E+02 0.00000000E+00 0.0000E+00 0.9000E+01
       -1 -1    0    0    0  501 -.00000000E+00 -.00000000E+00 -.33471731E+03 0.33471731E+03 0.00000000E+00 0.0000E+00 0.9000E+01
       24  2    1    2    0    0 -.70133768E+02 0.14029731E+02 -.60284129E+02 0.12224293E+03 0.78699293E+02 0.0000E+00 0.0000E+00
  9900012  1    3    3    0    0 -.21110392E+02 0.11861195E+02 -.21027006E+02 0.59400939E+02 0.50000000E+02 0.0000E+00 0.9000E+01
      -11  1    3    3    0    0 -.49023377E+02 0.21685361E+01 -.39257123E+02 0.62841990E+02 0.00000000E+00 0.0000E+00 0.9000E+01
       -2  1    1    2    0  501 0.70133768E+02 -.14029731E+02 -.23820065E+03 0.24870691E+03 0.00000000E+00 0.0000E+00 0.9000E+01
#aMCatNLO 1  0  0  5  2 0.25473952D+02 0.00000000D+00  -5  6  0 0.00000000D+00 0.00000000D+00 0.00000000D+00 0.00000000D+00 0.00000000D+00
  <mgrwgt>
 0.1239887681D-03    7    2    0
 0.110125634369217D+03 0.000000000000000D+00 0.000000000000000D+00 0.110125634369217D+03
 0.110125634369217D+03 -.000000000000000D+00 -.000000000000000D+00 -.110125634369217D+03
 0.715479534703500D+02 -.211103915555659D+02 0.118611950875316D+02 0.450862846690828D+02
 0.526379374761964D+02 -.490233766726464D+02 0.216853605432454D+01 0.190462188567937D+02
 0.960653777918867D+02 0.701337682282122D+02 -.140297311418561D+02 -.641325035258765D+02
 0.000000000000000D+00 0.000000000000000D+00 0.000000000000000D+00 0.000000000000000D+00
 0.110125634369217D+03 0.000000000000000D+00 0.000000000000000D+00 0.110125634369217D+03
 0.110125634369217D+03 -.000000000000000D+00 -.000000000000000D+00 -.110125634369217D+03
 0.686702969207388D+02 -.178374107247153D+02 0.112064599684964D+02 0.420933689884134D+02
 0.496205364658269D+02 -.466364546844545D+02 0.169105032103344D+01 0.168635429976328D+02
 0.499314641840506D+02 0.141793765236780D+02 -.612996267358298D+01 -.474817855033209D+02
 0.520289711678168D+02 0.502944888854918D+02 -.676754761594688D+01 -.114751264827254D+02
0.178492342379D-05 0.000000000000D+00 0.000000000000D+00 0.499094975549D-06 0.000000000000D+00  6 22 -1 9900012 -11 -2 21 0 0.55742356D-02 0.51494970D-01 0.77571525D+04 0.77571525D+04 0.77571525D+04 0.12209383D+01  1  2  2  2  6  5       -2 0.796232798933D-04 0.100000000000D+01
-.657472344567D-08 0.000000000000D+00 -.342728796424D-08 0.499094975549D-06 0.000000000000D+00  6 22 -1 9900012 -11 -2 21 2 0.55742356D-02 0.51494970D-01 0.77571525D+04 0.77571525D+04 0.77571525D+04 0.12209383D+01  1  2  3  2  6  5       -2 -.437205266027D-06 0.100000000000D+01
-.171948347063D-06 0.000000000000D+00 0.000000000000D+00 0.499094975549D-06 0.000000000000D+00  6 22 -1 9900012 -11 -2 21 2 0.55742356D-02 0.51494970D-01 0.77571525D+04 0.77571525D+04 0.77571525D+04 0.12209383D+01  1  2 15  2  6  5       -2 -.114342030417D-04 0.100000000000D+01
0.663697959025D-06 0.000000000000D+00 0.000000000000D+00 0.499094975549D-06 0.000000000000D+00  6 22 -1 9900012 -11 -2 21 2 0.55742356D-02 0.51494970D-01 0.69821872D+04 0.69821872D+04 0.69821872D+04 0.12258502D+01  1  2 12  2  6  5       -2 0.441436416899D-04 0.100000000000D+01
-.213836188295D-06 0.000000000000D+00 0.000000000000D+00 0.499094975549D-06 0.000000000000D+00  6 22 -1 9900012 -11 -2 21 2 0.55742356D-02 0.51494970D-01 0.77571525D+04 0.77571525D+04 0.77571525D+04 0.12209383D+01  1  2  4  2  6  5       -2 -.142196562886D-04 0.100000000000D+01
-.606231148107D-06 0.000000000000D+00 0.000000000000D+00 0.499094975549D-06 0.000000000000D+00  6 22 -1 9900012 -11 -2 21 2 0.55742356D-02 0.51494970D-01 0.77571525D+04 0.77571525D+04 0.77571525D+04 0.12209383D+01  1  2  5  2  6  5       -2 -.403130949267D-04 0.100000000000D+01
0.100192655095D-05 0.000000000000D+00 -.000000000000D+00 0.499094975549D-06 0.000000000000D+00  6 22 -1 9900012 -11 -2 21 2 0.55742356D-02 0.51494970D-01 0.77571525D+04 0.77571525D+04 0.77571525D+04 0.12209383D+01  1  2  6  2  6  5       -2 0.666260060771D-04 0.100000000000D+01
  </mgrwgt>
  </event>
  <event>
  7     66 -.92480518E-06 0.40849411E+02 0.78161638E-02 0.12279733E+00
       22 -1    0    0    0    0 0.00000000E+00 0.00000000E+00 0.10187258E+04 0.10187258E+04 0.00000000E+00 0.0000E+00 0.9000E+01
       -1 -1    0    0    0  501 0.00000000E+00 0.00000000E+00 -.13965621E+03 0.13965621E+03 0.00000000E+00 0.0000E+00 0.9000E+01
       24  2    1    2    0    0 -.10032250E+02 0.43106557E+02 0.10123392E+04 0.10166688E+04 0.82618899E+02 0.0000E+00 0.0000E+00
  9900012  1    3    3    0    0 0.18814491E+02 0.25811973E+02 0.58164403E+03 0.58466231E+03 0.50000000E+02 0.0000E+00 0.9000E+01
      -11  1    3    3    0    0 -.28846741E+02 0.17294583E+02 0.43069517E+03 0.43200645E+03 0.00000000E+00 0.0000E+00 0.9000E+01
       -2  1    1    2    0  502 0.53294732E+01 -.42873706E+02 -.12409924E+03 0.13140464E+03 0.00000000E+00 0.0000E+00 0.9000E+01
       21  1    1    2  502  501 0.47027770E+01 -.23285095E+00 -.91704087E+01 0.10308575E+02 0.00000000E+00 0.0000E+00 0.9000E+01
#aMCatNLO 2  0  0  5  2 0.48966161D+01 0.00000000D+00  -5  6  0 0.00000000D+00 0.00000000D+00 0.00000000D+00 0.00000000D+00 0.00000000D+00
  <mgrwgt>
 -.3699921679D-03    5    2    0
 0.377188784811756D+03 0.000000000000000D+00 0.000000000000000D+00 0.377188784811756D+03
 0.377188784811756D+03 -.000000000000000D+00 -.000000000000000D+00 -.377188784811756D+03
 0.220129092446954D+03 0.188106626669967D+02 0.258284241519617D+02 0.211980821815027D+03
 0.161583874168725D+03 -.288495518283307D+02 0.173066587503742D+02 0.158042814811610D+03
 0.372664603007834D+03 0.100388891613341D+02 -.431350829023360D+02 -.370023636626637D+03
 0.000000000000000D+00 0.000000000000000D+00 0.000000000000000D+00 -.000000000000000D+00
 0.377188784811756D+03 0.000000000000000D+00 0.000000000000000D+00 0.377188784811756D+03
 0.377188784811756D+03 -.000000000000000D+00 -.000000000000000D+00 -.377188784811756D+03
 0.219991597413034D+03 0.188144912696986D+02 0.258119734179916D+02 0.211839703263740D+03
 0.161480763723649D+03 -.288467414943155D+02 0.172945833116693D+02 0.157939228648265D+03
 0.346389712911170D+03 0.532947324308662D+01 -.428737057836564D+02 -.343684848775751D+03
 0.265154955756596D+02 0.470277698153023D+01 -.232850946004621D+00 -.260940831362544D+02
-.379589979241D-03 0.000000000000D+00 0.000000000000D+00 0.539179782628D-04 0.000000000000D+00  6 22 -1 9900012 -11 -2 21 2 0.15672704D+00 0.21485571D-01 0.49616332D+04 0.49616332D+04 0.49616332D+04 0.12422225D+01  1  2 13  2  6  5       -2 -.470350872617D-03 0.100000000000D+01
-.134478865629D-04 0.000000000000D+00 0.000000000000D+00 0.539179782628D-04 0.000000000000D+00  6 22 -1 9900012 -11 -2 21 2 0.15672704D+00 0.21485571D-01 0.47106213D+04 0.47106213D+04 0.47106213D+04 0.12447725D+01  1  2  8  2  6  5       -2 -.166809947916D-04 0.100000000000D+01
-.638433981996D-04 0.000000000000D+00 0.000000000000D+00 0.539179782628D-04 0.000000000000D+00  6 22 -1 9900012 -11 -2 21 2 0.15672704D+00 0.21485571D-01 0.47106213D+04 0.47106213D+04 0.47106213D+04 0.12447725D+01  1  2  9  2  6  5       -2 -.791924729487D-04 0.100000000000D+01
0.685470897909D-04 0.000000000000D+00 0.000000000000D+00 0.539179782628D-04 0.000000000000D+00  6 22 -1 9900012 -11 -2 21 2 0.15672704D+00 0.21485571D-01 0.47106213D+04 0.47106213D+04 0.47106213D+04 0.12447725D+01  1  2 10  2  6  5       -2 0.850270146492D-04 0.100000000000D+01
0.897465403017D-04 0.000000000000D+00 0.000000000000D+00 0.539179782628D-04 0.712745600235D-05  6 22 -1 9900012 -11 -2 21 2 0.15672704D+00 0.21485571D-01 0.49616332D+04 0.49616332D+04 0.49616332D+04 0.12422225D+01  1  2  1  2  6  5       -2 0.111205157812D-03 0.100000000000D+01
  </mgrwgt>
  </event>
  <event>
  7     66 -.92480518E-06 0.27860207E+02 0.78161638E-02 0.12202219E+00
       22 -1    0    0    0    0 0.00000000E+00 0.00000000E+00 0.34189355E+03 0.34189355E+03 0.00000000E+00 0.0000E+00 0.9000E+01
       -1 -1    0    0    0  501 0.00000000E+00 0.00000000E+00 -.50983271E+02 0.50983271E+02 0.00000000E+00 0.0000E+00 0.9000E+01
       24  2    1    2    0    0 0.49488228E+02 0.23553497E+01 0.31456706E+03 0.32825175E+03 0.79637560E+02 0.0000E+00 0.0000E+00
  9900012  1    3    3    0    0 0.26898680E+02 -.21699195E+02 0.20626633E+03 0.21503533E+03 0.50000000E+02 0.0000E+00 0.9000E+01
      -11  1    3    3    0    0 0.22589548E+02 0.24054544E+02 0.10830073E+03 0.11321641E+03 0.00000000E+00 0.0000E+00 0.9000E+01
       -2  1    1    2    0  502 -.34745203E+02 -.10175128E+02 -.29749365E+02 0.46859227E+02 0.00000000E+00 0.0000E+00 0.9000E+01
       21  1    1    2  502  501 -.14743024E+02 0.78197786E+01 0.60925805E+01 0.17765845E+02 0.00000000E+00 0.0000E+00 0.9000E+01
#aMCatNLO 2  0  0  5  2 0.12540450D+02 0.00000000D+00  -5  6  0 0.00000000D+00 0.00000000D+00 0.00000000D+00 0.00000000D+00 0.00000000D+00
  <mgrwgt>
 -.4788339619D-04    2    2    0
 0.132025949244690D+03 0.000000000000000D+00 0.000000000000000D+00 0.132025949244690D+03
 0.132025949244690D+03 -.000000000000000D+00 -.000000000000000D+00 -.132025949244690D+03
 0.940938237414981D+02 0.276288107069310D+02 -.216644445802888D+02 0.715608016042601D+02
 0.499413951843150D+02 0.229768166312600D+02 0.240729759244406D+02 0.372384301574418D+02
 0.120016679563568D+03 -.506056273381910D+02 -.240853134415181D+01 -.108799231761702D+03
 0.000000000000000D+00 -.000000000000000D+00 0.000000000000000D+00 0.000000000000000D+00
 0.132025949244690D+03 0.000000000000000D+00 0.000000000000000D+00 0.132025949244690D+03
 0.132025949244690D+03 -.000000000000000D+00 -.000000000000000D+00 -.132025949244690D+03
 0.926992051550300D+02 0.268986795884886D+02 -.216991945434175D+02 0.699910610645179D+02
 0.491354538539006D+02 0.225895479466236D+02 0.240545442042028D+02 0.364058244258256D+02
 0.102496138049109D+03 -.347452031895526D+02 -.101751282252038D+02 -.958889771344935D+02
 0.197211014313411D+02 -.147430243455596D+02 0.781977856441848D+01 -.105079083558500D+02
-.125694470957D-05 0.000000000000D+00 0.000000000000D+00 0.420158055327D-05 0.000000000000D+00  6 22 -1 9900012 -11 -2 21 2 0.52599007D-01 0.78435801D-02 0.53782486D+04 0.53782486D+04 0.53782486D+04 0.12382956D+01  1  2 13  2  6  5       -2 -.558612621549D-04 0.100000000000D+01
0.179511454479D-06 0.000000000000D+00 0.000000000000D+00 0.420158055327D-05 0.290593434620D-07  6 22 -1 9900012 -11 -2 21 2 0.52599007D-01 0.78435801D-02 0.53782486D+04 0.53782486D+04 0.53782486D+04 0.12382956D+01  1  2  1  2  6  5       -2 0.797786596510D-05 0.100000000000D+01
  </mgrwgt>
  </event>
  <event>
  6     66 0.92480518E-06 0.26927647E+02 0.78161638E-02 0.12989778E+00
       22 -1    0    0    0    0 0.00000000E+00 0.00000000E+00 0.48437191E+03 0.48437191E+03 0.00000000E+00 0.0000E+00 0.9000E+01
       -1 -1    0    0    0  501 -.00000000E+00 -.00000000E+00 -.61416413E+03 0.61416413E+03 0.00000000E+00 0.0000E+00 0.9000E+01
       24  2    1    2    0    0 -.24727832E+02 0.10659853E+02 0.48050727E+03 0.48764279E+03 0.78633077E+02 0.0000E+00 0.0000E+00
  9900012  1    3    3    0    0 -.27268647E+02 -.45998730E+01 0.44814869E+03 0.45177648E+03 0.50000000E+02 0.0000E+00 0.9000E+01
      -11  1    3    3    0    0 0.25408142E+01 0.15259726E+02 0.32358578E+02 0.35866315E+02 0.00000000E+00 0.0000E+00 0.9000E+01
       -2  1    1    2    0  501 0.24727832E+02 -.10659853E+02 -.61029948E+03 0.61089325E+03 0.00000000E+00 0.0000E+00 0.9000E+01
#aMCatNLO 1  0  0  5  2 0.93139823D+01 0.00000000D+00  -5  6  0 0.00000000D+00 0.00000000D+00 0.00000000D+00 0.00000000D+00 0.00000000D+00
  <mgrwgt>
 0.7743252880D-02    8    2    0
 0.545420801892296D+03 0.000000000000000D+00 0.000000000000000D+00 0.545420801892296D+03
 0.545420801892296D+03 -.000000000000000D+00 -.000000000000000D+00 -.545420801892296D+03
 0.508285483361140D+03 -.272686465629277D+02 -.459987300174022D+01 0.505063753083372D+03
 0.399694425480165D+02 0.254081423365308D+01 0.152597256575061D+02 0.368543263876428D+02
 0.542586677875435D+03 0.247278323292748D+02 -.106598526557660D+02 -.541918079471015D+03
 0.000000000000000D+00 0.000000000000000D+00 -.000000000000000D+00 0.000000000000000D+00
 0.545420801892296D+03 0.000000000000000D+00 0.000000000000000D+00 0.545420801892296D+03
 0.545420801892296D+03 -.000000000000000D+00 -.000000000000000D+00 -.545420801892296D+03
 0.508136456073399D+03 -.272618186276176D+02 -.460281643743566D+01 0.504914116773132D+03
 0.399585387488026D+02 0.254135115937712D+01 0.152594941956849D+02 0.368425594946408D+02
 0.291492860488650D+03 0.515552344041175D+01 -.118860775471269D+01 -.291444841274496D+03
 0.251253748473740D+03 0.195649440278289D+02 -.946807000353665D+01 -.250311834993276D+03
0.150106813189D-03 0.000000000000D+00 0.000000000000D+00 0.123145266335D-02 0.000000000000D+00  6 22 -1 9900012 -11 -2 21 0 0.74518755D-01 0.94486789D-01 0.24768210D+04 0.24768210D+04 0.24768210D+04 0.12777344D+01  1  2  2  2  6  5       -2 0.401535327600D-04 0.100000000000D+01
0.128350388017D-04 0.000000000000D+00 -.288224843339D-06 0.123145266335D-02 0.000000000000D+00  6 22 -1 9900012 -11 -2 21 2 0.74518755D-01 0.94486789D-01 0.24768210D+04 0.24768210D+04 0.24768210D+04 0.12777344D+01  1  2  3  2  6  5       -2 0.560533678383D-05 0.100000000000D+01
-.228204457509D-04 0.000000000000D+00 0.000000000000D+00 0.123145266335D-02 0.000000000000D+00  6 22 -1 9900012 -11 -2 21 2 0.74518755D-01 0.94486789D-01 0.24768210D+04 0.24768210D+04 0.24768210D+04 0.12777344D+01  1  2 15  2  6  5       -2 -.996617820693D-05 0.100000000000D+01
0.133273076181D-01 0.000000000000D+00 0.000000000000D+00 0.123145266335D-02 0.000000000000D+00  6 22 -1 9900012 -11 -2 21 2 0.74518755D-01 0.94486789D-01 0.24815733D+04 0.24815733D+04 0.24815733D+04 0.12776321D+01  1  2 12  2  6  5       -2 0.581965642704D-02 0.100000000000D+01
-.303534472690D-02 0.000000000000D+00 0.000000000000D+00 0.123145266335D-02 0.000000000000D+00  6 22 -1 9900012 -11 -2 21 2 0.74518755D-01 0.94486789D-01 0.24768210D+04 0.24768210D+04 0.24768210D+04 0.12777344D+01  1  2  4  2  6  5       -2 -.132560015690D-02 0.100000000000D+01
-.133189691653D-01 0.000000000000D+00 0.000000000000D+00 0.123145266335D-02 0.000000000000D+00  6 22 -1 9900012 -11 -2 21 2 0.74518755D-01 0.94486789D-01 0.24768210D+04 0.24768210D+04 0.24768210D+04 0.12777344D+01  1  2  5  2  6  5       -2 -.581667955496D-02 0.100000000000D+01
0.206768529953D-01 0.000000000000D+00 -.000000000000D+00 0.123145266335D-02 0.000000000000D+00  6 22 -1 9900012 -11 -2 21 2 0.74518755D-01 0.94486789D-01 0.24768210D+04 0.24768210D+04 0.24768210D+04 0.12777344D+01  1  2  6  2  6  5       -2 0.903002526594D-02 0.100000000000D+01
0.133298088549D-06 0.000000000000D+00 0.000000000000D+00 0.123145266335D-02 0.139553909308D-04  6 22 -1 9900012 -11 -2 21 2 0.74518755D-01 0.94486789D-01 0.24815733D+04 0.24815733D+04 0.24815733D+04 0.12776321D+01  1  2 11  2  6  5       -2 0.582074864607D-07 0.100000000000D+01
  </mgrwgt>
  </event>
  <event>
  6     66 -.92480518E-06 0.59501179E+02 0.78161638E-02 0.11937499E+00
       22 -1    0    0    0    0 0.00000000E+00 0.00000000E+00 0.33109530E+03 0.33109530E+03 0.00000000E+00 0.0000E+00 0.9000E+01
       -3 -1    0    0    0  501 0.00000000E+00 0.00000000E+00 -.14168695E+03 0.14168695E+03 0.00000000E+00 0.0000E+00 0.9000E+01
       24  2    1    2    0    0 -.50515119E+02 -.50544372E+02 0.31235365E+03 0.33057796E+03 0.81304817E+02 0.0000E+00 0.0000E+00
  9900012  1    3    3    0    0 -.27110820E+02 -.22785267E+02 0.25825862E+03 0.26542736E+03 0.50000000E+02 0.0000E+00 0.9000E+01
      -11  1    3    3    0    0 -.23404299E+02 -.27759104E+02 0.54095028E+02 0.65150603E+02 0.00000000E+00 0.0000E+00 0.9000E+01
       -4  1    1    2    0  501 0.50515119E+02 0.50544372E+02 -.12294531E+03 0.14220429E+03 0.00000000E+00 0.0000E+00 0.9000E+01
#aMCatNLO 1  0  0  5  2 0.29312026D+01 0.00000000D+00  -5  6  0 0.00000000D+00 0.00000000D+00 0.00000000D+00 0.00000000D+00 0.00000000D+00
  <mgrwgt>
 -.1378250868D-03    8    2    0
 0.216591513689973D+03 0.000000000000000D+00 0.000000000000000D+00 0.216591513689973D+03
 0.216591513689973D+03 -.000000000000000D+00 -.000000000000000D+00 -.216591513689973D+03
 0.176768248508604D+03 -.271108200025133D+02 -.227852673355533D+02 0.165809676171320D+03
 0.474533809608929D+02 -.234042990023064D+02 -.277591042197998D+02 0.305531387216529D+02
 0.208961397910449D+03 0.505151190048196D+02 0.505443715553531D+02 -.196362814892973D+03
 0.000000000000000D+00 0.000000000000000D+00 0.000000000000000D+00 -.000000000000000D+00
 0.216591513689973D+03 0.000000000000000D+00 0.000000000000000D+00 0.216591513689973D+03
 0.216591513689973D+03 -.000000000000000D+00 -.000000000000000D+00 -.216591513689973D+03
 0.176735693526298D+03 -.271025331898824D+02 -.227769757241530D+02 0.165777463600377D+03
 0.474454141350578D+02 -.234020743919404D+02 -.277568783211953D+02 0.305444911966722D+02
 0.119661858232300D+03 0.305843550892927D+02 0.311331940479207D+02 -.111419395832833D+03
 0.893400614862897D+02 0.199202524925301D+02 0.194006599974276D+02 -.849025589642155D+02
0.320943281742D-06 0.000000000000D+00 0.000000000000D+00 0.837803701543D-05 0.000000000000D+00  6 22 -3 9900012 -11 -4 21 0 0.50937738D-01 0.21797993D-01 0.71436217D+04 0.71436217D+04 0.71436217D+04 0.12247785D+01  1  2  2  2  6  5       -4 0.158805421884D-05 0.100000000000D+01
0.509548531980D-08 0.000000000000D+00 -.616253354097D-09 0.837803701543D-05 0.000000000000D+00  6 22 -3 9900012 -11 -4 21 2 0.50937738D-01 0.21797993D-01 0.71436217D+04 0.71436217D+04 0.71436217D+04 0.12247785D+01  1  2  3  2  6  5       -4 0.378214099304D-07 0.100000000000D+01
-.445938996390D-07 0.000000000000D+00 0.000000000000D+00 0.837803701543D-05 0.000000000000D+00  6 22 -3 9900012 -11 -4 21 2 0.50937738D-01 0.21797993D-01 0.71436217D+04 0.71436217D+04 0.71436217D+04 0.12247785D+01  1  2 15  2  6  5       -4 -.330999709112D-06 0.100000000000D+01
0.636633259621D-06 0.000000000000D+00 0.000000000000D+00 0.837803701543D-05 0.000000000000D+00  6 22 -3 9900012 -11 -4 21 2 0.50937738D-01 0.21797993D-01 0.71418803D+04 0.71418803D+04 0.71418803D+04 0.12247899D+01  1  2 12  2  6  5       -4 0.472543037722D-05 0.100000000000D+01
-.980545250511D-04 0.000000000000D+00 0.000000000000D+00 0.837803701543D-05 0.000000000000D+00  6 22 -3 9900012 -11 -4 21 2 0.50937738D-01 0.21797993D-01 0.71436217D+04 0.71436217D+04 0.71436217D+04 0.12247785D+01  1  2  4  2  6  5       -4 -.727812986346D-03 0.100000000000D+01
-.461151400247D-04 0.000000000000D+00 0.000000000000D+00 0.837803701543D-05 0.000000000000D+00  6 22 -3 9900012 -11 -4 21 2 0.50937738D-01 0.21797993D-01 0.71436217D+04 0.71436217D+04 0.71436217D+04 0.12247785D+01  1  2  5  2  6  5       -4 -.342291166671D-03 0.100000000000D+01
0.694658601421D-04 0.000000000000D+00 -.000000000000D+00 0.837803701543D-05 0.000000000000D+00  6 22 -3 9900012 -11 -4 21 2 0.50937738D-01 0.21797993D-01 0.71436217D+04 0.71436217D+04 0.71436217D+04 0.12247785D+01  1  2  6  2  6  5       -4 0.515612666450D-03 0.100000000000D+01
0.553242647101D-04 0.000000000000D+00 0.000000000000D+00 0.837803701543D-05 0.361406832241D-05  6 22 -3 9900012 -11 -4 21 2 0.50937738D-01 0.21797993D-01 0.71418803D+04 0.71418803D+04 0.71418803D+04 0.12247899D+01  1  2 11  2  6  5       -4 0.410646093504D-03 0.100000000000D+01
  </mgrwgt>
  </event>
  <event>
  7     66 -.92480518E-06 0.83101351E+01 0.78161638E-02 0.12936014E+00
       22 -1    0    0    0    0 0.00000000E+00 0.00000000E+00 0.94182216E+01 0.94182216E+01 0.00000000E+00 0.0000E+00 0.9000E+01
       -1 -1    0    0    0  501 -.00000000E+00 -.00000000E+00 -.58767342E+03 0.58767342E+03 0.00000000E+00 0.0000E+00 0.9000E+01
       24  2    1    2    0    0 0.17439350E+02 -.82524638E+01 -.18660497E+03 0.20454827E+03 0.81525135E+02 0.0000E+00 0.0000E+00
  9900012  1    3    3    0    0 0.31364031E+02 0.90050324E+01 -.15349968E+03 0.16470259E+03 0.50000000E+02 0.0000E+00 0.9000E+01
      -11  1    3    3    0    0 -.13924681E+02 -.17257496E+02 -.33105289E+02 0.39845678E+02 0.00000000E+00 0.0000E+00 0.9000E+01
       -2  1    1    2    0  502 -.95497339E+01 0.76958826E+01 -.34569422E+03 0.34591172E+03 0.00000000E+00 0.0000E+00 0.9000E+01
       21  1    1    2  502  501 -.78896165E+01 0.55658114E+00 -.45956009E+02 0.46631648E+02 0.00000000E+00 0.0000E+00 0.9000E+01
#aMCatNLO 2  0  0  5  2 0.66482869D+01 0.00000000D+00  -5  6  0 0.00000000D+00 0.00000000D+00 0.00000000D+00 0.00000000D+00 0.00000000D+00
  <mgrwgt>
 -.2110469595D-04    1    2    0
 0.743964950367430D+02 0.000000000000000D+00 0.000000000000000D+00 0.743964950367430D+02
 0.743964950367430D+02 -.000000000000000D+00 -.000000000000000D+00 -.743964950367430D+02
 0.650885870338893D+02 0.318522031274214D+02 0.877402502268287D+01 0.253964131896415D+02
 0.316421172902011D+02 -.136875964279582D+02 -.173696868494577D+02 0.226311128622515D+02
 0.520622857493956D+02 -.181646066994632D+02 0.859566182677486D+01 -.480275260518930D+02
 0.000000000000000D+00 -.000000000000000D+00 0.000000000000000D+00 0.000000000000000D+00
 0.743964950367430D+02 0.000000000000000D+00 0.000000000000000D+00 0.743964950367430D+02
 0.743964950367430D+02 -.000000000000000D+00 -.000000000000000D+00 -.743964950367430D+02
 0.643884837064113D+02 0.313640314148467D+02 0.900503244409946D+01 0.241056789595318D+02
 0.312394822658398D+02 -.139246810172928D+02 -.172574962037709D+02 0.220042572149390D+02
 0.446359519574235D+02 -.954973390933593D+01 0.769588262027120D+01 -.429178771621024D+02
 0.852907214381142D+01 -.788961648821799D+01 0.556581139400261D+00 -.319205901236846D+01
-.147775615587D-06 0.000000000000D+00 0.000000000000D+00 0.176502204075D-06 0.000000000000D+00  6 22 -1 9900012 -11 -2 21 2 0.14489572D-02 0.90411295D-01 0.26037840D+04 0.26037840D+04 0.26037840D+04 0.12750739D+01  1  2 13  2  6  5       -2 -.211046959484D-04 0.100000000000D+01
  </mgrwgt>
  </event>
  <event>
  7     66 0.92480518E-06 0.99391751E+02 0.78161638E-02 0.11415388E+00
       22 -1    0    0    0    0 0.00000000E+00 0.00000000E+00 0.23763244E+03 0.23763244E+03 0.00000000E+00 0.0000E+00 0.9000E+01
       21 -1    0    0  502  501 0.00000000E+00 0.00000000E+00 -.60259175E+02 0.60259175E+02 0.00000000E+00 0.0000E+00 0.9000E+01
       24  2    1    2    0    0 -.81460849E+02 0.57637668E+02 0.78133052E+02 0.15001123E+03 0.80253507E+02 0.0000E+00 0.0000E+00
  9900012  1    3    3    0    0 -.39067700E+02 0.99804019E+01 0.37330831E+02 0.74293233E+02 0.50000000E+02 0.0000E+00 0.9000E+01
      -11  1    3    3    0    0 -.42393150E+02 0.47657266E+02 0.40802221E+02 0.75717999E+02 0.00000000E+00 0.0000E+00 0.9000E+01
        1  1    1    2  502    0 0.36238939E+00 0.16807365E+00 0.21593162E+02 0.21596856E+02 0.00000000E+00 0.0000E+00 0.9000E+01
       -2  1    1    2    0  501 0.81098460E+02 -.57805742E+02 0.77647048E+02 0.12628352E+03 0.00000000E+00 0.0000E+00 0.9000E+01
#aMCatNLO 2  0  0  2  5 0.21752810D+02 0.00000000D+00  -5  6  0 0.00000000D+00 0.00000000D+00 0.00000000D+00 0.00000000D+00 0.00000000D+00
  <mgrwgt>
 0.1245335418D-02    2    2    0
 0.114095565805428D+03 0.000000000000000D+00 0.000000000000000D+00 0.114095565805428D+03
 0.114095565805428D+03 0.000000000000000D+00 0.000000000000000D+00 -.114095565805428D+03
 0.644150792431339D+02 -.389653589260536D+02 0.100278667451042D+02 -.551771023210527D+01
 0.637928345355088D+02 -.422918153885578D+02 0.477042643762266D+02 -.228719250130260D+01
 0.000000000000000D+00 0.000000000000000D+00 0.000000000000000D+00 0.000000000000000D+00
 0.999832178322124D+02 0.812571743146114D+02 -.577321311213308D+02 0.780490273340787D+01
 0.125500702143497D+03 0.000000000000000D+00 0.000000000000000D+00 0.125500702143497D+03
 0.114099238556609D+03 0.000000000000000D+00 0.000000000000000D+00 -.114099238556609D+03
 0.644696726676587D+02 -.390676995177726D+02 0.998040189865180D+01 -.551771023210527D+01
 0.638249592748539D+02 -.423931499555939D+02 0.476572661169446D+02 -.228719250130260D+01
 0.114084594378461D+02 0.362389390205295D+00 0.168073649694080D+00 0.114014635868877D+02
 0.998968493197476D+02 0.810984600831612D+02 -.578057416652905D+02 0.780490273340787D+01
-.863257942577D-08 0.000000000000D+00 0.000000000000D+00 0.350541672542D-06 0.000000000000D+00  6 22 21 9900012 -11 1 -2 2 0.33236476D-01 0.10197347D-01 0.12996916D+05 0.12996916D+05 0.12996916D+05 0.11977061D+01  1  2 13  3  5  2       -1 -.787400511155D-05 0.100000000000D+01
0.136223353146D-05 0.000000000000D+00 0.000000000000D+00 0.350541672542D-06 0.151689590579D-07  6 22 21 9900012 -11 1 -2 2 0.36558836D-01 0.92706423D-02 0.12996916D+05 0.12996916D+05 0.12996916D+05 0.11977061D+01  1  2  1  3  5  2       -1 0.125320942290D-02 0.100000000000D+01
  </mgrwgt>
  </event>
  <event>
  6     66 -.92480518E-06 0.55483946E+02 0.78161638E-02 0.12140088E+00
       22 -1    0    0    0    0 0.00000000E+00 0.00000000E+00 0.21723301E+03 0.21723301E+03 0.00000000E+00 0.0000E+00 0.9000E+01
       -1 -1    0    0    0  501 0.00000000E+00 0.00000000E+00 -.27652814E+03 0.27652814E+03 0.00000000E+00 0.0000E+00 0.9000E+01
       24  2    1    2    0    0 0.54960380E+02 -.76042643E+01 0.20352321E+03 0.22515000E+03 0.78691544E+02 0.0000E+00 0.0000E+00
  9900012  1    3    3    0    0 0.48840346E+02 -.27605348E+02 0.15267472E+03 0.17016757E+03 0.50000000E+02 0.0000E+00 0.9000E+01
      -11  1    3    3    0    0 0.61200343E+01 0.20001084E+02 0.50848495E+02 0.54982430E+02 0.00000000E+00 0.0000E+00 0.9000E+01
       -2  1    1    2    0  501 -.54960380E+02 0.76042643E+01 -.26281834E+03 0.26861114E+03 0.00000000E+00 0.0000E+00 0.9000E+01
#aMCatNLO 1  0  0  2  5 0.21752810D+02 0.00000000D+00  -5  6  0 0.00000000D+00 0.00000000D+00 0.00000000D+00 0.00000000D+00 0.00000000D+00
  <mgrwgt>
 -.5877468692D-05    1    2    0
 0.245093940251586D+03 0.000000000000000D+00 0.000000000000000D+00 0.245093940251586D+03
 0.245093940251586D+03 0.000000000000000D+00 0.000000000000000D+00 -.245093940251586D+03
 0.189876181733847D+03 0.488403460126643D+02 -.276053479429105D+02 0.174371814683850D+03
 0.615340703776499D+02 0.612003432923492D+01 0.200010836409504D+02 0.578700583224025D+02
 0.238777628391674D+03 -.549603803418992D+02 0.760426430196004D+01 -.232241873006252D+03
 0.000000000000000D+00 0.000000000000000D+00 0.000000000000000D+00 -.000000000000000D+00
 0.299078013812911D+03 0.000000000000000D+00 0.000000000000000D+00 0.299078013812911D+03
 0.448649998049545D+03 0.000000000000000D+00 0.000000000000000D+00 -.448649998049545D+03
 0.196223491243349D+03 0.285037951401130D+01 -.747663299635323D+02 0.174371814683850D+03
 0.586894340681417D+02 -.820029621955366D+01 0.531612292108209D+01 0.578700583224025D+02
 0.264667421499443D+03 -.114927851435232D+03 -.538901233083821D+02 -.232241873006252D+03
 0.228147665051524D+03 0.120277768140774D+03 0.123340330350832D+03 -.149571984236634D+03
-.854188377143D-06 0.000000000000D+00 0.000000000000D+00 0.236088789226D-04 0.000000000000D+00  6 22 -1 9900012 -11 -2 21 2 0.33420463D-01 0.42542790D-01 0.57418368D+04 0.57418368D+04 0.57418368D+04 0.12351390D+01  1  2 14  1  6  2       -1 -.587746869211D-05 0.100000000000D+01
  </mgrwgt>
  </event>
  <event>
  6     66 0.92480518E-06 0.26424525E+03 0.78161638E-02 0.10033718E+00
       22 -1    0    0    0    0 0.00000000E+00 0.00000000E+00 0.24723464E+04 0.24723464E+04 0.00000000E+00 0.0000E+00 0.9000E+01
       -3 -1    0    0    0  501 0.00000000E+00 0.00000000E+00 -.16510948E+03 0.16510948E+03 0.00000000E+00 0.0000E+00 0.9000E+01
       24  2    1    2    0    0 -.49979312E+02 0.25947566E+03 0.23531094E+04 0.23692585E+04 0.80227879E+02 0.0000E+00 0.0000E+00
  9900012  1    3    3    0    0 -.41681564E+02 0.15509221E+03 0.12676655E+04 0.12787755E+04 0.50000000E+02 0.0000E+00 0.9000E+01
      -11  1    3    3    0    0 -.82977472E+01 0.10438345E+03 0.10854439E+04 0.10904830E+04 0.00000000E+00 0.0000E+00 0.9000E+01
       -4  1    1    2    0  501 0.49979312E+02 -.25947566E+03 -.45872471E+02 0.26819738E+03 0.00000000E+00 0.0000E+00 0.9000E+01
#aMCatNLO 1  0  0  5  2 0.15632399D+03 0.00000000D+00  -5  6  0 0.00000000D+00 0.00000000D+00 0.00000000D+00 0.00000000D+00 0.00000000D+00
  <mgrwgt>
 0.1515787961D-04    3    2    0
 0.638911446168134D+03 0.000000000000000D+00 0.000000000000000D+00 0.638911446168134D+03
 0.638911446168134D+03 -.000000000000000D+00 -.000000000000000D+00 -.638911446168134D+03
 0.350525346027495D+03 -.416815644974756D+02 0.155092209376772D+03 0.307533855013346D+03
 0.290904646584298D+03 -.829774722163666D+01 0.104383454887774D+03 0.271405149437281D+03
 0.636392899724476D+03 0.499793117191123D+02 -.259475664264547D+03 -.578939004450627D+03
 0.000000000000000D+00 0.000000000000000D+00 0.000000000000000D+00 0.000000000000000D+00
 0.638911446168134D+03 0.000000000000000D+00 0.000000000000000D+00 0.638911446168134D+03
 0.638911446168134D+03 -.000000000000000D+00 -.000000000000000D+00 -.638911446168134D+03
 0.316114209019799D+03 -.389422470066932D+02 0.140870600452925D+03 0.275802770961996D+03
 0.262059584919506D+03 -.602553793002336D+01 0.925869135787836D+02 0.245084847297405D+03
 0.129867187911102D+03 -.100767145300977D+03 -.814751856753023D+02 0.855938333084122D+01
 0.569781910485862D+03 0.145734930237694D+03 -.151982328356407D+03 -.529447001590243D+03
0.482289485819D-03 0.000000000000D+00 0.000000000000D+00 0.371506275634D-04 0.000000000000D+00  6 22 -3 9900012 -11 -4 21 0 0.38036098D+00 0.25401459D-01 0.72134442D+05 0.72134442D+05 0.72134442D+05 0.11293474D+01  1  2  2  2  6  5       -4 0.183068466844D-04 0.100000000000D+01
0.131256970207D-05 0.000000000000D+00 -.926059307641D-06 0.371506275634D-04 0.000000000000D+00  6 22 -3 9900012 -11 -4 21 2 0.38036098D+00 0.25401459D-01 0.72134442D+05 0.72134442D+05 0.72134442D+05 0.11293474D+01  1  2  3  2  6  5       -4 0.635452718074D-07 0.100000000000D+01
-.663565715881D-04 0.000000000000D+00 0.000000000000D+00 0.371506275634D-04 0.000000000000D+00  6 22 -3 9900012 -11 -4 21 2 0.38036098D+00 0.25401459D-01 0.72134442D+05 0.72134442D+05 0.72134442D+05 0.11293474D+01  1  2 15  2  6  5       -4 -.321251234972D-05 0.100000000000D+01
  </mgrwgt>
  </event>
  <event>
  7     66 -.92480518E-06 0.81540574E+02 0.78161638E-02 0.11563525E+00
       22 -1    0    0    0    0 0.00000000E+00 0.00000000E+00 0.10223943E+04 0.10223943E+04 0.00000000E+00 0.0000E+00 0.9000E+01
       -3 -1    0    0    0  501 0.00000000E+00 0.00000000E+00 -.25541121E+02 0.25541121E+02 0.00000000E+00 0.0000E+00 0.9000E+01
       24  2    1    2    0    0 -.41966534E+02 0.78784939E+02 0.91331676E+03 0.92113042E+03 0.79784033E+02 0.0000E+00 0.0000E+00
  9900012  1    3    3    0    0 -.15500605E+02 0.23913920E+02 0.37753182E+03 0.38189321E+03 0.50000000E+02 0.0000E+00 0.9000E+01
      -11  1    3    3    0    0 -.26465928E+02 0.54871018E+02 0.53578494E+03 0.53923722E+03 0.00000000E+00 0.0000E+00 0.9000E+01
       -4  1    1    2    0  502 0.29954809E+02 -.67703885E+02 0.49527801E+02 0.89073619E+02 0.00000000E+00 0.0000E+00 0.9000E+01
       21  1    1    2  502  501 0.12011724E+02 -.11081054E+02 0.34008651E+02 0.37731414E+02 0.00000000E+00 0.0000E+00 0.9000E+01
#aMCatNLO 2  0  0  5  2 0.10683089D+02 0.00000000D+00  -5  6  0 0.00000000D+00 0.00000000D+00 0.00000000D+00 0.00000000D+00 0.00000000D+00
  <mgrwgt>
 -.8927460905D-04    2    2    0
 0.161595476075770D+03 0.000000000000000D+00 0.000000000000000D+00 0.161595476075770D+03
 0.161595476075770D+03 -.000000000000000D+00 -.000000000000000D+00 -.161595476075770D+03
 0.744460099615387D+02 -.157421070792663D+02 0.243672982987179D+02 0.469108648131724D+02
 0.969973468751660D+02 -.267801066358807D+02 0.554608340399418D+02 0.749360198902114D+02
 0.151747595314835D+03 0.425222137151470D+02 -.798281323386597D+02 -.121846884703384D+03
 0.000000000000000D+00 0.000000000000000D+00 0.000000000000000D+00 0.000000000000000D+00
 0.161595476075770D+03 0.000000000000000D+00 0.000000000000000D+00 0.161595476075770D+03
 0.161595476075770D+03 -.000000000000000D+00 -.000000000000000D+00 -.161595476075770D+03
 0.738127763977216D+02 -.155006053827883D+02 0.239139204591819D+02 0.462188446478170D+02
 0.958778685986633D+02 -.264659283474343D+02 0.548710184166056D+02 0.740357458370992D+02
 0.136054107657469D+03 0.299548094699466D+02 -.677038847178232D+02 -.114147332838771D+03
 0.174461994976855D+02 0.120117242602760D+02 -.110810541579643D+02 -.610725764614550D+01
-.884728594056D-05 0.000000000000D+00 0.000000000000D+00 0.474666197673D-05 0.000000000000D+00  6 22 -3 9900012 -11 -4 21 2 0.15729144D+00 0.39294033D-02 0.10904400D+05 0.10904400D+05 0.10904400D+05 0.12054523D+01  1  2 13  2  6  5       -4 -.119986053981D-03 0.100000000000D+01
0.226453763516D-05 0.000000000000D+00 0.000000000000D+00 0.474666197673D-05 0.756343008784D-07  6 22 -3 9900012 -11 -4 21 2 0.15729144D+00 0.39294033D-02 0.10904400D+05 0.10904400D+05 0.10904400D+05 0.12054523D+01  1  2  1  2  6  5       -4 0.307114449289D-04 0.100000000000D+01
  </mgrwgt>
  </event>
  <event>
  7     66 -.92480518E-06 0.17172650E+02 0.78161638E-02 0.12516169E+00
       22 -1    0    0    0    0 0.00000000E+00 0.00000000E+00 0.14180227E+03 0.14180227E+03 0.00000000E+00 0.0000E+00 0.9000E+01
       -3 -1    0    0    0  501 0.00000000E+00 0.00000000E+00 -.39670475E+02 0.39670475E+02 0.00000000E+00 0.0000E+00 0.9000E+01
       24  2    1    2    0    0 -.24893701E+02 0.59216938E+01 0.93864896E+02 0.12583948E+03 0.79813490E+02 0.0000E+00 0.0000E+00
  9900012  1    3    3    0    0 -.17046682E+02 -.16892268E+02 0.45292723E+02 0.71605648E+02 0.50000000E+02 0.0000E+00 0.9000E+01
      -11  1    3    3    0    0 -.78470191E+01 0.22813961E+02 0.48572173E+02 0.54233832E+02 0.00000000E+00 0.0000E+00 0.9000E+01
       -4  1    1    2    0  502 0.15017367E+02 -.21926208E+02 -.10951525E+02 0.28743970E+02 0.00000000E+00 0.0000E+00 0.9000E+01
       21  1    1    2  502  501 0.98763340E+01 0.16004514E+02 0.19218424E+02 0.26889297E+02 0.00000000E+00 0.0000E+00 0.9000E+01
#aMCatNLO 2  0  0  5  2 0.22628650D+02 0.00000000D+00  -5  6  0 0.00000000D+00 0.00000000D+00 0.00000000D+00 0.00000000D+00 0.00000000D+00
  <mgrwgt>
 -.1430776168D-04    2    2    0
 0.750024232275766D+02 0.000000000000000D+00 0.000000000000000D+00 0.750024232275766D+02
 0.750024232275766D+02 -.000000000000000D+00 -.000000000000000D+00 -.750024232275766D+02
 0.588909259217297D+02 -.235577445358727D+02 -.153434211031166D+02 0.133324137782194D+02
 0.373447885818898D+02 -.118148047379853D+02 0.237578151203672D+02 0.262794566902700D+02
 0.537691319515337D+02 0.353725492738580D+02 -.841439401725061D+01 -.396118704684894D+02
 0.000000000000000D+00 0.000000000000000D+00 0.000000000000000D+00 0.000000000000000D+00
 0.750024232275766D+02 0.000000000000000D+00 0.000000000000000D+00 0.750024232275766D+02
 0.750024232275766D+02 -.000000000000000D+00 -.000000000000000D+00 -.750024232275766D+02
 0.557891738265716D+02 -.170466816582897D+02 -.168922675857072D+02 0.604101452615536D+01
 0.325402764103350D+02 -.784701910327594D+01 0.228139614148299D+02 0.218361407903612D+02
 0.422302754599711D+02 0.150173667422317D+02 -.219262080857876D+02 -.328194494245880D+02
 0.194451207582756D+02 0.987633401933395D+01 0.160045142566648D+02 0.494229410807146D+01
-.735648420829D-07 0.000000000000D+00 0.000000000000D+00 0.440334047342D-06 0.000000000000D+00  6 22 -3 9900012 -11 -4 21 2 0.21815734D-01 0.61031501D-02 0.39043368D+04 0.39043368D+04 0.39043368D+04 0.12541245D+01  1  2 13  2  6  5       -4 -.160481144539D-04 0.100000000000D+01
0.797780807108D-08 0.000000000000D+00 0.000000000000D+00 0.440334047342D-06 0.468835769810D-09  6 22 -3 9900012 -11 -4 21 2 0.21815734D-01 0.61031501D-02 0.39043368D+04 0.39043368D+04 0.39043368D+04 0.12541245D+01  1  2  1  2  6  5       -4 0.174035277438D-05 0.100000000000D+01
  </mgrwgt>
  </event>
  <event>
  6     66 -.92480518E-06 0.40444412E+02 0.78161638E-02 0.11189702E+00
       22 -1    0    0    0    0 0.00000000E+00 0.00000000E+00 0.21475773E+03 0.21475773E+03 0.00000000E+00 0.0000E+00 0.9000E+01
       -1 -1    0    0    0  501 0.00000000E+00 0.00000000E+00 -.20102984E+03 0.20102984E+03 0.00000000E+00 0.0000E+00 0.9000E+01
       24  2    1    2    0    0 -.66694937E+02 0.40862663E+02 0.19132327E+03 0.22173065E+03 0.80261560E+02 0.0000E+00 0.0000E+00
  9900012  1    3    3    0    0 -.39663840E+02 0.22464806E+02 0.16926768E+03 0.18228943E+03 0.50000000E+02 0.0000E+00 0.9000E+01
      -11  1    3    3    0    0 -.27031097E+02 0.18397856E+02 0.22055586E+02 0.39441224E+02 0.00000000E+00 0.0000E+00 0.9000E+01
       -2  1    1    2    0  501 0.66694937E+02 -.40862663E+02 -.17759537E+03 0.19405692E+03 0.00000000E+00 0.0000E+00 0.9000E+01
#aMCatNLO 1  0  0  2  5 0.75563680D+02 0.00000000D+00  -5  6  0 0.00000000D+00 0.00000000D+00 0.00000000D+00 0.00000000D+00 0.00000000D+00
  <mgrwgt>
 -.2017360643D-04    7    4    0
 0.207780441862107D+03 0.000000000000000D+00 0.000000000000000D+00 0.207780441862107D+03
 0.207780441862107D+03 0.000000000000000D+00 0.000000000000000D+00 -.207780441862107D+03
 0.176797172065774D+03 -.396638398086492D+02 0.224648063992087D+02 0.163338153336980D+03
 0.387341412590978D+02 -.270310968592187D+02 0.183978562015496D+02 0.207646909164182D+02
 0.200029570399342D+03 0.666949366678680D+02 -.408626626007584D+02 -.184102844253399D+03
 0.000000000000000D+00 0.000000000000000D+00 0.000000000000000D+00 -.000000000000000D+00
 0.212278260029076D+03 0.000000000000000D+00 0.000000000000000D+00 0.212278260029076D+03
 0.148798735477665D+04 0.000000000000000D+00 0.000000000000000D+00 -.148798735477665D+04
 0.185266393044734D+03 -.706358820117903D+02 0.124441242635761D+02 0.163338153336980D+03
 0.430011262407193D+02 -.340229855727840D+02 0.161357033261655D+02 0.207646909164182D+02
 0.194066586058072D+03 0.329827270834287D+02 -.517698973939886D+02 -.184102844253399D+03
 0.127793150946220D+04 0.716761405011457D+02 0.231900698042470D+02 -.127570909474757D+04
 0.207780441862107D+03 0.000000000000000D+00 0.000000000000000D+00 0.207780441862107D+03
 0.207780441862107D+03 0.000000000000000D+00 0.000000000000000D+00 -.207780441862107D+03
 0.176797172065774D+03 -.396638398086492D+02 0.224648063992087D+02 0.163338153336980D+03
 0.387341412590978D+02 -.270310968592187D+02 0.183978562015496D+02 0.207646909164182D+02
 0.000000000000000D+00 0.000000000000000D+00 0.000000000000000D+00 -.000000000000000D+00
 0.200029570399342D+03 0.666949366678680D+02 -.408626626007584D+02 -.184102844253399D+03
 0.212278260029076D+03 0.000000000000000D+00 0.000000000000000D+00 0.212278260029076D+03
 0.148798735477665D+04 0.000000000000000D+00 0.000000000000000D+00 -.148798735477665D+04
 0.185266393044734D+03 -.706358820117903D+02 0.124441242635761D+02 0.163338153336980D+03
 0.430011262407193D+02 -.340229855727840D+02 0.161357033261655D+02 0.207646909164182D+02
 0.127793150946220D+04 0.716761405011457D+02 0.231900698042470D+02 -.127570909474757D+04
 0.194066586058072D+03 0.329827270834287D+02 -.517698973939886D+02 -.184102844253399D+03
0.219956059463D-05 0.000000000000D+00 0.000000000000D+00 0.152131633355D-04 0.000000000000D+00  6 22 -1 9900012 -11 -2 21 0 0.33039651D-01 0.30927667D-01 0.79723100D+04 0.79723100D+04 0.79723100D+04 0.12196709D+01  1  2  2  1  6  2       -1 0.173659806188D-04 0.100000000000D+01
0.236322996113D-07 0.000000000000D+00 -.422344592049D-08 0.152131633355D-04 0.000000000000D+00  6 22 -1 9900012 -11 -2 21 2 0.33039651D-01 0.30927667D-01 0.79723100D+04 0.79723100D+04 0.79723100D+04 0.12196709D+01  1  2  3  1  6  2       -1 0.277558589544D-06 0.100000000000D+01
-.296661628010D-06 0.000000000000D+00 0.000000000000D+00 0.152131633355D-04 0.000000000000D+00  6 22 -1 9900012 -11 -2 21 2 0.33039651D-01 0.30927667D-01 0.79723100D+04 0.79723100D+04 0.79723100D+04 0.12196709D+01  1  2 15  1  6  2       -1 -.348425605618D-05 0.100000000000D+01
0.388472244887D-05 0.000000000000D+00 0.000000000000D+00 0.152131633355D-04 0.000000000000D+00  6 22 -1 9900012 -11 -2 21 2 0.33039651D-01 0.22627814D+00 0.17135474D+05 0.17135474D+05 0.17135474D+05 0.11858075D+01  1  2 12  1  6  2       -1 0.480229226962D-06 0.100000000000D+01
-.856260508609D-04 0.000000000000D+00 -.110227822608D-05 0.152131633355D-04 0.000000000000D+00  6 22 -1 9900012 -11 -2 21 2 0.33039651D-01 0.22209615D+00 0.79723100D+04 0.79723100D+04 0.79723100D+04 0.12196709D+01  1  2  5  1  6  2       -1 -.121538183938D-04 0.100000000000D+01
0.943234845195D-06 0.000000000000D+00 0.000000000000D+00 0.152131633355D-04 0.000000000000D+00  6 22 21 9900012 -11 1 -2 2 0.33039651D-01 0.22627814D+00 0.17135474D+05 0.17135474D+05 0.17135474D+05 0.11858075D+01  3  4 12  3  5  2       -1 0.929019330681D-06 0.100000000000D+01
-.207222611125D-04 0.000000000000D+00 -.265355474656D-06 0.152131633355D-04 0.000000000000D+00  6 22 21 9900012 -11 1 -2 2 0.33039651D-01 0.22209615D+00 0.79723100D+04 0.79723100D+04 0.79723100D+04 0.12196709D+01  3  4  5  3  5  2       -1 -.235883197477D-04 0.100000000000D+01
  </mgrwgt>
  </event>
  <event>
  6     66 0.92480518E-06 0.17410808E+02 0.78161638E-02 0.12945676E+00
       22 -1    0    0    0    0 0.00000000E+00 0.00000000E+00 0.34466283E+01 0.34466283E+01 0.00000000E+00 0.0000E+00 0.9000E+01
       -3 -1    0    0    0  501 0.00000000E+00 0.00000000E+00 -.76216649E+03 0.76216649E+03 0.00000000E+00 0.0000E+00 0.9000E+01
       24  2    1    2    0    0 -.29905236E+01 -.17152055E+02 -.52174104E+03 0.52799557E+03 0.79135802E+02 0.0000E+00 0.0000E+00
  9900012  1    3    3    0    0 0.20470644E+02 -.47662843E+01 -.36966900E+03 0.37362673E+03 0.50000000E+02 0.0000E+00 0.9000E+01
      -11  1    3    3    0    0 -.23461168E+02 -.12385771E+02 -.15207204E+03 0.15436884E+03 0.00000000E+00 0.0000E+00 0.9000E+01
       -4  1    1    2    0  501 0.29905236E+01 0.17152055E+02 -.23697882E+03 0.23761754E+03 0.00000000E+00 0.0000E+00 0.9000E+01
#aMCatNLO 1  0  0  2  5 0.59940672D+01 0.00000000D+00  -5  6  0 0.00000000D+00 0.00000000D+00 0.00000000D+00 0.00000000D+00 0.00000000D+00
  <mgrwgt>
 0.2054049872D-03    8    4    0
 0.512533369496370D+02 0.000000000000000D+00 0.000000000000000D+00 0.512533369496370D+02
 0.512533369496370D+02 0.000000000000000D+00 0.000000000000000D+00 -.512533369496370D+02
 0.544190341887362D+02 0.204706441867995D+02 -.476628433247670D+01 0.443469754033778D+01
 0.273809734360383D+02 -.234611677860627D+02 -.123857707226833D+02 0.677377265815519D+01
 0.207066662744995D+02 0.299052359926320D+01 0.171520550551600D+02 -.112084701984930D+02
 0.000000000000000D+00 -.000000000000000D+00 -.000000000000000D+00 0.000000000000000D+00
 0.537943632139697D+02 0.000000000000000D+00 0.000000000000000D+00 0.537943632139697D+02
 0.524060008436247D+02 0.000000000000000D+00 0.000000000000000D+00 -.524060008436247D+02
 0.545052583197863D+02 0.210180288633179D+02 -.306579597055849D+01 0.443469754033778D+01
 0.267730129241468D+02 -.231890240647378D+02 -.115403374273533D+02 0.677377265815519D+01
 0.212835615854362D+02 0.320153995534599D+01 0.178075919619940D+02 -.112084701984930D+02
 0.363853122822517D+01 -.103054475392608D+01 -.320145856408218D+01 0.138836237034503D+01
 0.512533369496370D+02 0.000000000000000D+00 0.000000000000000D+00 0.512533369496370D+02
 0.512533369496370D+02 0.000000000000000D+00 0.000000000000000D+00 -.512533369496370D+02
 0.544190341887362D+02 0.204706441867995D+02 -.476628433247670D+01 0.443469754033778D+01
 0.273809734360383D+02 -.234611677860627D+02 -.123857707226833D+02 0.677377265815519D+01
 0.000000000000000D+00 -.000000000000000D+00 -.000000000000000D+00 0.000000000000000D+00
 0.207066662744995D+02 0.299052359926320D+01 0.171520550551600D+02 -.112084701984930D+02
 0.537943632139697D+02 0.000000000000000D+00 0.000000000000000D+00 0.537943632139697D+02
 0.524060008436247D+02 0.000000000000000D+00 0.000000000000000D+00 -.524060008436247D+02
 0.545052583197863D+02 0.210180288633179D+02 -.306579597055849D+01 0.443469754033778D+01
 0.267730129241468D+02 -.231890240647378D+02 -.115403374273533D+02 0.677377265815519D+01
 0.363853122822517D+01 -.103054475392608D+01 -.320145856408218D+01 0.138836237034503D+01
 0.212835615854362D+02 0.320153995534599D+01 0.178075919619940D+02 -.112084701984930D+02
0.108640945623D-05 0.000000000000D+00 0.000000000000D+00 0.902169011699D-07 0.000000000000D+00  6 22 -3 9900012 -11 -4 21 0 0.53025050D-03 0.11725638D+00 0.24097648D+04 0.24097648D+04 0.24097648D+04 0.12792023D+01  1  2  2  1  6  2       -3 0.906071999965D-04 0.100000000000D+01
0.456086736614D-07 0.000000000000D+00 -.208604918504D-08 0.902169011699D-07 0.000000000000D+00  6 22 -3 9900012 -11 -4 21 2 0.53025050D-03 0.11725638D+00 0.24097648D+04 0.24097648D+04 0.24097648D+04 0.12792023D+01  1  2  3  1  6  2       -3 0.622436494311D-05 0.100000000000D+01
-.118338127740D-06 0.000000000000D+00 0.000000000000D+00 0.902169011699D-07 0.000000000000D+00  6 22 -3 9900012 -11 -4 21 2 0.53025050D-03 0.11725638D+00 0.24097648D+04 0.24097648D+04 0.24097648D+04 0.12792023D+01  1  2 15  1  6  2       -3 -.161499915390D-04 0.100000000000D+01
0.901774090859D-06 0.000000000000D+00 0.000000000000D+00 0.902169011699D-07 0.000000000000D+00  6 22 -3 9900012 -11 -4 21 2 0.53025050D-03 0.12583747D+00 0.25848489D+04 0.25848489D+04 0.25848489D+04 0.12754613D+01  1  2 12  1  6  2       -3 0.102648488739D-03 0.100000000000D+01
-.863856458448D-07 0.000000000000D+00 0.000000000000D+00 0.902169011699D-07 0.000000000000D+00  6 22 -3 9900012 -11 -4 21 2 0.53025050D-03 0.11725638D+00 0.24097648D+04 0.24097648D+04 0.24097648D+04 0.12792023D+01  1  2  4  1  6  2       -3 -.117893317744D-04 0.100000000000D+01
0.207756117728D-07 0.000000000000D+00 0.000000000000D+00 0.902169011699D-07 0.475547010887D-08  6 22 -3 9900012 -11 -4 21 2 0.55653914D-03 0.11989342D+00 0.25848489D+04 0.25848489D+04 0.25848489D+04 0.12754613D+01  1  2 11  1  6  2       -3 0.251995096194D-05 0.100000000000D+01
0.131187255239D-07 0.000000000000D+00 0.000000000000D+00 0.902169011699D-07 0.000000000000D+00  6 22 21 9900012 -11 3 -4 2 0.53025050D-03 0.12583747D+00 0.25848489D+04 0.25848489D+04 0.25848489D+04 0.12754613D+01  3  4 12  3  5  2       -3 0.251204228020D-04 0.100000000000D+01
0.305900689300D-08 0.000000000000D+00 0.000000000000D+00 0.902169011699D-07 0.291154617654D-09  6 22 21 9900012 -11 3 -4 2 0.55653914D-03 0.11989342D+00 0.25848489D+04 0.25848489D+04 0.25848489D+04 0.12754613D+01  3  4 11  3  5  2       -3 0.622388308918D-05 0.100000000000D+01
  </mgrwgt>
  </event>
  <event>
  6     66 0.92480518E-06 0.27963534E+02 0.78161638E-02 0.11770869E+00
       22 -1    0    0    0    0 0.00000000E+00 0.00000000E+00 0.23697951E+02 0.23697951E+02 0.00000000E+00 0.0000E+00 0.9000E+01
       -1 -1    0    0    0  501 -.00000000E+00 -.00000000E+00 -.44023369E+03 0.44023369E+03 0.00000000E+00 0.0000E+00 0.9000E+01
       24  2    1    2    0    0 0.59882871E+02 -.49192335E+02 -.12731158E+03 0.16450476E+03 0.69625667E+02 0.0000E+00 0.0000E+00
  9900012  1    3    3    0    0 0.60611290E+02 -.30973402E+02 -.92842664E+02 0.12551032E+03 0.50000000E+02 0.0000E+00 0.9000E+01
      -11  1    3    3    0    0 -.72841957E+00 -.18218933E+02 -.34468920E+02 0.38994443E+02 0.00000000E+00 0.0000E+00 0.9000E+01
       -2  1    1    2    0  501 -.59882871E+02 0.49192335E+02 -.28922416E+03 0.29942688E+03 0.00000000E+00 0.0000E+00 0.9000E+01
#aMCatNLO 1  0  0  5  2 0.21640848D+02 0.00000000D+00  -5  6  0 0.00000000D+00 0.00000000D+00 0.00000000D+00 0.00000000D+00 0.00000000D+00
  <mgrwgt>
 0.5514103814D-04    5    2    0
 0.102140279140665D+03 0.000000000000000D+00 0.000000000000000D+00 0.102140279140665D+03
 0.102140279140665D+03 -.000000000000000D+00 -.000000000000000D+00 -.102140279140665D+03
 0.957307015850310D+02 0.606112902327618D+02 -.309734017280249D+02 0.450698026141291D+02
 0.182749589691437D+02 -.728419569940691D+00 -.182189332789075D+02 0.123044724906390D+01
 0.902748977271563D+02 -.598828706628211D+02 0.491923350069324D+02 -.463002498631930D+02
 0.000000000000000D+00 0.000000000000000D+00 -.000000000000000D+00 0.000000000000000D+00
 0.102140279140665D+03 0.000000000000000D+00 0.000000000000000D+00 0.102140279140665D+03
 0.102140279140665D+03 -.000000000000000D+00 -.000000000000000D+00 -.102140279140665D+03
 0.881100897984737D+02 0.544620481749023D+02 -.259219475809419D+02 0.403153304153720D+02
 0.173494103345590D+02 -.192000968635869D+01 -.172400707168932D+02 0.309133365577723D+00
 0.830491486786729D+02 -.471578491295507D+02 0.575213711708489D+02 -.369403603170338D+02
 0.157719094696254D+02 -.538418935899290D+01 -.143593528730138D+02 -.368410346391596D+01
0.763144711951D-06 0.000000000000D+00 0.000000000000D+00 0.735532563372D-08 0.000000000000D+00  6 22 -1 9900012 -11 -2 21 0 0.36458387D-02 0.67728261D-01 0.81169679D+04 0.81169679D+04 0.81169679D+04 0.12188399D+01  1  2  2  2  6  5       -2 0.373102254695D-04 0.100000000000D+01
-.121182171519D-07 0.000000000000D+00 -.146533831725D-08 0.735532563372D-08 0.000000000000D+00  6 22 -1 9900012 -11 -2 21 2 0.36458387D-02 0.67728261D-01 0.81169679D+04 0.81169679D+04 0.81169679D+04 0.12188399D+01  1  2  3  2  6  5       -2 -.880142560039D-06 0.100000000000D+01
-.943324307712D-07 0.000000000000D+00 0.000000000000D+00 0.735532563372D-08 0.000000000000D+00  6 22 -1 9900012 -11 -2 21 2 0.36458387D-02 0.67728261D-01 0.81169679D+04 0.81169679D+04 0.81169679D+04 0.12188399D+01  1  2 15  2  6  5       -2 -.685133679920D-05 0.100000000000D+01
0.460247039676D-06 0.000000000000D+00 0.000000000000D+00 0.735532563372D-08 0.000000000000D+00  6 22 -1 9900012 -11 -2 21 2 0.36458387D-02 0.67728261D-01 0.85941513D+04 0.85941513D+04 0.85941513D+04 0.12162117D+01  1  2 12  2  6  5       -2 0.334210355311D-04 0.100000000000D+01
-.108202880511D-06 0.000000000000D+00 0.000000000000D+00 0.735532563372D-08 0.000000000000D+00  6 22 -1 9900012 -11 -2 21 2 0.36458387D-02 0.67728261D-01 0.81169679D+04 0.81169679D+04 0.81169679D+04 0.12188399D+01  1  2  4  2  6  5       -2 -.785874349856D-05 0.100000000000D+01
  </mgrwgt>
  </event>
  <event>
  6     66 0.92480518E-06 0.35293656E+02 0.78161638E-02 0.11446366E+00
       22 -1    0    0    0    0 0.00000000E+00 0.00000000E+00 0.48292711E+03 0.48292711E+03 0.00000000E+00 0.0000E+00 0.9000E+01
       -1 -1    0    0    0  501 0.00000000E+00 0.00000000E+00 -.17564063E+03 0.17564063E+03 0.00000000E+00 0.0000E+00 0.9000E+01
       24  2    1    2    0    0 -.77735036E+02 0.61701987E+02 0.45953564E+03 0.47682704E+03 0.79631342E+02 0.0000E+00 0.0000E+00
  9900012  1    3    3    0    0 -.53189476E+02 0.48631500E+02 0.23981179E+03 0.25535042E+03 0.50000000E+02 0.0000E+00 0.9000E+01
      -11  1    3    3    0    0 -.24545560E+02 0.13070487E+02 0.21972386E+03 0.22147663E+03 0.00000000E+00 0.0000E+00 0.9000E+01
       -2  1    1    2    0  501 0.77735036E+02 -.61701987E+02 -.15224916E+03 0.18174069E+03 0.00000000E+00 0.0000E+00 0.9000E+01
#aMCatNLO 1  0  0  2  5 0.88618905D+01 0.00000000D+00  -5  6  0 0.00000000D+00 0.00000000D+00 0.00000000D+00 0.00000000D+00 0.00000000D+00
  <mgrwgt>
 0.2415011772D-03   11    4    0
 0.291241513250950D+03 0.000000000000000D+00 0.000000000000000D+00 0.291241513250950D+03
 0.291241513250950D+03 0.000000000000000D+00 0.000000000000000D+00 -.291241513250950D+03
 0.162192924268177D+03 -.531894755485352D+02 0.486315001350002D+02 0.136427275748487D+03
 0.134491795321848D+03 -.245455604580764D+02 0.130704872149562D+02 0.131585412697063D+03
 0.285798306911876D+03 0.777350360066116D+02 -.617019873499565D+02 -.268012688445550D+03
 0.000000000000000D+00 -.000000000000000D+00 0.000000000000000D+00 -.000000000000000D+00
 0.291498400629428D+03 0.000000000000000D+00 0.000000000000000D+00 0.291498400629428D+03
 0.378910366186617D+03 0.000000000000000D+00 0.000000000000000D+00 -.378910366186617D+03
 0.161374617117972D+03 -.507343051746485D+02 0.485324196827659D+02 0.136427275748487D+03
 0.134126787205660D+03 -.225073325725732D+02 0.129882328252812D+02 0.131585412697063D+03
 0.287048808118904D+03 0.820816934604616D+02 -.618774003440264D+02 -.268012688445550D+03
 0.878585543735084D+02 -.884005571323992D+01 0.356747835979363D+00 -.874119655571883D+02
 0.291241513250950D+03 0.000000000000000D+00 0.000000000000000D+00 0.291241513250950D+03
 0.291241513250950D+03 0.000000000000000D+00 0.000000000000000D+00 -.291241513250950D+03
 0.162192924268177D+03 -.531894755485352D+02 0.486315001350002D+02 0.136427275748487D+03
 0.134491795321848D+03 -.245455604580764D+02 0.130704872149562D+02 0.131585412697063D+03
 0.000000000000000D+00 -.000000000000000D+00 0.000000000000000D+00 -.000000000000000D+00
 0.285798306911876D+03 0.777350360066116D+02 -.617019873499565D+02 -.268012688445550D+03
 0.291498400629428D+03 0.000000000000000D+00 0.000000000000000D+00 0.291498400629428D+03
 0.378910366186617D+03 0.000000000000000D+00 0.000000000000000D+00 -.378910366186617D+03
 0.161374617117972D+03 -.507343051746485D+02 0.485324196827659D+02 0.136427275748487D+03
 0.134126787205660D+03 -.225073325725732D+02 0.129882328252812D+02 0.131585412697063D+03
 0.878585543735084D+02 -.884005571323992D+01 0.356747835979363D+00 -.874119655571883D+02
 0.287048808118904D+03 0.820816934604616D+02 -.618774003440264D+02 -.268012688445550D+03
0.208609176572D-05 0.000000000000D+00 0.000000000000D+00 0.340119962443D-04 0.000000000000D+00  6 22 -1 9900012 -11 -2 21 0 0.74296478D-01 0.27021635D-01 0.11531694D+05 0.11531694D+05 0.11531694D+05 0.12029678D+01  1  2  2  1  6  2       -1 0.540325333035D-05 0.100000000000D+01
0.176784011778D-07 0.000000000000D+00 -.400557083047D-08 0.340119962443D-04 0.000000000000D+00  6 22 -1 9900012 -11 -2 21 2 0.74296478D-01 0.27021635D-01 0.11531694D+05 0.11531694D+05 0.11531694D+05 0.12029678D+01  1  2  3  1  6  2       -1 0.662632768865D-07 0.100000000000D+01
-.277730496171D-06 0.000000000000D+00 0.000000000000D+00 0.340119962443D-04 0.000000000000D+00  6 22 -1 9900012 -11 -2 21 2 0.74296478D-01 0.27021635D-01 0.11531694D+05 0.11531694D+05 0.11531694D+05 0.12029678D+01  1  2 15  1  6  2       -1 -.104100662625D-05 0.100000000000D+01
0.166980488133D-03 0.000000000000D+00 0.000000000000D+00 0.340119962443D-04 0.000000000000D+00  6 22 -1 9900012 -11 -2 21 2 0.74296478D-01 0.35186634D-01 0.12523754D+05 0.12523754D+05 0.12523754D+05 0.11993301D+01  1  2 12  1  6  2       -1 0.407479980535D-03 0.100000000000D+01
-.981333373306D-04 0.000000000000D+00 0.000000000000D+00 0.340119962443D-04 0.000000000000D+00  6 22 -1 9900012 -11 -2 21 2 0.74296478D-01 0.27021635D-01 0.11531694D+05 0.11531694D+05 0.11531694D+05 0.12029678D+01  1  2  4  1  6  2       -1 -.367829445544D-03 0.100000000000D+01
-.166949155567D-03 0.000000000000D+00 -.110268711539D-05 0.340119962443D-04 0.000000000000D+00  6 22 -1 9900012 -11 -2 21 2 0.74296478D-01 0.35169142D-01 0.11531694D+05 0.11531694D+05 0.11531694D+05 0.12029678D+01  1  2  5  1  6  2       -1 -.408586577854D-03 0.100000000000D+01
0.161631842532D-03 0.000000000000D+00 0.106547458533D-05 0.340119962443D-04 0.000000000000D+00  6 22 -1 9900012 -11 -2 21 2 0.74296478D-01 0.27021635D-01 0.11531694D+05 0.11531694D+05 0.11531694D+05 0.12029678D+01  1  2  6  1  6  2       -1 0.605838470777D-03 0.100000000000D+01
0.350431394329D-07 0.000000000000D+00 0.000000000000D+00 0.340119962443D-04 0.213916570544D-05  6 22 -1 9900012 -11 -2 21 2 0.74362011D-01 0.35155625D-01 0.12523754D+05 0.12523754D+05 0.12523754D+05 0.11993301D+01  1  2 11  1  6  2       -1 0.855037108092D-07 0.100000000000D+01
0.588247544974D-05 0.000000000000D+00 0.000000000000D+00 0.340119962443D-04 0.000000000000D+00  6 22 21 9900012 -11 1 -2 2 0.74296478D-01 0.35186634D-01 0.12523754D+05 0.12523754D+05 0.12523754D+05 0.11993301D+01  3  4 12  3  5  2       -1 0.151679576807D-03 0.100000000000D+01
-.585312579065D-05 0.000000000000D+00 -.387924606760D-07 0.340119962443D-04 0.000000000000D+00  6 22 21 9900012 -11 1 -2 2 0.74296478D-01 0.35169142D-01 0.11531694D+05 0.11531694D+05 0.11531694D+05 0.12029678D+01  3  4  5  3  5  2       -1 -.151643657829D-03 0.100000000000D+01
0.189297130715D-08 0.000000000000D+00 0.000000000000D+00 0.340119962443D-04 0.114008740095D-06  6 22 21 9900012 -11 1 -2 2 0.74362011D-01 0.35155625D-01 0.12523754D+05 0.12523754D+05 0.12523754D+05 0.11993301D+01  3  4 11  3  5  2       -1 0.488165750859D-07 0.100000000000D+01
  </mgrwgt>
  </event>
  <event>
  7     66 0.92480518E-06 0.10391471E+03 0.78161638E-02 0.11267795E+00
       22 -1    0    0    0    0 0.00000000E+00 0.00000000E+00 0.52314946E+03 0.52314946E+03 0.00000000E+00 0.0000E+00 0.9000E+01
       -3 -1    0    0    0  502 0.00000000E+00 0.00000000E+00 -.19807696E+03 0.19807696E+03 0.00000000E+00 0.0000E+00 0.9000E+01
       24  2    1    2    0    0 0.81311188E+02 -.75854009E+02 0.49382691E+03 0.51252580E+03 0.80326444E+02 0.0000E+00 0.0000E+00
  9900012  1    3    3    0    0 0.59106099E+02 -.81242957E+02 0.37138436E+03 0.38796945E+03 0.50000000E+02 0.0000E+00 0.9000E+01
      -11  1    3    3    0    0 0.22205089E+02 0.53889482E+01 0.12244255E+03 0.12455636E+03 0.00000000E+00 0.0000E+00 0.9000E+01
       -4  1    1    2    0  501 -.82311665E+02 0.68974744E+02 -.12676110E+03 0.16613580E+03 0.00000000E+00 0.0000E+00 0.9000E+01
       21  1    1    2  501  502 0.10004771E+01 0.68792651E+01 -.41993312E+02 0.42564815E+02 0.00000000E+00 0.0000E+00 0.9000E+01
#aMCatNLO 2  0  0  2  5 0.69605249D+01 0.00000000D+00  -5  6  0 0.00000000D+00 0.00000000D+00 0.00000000D+00 0.00000000D+00 0.00000000D+00
  <mgrwgt>
 0.3534437466D-04    2    2    0
 0.285392681871875D+03 0.000000000000000D+00 0.000000000000000D+00 0.285392681871875D+03
 0.285392681871875D+03 0.000000000000000D+00 0.000000000000000D+00 -.285392681871875D+03
 0.221585405901025D+03 0.594952343860121D+02 -.785672698474127D+02 0.192061431064124D+03
 0.694594335772897D+02 0.223267378984257D+02 0.622540484534735D+01 0.654780422905606D+02
 0.279740524265436D+03 -.818219722844378D+02 0.723418650020654D+02 -.257539473354685D+03
 0.000000000000000D+00 0.000000000000000D+00 0.000000000000000D+00 -.000000000000000D+00
 0.285569829474919D+03 0.000000000000000D+00 0.000000000000000D+00 0.285569829474919D+03
 0.362866949317618D+03 0.000000000000000D+00 0.000000000000000D+00 -.362866949317618D+03
 0.222444470182501D+03 0.591060992951833D+02 -.812429568546236D+02 0.192061431064124D+03
 0.693504200339873D+02 0.222050889105932D+02 0.538894824234465D+01 0.654780422905606D+02
 0.279032804194567D+03 -.823116652569938D+02 0.689747435188813D+02 -.257539473354685D+03
 0.776090843814816D+02 0.100047705121730D+01 0.687926509339763D+01 -.772971198426997D+02
-.843265932983D-04 0.000000000000D+00 0.000000000000D+00 0.226163212804D-04 0.000000000000D+00  6 22 -3 9900012 -11 -4 21 2 0.80434605D-01 0.30492293D-01 0.15551909D+05 0.15551909D+05 0.15551909D+05 0.11899382D+01  1  2 13  1  6  2       -3 -.153168760672D-03 0.100000000000D+01
0.103783547604D-03 0.000000000000D+00 0.000000000000D+00 0.226163212804D-04 0.457264913384D-05  6 22 -3 9900012 -11 -4 21 2 0.80484532D-01 0.30473378D-01 0.15551909D+05 0.15551909D+05 0.15551909D+05 0.11899382D+01  1  2  1  1  6  2       -3 0.188513135336D-03 0.100000000000D+01
  </mgrwgt>
  </event>
  <event>
  6     66 0.92480518E-06 0.15624883E+03 0.78161638E-02 0.92037007E-01
       22 -1    0    0    0    0 0.00000000E+00 0.00000000E+00 0.22461431E+03 0.22461431E+03 0.00000000E+00 0.0000E+00 0.9000E+01
       -3 -1    0    0    0  501 0.00000000E+00 0.00000000E+00 -.13165571E+03 0.13165571E+03 0.00000000E+00 0.0000E+00 0.9000E+01
       24  2    1    2    0    0 -.12635166E+03 0.91918205E+02 0.92436655E+02 0.20002031E+03 0.83963634E+02 0.0000E+00 0.0000E+00
  9900012  1    3    3    0    0 -.10057929E+03 0.40715977E+02 0.69949993E+02 0.13844488E+03 0.50000000E+02 0.0000E+00 0.9000E+01
      -11  1    3    3    0    0 -.25772364E+02 0.51202229E+02 0.22486662E+02 0.61575425E+02 0.00000000E+00 0.0000E+00 0.9000E+01
       -4  1    1    2    0  501 0.12635166E+03 -.91918205E+02 0.52194185E+00 0.15624970E+03 0.00000000E+00 0.0000E+00 0.9000E+01
#aMCatNLO 1  0  0  2  5 0.26429472D+02 0.00000000D+00  -5  6  0 0.00000000D+00 0.00000000D+00 0.00000000D+00 0.00000000D+00 0.00000000D+00
  <mgrwgt>
 0.1114615695D-04    5    4    0
 0.171964401772712D+03 0.000000000000000D+00 0.000000000000000D+00 0.171964401772712D+03
 0.171964401772712D+03 0.000000000000000D+00 0.000000000000000D+00 -.171964401772712D+03
 0.124506314795455D+03 -.100579291809018D+03 0.407159765884384D+02 0.350405156011021D+02
 0.577071438929062D+02 -.257723642947876D+02 0.512022287699800D+02 0.665067394479495D+01
 0.161715344857063D+03 0.126351656103806D+03 -.919182053584183D+02 -.416911895458970D+02
 0.000000000000000D+00 -.000000000000000D+00 -.000000000000000D+00 -.000000000000000D+00
 0.361347460722062D+03 0.000000000000000D+00 0.000000000000000D+00 0.361347460722062D+03
 0.237565049918765D+04 0.000000000000000D+00 0.000000000000000D+00 -.237565049918765D+04
 0.244087758570596D+03 -.340465339545063D+02 0.233862843727068D+03 0.350405156011021D+02
 0.172898770539337D+03 0.158529589900546D+02 0.172041963140839D+03 0.665067394479495D+01
 0.231904733454908D+03 0.197401711569555D+03 0.114342530942996D+03 -.416911895458970D+02
 0.208810669734487D+04 -.179208136605104D+03 -.520247337810904D+03 -.201430303846558D+04
 0.171964401772712D+03 0.000000000000000D+00 0.000000000000000D+00 0.171964401772712D+03
 0.171964401772712D+03 0.000000000000000D+00 0.000000000000000D+00 -.171964401772712D+03
 0.124506314795455D+03 -.100579291809018D+03 0.407159765884384D+02 0.350405156011021D+02
 0.577071438929062D+02 -.257723642947876D+02 0.512022287699800D+02 0.665067394479495D+01
 0.000000000000000D+00 -.000000000000000D+00 -.000000000000000D+00 -.000000000000000D+00
 0.161715344857063D+03 0.126351656103806D+03 -.919182053584183D+02 -.416911895458970D+02
 0.361347460722062D+03 0.000000000000000D+00 0.000000000000000D+00 0.361347460722062D+03
 0.237565049918765D+04 0.000000000000000D+00 0.000000000000000D+00 -.237565049918765D+04
 0.244087758570596D+03 -.340465339545063D+02 0.233862843727068D+03 0.350405156011021D+02
 0.172898770539337D+03 0.158529589900546D+02 0.172041963140839D+03 0.665067394479495D+01
 0.208810669734487D+04 -.179208136605104D+03 -.520247337810904D+03 -.201430303846558D+04
 0.231904733454908D+03 0.197401711569555D+03 0.114342530942996D+03 -.416911895458970D+02
0.119500437221D-05 0.000000000000D+00 0.000000000000D+00 0.297699203378D-07 0.000000000000D+00  6 22 -3 9900012 -11 -4 21 0 0.34556047D-01 0.20254724D-01 0.27729782D+05 0.27729782D+05 0.27729782D+05 0.11659386D+01  1  2  2  1  6  2       -3 0.139829755821D-04 0.100000000000D+01
-.386180241172D-07 0.000000000000D+00 -.229456572058D-08 0.297699203378D-07 0.000000000000D+00  6 22 -3 9900012 -11 -4 21 2 0.34556047D-01 0.20254724D-01 0.27729782D+05 0.27729782D+05 0.27729782D+05 0.11659386D+01  1  2  3  1  6  2       -3 -.614287317244D-06 0.100000000000D+01
-.137271579278D-06 0.000000000000D+00 0.000000000000D+00 0.297699203378D-07 0.000000000000D+00  6 22 -3 9900012 -11 -4 21 2 0.34556047D-01 0.20254724D-01 0.27729782D+05 0.27729782D+05 0.27729782D+05 0.11659386D+01  1  2 15  1  6  2       -3 -.218354491449D-05 0.100000000000D+01
-.289756653632D-06 0.000000000000D+00 -.148011501231D-05 0.297699203378D-07 0.000000000000D+00  6 22 -3 9900012 -11 -4 21 2 0.34556047D-01 0.39869109D+00 0.27729782D+05 0.27729782D+05 0.27729782D+05 0.11659386D+01  1  2  5  1  6  2       -3 -.632664698706D-09 0.100000000000D+01
-.468960520276D-06 0.000000000000D+00 -.474808616886D-06 0.297699203378D-07 0.000000000000D+00  6 22 21 9900012 -11 3 -4 2 0.34556047D-01 0.39869109D+00 0.27729782D+05 0.27729782D+05 0.27729782D+05 0.11659386D+01  3  4  5  3  5  2       -3 -.383537393232D-07 0.100000000000D+01
  </mgrwgt>
  </event>
  <event>
  6     66 0.92480518E-06 0.37632964E+02 0.78161638E-02 0.10546254E+00
       22 -1    0    0    0    0 0.00000000E+00 0.00000000E+00 0.54542391E+03 0.54542391E+03 0.00000000E+00 0.0000E+00 0.9000E+01
       -3 -1    0    0    0  501 0.00000000E+00 0.00000000E+00 -.20438699E+02 0.20438699E+02 0.00000000E+00 0.0000E+00 0.9000E+01
       24  2    1    2    0    0 0.32470068E+00 -.37631563E+02 0.52097420E+03 0.52801650E+03 0.77272709E+02 0.0000E+00 0.0000E+00
  9900012  1    3    3    0    0 0.21627694E+02 -.33286512E+02 0.36630912E+03 0.37183077E+03 0.50000000E+02 0.0000E+00 0.9000E+01
      -11  1    3    3    0    0 -.21302994E+02 -.43450509E+01 0.15466507E+03 0.15618573E+03 0.00000000E+00 0.0000E+00 0.9000E+01
       -4  1    1    2    0  501 -.32470068E+00 0.37631563E+02 0.40110174E+01 0.37846112E+02 0.00000000E+00 0.0000E+00 0.9000E+01
#aMCatNLO 1  0  0  2  5 0.62700552D+01 0.00000000D+00  -5  6  0 0.00000000D+00 0.00000000D+00 0.00000000D+00 0.00000000D+00 0.00000000D+00
  <mgrwgt>
 0.5543182490D-04    3    2    0
 0.105582931450494D+03 0.000000000000000D+00 0.000000000000000D+00 0.105582931450494D+03
 0.105582931450494D+03 0.000000000000000D+00 0.000000000000000D+00 -.105582931450494D+03
 0.857063649656725D+02 0.216276943068971D+02 -.332865118567536D+02 0.571824445350726D+02
 0.340149111514211D+02 -.213029936305511D+02 -.434505093863714D+01 0.261594567098863D+02
 0.914445867838941D+02 -.324700676345997D+00 0.376315627953908D+02 -.833419012449589D+02
 0.000000000000000D+00 0.000000000000000D+00 -.000000000000000D+00 0.000000000000000D+00
 0.252017670113998D+03 0.000000000000000D+00 0.000000000000000D+00 0.252017670113998D+03
 0.211435531668231D+03 0.000000000000000D+00 0.000000000000000D+00 -.211435531668231D+03
 0.815834658926381D+02 -.297430840570312D+02 0.117426352449316D+01 0.571824445350726D+02
 0.578717290133335D+02 -.495192229272834D+02 0.145830862410637D+02 0.261594567098863D+02
 0.138601986428588D+03 -.709666008160433D+02 0.850198783076189D+02 -.833419012449589D+02
 0.185396020447669D+03 0.150228907800358D+03 -.100777228073176D+03 0.405821384457664D+02
0.160174429948D-05 0.000000000000D+00 0.000000000000D+00 0.326929973193D-06 0.000000000000D+00  6 22 -3 9900012 -11 -4 21 0 0.83911371D-01 0.31444153D-02 0.37955551D+04 0.37955551D+04 0.37955551D+04 0.12555505D+01  1  2  2  1  6  2       -3 0.660469121146D-04 0.100000000000D+01
0.678417150402D-07 0.000000000000D+00 -.307555992949D-08 0.326929973193D-06 0.000000000000D+00  6 22 -3 9900012 -11 -4 21 2 0.83911371D-01 0.31444153D-02 0.37955551D+04 0.37955551D+04 0.37955551D+04 0.12555505D+01  1  2  3  1  6  2       -3 0.440985727946D-05 0.100000000000D+01
-.231145349684D-06 0.000000000000D+00 0.000000000000D+00 0.326929973193D-06 0.000000000000D+00  6 22 -3 9900012 -11 -4 21 2 0.83911371D-01 0.31444153D-02 0.37955551D+04 0.37955551D+04 0.37955551D+04 0.12555505D+01  1  2 15  1  6  2       -3 -.150249444949D-04 0.100000000000D+01
  </mgrwgt>
  </event>
  <event>
  6     66 0.92480518E-06 0.60136061E+02 0.78161638E-02 0.11593765E+00
       22 -1    0    0    0    0 0.00000000E+00 0.00000000E+00 0.66622631E+03 0.66622631E+03 0.00000000E+00 0.0000E+00 0.9000E+01
       -3 -1    0    0    0  501 0.00000000E+00 0.00000000E+00 -.36425090E+02 0.36425090E+02 0.00000000E+00 0.0000E+00 0.9000E+01
       24  2    1    2    0    0 -.70876245E+02 0.25553278E+02 0.61614094E+03 0.62608107E+03 0.81678873E+02 0.0000E+00 0.0000E+00
  9900012  1    3    3    0    0 -.30083408E+02 -.65089267E+01 0.35715464E+03 0.36194864E+03 0.50000000E+02 0.0000E+00 0.9000E+01
      -11  1    3    3    0    0 -.40792836E+02 0.32062205E+02 0.25898630E+03 0.26413243E+03 0.00000000E+00 0.0000E+00 0.9000E+01
       -4  1    1    2    0  501 0.70876245E+02 -.25553278E+02 0.13660282E+02 0.76570330E+02 0.00000000E+00 0.0000E+00 0.9000E+01
#aMCatNLO 1  0  0  5  2 0.28589331D+02 0.00000000D+00  -5  6  0 0.00000000D+00 0.00000000D+00 0.00000000D+00 0.00000000D+00 0.00000000D+00
  <mgrwgt>
 0.5228893390D-04    7    2    0
 0.155779822418342D+03 0.000000000000000D+00 0.000000000000000D+00 0.155779822418342D+03
 0.155779822418342D+03 -.000000000000000D+00 -.000000000000000D+00 -.155779822418342D+03
 0.943231496071203D+02 -.300834084599708D+02 -.650892672321184D+01 0.738205862896632D+02
 0.721631915580473D+02 -.407928362143277D+02 0.320622051163711D+02 0.501546182570480D+02
 0.145073303671517D+03 0.708762446742984D+02 -.255532783931593D+02 -.123975204546711D+03
 0.000000000000000D+00 0.000000000000000D+00 0.000000000000000D+00 -.000000000000000D+00
 0.155779822418342D+03 0.000000000000000D+00 0.000000000000000D+00 0.155779822418342D+03
 0.155779822418342D+03 -.000000000000000D+00 -.000000000000000D+00 -.155779822418342D+03
 0.902078300912043D+02 -.275790414267796D+02 -.741183556512159D+01 0.694400012766356D+02
 0.684694678160994D+02 -.388842363873372D+02 0.313740904604050D+02 0.468161364422127D+02
 0.120227275992973D+03 0.805371953522025D+02 -.191896227603526D+02 -.871786466734088D+02
 0.326550709364078D+02 -.140739175380857D+02 -.477263213493082D+01 -.290774910454395D+02
0.181238958958D-05 0.000000000000D+00 0.000000000000D+00 0.135586876190D-05 0.000000000000D+00  6 22 -3 9900012 -11 -4 21 0 0.10249636D+00 0.56038600D-02 0.86435341D+04 0.86435341D+04 0.86435341D+04 0.12159492D+01  1  2  2  2  6  5       -4 0.236198721296D-04 0.100000000000D+01
0.220912845582D-07 0.000000000000D+00 -.348002661856D-08 0.135586876190D-05 0.000000000000D+00  6 22 -3 9900012 -11 -4 21 2 0.10249636D+00 0.56038600D-02 0.86435341D+04 0.86435341D+04 0.86435341D+04 0.12159492D+01  1  2  3  2  6  5       -4 0.425674648748D-06 0.100000000000D+01
-.261829450140D-06 0.000000000000D+00 0.000000000000D+00 0.135586876190D-05 0.000000000000D+00  6 22 -3 9900012 -11 -4 21 2 0.10249636D+00 0.56038600D-02 0.86435341D+04 0.86435341D+04 0.86435341D+04 0.12159492D+01  1  2 15  2  6  5       -4 -.504516425592D-05 0.100000000000D+01
0.157702432953D-05 0.000000000000D+00 0.000000000000D+00 0.135586876190D-05 0.000000000000D+00  6 22 -3 9900012 -11 -4 21 2 0.10249636D+00 0.56038600D-02 0.10526432D+05 0.10526432D+05 0.10526432D+05 0.12070275D+01  1  2 12  2  6  5       -4 0.305013013527D-04 0.100000000000D+01
-.249710086163D-06 0.000000000000D+00 0.000000000000D+00 0.135586876190D-05 0.000000000000D+00  6 22 -3 9900012 -11 -4 21 2 0.10249636D+00 0.56038600D-02 0.86435341D+04 0.86435341D+04 0.86435341D+04 0.12159492D+01  1  2  4  2  6  5       -4 -.481163750059D-05 0.100000000000D+01
-.157980996058D-05 0.000000000000D+00 0.000000000000D+00 0.135586876190D-05 0.000000000000D+00  6 22 -3 9900012 -11 -4 21 2 0.10249636D+00 0.56038600D-02 0.86435341D+04 0.86435341D+04 0.86435341D+04 0.12159492D+01  1  2  5  2  6  5       -4 -.304411926925D-04 0.100000000000D+01
0.197417027106D-05 0.000000000000D+00 -.000000000000D+00 0.135586876190D-05 0.000000000000D+00  6 22 -3 9900012 -11 -4 21 2 0.10249636D+00 0.56038600D-02 0.86435341D+04 0.86435341D+04 0.86435341D+04 0.12159492D+01  1  2  6  2  6  5       -4 0.380400802175D-04 0.100000000000D+01
  </mgrwgt>
  </event>
  <event>
  5     66 0.92480518E-06 0.10445238E+03 0.78161638E-02 0.10378300E+00
       22 -1    0    0    0    0 0.00000000E+00 0.00000000E+00 0.30326042E+03 0.30326042E+03 0.00000000E+00 0.0000E+00 0.9000E+01
       -1 -1    0    0    0  501 0.00000000E+00 0.00000000E+00 -.12397983E+03 0.12397983E+03 0.00000000E+00 0.0000E+00 0.9000E+01
  9900012  1    1    2    0    0 0.11345669E+01 0.18997890E+02 -.19240673E+01 0.53534186E+02 0.50000000E+02 0.0000E+00 0.9000E+01
      -11  1    1    2    0    0 0.71958653E+02 0.11588672E+03 0.17224094E+00 0.13641044E+03 0.00000000E+00 0.0000E+00 0.9000E+01
       -2  1    1    2    0  501 -.73093219E+02 -.13488461E+03 0.18103242E+03 0.23729563E+03 0.00000000E+00 0.0000E+00 0.9000E+01
#aMCatNLO 1  0  0  2  5 0.14214292D+03 0.00000000D+00  -5  6  0 0.00000000D+00 0.00000000D+00 0.00000000D+00 0.00000000D+00 0.00000000D+00
  <mgrwgt>
 0.4600260444D-04    6    4    0
 0.193902489970186D+03 0.000000000000000D+00 0.000000000000000D+00 0.193902489970186D+03
 0.193902489970186D+03 0.000000000000000D+00 0.000000000000000D+00 -.193902489970186D+03
 0.598674810667028D+02 0.113456685487028D+01 0.189978901221319D+02 -.268683497489379D+02
 0.150202177216528D+03 0.719586525073943D+02 0.115886717480627D+03 -.628722123157010D+02
 0.177735321657142D+03 -.730932193622646D+02 -.134884607602759D+03 0.897405620646389D+02
 0.000000000000000D+00 -.000000000000000D+00 0.000000000000000D+00 0.000000000000000D+00
 0.252428585844733D+03 0.000000000000000D+00 0.000000000000000D+00 0.252428585844733D+03
 0.245164123770736D+03 0.000000000000000D+00 0.000000000000000D+00 -.245164123770736D+03
 0.619673314126052D+02 0.162085403559612D+02 0.188500706549757D+02 -.268683497489379D+02
 0.172670032089800D+03 0.111905914117444D+03 0.115494983812983D+03 -.628722123157010D+02
 0.165226246866115D+03 -.306604081598821D+02 -.135300715242953D+03 0.897405620646389D+02
 0.977290992469474D+02 -.974540463135230D+02 0.955660774993678D+00 0.726446207399697D+01
 0.193902489970186D+03 0.000000000000000D+00 0.000000000000000D+00 0.193902489970186D+03
 0.193902489970186D+03 0.000000000000000D+00 0.000000000000000D+00 -.193902489970186D+03
 0.598674810667028D+02 0.113456685487028D+01 0.189978901221319D+02 -.268683497489379D+02
 0.150202177216528D+03 0.719586525073943D+02 0.115886717480627D+03 -.628722123157010D+02
 0.000000000000000D+00 -.000000000000000D+00 0.000000000000000D+00 0.000000000000000D+00
 0.177735321657142D+03 -.730932193622646D+02 -.134884607602759D+03 0.897405620646389D+02
 0.252428585844733D+03 0.000000000000000D+00 0.000000000000000D+00 0.252428585844733D+03
 0.245164123770736D+03 0.000000000000000D+00 0.000000000000000D+00 -.245164123770736D+03
 0.619673314126052D+02 0.162085403559612D+02 0.188500706549757D+02 -.268683497489379D+02
 0.172670032089800D+03 0.111905914117444D+03 0.115494983812983D+03 -.628722123157010D+02
 0.977290992469474D+02 -.974540463135230D+02 0.955660774993678D+00 0.726446207399697D+01
 0.165226246866115D+03 -.306604081598821D+02 -.135300715242953D+03 0.897405620646389D+02
0.814681080293D-05 0.000000000000D+00 0.000000000000D+00 0.804825460689D-09 0.000000000000D+00  6 22 -1 9900012 -11 -2 21 0 0.46655450D-01 0.19073820D-01 0.29468178D+05 0.29468178D+05 0.29468178D+05 0.11635011D+01  1  2  2  1  6  2       -1 0.861341050889D-04 0.100000000000D+01
-.521747530720D-06 0.000000000000D+00 -.156429492939D-07 0.804825460689D-09 0.000000000000D+00  6 22 -1 9900012 -11 -2 21 2 0.46655450D-01 0.19073820D-01 0.29468178D+05 0.29468178D+05 0.29468178D+05 0.11635011D+01  1  2  3  1  6  2       -1 -.746760743251D-05 0.100000000000D+01
-.770875644900D-06 0.000000000000D+00 0.000000000000D+00 0.804825460689D-09 0.000000000000D+00  6 22 -1 9900012 -11 -2 21 2 0.46655450D-01 0.19073820D-01 0.29468178D+05 0.29468178D+05 0.29468178D+05 0.11635011D+01  1  2 15  1  6  2       -1 -.110332993574D-04 0.100000000000D+01
0.141481046349D-06 0.000000000000D+00 0.000000000000D+00 0.804825460689D-09 0.000000000000D+00  6 22 -1 9900012 -11 -2 21 2 0.46655450D-01 0.31395424D-01 0.51267397D+05 0.51267397D+05 0.51267397D+05 0.11420051D+01  1  2 12  1  6  2       -1 0.902846803411D-06 0.100000000000D+01
-.161207472044D-05 0.000000000000D+00 0.000000000000D+00 0.804825460689D-09 0.000000000000D+00  6 22 -1 9900012 -11 -2 21 2 0.46655450D-01 0.19073820D-01 0.29468178D+05 0.29468178D+05 0.29468178D+05 0.11635011D+01  1  2  4  1  6  2       -1 -.230731157415D-04 0.100000000000D+01
0.795615522662D-08 0.000000000000D+00 0.000000000000D+00 0.804825460689D-09 0.000000000000D+00  6 22 21 9900012 -11 1 -2 2 0.46655450D-01 0.31395424D-01 0.51267397D+05 0.51267397D+05 0.51267397D+05 0.11420051D+01  3  4 12  3  5  2       -1 0.539675074415D-06 0.100000000000D+01
  </mgrwgt>
  </event>
  <event>
  6     66 -.92480518E-06 0.34630285E+02 0.78161638E-02 0.11265430E+00
       22 -1    0    0    0    0 0.00000000E+00 0.00000000E+00 0.74542883E+03 0.74542883E+03 0.00000000E+00 0.0000E+00 0.9000E+01
       -1 -1    0    0    0  501 0.00000000E+00 0.00000000E+00 -.24931160E+02 0.24931160E+02 0.00000000E+00 0.0000E+00 0.9000E+01
       24  2    1    2    0    0 0.16660611E+02 -.30359194E+02 0.72923754E+03 0.73464386E+03 0.81944802E+02 0.0000E+00 0.0000E+00
  9900012  1    3    3    0    0 0.27965654E+02 -.81167117E+00 0.47892478E+03 0.48233980E+03 0.50000000E+02 0.0000E+00 0.9000E+01
      -11  1    3    3    0    0 -.11305042E+02 -.29547523E+02 0.25031276E+03 0.25230406E+03 0.00000000E+00 0.0000E+00 0.9000E+01
       -2  1    1    2    0  501 -.16660611E+02 0.30359194E+02 -.87398717E+01 0.35716131E+02 0.00000000E+00 0.0000E+00 0.9000E+01
#aMCatNLO 1  0  0  2  5 0.14214292D+03 0.00000000D+00  -5  6  0 0.00000000D+00 0.00000000D+00 0.00000000D+00 0.00000000D+00 0.00000000D+00
  <mgrwgt>
 -.5295095936D-04    5    4    0
 0.136324631923376D+03 0.000000000000000D+00 0.000000000000000D+00 0.136324631923376D+03
 0.136324631923376D+03 0.000000000000000D+00 0.000000000000000D+00 -.136324631923376D+03
 0.972351584389918D+02 0.279656535041323D+02 -.811671166406946D+00 0.785616920048205D+02
 0.514037384942709D+02 -.113050422753845D+02 -.295475228689847D+02 0.405152346981476D+02
 0.124010366913489D+03 -.166606112287478D+02 0.303591940353917D+02 -.119076926702968D+03
 0.000000000000000D+00 -.000000000000000D+00 -.000000000000000D+00 -.000000000000000D+00
 0.145665328832823D+03 0.000000000000000D+00 0.000000000000000D+00 0.145665328832823D+03
 0.155222417965044D+04 0.000000000000000D+00 0.000000000000000D+00 -.155222417965044D+04
 0.110026614606845D+03 0.546694275865365D+02 0.210990558685283D+02 0.785616920048205D+02
 0.449188131837007D+02 0.110523300717039D+01 -.193647616867877D+02 0.405152346981476D+02
 0.133282574794461D+03 0.164892189951150D+02 0.575589778205648D+02 -.119076926702968D+03
 0.140966150589825D+04 -.722638795888219D+02 -.592932720023054D+02 -.140655885081761D+04
 0.136324631923376D+03 0.000000000000000D+00 0.000000000000000D+00 0.136324631923376D+03
 0.136324631923376D+03 0.000000000000000D+00 0.000000000000000D+00 -.136324631923376D+03
 0.972351584389918D+02 0.279656535041323D+02 -.811671166406946D+00 0.785616920048205D+02
 0.514037384942709D+02 -.113050422753845D+02 -.295475228689847D+02 0.405152346981476D+02
 0.000000000000000D+00 -.000000000000000D+00 -.000000000000000D+00 -.000000000000000D+00
 0.124010366913489D+03 -.166606112287478D+02 0.303591940353917D+02 -.119076926702968D+03
 0.145665328832823D+03 0.000000000000000D+00 0.000000000000000D+00 0.145665328832823D+03
 0.155222417965044D+04 0.000000000000000D+00 0.000000000000000D+00 -.155222417965044D+04
 0.110026614606845D+03 0.546694275865365D+02 0.210990558685283D+02 0.785616920048205D+02
 0.449188131837007D+02 0.110523300717039D+01 -.193647616867877D+02 0.405152346981476D+02
 0.140966150589825D+04 -.722638795888219D+02 -.592932720023054D+02 -.140655885081761D+04
 0.133282574794461D+03 0.164892189951150D+02 0.575589778205648D+02 -.119076926702968D+03
0.772928945433D-06 0.000000000000D+00 0.000000000000D+00 0.153028648984D-05 0.000000000000D+00  6 22 -1 9900012 -11 -2 21 0 0.11468136D+00 0.38355630D-02 0.38168814D+04 0.38168814D+04 0.38168814D+04 0.12552674D+01  1  2  2  1  6  2       -1 0.146978348140D-04 0.100000000000D+01
0.499179167174D-07 0.000000000000D+00 -.148412533366D-08 0.153028648984D-05 0.000000000000D+00  6 22 -1 9900012 -11 -2 21 2 0.11468136D+00 0.38355630D-02 0.38168814D+04 0.38168814D+04 0.38168814D+04 0.12552674D+01  1  2  3  1  6  2       -1 0.149569386998D-05 0.100000000000D+01
-.101130055633D-06 0.000000000000D+00 0.000000000000D+00 0.153028648984D-05 0.000000000000D+00  6 22 -1 9900012 -11 -2 21 2 0.11468136D+00 0.38355630D-02 0.38168814D+04 0.38168814D+04 0.38168814D+04 0.12552674D+01  1  2 15  1  6  2       -1 -.303016660608D-05 0.100000000000D+01
-.229316370936D-04 0.000000000000D+00 -.608431611062D-06 0.153028648984D-05 0.000000000000D+00  6 22 -1 9900012 -11 -2 21 2 0.11468136D+00 0.45300911D-01 0.38168814D+04 0.38168814D+04 0.38168814D+04 0.12552674D+01  1  2  5  1  6  2       -1 -.167823463103D-04 0.100000000000D+01
-.671750018485D-05 0.000000000000D+00 -.175216937335D-06 0.153028648984D-05 0.000000000000D+00  6 22 21 9900012 -11 1 -2 2 0.11468136D+00 0.45300911D-01 0.38168814D+04 0.38168814D+04 0.38168814D+04 0.12552674D+01  3  4  5  3  5  2       -1 -.493319751314D-04 0.100000000000D+01
  </mgrwgt>
  </event>
  <event>
  7     66 -.92480518E-06 0.41017523E+02 0.78161638E-02 0.12225005E+00
       22 -1    0    0    0    0 0.00000000E+00 0.00000000E+00 0.19486307E+03 0.19486307E+03 0.00000000E+00 0.0000E+00 0.9000E+01
       -1 -1    0    0    0  502 0.00000000E+00 0.00000000E+00 -.70373698E+02 0.70373698E+02 0.00000000E+00 0.0000E+00 0.9000E+01
       24  2    1    2    0    0 -.15544115E+02 -.46247569E+02 0.16976533E+03 0.19497534E+03 0.82550939E+02 0.0000E+00 0.0000E+00
  9900012  1    3    3    0    0 0.75544635E+01 -.50132991E+02 0.14028862E+03 0.15732541E+03 0.50000000E+02 0.0000E+00 0.9000E+01
      -11  1    3    3    0    0 -.23098578E+02 0.38854227E+01 0.29476715E+02 0.37649934E+02 0.00000000E+00 0.0000E+00 0.9000E+01
       -2  1    1    2    0  501 0.17657403E+02 0.40426113E+02 -.46337140E+02 0.63978004E+02 0.00000000E+00 0.0000E+00 0.9000E+01
       21  1    1    2  501  502 -.21132881E+01 0.58214563E+01 0.10611810E+01 0.62834262E+01 0.00000000E+00 0.0000E+00 0.9000E+01
#aMCatNLO 2  0  0  2  5 0.76050405D+01 0.00000000D+00  -5  6  0 0.00000000D+00 0.00000000D+00 0.00000000D+00 0.00000000D+00 0.00000000D+00
  <mgrwgt>
 -.4197114236D-04    3    2    0
 0.113780446605128D+03 0.000000000000000D+00 0.000000000000000D+00 0.113780446605128D+03
 0.113780446605128D+03 0.000000000000000D+00 0.000000000000000D+00 -.113780446605128D+03
 0.101584051141818D+03 0.660515540477768D+01 -.475179408561243D+02 0.742814691915564D+02
 0.271696570228107D+02 -.233493441335567D+02 0.457620589533485D+01 0.131170397145625D+02
 0.988071850456261D+02 0.167441887287790D+02 0.429417349607895D+02 -.873985089061189D+02
 0.000000000000000D+00 -.000000000000000D+00 0.000000000000000D+00 -.000000000000000D+00
 0.116008827476042D+03 0.000000000000000D+00 0.000000000000000D+00 0.116008827476042D+03
 0.118208547443194D+03 0.000000000000000D+00 0.000000000000000D+00 -.118208547443194D+03
 0.102898607463037D+03 0.755446347311285D+01 -.501329914747699D+02 0.742814691915564D+02
 0.268458106152861D+02 -.230985780314648D+02 0.388542271094565D+01 0.131170397145625D+02
 0.979007344248685D+02 0.176574026723615D+02 0.404261125113679D+02 -.873985089061189D+02
 0.657222241604489D+01 -.211328811400960D+01 0.582145625245631D+01 -.219971996715172D+01
-.664314453065D-06 0.000000000000D+00 0.000000000000D+00 0.345956664564D-06 0.000000000000D+00  6 22 -1 9900012 -11 -2 21 2 0.29403077D-01 0.11038763D-01 0.52516840D+04 0.52516840D+04 0.52516840D+04 0.12394512D+01  1  2 13  1  6  2       -1 -.453388666371D-04 0.100000000000D+01
-.318920355151D-07 0.000000000000D+00 0.000000000000D+00 0.345956664564D-06 0.000000000000D+00  6 22 -1 9900012 -11 -2 21 2 0.29403077D-01 0.10421153D-01 0.48426150D+04 0.48426150D+04 0.48426150D+04 0.12434130D+01  1  2  8  1  6  2       -1 -.236672176448D-05 0.100000000000D+01
0.841251796060D-07 0.000000000000D+00 0.000000000000D+00 0.345956664564D-06 0.150336322312D-07  6 22 -1 9900012 -11 -2 21 2 0.29978934D-01 0.10826723D-01 0.52516840D+04 0.52516840D+04 0.52516840D+04 0.12394512D+01  1  2  1  1  6  2       -1 0.573444603919D-05 0.100000000000D+01
  </mgrwgt>
  </event>
  <event>
  7     66 0.92480518E-06 0.40102408E+02 0.78161638E-02 0.11850634E+00
       22 -1    0    0    0    0 0.00000000E+00 0.00000000E+00 0.33975458E+03 0.33975458E+03 0.00000000E+00 0.0000E+00 0.9000E+01
       21 -1    0    0  502  501 0.00000000E+00 0.00000000E+00 -.35191897E+02 0.35191897E+02 0.00000000E+00 0.0000E+00 0.9000E+01
       24  2    1    2    0    0 -.45089021E+02 -.23911738E+02 0.25468139E+03 0.27175676E+03 0.79902013E+02 0.0000E+00 0.0000E+00
  9900012  1    3    3    0    0 -.23471669E+02 -.32292692E+02 0.22596663E+03 0.23485028E+03 0.50000000E+02 0.0000E+00 0.9000E+01
      -11  1    3    3    0    0 -.21617351E+02 0.83809537E+01 0.28714767E+02 0.36906478E+02 0.00000000E+00 0.0000E+00 0.9000E+01
        1  1    1    2  502    0 0.25350874E+02 0.50811921E+02 0.28224585E+02 0.63412502E+02 0.00000000E+00 0.0000E+00 0.9000E+01
       -2  1    1    2    0  501 0.19738146E+02 -.26900183E+02 0.21656706E+02 0.39777219E+02 0.00000000E+00 0.0000E+00 0.9000E+01
#aMCatNLO 2  0  0  2  5 0.14923259D+02 0.00000000D+00  -5  6  0 0.00000000D+00 0.00000000D+00 0.00000000D+00 0.00000000D+00 0.00000000D+00
  <mgrwgt>
 0.9287943561D-05    1    2    0
 0.660797911125161D+02 0.000000000000000D+00 0.000000000000000D+00 0.660797911125161D+02
 0.660797911125161D+02 0.000000000000000D+00 0.000000000000000D+00 -.660797911125161D+02
 0.642009606712502D+02 -.107291458218999D+02 -.675226691853575D+01 0.382237579589537D+02
 0.260327041329450D+02 -.169513265120642D+02 0.177332816884278D+02 -.871119592901648D+01
 0.000000000000000D+00 0.000000000000000D+00 0.000000000000000D+00 -.000000000000000D+00
 0.419259174208369D+02 0.276804723339642D+02 -.109810147698920D+02 -.295125620299372D+02
 0.831323011754548D+02 0.000000000000000D+00 0.000000000000000D+00 0.831323011754548D+02
 0.143826263582112D+03 0.000000000000000D+00 0.000000000000000D+00 -.143826263582112D+03
 0.745304828940730D+02 -.234716693742964D+02 -.322926918156841D+02 0.382237579589537D+02
 0.247676241012412D+02 -.216173514762519D+02 0.838095366046496D+01 -.871119592901648D+01
 0.831160349816283D+02 0.253508744830982D+02 0.508119214494867D+02 -.606939624066567D+02
 0.445444227806239D+02 0.197381463674501D+02 -.269001832942676D+02 -.295125620299372D+02
0.756964085817D-08 0.000000000000D+00 0.000000000000D+00 0.505802170736D-06 0.124229781501D-09  6 22 21 9900012 -11 1 -2 2 0.52269936D-01 0.54141380D-02 0.78603436D+04 0.78603436D+04 0.78603436D+04 0.12203256D+01  1  2  1  3  5  2       -1 0.928794356080D-05 0.100000000000D+01
  </mgrwgt>
  </event>
  <event>
  6     66 0.92480518E-06 0.41425405E+02 0.78161638E-02 0.12529662E+00
       22 -1    0    0    0    0 0.00000000E+00 0.00000000E+00 0.19671006E+04 0.19671006E+04 0.00000000E+00 0.0000E+00 0.9000E+01
       -3 -1    0    0    0  501 0.00000000E+00 0.00000000E+00 -.85230413E+01 0.85230413E+01 0.00000000E+00 0.0000E+00 0.9000E+01
       24  2    1    2    0    0 -.46649029E+02 0.92315888E+01 0.18889236E+04 0.18912849E+04 0.81637971E+02 0.0000E+00 0.0000E+00
  9900012  1    3    3    0    0 -.29711744E+02 0.12079927E+02 0.17820676E+04 0.17830574E+04 0.50000000E+02 0.0000E+00 0.9000E+01
      -11  1    3    3    0    0 -.16937285E+02 -.28483378E+01 0.10685603E+03 0.10822752E+03 0.00000000E+00 0.0000E+00 0.9000E+01
       -4  1    1    2    0  501 0.46649029E+02 -.92315888E+01 0.69653981E+02 0.84338789E+02 0.00000000E+00 0.0000E+00 0.9000E+01
#aMCatNLO 1  0  0  5  2 0.64428277D+00 0.00000000D+00  -5  6  0 0.00000000D+00 0.00000000D+00 0.00000000D+00 0.00000000D+00 0.00000000D+00
  <mgrwgt>
 0.7698834712D-04    6    2    0
 0.129482353632695D+03 0.000000000000000D+00 0.000000000000000D+00 0.129482353632695D+03
 0.129482353632695D+03 -.000000000000000D+00 -.000000000000000D+00 -.129482353632695D+03
 0.124853757061736D+03 -.297117440297619D+02 0.120799266339527D+02 0.109816885275713D+03
 0.174966787721001D+02 -.169372852909214D+02 -.284833783005289D+01 -.333902779771052D+01
 0.116614271431554D+03 0.466490293206832D+02 -.923158880389979D+01 -.106477857478003D+03
 0.000000000000000D+00 0.000000000000000D+00 0.000000000000000D+00 -.000000000000000D+00
 0.129482353632695D+03 0.000000000000000D+00 0.000000000000000D+00 0.129482353632695D+03
 0.129482353632695D+03 -.000000000000000D+00 -.000000000000000D+00 -.129482353632695D+03
 0.124850602841146D+03 -.297103512813033D+02 0.120796510166191D+02 0.109813706284124D+03
 0.174965811467637D+02 -.169370901128763D+02 -.284837645472487D+01 -.333947329765701D+01
 0.513736293606382D+02 0.209591661957451D+02 -.451320190320713D+01 -.466861237911679D+02
 0.652438939168419D+02 0.256882751984345D+02 -.471807265868707D+01 -.597881091952988D+02
0.229107499141D-06 0.000000000000D+00 0.000000000000D+00 0.160273764155D-05 0.000000000000D+00  6 22 -3 9900012 -11 -4 21 0 0.30263087D+00 0.13112371D-02 0.38521748D+04 0.38521748D+04 0.38521748D+04 0.12548026D+01  1  2  2  2  6  5       -4 0.166831884980D-05 0.100000000000D+01
0.387874801791D-08 0.000000000000D+00 -.439916561046D-09 0.160273764155D-05 0.000000000000D+00  6 22 -3 9900012 -11 -4 21 2 0.30263087D+00 0.13112371D-02 0.38521748D+04 0.38521748D+04 0.38521748D+04 0.12548026D+01  1  2  3  2  6  5       -4 0.444715389765D-07 0.100000000000D+01
-.306583995955D-07 0.000000000000D+00 0.000000000000D+00 0.160273764155D-05 0.000000000000D+00  6 22 -3 9900012 -11 -4 21 2 0.30263087D+00 0.13112371D-02 0.38521748D+04 0.38521748D+04 0.38521748D+04 0.12548026D+01  1  2 15  2  6  5       -4 -.351511932787D-06 0.100000000000D+01
0.836407936223D-11 0.000000000000D+00 0.000000000000D+00 0.160273764155D-05 0.000000000000D+00  6 22 -3 9900012 -11 -4 21 2 0.30263087D+00 0.13112371D-02 0.38523549D+04 0.38523549D+04 0.38523549D+04 0.12548003D+01  1  2 12  2  6  5       -4 0.958979810625D-10 0.100000000000D+01
-.147855054707D-03 0.000000000000D+00 0.000000000000D+00 0.160273764155D-05 0.000000000000D+00  6 22 -3 9900012 -11 -4 21 2 0.30263087D+00 0.13112371D-02 0.38521748D+04 0.38521748D+04 0.38521748D+04 0.12548026D+01  1  2  5  2  6  5       -4 -.169522273629D-02 0.100000000000D+01
0.154450879372D-03 0.000000000000D+00 0.000000000000D+00 0.160273764155D-05 0.890758909026D-05  6 22 -3 9900012 -11 -4 21 2 0.30263087D+00 0.13112371D-02 0.38523549D+04 0.38523549D+04 0.38523549D+04 0.12548003D+01  1  2 11  2  6  5       -4 0.177084970906D-02 0.100000000000D+01
  </mgrwgt>
  </event>
  <event>
  6     66 0.92480518E-06 0.84710150E+02 0.78161638E-02 0.11464415E+00
       22 -1    0    0    0    0 0.00000000E+00 0.00000000E+00 0.68569805E+03 0.68569805E+03 0.00000000E+00 0.0000E+00 0.9000E+01
       -3 -1    0    0    0  501 0.00000000E+00 0.00000000E+00 -.22725746E+02 0.22725746E+02 0.00000000E+00 0.0000E+00 0.9000E+01
       24  2    1    2    0    0 -.70290996E+02 -.47275632E+02 0.57008366E+03 0.58270940E+03 0.85901430E+02 0.0000E+00 0.0000E+00
  9900012  1    3    3    0    0 -.50275221E+02 -.63200010E+02 0.44010034E+03 0.45023344E+03 0.50000000E+02 0.0000E+00 0.9000E+01
      -11  1    3    3    0    0 -.20015775E+02 0.15924378E+02 0.12998332E+03 0.13247596E+03 0.00000000E+00 0.0000E+00 0.9000E+01
       -4  1    1    2    0  501 0.70290996E+02 0.47275632E+02 0.92888648E+02 0.12571440E+03 0.00000000E+00 0.0000E+00 0.9000E+01
#aMCatNLO 1  0  0  5  5 0.72904041D+02 0.00000000D+00  -5  6  0 0.00000000D+00 0.00000000D+00 0.00000000D+00 0.00000000D+00 0.00000000D+00
  <mgrwgt>
 0.4158707697D-04    3    2    0
 0.124831885685318D+03 0.000000000000000D+00 0.000000000000000D+00 0.124831885685318D+03
 0.124831885685318D+03 -.000000000000000D+00 -.000000000000000D+00 -.124831885685318D+03
 0.108873403245898D+03 -.502752207158973D+02 -.632000100081934D+02 0.532125817009104D+02
 0.307364688806815D+02 -.200157748095934D+02 0.159243778731764D+02 0.170444556198500D+02
 0.110053899244056D+03 0.702909955254907D+02 0.472756321350170D+02 -.702570373207604D+02
 0.000000000000000D+00 0.000000000000000D+00 -.000000000000000D+00 0.000000000000000D+00
 0.124831885685318D+03 0.000000000000000D+00 0.000000000000000D+00 0.124831885685318D+03
 0.124831885685318D+03 -.000000000000000D+00 -.000000000000000D+00 -.124831885685318D+03
 0.712664457390699D+02 -.186959809068531D+02 -.419607529290352D+02 0.216485981033147D+02
 0.257567464449827D+02 -.101122870227130D+02 0.225851690878407D+02 0.714575229594807D+01
 0.751849771612950D+02 0.462981910608917D+01 0.713271980672563D+02 0.233190133081082D+02
 0.774556020252878D+02 0.241784488234769D+02 -.519516142260618D+02 -.521133637073710D+02
0.202880178692D-05 0.000000000000D+00 0.000000000000D+00 0.257941778828D-07 0.000000000000D+00  6 22 -3 9900012 -11 -4 21 0 0.10549201D+00 0.34962686D-02 0.10534064D+05 0.10534064D+05 0.10534064D+05 0.12069951D+01  1  2  2  2  6  5       -4 0.518151467463D-04 0.100000000000D+01
-.119932226695D-07 0.000000000000D+00 -.389556652877D-08 0.257941778828D-07 0.000000000000D+00  6 22 -3 9900012 -11 -4 21 2 0.10549201D+00 0.34962686D-02 0.10534064D+05 0.10534064D+05 0.10534064D+05 0.12069951D+01  1  2  3  2  6  5       -4 -.446235409243D-06 0.100000000000D+01
-.262900960421D-06 0.000000000000D+00 0.000000000000D+00 0.257941778828D-07 0.000000000000D+00  6 22 -3 9900012 -11 -4 21 2 0.10549201D+00 0.34962686D-02 0.10534064D+05 0.10534064D+05 0.10534064D+05 0.12069951D+01  1  2 15  2  6  5       -4 -.978183436570D-05 0.100000000000D+01
  </mgrwgt>
  </event>
  <event>
  6     66 0.92480518E-06 0.50351902E+02 0.78161638E-02 0.11710170E+00
       22 -1    0    0    0    0 0.00000000E+00 0.00000000E+00 0.94589165E+03 0.94589165E+03 0.00000000E+00 0.0000E+00 0.9000E+01
       -1 -1    0    0    0  501 0.00000000E+00 0.00000000E+00 -.13869884E+02 0.13869884E+02 0.00000000E+00 0.0000E+00 0.9000E+01
       24  2    1    2    0    0 -.15096518E+02 -.48035499E+02 0.88735118E+03 0.89245050E+03 0.80873126E+02 0.0000E+00 0.0000E+00
  9900012  1    3    3    0    0 0.11337583E+01 -.54813977E+02 0.79377711E+03 0.79723770E+03 0.50000000E+02 0.0000E+00 0.9000E+01
      -11  1    3    3    0    0 -.16230276E+02 0.67784777E+01 0.93574070E+02 0.95212795E+02 0.00000000E+00 0.0000E+00 0.9000E+01
       -2  1    1    2    0  501 0.15096518E+02 0.48035499E+02 0.44670583E+02 0.67311032E+02 0.00000000E+00 0.0000E+00 0.9000E+01
#aMCatNLO 1  0  0  2  5 0.58319141D+02 0.00000000D+00  -5  6  0 0.00000000D+00 0.00000000D+00 0.00000000D+00 0.00000000D+00 0.00000000D+00
  <mgrwgt>
 0.4788298198D-04    7    4    0
 0.114539981425796D+03 0.000000000000000D+00 0.000000000000000D+00 0.114539981425796D+03
 0.114539981425796D+03 0.000000000000000D+00 0.000000000000000D+00 -.114539981425796D+03
 0.110618746900134D+03 0.113375830297723D+01 -.548139768981973D+02 0.820405368977450D+02
 0.181967354510978D+02 -.162302758468040D+02 0.677847766753502D+01 0.466385757979600D+01
 0.100264480500360D+03 0.150965175438268D+02 0.480354992306623D+02 -.867043944775410D+02
 0.000000000000000D+00 0.000000000000000D+00 0.000000000000000D+00 -.000000000000000D+00
 0.129865649535997D+03 0.000000000000000D+00 0.000000000000000D+00 0.129865649535997D+03
 0.168827068167879D+03 0.000000000000000D+00 0.000000000000000D+00 -.168827068167879D+03
 0.124553718234365D+03 -.820228269067339D+01 -.788397208911696D+02 0.820405368977450D+02
 0.185417112587519D+02 -.176887443980863D+02 0.302519594364999D+01 0.466385757979600D+01
 0.915553814224960D+02 0.748151851201417D+01 0.284387539539987D+02 -.867043944775410D+02
 0.640419067882633D+02 0.184095085767455D+02 0.473757709935209D+02 -.389614186318826D+02
 0.114539981425796D+03 0.000000000000000D+00 0.000000000000000D+00 0.114539981425796D+03
 0.114539981425796D+03 0.000000000000000D+00 0.000000000000000D+00 -.114539981425796D+03
 0.110618746900134D+03 0.113375830297723D+01 -.548139768981973D+02 0.820405368977450D+02
 0.181967354510978D+02 -.162302758468040D+02 0.677847766753502D+01 0.466385757979600D+01
 0.000000000000000D+00 0.000000000000000D+00 0.000000000000000D+00 -.000000000000000D+00
 0.100264480500360D+03 0.150965175438268D+02 0.480354992306623D+02 -.867043944775410D+02
 0.129865649535997D+03 0.000000000000000D+00 0.000000000000000D+00 0.129865649535997D+03
 0.168827068167879D+03 0.000000000000000D+00 0.000000000000000D+00 -.168827068167879D+03
 0.124553718234365D+03 -.820228269067339D+01 -.788397208911696D+02 0.820405368977450D+02
 0.185417112587519D+02 -.176887443980863D+02 0.302519594364999D+01 0.466385757979600D+01
 0.640419067882633D+02 0.184095085767455D+02 0.473757709935209D+02 -.389614186318826D+02
 0.915553814224960D+02 0.748151851201417D+01 0.284387539539987D+02 -.867043944775410D+02
0.149386232737D-05 0.000000000000D+00 0.000000000000D+00 0.153293132547D-05 0.000000000000D+00  6 22 -1 9900012 -11 -2 21 0 0.14552179D+00 0.21338283D-02 0.50511065D+04 0.50511065D+04 0.50511065D+04 0.12413485D+01  1  2  2  1  6  2       -1 0.407539653448D-04 0.100000000000D+01
0.322556616266D-07 0.000000000000D+00 -.286841234004D-08 0.153293132547D-05 0.000000000000D+00  6 22 -1 9900012 -11 -2 21 2 0.14552179D+00 0.21338283D-02 0.50511065D+04 0.50511065D+04 0.50511065D+04 0.12413485D+01  1  2  3  1  6  2       -1 0.135597823462D-05 0.100000000000D+01
-.185519708051D-06 0.000000000000D+00 0.000000000000D+00 0.153293132547D-05 0.000000000000D+00  6 22 -1 9900012 -11 -2 21 2 0.14552179D+00 0.21338283D-02 0.50511065D+04 0.50511065D+04 0.50511065D+04 0.12413485D+01  1  2 15  1  6  2       -1 -.779896221391D-05 0.100000000000D+01
-.983513514735D-07 0.000000000000D+00 0.000000000000D+00 0.153293132547D-05 0.000000000000D+00  6 22 -1 9900012 -11 -2 21 2 0.14552179D+00 0.21338283D-02 0.50511065D+04 0.50511065D+04 0.50511065D+04 0.12413485D+01  1  2  4  1  6  2       -1 -.413453903030D-05 0.100000000000D+01
-.822110898980D-06 0.000000000000D+00 -.510568292282D-06 0.153293132547D-05 0.000000000000D+00  6 22 -1 9900012 -11 -2 21 2 0.14552179D+00 0.35773634D-02 0.50511065D+04 0.50511065D+04 0.50511065D+04 0.12413485D+01  1  2  5  1  6  2       -1 -.166703532464D-04 0.100000000000D+01
0.100946220146D-05 0.000000000000D+00 0.449249973627D-06 0.153293132547D-05 0.000000000000D+00  6 22 -1 9900012 -11 -2 21 2 0.14552179D+00 0.21338283D-02 0.50511065D+04 0.50511065D+04 0.50511065D+04 0.12413485D+01  1  2  6  1  6  2       -1 0.424362330464D-04 0.100000000000D+01
-.237040359705D-07 0.000000000000D+00 -.295531658867D-07 0.153293132547D-05 0.000000000000D+00  6 22 21 9900012 -11 1 -2 2 0.14552179D+00 0.35773634D-02 0.50511065D+04 0.50511065D+04 0.50511065D+04 0.12413485D+01  3  4  5  3  5  2       -1 -.805934015859D-05 0.100000000000D+01
  </mgrwgt>
  </event>
  <event>
  7     66 -.92480518E-06 0.19288990E+02 0.78161638E-02 0.12839004E+00
       22 -1    0    0    0    0 0.00000000E+00 0.00000000E+00 0.13627101E+02 0.13627101E+02 0.00000000E+00 0.0000E+00 0.9000E+01
       -1 -1    0    0    0  501 -.00000000E+00 -.00000000E+00 -.54518878E+03 0.54518878E+03 0.00000000E+00 0.0000E+00 0.9000E+01
       24  2    1    2    0    0 0.64914219E+01 0.21752079E+02 -.12352000E+03 0.14808182E+03 0.78458544E+02 0.0000E+00 0.0000E+00
  9900012  1    3    3    0    0 0.22317230E+02 0.47665899E+01 -.10449055E+03 0.11806377E+03 0.50000000E+02 0.0000E+00 0.9000E+01
      -11  1    3    3    0    0 -.15825808E+02 0.16985489E+02 -.19029442E+02 0.30018040E+02 0.00000000E+00 0.0000E+00 0.9000E+01
       -2  1    1    2    0  502 -.12082303E+02 -.18895525E+02 -.39952143E+03 0.40015046E+03 0.00000000E+00 0.0000E+00 0.9000E+01
       21  1    1    2  502  501 0.55908815E+01 -.28565546E+01 -.85202536E+01 0.10583600E+02 0.00000000E+00 0.0000E+00 0.9000E+01
#aMCatNLO 2  0  0  5  2 0.12845183D+02 0.00000000D+00  -5  6  0 0.00000000D+00 0.00000000D+00 0.00000000D+00 0.00000000D+00 0.00000000D+00
  <mgrwgt>
 -.3083630668D-04    3    2    0
 0.861936339492549D+02 0.000000000000000D+00 0.000000000000000D+00 0.861936339492549D+02
 0.861936339492549D+02 -.000000000000000D+00 -.000000000000000D+00 -.861936339492549D+02
 0.627935929819632D+02 0.228189050727050D+02 0.644764957817448D+01 0.296776128720692D+02
 0.412544427523461D+02 -.155008157304472D+02 0.180745062193217D+02 0.336892562017184D+02
 0.683392321642004D+02 -.731808934225775D+01 -.245221557974962D+02 -.633668690737876D+02
 0.000000000000000D+00 0.000000000000000D+00 0.000000000000000D+00 0.000000000000000D+00
 0.861936339492549D+02 0.000000000000000D+00 0.000000000000000D+00 0.861936339492549D+02
 0.861936339492549D+02 -.000000000000000D+00 -.000000000000000D+00 -.861936339492549D+02
 0.605191923970441D+02 0.223172303697514D+02 0.476658985751058D+01 0.253336436018224D+02
 0.386295078583906D+02 -.158258084477086D+02 0.169854894455422D+02 0.308751649817983D+02
 0.652029205542470D+02 -.120823034255147D+02 -.188955246904360D+02 -.612241614022631D+02
 0.803564708882807D+01 0.559088150347194D+01 -.285655461261678D+01 0.501535281864239D+01
-.310237862465D-06 0.000000000000D+00 0.000000000000D+00 0.417534929157D-06 0.000000000000D+00  6 22 -1 9900012 -11 -2 21 2 0.20964771D-02 0.83875197D-01 0.28560329D+04 0.28560329D+04 0.28560329D+04 0.12701956D+01  1  2 13  2  6  5       -2 -.315774317480D-04 0.100000000000D+01
-.440519428316D-10 0.000000000000D+00 0.000000000000D+00 0.417534929157D-06 0.000000000000D+00  6 22 -1 9900012 -11 -2 21 2 0.20964771D-02 0.83875197D-01 0.27425980D+04 0.27425980D+04 0.27425980D+04 0.12723270D+01  1  2  8  2  6  5       -2 -.448416917743D-08 0.100000000000D+01
0.732536508887D-08 0.000000000000D+00 0.000000000000D+00 0.417534929157D-06 0.625313484016D-09  6 22 -1 9900012 -11 -2 21 2 0.20964771D-02 0.83875197D-01 0.28560329D+04 0.28560329D+04 0.28560329D+04 0.12701956D+01  1  2  1  2  6  5       -2 0.745609237651D-06 0.100000000000D+01
  </mgrwgt>
  </event>
  <event>
  7     66 -.92480518E-06 0.36245778E+02 0.78161638E-02 0.12484666E+00
       22 -1    0    0    0    0 0.00000000E+00 0.00000000E+00 0.26835174E+01 0.26835174E+01 0.00000000E+00 0.0000E+00 0.9000E+01
       -1 -1    0    0    0  502 0.00000000E+00 0.00000000E+00 -.25731362E+04 0.25731362E+04 0.00000000E+00 0.0000E+00 0.9000E+01
       24  2    1    2    0    0 -.28763899E+02 0.20403334E+02 -.80096085E+03 0.80576128E+03 0.80432020E+02 0.0000E+00 0.0000E+00
  9900012  1    3    3    0    0 -.42692710E+02 0.34844665E+01 -.61448725E+03 0.61800436E+03 0.50000000E+02 0.0000E+00 0.9000E+01
      -11  1    3    3    0    0 0.13928811E+02 0.16918868E+02 -.18647360E+03 0.18775693E+03 0.00000000E+00 0.0000E+00 0.9000E+01
       -2  1    1    2    0  501 0.30308362E+02 -.21618283E+02 -.17583884E+04 0.17587825E+04 0.00000000E+00 0.0000E+00 0.9000E+01
       21  1    1    2  501  502 -.15444630E+01 0.12149490E+01 -.11103367E+02 0.11275914E+02 0.00000000E+00 0.0000E+00 0.9000E+01
#aMCatNLO 2  0  0  2  5 0.56929029D+01 0.00000000D+00  -5  6  0 0.00000000D+00 0.00000000D+00 0.00000000D+00 0.00000000D+00 0.00000000D+00
  <mgrwgt>
 -.1455073044D-05    3    2    0
 0.815661399949509D+02 0.000000000000000D+00 0.000000000000000D+00 0.815661399949509D+02
 0.815661399949509D+02 0.000000000000000D+00 0.000000000000000D+00 -.815661399949509D+02
 0.752879868494994D+02 -.434034146501874D+02 0.404354132202795D+01 0.356100313694237D+02
 0.261065702703727D+02 0.136816356946493D+02 0.171133078049203D+02 0.141950890090502D+02
 0.617377228700298D+02 0.297217789555381D+02 -.211568491269483D+02 -.498051203784739D+02
 0.000000000000000D+00 -.000000000000000D+00 0.000000000000000D+00 0.000000000000000D+00
 0.842816553986924D+02 0.000000000000000D+00 0.000000000000000D+00 0.842816553986924D+02
 0.819283342331977D+02 0.000000000000000D+00 0.000000000000000D+00 -.819283342331977D+02
 0.748524100521334D+02 -.426927095620151D+02 0.348446649213295D+01 0.356100313694237D+02
 0.261105422321744D+02 0.139288107941632D+02 0.169188679746520D+02 0.141950890090502D+02
 0.621811626625095D+02 0.303083618092275D+02 -.216182834329684D+02 -.498051203784739D+02
 0.306587468507283D+01 -.154446304137558D+01 0.121494896618338D+01 0.235332116549469D+01
-.127291606552D-05 0.000000000000D+00 0.000000000000D+00 0.565964060996D-06 0.000000000000D+00  6 22 -1 9900012 -11 -2 21 2 0.39954703D-03 0.40904639D+00 0.40289149D+04 0.40289149D+04 0.40289149D+04 0.12525452D+01  1  2 13  1  6  2       -1 -.150479785213D-05 0.100000000000D+01
-.165033626231D-06 0.000000000000D+00 0.000000000000D+00 0.565964060996D-06 0.000000000000D+00  6 22 -1 9900012 -11 -2 21 2 0.39954703D-03 0.39411703D+00 0.38892047D+04 0.38892047D+04 0.38892047D+04 0.12543202D+01  1  2  8  1  6  2       -1 -.315439803712D-06 0.100000000000D+01
0.210510083708D-06 0.000000000000D+00 0.000000000000D+00 0.565964060996D-06 0.135602853869D-07  6 22 -1 9900012 -11 -2 21 2 0.41284883D-03 0.39586710D+00 0.40289149D+04 0.40289149D+04 0.40289149D+04 0.12525452D+01  1  2  1  1  6  2       -1 0.365164612058D-06 0.100000000000D+01
  </mgrwgt>
  </event>
  <event>
  6     66 0.92480518E-06 0.44023650E+02 0.78161638E-02 0.11374298E+00
       22 -1    0    0    0    0 0.00000000E+00 0.00000000E+00 0.63847249E+02 0.63847249E+02 0.00000000E+00 0.0000E+00 0.9000E+01
       -1 -1    0    0    0  501 0.00000000E+00 0.00000000E+00 -.10877695E+04 0.10877695E+04 0.00000000E+00 0.0000E+00 0.9000E+01
       24  2    1    2    0    0 0.88049502E+02 -.42641325E+02 -.39224421E+01 0.12693601E+03 0.80785944E+02 0.0000E+00 0.0000E+00
  9900012  1    3    3    0    0 0.48077645E+02 -.10451183E+02 -.20365650E+02 0.73044144E+02 0.50000000E+02 0.0000E+00 0.9000E+01
      -11  1    3    3    0    0 0.39971857E+02 -.32190142E+02 0.16443208E+02 0.53891871E+02 0.00000000E+00 0.0000E+00 0.9000E+01
       -2  1    1    2    0  501 -.88049502E+02 0.42641325E+02 -.10199998E+04 0.10246807E+04 0.00000000E+00 0.0000E+00 0.9000E+01
#aMCatNLO 1  0  0  2  5 0.18545980D+02 0.00000000D+00  -5  6  0 0.00000000D+00 0.00000000D+00 0.00000000D+00 0.00000000D+00 0.00000000D+00
  <mgrwgt>
 0.1524186921D-03    9    4    0
 0.263535747886843D+03 0.000000000000000D+00 0.000000000000000D+00 0.263535747886843D+03
 0.263535747886843D+03 0.000000000000000D+00 0.000000000000000D+00 -.263535747886843D+03
 0.120033083702486D+03 0.480776453468694D+02 -.104511826914704D+02 0.974025358056866D+02
 0.149693824907797D+03 0.399718570653662D+02 -.321901422387690D+02 0.140621074526260D+03
 0.257344587163404D+03 -.880495024122356D+02 0.426413249302394D+02 -.238023610331947D+03
 0.000000000000000D+00 0.000000000000000D+00 -.000000000000000D+00 -.000000000000000D+00
 0.269957895569132D+03 0.000000000000000D+00 0.000000000000000D+00 0.269957895569132D+03
 0.270839017233270D+03 0.000000000000000D+00 0.000000000000000D+00 -.270839017233270D+03
 0.118825647198615D+03 0.452217884209250D+02 -.934185756714576D+01 0.974025358056866D+02
 0.148488054824914D+03 0.364067171886984D+02 -.308053042236043D+02 0.140621074526260D+03
 0.259931251376101D+03 -.942341864744163D+02 0.450436950748565D+02 -.238023610331947D+03
 0.135519594027720D+02 0.126056808647929D+02 -.489653328410645D+01 -.881121664137982D+00
 0.263535747886843D+03 0.000000000000000D+00 0.000000000000000D+00 0.263535747886843D+03
 0.263535747886843D+03 0.000000000000000D+00 0.000000000000000D+00 -.263535747886843D+03
 0.120033083702486D+03 0.480776453468694D+02 -.104511826914704D+02 0.974025358056866D+02
 0.149693824907797D+03 0.399718570653662D+02 -.321901422387690D+02 0.140621074526260D+03
 0.000000000000000D+00 0.000000000000000D+00 -.000000000000000D+00 -.000000000000000D+00
 0.257344587163404D+03 -.880495024122356D+02 0.426413249302394D+02 -.238023610331947D+03
 0.269957895569132D+03 0.000000000000000D+00 0.000000000000000D+00 0.269957895569132D+03
 0.270839017233270D+03 0.000000000000000D+00 0.000000000000000D+00 -.270839017233270D+03
 0.118825647198615D+03 0.452217884209250D+02 -.934185756714576D+01 0.974025358056866D+02
 0.148488054824914D+03 0.364067171886984D+02 -.308053042236043D+02 0.140621074526260D+03
 0.135519594027720D+02 0.126056808647929D+02 -.489653328410645D+01 -.881121664137982D+00
 0.259931251376101D+03 -.942341864744163D+02 0.450436950748565D+02 -.238023610331947D+03
0.252142149568D-04 0.000000000000D+00 0.000000000000D+00 0.193681670828D-04 0.000000000000D+00  6 22 -1 9900012 -11 -2 21 0 0.98226537D-02 0.16734916D+00 0.12023249D+05 0.12023249D+05 0.12023249D+05 0.12011237D+01  1  2  2  1  6  2       -1 0.390635198561D-04 0.100000000000D+01
0.275422816433D-06 0.000000000000D+00 -.484146122447D-07 0.193681670828D-04 0.000000000000D+00  6 22 -1 9900012 -11 -2 21 2 0.98226537D-02 0.16734916D+00 0.12023249D+05 0.12023249D+05 0.12023249D+05 0.12011237D+01  1  2  3  1  6  2       -1 0.615603833760D-06 0.100000000000D+01
-.435616483870D-05 0.000000000000D+00 0.000000000000D+00 0.193681670828D-04 0.000000000000D+00  6 22 -1 9900012 -11 -2 21 2 0.98226537D-02 0.16734916D+00 0.12023249D+05 0.12023249D+05 0.12023249D+05 0.12011237D+01  1  2 15  1  6  2       -1 -.973656362214D-05 0.100000000000D+01
0.316004652003D-04 0.000000000000D+00 0.000000000000D+00 0.193681670828D-04 0.000000000000D+00  6 22 -1 9900012 -11 -2 21 2 0.98226537D-02 0.17617802D+00 0.13656402D+05 0.13656402D+05 0.13656402D+05 0.11955486D+01  1  2 12  1  6  2       -1 0.597011898605D-04 0.100000000000D+01
-.111627910402D-05 0.000000000000D+00 0.000000000000D+00 0.193681670828D-04 0.000000000000D+00  6 22 -1 9900012 -11 -2 21 2 0.98226537D-02 0.16734916D+00 0.12023249D+05 0.12023249D+05 0.12023249D+05 0.12011237D+01  1  2  4  1  6  2       -1 -.249502094590D-05 0.100000000000D+01
-.288555523216D-03 0.000000000000D+00 -.593143809207D-04 0.193681670828D-04 0.000000000000D+00  6 22 -1 9900012 -11 -2 21 2 0.98226537D-02 0.17488427D+00 0.12023249D+05 0.12023249D+05 0.12023249D+05 0.12011237D+01  1  2  5  1  6  2       -1 -.562017193884D-03 0.100000000000D+01
0.290943112200D-03 0.000000000000D+00 0.592569012871D-04 0.193681670828D-04 0.000000000000D+00  6 22 -1 9900012 -11 -2 21 2 0.98226537D-02 0.16734916D+00 0.12023249D+05 0.12023249D+05 0.12023249D+05 0.12011237D+01  1  2  6  1  6  2       -1 0.650293601656D-03 0.100000000000D+01
0.562366105749D-06 0.000000000000D+00 0.000000000000D+00 0.193681670828D-04 0.000000000000D+00  6 22 21 9900012 -11 1 -2 2 0.98226537D-02 0.17617802D+00 0.13656402D+05 0.13656402D+05 0.13656402D+05 0.11955486D+01  3  4 12  3  5  2       -1 0.760590597901D-05 0.100000000000D+01
-.219225506250D-05 0.000000000000D+00 -.459019879425D-06 0.193681670828D-04 0.000000000000D+00  6 22 21 9900012 -11 1 -2 2 0.98226537D-02 0.17488427D+00 0.12023249D+05 0.12023249D+05 0.12023249D+05 0.12011237D+01  3  4  5  3  5  2       -1 -.306123506648D-04 0.100000000000D+01
  </mgrwgt>
  </event>
  <event>
  6     66 0.92480518E-06 0.16824513E+02 0.78161638E-02 0.13293769E+00
       22 -1    0    0    0    0 0.00000000E+00 0.00000000E+00 0.29831423E+02 0.29831423E+02 0.00000000E+00 0.0000E+00 0.9000E+01
       -3 -1    0    0    0  501 0.00000000E+00 0.00000000E+00 -.72511824E+02 0.72511824E+02 0.00000000E+00 0.0000E+00 0.9000E+01
       24  2    1    2    0    0 -.21832375E+01 -.16682257E+02 -.31675114E+02 0.82239004E+02 0.74005923E+02 0.0000E+00 0.0000E+00
  9900012  1    3    3    0    0 -.16036675E+02 -.65648511E+01 -.87970880E+01 0.53643834E+02 0.50000000E+02 0.0000E+00 0.9000E+01
      -11  1    3    3    0    0 0.13853438E+02 -.10117406E+02 -.22878026E+02 0.28595169E+02 0.00000000E+00 0.0000E+00 0.9000E+01
       -4  1    1    2    0  501 0.21832375E+01 0.16682257E+02 -.11005288E+02 0.20104243E+02 0.00000000E+00 0.0000E+00 0.9000E+01
#aMCatNLO 1  0  0  2  5 0.18545980D+02 0.00000000D+00  -5  6  0 0.00000000D+00 0.00000000D+00 0.00000000D+00 0.00000000D+00 0.00000000D+00
  <mgrwgt>
 0.2568843368D-04    1    2    0
 0.465094708808926D+02 0.000000000000000D+00 0.000000000000000D+00 0.465094708808926D+02
 0.465094708808926D+02 0.000000000000000D+00 0.000000000000000D+00 -.465094708808926D+02
 0.549847252123614D+02 -.160366751723019D+02 -.656485111637184D+01 0.149347844282011D+02
 0.209643231261569D+02 0.138534377038873D+02 -.101174061971641D+02 -.120508588807610D+02
 0.170698934232669D+02 0.218323746841457D+01 0.166822573135359D+02 -.288392554744002D+01
 0.000000000000000D+00 0.000000000000000D+00 -.000000000000000D+00 -.000000000000000D+00
 0.470068520963792D+02 0.000000000000000D+00 0.000000000000000D+00 0.470068520963792D+02
 0.701728201951376D+02 0.000000000000000D+00 0.000000000000000D+00 -.701728201951376D+02
 0.547529433499668D+02 -.163097908488797D+02 -.297115163423817D+01 0.149347844282011D+02
 0.202771989913552D+02 0.137507955905292D+02 -.876682495539179D+01 -.120508588807610D+02
 0.181896824783219D+02 0.209548325370988D+01 0.178369412185054D+02 -.288392554744002D+01
 0.239598474718728D+02 0.463512004640609D+00 -.609896462887542D+01 -.231659680987584D+02
0.347198224632D-07 0.000000000000D+00 0.000000000000D+00 0.752854165467D-08 0.000000000000D+00  6 22 -3 9900012 -11 -4 21 2 0.45894496D-02 0.11155665D-01 0.18877588D+04 0.18877588D+04 0.18877588D+04 0.12924954D+01  1  2 14  1  6  2       -3 0.256884336759D-04 0.100000000000D+01
  </mgrwgt>
  </event>
  <event>
  7     66 -.92480518E-06 0.39004388E+02 0.78161638E-02 0.12292140E+00
       22 -1    0    0    0    0 0.00000000E+00 0.00000000E+00 0.50273814E+03 0.50273814E+03 0.00000000E+00 0.0000E+00 0.9000E+01
       21 -1    0    0  502  501 0.00000000E+00 0.00000000E+00 -.54686267E+02 0.54686267E+02 0.00000000E+00 0.0000E+00 0.9000E+01
       24  2    1    2    0    0 0.23642260E+02 -.19849650E+02 0.47210122E+03 0.47983855E+03 0.80078120E+02 0.0000E+00 0.0000E+00
  9900012  1    3    3    0    0 0.86904217E+01 -.12451033E+02 0.18458942E+03 0.19184318E+03 0.50000000E+02 0.0000E+00 0.9000E+01
      -11  1    3    3    0    0 0.14951838E+02 -.73986176E+01 0.28751180E+03 0.28799537E+03 0.00000000E+00 0.0000E+00 0.9000E+01
        3  1    1    2  502    0 0.21319196E+02 -.12907902E+01 -.17219495E+02 0.27435110E+02 0.00000000E+00 0.0000E+00 0.9000E+01
       -4  1    1    2    0  501 -.44961456E+02 0.21140440E+02 -.68298513E+01 0.50150749E+02 0.00000000E+00 0.0000E+00 0.9000E+01
#aMCatNLO 2  0  0  2  5 0.21622352D+02 0.00000000D+00  -5  6  0 0.00000000D+00 0.00000000D+00 0.00000000D+00 0.00000000D+00 0.00000000D+00
  <mgrwgt>
 -.1481258789D-04    2    2    0
 0.126446662776061D+03 0.000000000000000D+00 0.000000000000000D+00 0.126446662776061D+03
 0.126446662776061D+03 0.000000000000000D+00 0.000000000000000D+00 -.126446662776061D+03
 0.632361658299597D+02 0.139690116554189D+02 -.127706297325806D+02 0.337726279474705D+02
 0.758887778631448D+02 0.212722245782384D+02 -.778129116065593D+01 0.724296249812728D+02
 0.000000000000000D+00 0.000000000000000D+00 -.000000000000000D+00 -.000000000000000D+00
 0.113768381859017D+03 -.352412362336574D+02 0.205519208932365D+02 -.106202252928743D+03
 0.128199318791266D+03 0.000000000000000D+00 0.000000000000000D+00 0.128199318791266D+03
 0.214454118436529D+03 0.000000000000000D+00 0.000000000000000D+00 -.214454118436529D+03
 0.622185024158233D+02 0.869042170529022D+01 -.124510326870415D+02 0.337726279474705D+02
 0.743259549698434D+02 0.149518381774706D+02 -.739861759831535D+01 0.724296249812728D+02
 0.888598037856137D+02 0.213191962244778D+02 -.129079019036998D+01 -.862547996452628D+02
 0.117249176056515D+03 -.449614561072386D+02 0.211404404757268D+02 -.106202252928743D+03
-.836099592288D-07 0.000000000000D+00 0.000000000000D+00 0.604449925106D-05 0.000000000000D+00  6 22 21 9900012 -11 3 -4 2 0.76286929D-01 0.85298867D-02 0.48985063D+04 0.48985063D+04 0.48985063D+04 0.12428499D+01  1  2 13  3  5  2       -3 -.255176420615D-04 0.100000000000D+01
0.351606868203D-07 0.000000000000D+00 0.000000000000D+00 0.604449925106D-05 0.314387968070D-08  6 22 21 9900012 -11 3 -4 2 0.77344329D-01 0.84132718D-02 0.48985063D+04 0.48985063D+04 0.48985063D+04 0.12428499D+01  1  2  1  3  5  2       -3 0.107050541688D-04 0.100000000000D+01
  </mgrwgt>
  </event>
  <event>
  7     66 -.92480518E-06 0.19160510E+02 0.78161638E-02 0.12753142E+00
       22 -1    0    0    0    0 0.00000000E+00 0.00000000E+00 0.46913644E+03 0.46913644E+03 0.00000000E+00 0.0000E+00 0.9000E+01
       -3 -1    0    0    0  501 0.00000000E+00 0.00000000E+00 -.15578766E+02 0.15578766E+02 0.00000000E+00 0.0000E+00 0.9000E+01
       24  2    1    2    0    0 0.17294476E+02 -.23443819E+02 0.42228290E+03 0.43076353E+03 0.79910313E+02 0.0000E+00 0.0000E+00
  9900012  1    3    3    0    0 0.21258273E+02 0.38277994E+01 0.22150186E+03 0.22810007E+03 0.50000000E+02 0.0000E+00 0.9000E+01
      -11  1    3    3    0    0 -.39637969E+01 -.27271618E+02 0.20078104E+03 0.20266346E+03 0.00000000E+00 0.0000E+00 0.9000E+01
       -4  1    1    2    0  502 -.12281913E+02 0.18902707E+02 0.61081359E+00 0.22550628E+02 0.00000000E+00 0.0000E+00 0.9000E+01
       21  1    1    2  502  501 -.50125625E+01 0.45411123E+01 0.30663955E+02 0.31401045E+02 0.00000000E+00 0.0000E+00 0.9000E+01
#aMCatNLO 2  0  0  5  2 0.10289086D+02 0.00000000D+00  -5  6  0 0.00000000D+00 0.00000000D+00 0.00000000D+00 0.00000000D+00 0.00000000D+00
  <mgrwgt>
 -.2759690573D-04    3    2    0
 0.854901563694352D+02 0.000000000000000D+00 0.000000000000000D+00 0.854901563694352D+02
 0.854901563694352D+02 -.000000000000000D+00 -.000000000000000D+00 -.854901563694352D+02
 0.603577756024128D+02 0.220827778469046D+02 0.271012750905878D+01 0.254571641610005D+02
 0.438060456013050D+02 -.337192689482708D+01 -.280739378785902D+02 0.334582389289785D+02
 0.668164915351525D+02 -.187108509520775D+02 0.253638103695314D+02 -.589154030899789D+02
 0.000000000000000D+00 0.000000000000000D+00 0.000000000000000D+00 0.000000000000000D+00
 0.854901563694352D+02 0.000000000000000D+00 0.000000000000000D+00 0.854901563694352D+02
 0.854901563694352D+02 -.000000000000000D+00 -.000000000000000D+00 -.854901563694352D+02
 0.590693869475899D+02 0.212582726989416D+02 0.382779940304148D+01 0.228610207110624D+02
 0.419245947723985D+02 -.396379689171066D+01 -.272716184970282D+02 0.315946005764219D+02
 0.623088866101041D+02 -.122819132658968D+02 0.189027068365156D+02 -.580882056132959D+02
 0.767744440877777D+01 -.501256254133411D+01 0.454111225747115D+01 0.363258432581165D+01
-.231455401810D-06 0.000000000000D+00 0.000000000000D+00 0.106001580912D-05 0.000000000000D+00  6 22 -3 9900012 -11 -4 21 2 0.72174836D-01 0.23967333D-02 0.30986149D+04 0.30986149D+04 0.30986149D+04 0.12659412D+01  1  2 13  2  6  5       -4 -.290101149239D-04 0.100000000000D+01
-.166677336151D-09 0.000000000000D+00 0.000000000000D+00 0.106001580912D-05 0.000000000000D+00  6 22 -3 9900012 -11 -4 21 2 0.72174836D-01 0.23967333D-02 0.32787532D+04 0.32787532D+04 0.32787532D+04 0.12630194D+01  1  2  8  2  6  5       -4 -.209454637830D-07 0.100000000000D+01
0.114423139737D-07 0.000000000000D+00 0.000000000000D+00 0.106001580912D-05 0.451761493408D-08  6 22 -3 9900012 -11 -4 21 2 0.72174836D-01 0.23967333D-02 0.30986149D+04 0.30986149D+04 0.30986149D+04 0.12659412D+01  1  2  1  2  6  5       -4 0.143415466123D-05 0.100000000000D+01
  </mgrwgt>
  </event>
  <event>
  6     66 0.92480518E-06 0.29735856E+02 0.78161638E-02 0.11380396E+00
       22 -1    0    0    0    0 0.00000000E+00 0.00000000E+00 0.91916819E+03 0.91916819E+03 0.00000000E+00 0.0000E+00 0.9000E+01
       -1 -1    0    0    0  501 0.00000000E+00 0.00000000E+00 -.15993937E+02 0.15993937E+02 0.00000000E+00 0.0000E+00 0.9000E+01
       24  2    1    2    0    0 -.28285587E+02 0.91731508E+01 0.90125162E+03 0.90536418E+03 0.80904835E+02 0.0000E+00 0.0000E+00
  9900012  1    3    3    0    0 -.24481412E+02 -.16026475E+02 0.50916452E+03 0.51244970E+03 0.50000000E+02 0.0000E+00 0.9000E+01
      -11  1    3    3    0    0 -.38041745E+01 0.25199626E+02 0.39208710E+03 0.39291448E+03 0.00000000E+00 0.0000E+00 0.9000E+01
       -2  1    1    2    0  501 0.28285587E+02 -.91731508E+01 0.19226314E+01 0.29797947E+02 0.00000000E+00 0.0000E+00 0.9000E+01
#aMCatNLO 1  0  0  2  5 0.16164300D+03 0.00000000D+00  -5  6  0 0.00000000D+00 0.00000000D+00 0.00000000D+00 0.00000000D+00 0.00000000D+00
  <mgrwgt>
 0.4803489352D-04    5    4    0
 0.121248167496510D+03 0.000000000000000D+00 0.000000000000000D+00 0.121248167496510D+03
 0.121248167496510D+03 0.000000000000000D+00 0.000000000000000D+00 -.121248167496510D+03
 0.798332365518768D+02 -.244814124385688D+02 -.160264752887319D+02 0.549286645858086D+02
 0.549112015670084D+02 -.380417447359058D+01 0.251996260778760D+02 0.486389469421609D+02
 0.107751896874134D+03 0.282855869121594D+02 -.917315078914405D+01 -.103567611527969D+03
 0.000000000000000D+00 -.000000000000000D+00 -.000000000000000D+00 -.000000000000000D+00
 0.164642697060531D+03 0.000000000000000D+00 0.000000000000000D+00 0.164642697060531D+03
 0.179012696609312D+03 0.000000000000000D+00 0.000000000000000D+00 -.179012696609312D+03
 0.759942705241851D+02 -.137296944438762D+02 0.833465355012196D+01 0.549286645858086D+02
 0.657899480589425D+02 0.452391051451088D+01 0.440693129015271D+02 0.486389469421609D+02
 0.115300361567746D+03 0.436756488200086D+02 0.256974885970566D+02 -.103567611527969D+03
 0.865708135189694D+02 -.344698648906433D+02 -.781014550487057D+02 -.143699995487812D+02
 0.121248167496510D+03 0.000000000000000D+00 0.000000000000000D+00 0.121248167496510D+03
 0.121248167496510D+03 0.000000000000000D+00 0.000000000000000D+00 -.121248167496510D+03
 0.798332365518768D+02 -.244814124385688D+02 -.160264752887319D+02 0.549286645858086D+02
 0.549112015670084D+02 -.380417447359058D+01 0.251996260778760D+02 0.486389469421609D+02
 0.000000000000000D+00 -.000000000000000D+00 -.000000000000000D+00 -.000000000000000D+00
 0.107751896874134D+03 0.282855869121594D+02 -.917315078914405D+01 -.103567611527969D+03
 0.164642697060531D+03 0.000000000000000D+00 0.000000000000000D+00 0.164642697060531D+03
 0.179012696609312D+03 0.000000000000000D+00 0.000000000000000D+00 -.179012696609312D+03
 0.759942705241851D+02 -.137296944438762D+02 0.833465355012196D+01 0.549286645858086D+02
 0.657899480589425D+02 0.452391051451088D+01 0.440693129015271D+02 0.486389469421609D+02
 0.865708135189694D+02 -.344698648906433D+02 -.781014550487057D+02 -.143699995487812D+02
 0.115300361567746D+03 0.436756488200086D+02 0.256974885970566D+02 -.103567611527969D+03
0.161145576707D-05 0.000000000000D+00 0.000000000000D+00 0.269580590590D-05 0.000000000000D+00  6 22 -1 9900012 -11 -2 21 0 0.14141049D+00 0.24606057D-02 0.32009353D+04 0.32009353D+04 0.32009353D+04 0.12642587D+01  1  2  2  1  6  2       -1 0.364184564285D-04 0.100000000000D+01
0.114693910764D-06 0.000000000000D+00 -.309420722580D-08 0.269580590590D-05 0.000000000000D+00  6 22 -1 9900012 -11 -2 21 2 0.14141049D+00 0.24606057D-02 0.32009353D+04 0.32009353D+04 0.32009353D+04 0.12642587D+01  1  2  3  1  6  2       -1 0.414300443857D-05 0.100000000000D+01
-.221192034538D-06 0.000000000000D+00 0.000000000000D+00 0.269580590590D-05 0.000000000000D+00  6 22 -1 9900012 -11 -2 21 2 0.14141049D+00 0.24606057D-02 0.32009353D+04 0.32009353D+04 0.32009353D+04 0.12642587D+01  1  2 15  1  6  2       -1 -.798995844470D-05 0.100000000000D+01
0.309300976867D-06 0.000000000000D+00 -.485763592229D-06 0.269580590590D-05 0.000000000000D+00  6 22 -1 9900012 -11 -2 21 2 0.14141049D+00 0.50005283D-02 0.32009353D+04 0.32009353D+04 0.32009353D+04 0.12642587D+01  1  2  5  1  6  2       -1 0.410739237388D-05 0.100000000000D+01
0.532182376179D-07 0.000000000000D+00 -.372539491215D-07 0.269580590590D-05 0.000000000000D+00  6 22 21 9900012 -11 1 -2 2 0.14141049D+00 0.50005283D-02 0.32009353D+04 0.32009353D+04 0.32009353D+04 0.12642587D+01  3  4  5  3  5  2       -1 0.113559987199D-04 0.100000000000D+01
  </mgrwgt>
  </event>
  <event>
  6     66 0.92480518E-06 0.25011557E+02 0.78161638E-02 0.12600648E+00
       22 -1    0    0    0    0 0.00000000E+00 0.00000000E+00 0.75822841E+03 0.75822841E+03 0.00000000E+00 0.0000E+00 0.9000E+01
       -1 -1    0    0    0  501 0.00000000E+00 0.00000000E+00 -.47677778E+01 0.47677778E+01 0.00000000E+00 0.0000E+00 0.9000E+01
       24  2    1    2    0    0 0.25367513E+02 0.20373941E+02 0.59461528E+03 0.60085287E+03 0.79988982E+02 0.0000E+00 0.0000E+00
  9900012  1    3    3    0    0 0.22014563E+02 0.38972264E+02 0.48494357E+03 0.48956485E+03 0.50000000E+02 0.0000E+00 0.9000E+01
      -11  1    3    3    0    0 0.33529504E+01 -.18598323E+02 0.10967170E+03 0.11128802E+03 0.00000000E+00 0.0000E+00 0.9000E+01
       -2  1    1    2    0  501 -.25367513E+02 -.20373941E+02 0.15884535E+03 0.16214332E+03 0.00000000E+00 0.0000E+00 0.9000E+01
#aMCatNLO 1  0  0  2  5 0.18653743D+01 0.00000000D+00  -5  6  0 0.00000000D+00 0.00000000D+00 0.00000000D+00 0.00000000D+00 0.00000000D+00
  <mgrwgt>
 0.1330880259D-03    8    4    0
 0.601254072190172D+02 0.000000000000000D+00 0.000000000000000D+00 0.601254072190172D+02
 0.601254072190172D+02 0.000000000000000D+00 0.000000000000000D+00 -.601254072190172D+02
 0.677768969246795D+02 0.220145626777167D+02 0.389722644995903D+02 0.949891502338466D+01
 0.189522269661994D+02 0.335295043555840D+01 -.185983232776563D+02 -.143073464164765D+01
 0.335216905471555D+02 -.253675131132751D+02 -.203739412219340D+02 -.806818038173701D+01
 0.000000000000000D+00 -.000000000000000D+00 0.000000000000000D+00 0.000000000000000D+00
 0.607887587032231D+02 0.000000000000000D+00 0.000000000000000D+00 0.607887587032231D+02
 0.607878583286193D+02 0.000000000000000D+00 0.000000000000000D+00 -.607878583286193D+02
 0.679176589647260D+02 0.227385735747454D+02 0.388012407586824D+02 0.949891502338466D+01
 0.190360298347914D+02 0.355564030548553D+01 -.186462020871347D+02 -.143073464164765D+01
 0.333043546260887D+02 -.250109565469955D+02 -.204581659733303D+02 -.806818038173701D+01
 0.131857360623625D+01 -.128325733323542D+01 0.303127301782525D+00 0.900374603809440D-03
 0.601254072190172D+02 0.000000000000000D+00 0.000000000000000D+00 0.601254072190172D+02
 0.601254072190172D+02 0.000000000000000D+00 0.000000000000000D+00 -.601254072190172D+02
 0.677768969246795D+02 0.220145626777167D+02 0.389722644995903D+02 0.949891502338466D+01
 0.189522269661994D+02 0.335295043555840D+01 -.185983232776563D+02 -.143073464164765D+01
 0.000000000000000D+00 -.000000000000000D+00 0.000000000000000D+00 0.000000000000000D+00
 0.335216905471555D+02 -.253675131132751D+02 -.203739412219340D+02 -.806818038173701D+01
 0.607887587032231D+02 0.000000000000000D+00 0.000000000000000D+00 0.607887587032231D+02
 0.607878583286193D+02 0.000000000000000D+00 0.000000000000000D+00 -.607878583286193D+02
 0.679176589647260D+02 0.227385735747454D+02 0.388012407586824D+02 0.949891502338466D+01
 0.190360298347914D+02 0.355564030548553D+01 -.186462020871347D+02 -.143073464164765D+01
 0.131857360623625D+01 -.128325733323542D+01 0.303127301782525D+00 0.900374603809440D-03
 0.333043546260887D+02 -.250109565469955D+02 -.204581659733303D+02 -.806818038173701D+01
0.491843004850D-06 0.000000000000D+00 0.000000000000D+00 0.187475607687D-06 0.000000000000D+00  6 22 -1 9900012 -11 -2 21 0 0.11665052D+00 0.73350428D-03 0.35130731D+04 0.35130731D+04 0.35130731D+04 0.12594795D+01  1  2  2  1  6  2       -1 0.890219693705D-04 0.100000000000D+01
-.348186028604D-08 0.000000000000D+00 -.944403321931D-09 0.187475607687D-06 0.000000000000D+00  6 22 -1 9900012 -11 -2 21 2 0.11665052D+00 0.73350428D-03 0.35130731D+04 0.35130731D+04 0.35130731D+04 0.12594795D+01  1  2  3  1  6  2       -1 -.999687515586D-06 0.100000000000D+01
-.410083723091D-07 0.000000000000D+00 0.000000000000D+00 0.187475607687D-06 0.000000000000D+00  6 22 -1 9900012 -11 -2 21 2 0.11665052D+00 0.73350428D-03 0.35130731D+04 0.35130731D+04 0.35130731D+04 0.12594795D+01  1  2 15  1  6  2       -1 -.117740387218D-04 0.100000000000D+01
0.153645263583D-09 0.000000000000D+00 0.000000000000D+00 0.187475607687D-06 0.000000000000D+00  6 22 -1 9900012 -11 -2 21 2 0.11665052D+00 0.74976767D-03 0.35917955D+04 0.35917955D+04 0.35917955D+04 0.12583498D+01  1  2 12  1  6  2       -1 0.428665103306D-07 0.100000000000D+01
-.492291031548D-06 0.000000000000D+00 0.000000000000D+00 0.187475607687D-06 0.000000000000D+00  6 22 -1 9900012 -11 -2 21 2 0.11665052D+00 0.73350428D-03 0.35130731D+04 0.35130731D+04 0.35130731D+04 0.12594795D+01  1  2  4  1  6  2       -1 -.141343178027D-03 0.100000000000D+01
0.484277531075D-06 0.000000000000D+00 0.000000000000D+00 0.187475607687D-06 0.842541268590D-06  6 22 -1 9900012 -11 -2 21 2 0.11793751D+00 0.74158590D-03 0.35917955D+04 0.35917955D+04 0.35917955D+04 0.12583498D+01  1  2 11  1  6  2       -1 0.134153571357D-03 0.100000000000D+01
0.858118790432D-11 0.000000000000D+00 0.000000000000D+00 0.187475607687D-06 0.000000000000D+00  6 22 21 9900012 -11 1 -2 2 0.11665052D+00 0.74976767D-03 0.35917955D+04 0.35917955D+04 0.35917955D+04 0.12583498D+01  3  4 12  3  5  2       -1 0.468582424470D-07 0.100000000000D+01
0.117825836929D-07 0.000000000000D+00 0.000000000000D+00 0.187475607687D-06 0.199756250369D-08  6 22 21 9900012 -11 1 -2 2 0.11793751D+00 0.74158590D-03 0.35917955D+04 0.35917955D+04 0.35917955D+04 0.12583498D+01  3  4 11  3  5  2       -1 0.639396646346D-04 0.100000000000D+01
  </mgrwgt>
  </event>
  <event>
  6     66 0.92480518E-06 0.21035175E+02 0.78161638E-02 0.12721378E+00
       22 -1    0    0    0    0 0.00000000E+00 0.00000000E+00 0.15841364E+03 0.15841364E+03 0.00000000E+00 0.0000E+00 0.9000E+01
       -3 -1    0    0    0  501 -.00000000E+00 -.00000000E+00 -.21223076E+03 0.21223076E+03 0.00000000E+00 0.0000E+00 0.9000E+01
       24  2    1    2    0    0 0.17172126E+02 0.12148936E+02 0.14693675E+03 0.16879150E+03 0.80359710E+02 0.0000E+00 0.0000E+00
  9900012  1    3    3    0    0 0.35680190E+02 0.16044005E+02 0.12158457E+03 0.13716156E+03 0.50000000E+02 0.0000E+00 0.9000E+01
      -11  1    3    3    0    0 -.18508063E+02 -.38950691E+01 0.25352183E+02 0.31629941E+02 0.00000000E+00 0.0000E+00 0.9000E+01
       -4  1    1    2    0  501 -.17172126E+02 -.12148936E+02 -.20075387E+03 0.20185290E+03 0.00000000E+00 0.0000E+00 0.9000E+01
#aMCatNLO 1  0  0  5  2 0.90386166D+01 0.00000000D+00  -5  6  0 0.00000000D+00 0.00000000D+00 0.00000000D+00 0.00000000D+00 0.00000000D+00
  <mgrwgt>
 0.2531209170D-03    8    2    0
 0.183358248881303D+03 0.000000000000000D+00 0.000000000000000D+00 0.183358248881303D+03
 0.183358248881303D+03 -.000000000000000D+00 -.000000000000000D+00 -.183358248881303D+03
 0.156473719590342D+03 0.356801897495237D+02 0.160440051739329D+02 0.143015869328735D+03
 0.356892640714864D+02 -.185080634920039D+02 -.389506910976331D+01 0.302655512484146D+02
 0.174553514100778D+03 -.171721262575198D+02 -.121489360641695D+02 -.173281420577150D+03
 0.000000000000000D+00 0.000000000000000D+00 0.000000000000000D+00 -.000000000000000D+00
 0.183358248881303D+03 0.000000000000000D+00 0.000000000000000D+00 0.183358248881303D+03
 0.183358248881303D+03 -.000000000000000D+00 -.000000000000000D+00 -.183358248881303D+03
 0.155852657992862D+03 0.356149583150815D+02 0.159978552380118D+02 0.142357628441326D+03
 0.355708955763613D+02 -.185229466487465D+02 -.390559864565113D+01 0.301153674852421D+02
 0.142900715175122D+03 -.125737964447194D+02 -.187794626557421D+02 -.141102253075171D+03
 0.323922290182607D+02 -.451821522161554D+01 0.668720606338146D+01 -.313707428513971D+02
0.161035591652D-05 0.000000000000D+00 0.000000000000D+00 0.298466032988D-04 0.000000000000D+00  6 22 -3 9900012 -11 -4 21 0 0.24371329D-01 0.32650887D-01 0.26746879D+04 0.26746879D+04 0.26746879D+04 0.12736509D+01  1  2  2  2  6  5       -4 0.113721719815D-04 0.100000000000D+01
0.214478696076D-06 0.000000000000D+00 -.309209536794D-08 0.298466032988D-04 0.000000000000D+00  6 22 -3 9900012 -11 -4 21 2 0.24371329D-01 0.32650887D-01 0.26746879D+04 0.26746879D+04 0.26746879D+04 0.12736509D+01  1  2  3  2  6  5       -4 0.245700753139D-05 0.100000000000D+01
-.220858218705D-06 0.000000000000D+00 0.000000000000D+00 0.298466032988D-04 0.000000000000D+00  6 22 -3 9900012 -11 -4 21 2 0.24371329D-01 0.32650887D-01 0.26746879D+04 0.26746879D+04 0.26746879D+04 0.12736509D+01  1  2 15  2  6  5       -4 -.253008954574D-05 0.100000000000D+01
0.188275536127D-04 0.000000000000D+00 0.000000000000D+00 0.298466032988D-04 0.000000000000D+00  6 22 -3 9900012 -11 -4 21 2 0.24371329D-01 0.32650887D-01 0.31944386D+04 0.31944386D+04 0.31944386D+04 0.12643637D+01  1  2 12  2  6  5       -4 0.215817006472D-03 0.100000000000D+01
-.151954292558D-05 0.000000000000D+00 0.000000000000D+00 0.298466032988D-04 0.000000000000D+00  6 22 -3 9900012 -11 -4 21 2 0.24371329D-01 0.32650887D-01 0.26746879D+04 0.26746879D+04 0.26746879D+04 0.12736509D+01  1  2  4  2  6  5       -4 -.174074557554D-04 0.100000000000D+01
-.187187853950D-04 0.000000000000D+00 0.000000000000D+00 0.298466032988D-04 0.000000000000D+00  6 22 -3 9900012 -11 -4 21 2 0.24371329D-01 0.32650887D-01 0.26746879D+04 0.26746879D+04 0.26746879D+04 0.12736509D+01  1  2  5  2  6  5       -4 -.214437133083D-03 0.100000000000D+01
0.225081018383D-04 0.000000000000D+00 -.000000000000D+00 0.298466032988D-04 0.000000000000D+00  6 22 -3 9900012 -11 -4 21 2 0.24371329D-01 0.32650887D-01 0.26746879D+04 0.26746879D+04 0.26746879D+04 0.12736509D+01  1  2  6  2  6  5       -4 0.257846474945D-03 0.100000000000D+01
0.255997700811D-09 0.000000000000D+00 0.000000000000D+00 0.298466032988D-04 0.488212500406D-06  6 22 -3 9900012 -11 -4 21 2 0.24371329D-01 0.32650887D-01 0.31944386D+04 0.31944386D+04 0.31944386D+04 0.12643637D+01  1  2 11  2  6  5       -4 0.293445758218D-08 0.100000000000D+01
  </mgrwgt>
  </event>
  <event>
  7     66 -.92480518E-06 0.58829348E+02 0.78161638E-02 0.12027845E+00
       22 -1    0    0    0    0 0.00000000E+00 0.00000000E+00 0.44274316E+03 0.44274316E+03 0.00000000E+00 0.0000E+00 0.9000E+01
       -1 -1    0    0    0  502 0.00000000E+00 0.00000000E+00 -.11013726E+03 0.11013726E+03 0.00000000E+00 0.0000E+00 0.9000E+01
       24  2    1    2    0    0 0.48529624E+02 0.25923460E+02 0.42394540E+03 0.43366885E+03 0.72882247E+02 0.0000E+00 0.0000E+00
  9900012  1    3    3    0    0 0.23360037E+02 0.16276046E+02 0.35515933E+03 0.35978987E+03 0.50000000E+02 0.0000E+00 0.9000E+01
      -11  1    3    3    0    0 0.25169587E+02 0.96474133E+01 0.68786068E+02 0.73878981E+02 0.00000000E+00 0.0000E+00 0.9000E+01
       -2  1    1    2    0  501 -.53327027E+02 -.36628155E+02 -.74212241E+02 0.98452274E+02 0.00000000E+00 0.0000E+00 0.9000E+01
       21  1    1    2  501  502 0.47974031E+01 0.10704695E+02 -.17127259E+02 0.20759301E+02 0.00000000E+00 0.0000E+00 0.9000E+01
#aMCatNLO 2  0  0  2  5 0.11869590D+02 0.00000000D+00  -5  6  0 0.00000000D+00 0.00000000D+00 0.00000000D+00 0.00000000D+00 0.00000000D+00
  <mgrwgt>
 -.1656634595D-03    2    2    0
 0.200438272843729D+03 0.000000000000000D+00 0.000000000000000D+00 0.200438272843729D+03
 0.200438272843729D+03 0.000000000000000D+00 0.000000000000000D+00 -.200438272843729D+03
 0.168448603480588D+03 0.253707759447071D+02 0.207627130116501D+02 0.157480682913555D+03
 0.386149284286123D+02 0.256281635548073D+02 0.106706586218666D+02 0.268411433238318D+02
 0.193813013778258D+03 -.509989394995144D+02 -.314333716335167D+02 -.184321826237386D+03
 0.000000000000000D+00 0.000000000000000D+00 0.000000000000000D+00 -.000000000000000D+00
 0.201349956798559D+03 0.000000000000000D+00 0.000000000000000D+00 0.201349956798559D+03
 0.242177952753572D+03 0.000000000000000D+00 0.000000000000000D+00 -.242177952753572D+03
 0.167662656862974D+03 0.233600369836475D+02 0.162760464350034D+02 0.157480682913555D+03
 0.380398169895974D+02 0.251695871804098D+02 0.964741327192592D+01 0.268411433238318D+02
 0.195345665980977D+03 -.533270272839777D+02 -.366281551694893D+02 -.184321826237386D+03
 0.424797697185819D+02 0.479740311992044D+01 0.107046954625599D+02 -.408279959550132D+02
-.238936114172D-04 0.000000000000D+00 0.000000000000D+00 0.596238501638D-06 0.000000000000D+00  6 22 -1 9900012 -11 -2 21 2 0.67805920D-01 0.17021264D-01 0.64736621D+04 0.64736621D+04 0.64736621D+04 0.12294160D+01  1  2 13  1  6  2       -1 -.217591234522D-03 0.100000000000D+01
0.570838934891D-05 0.000000000000D+00 0.000000000000D+00 0.596238501638D-06 0.953571783470D-08  6 22 -1 9900012 -11 -2 21 2 0.68114332D-01 0.16944194D-01 0.64736621D+04 0.64736621D+04 0.64736621D+04 0.12294160D+01  1  2  1  1  6  2       -1 0.519277750453D-04 0.100000000000D+01
  </mgrwgt>
  </event>
  <event>
  6     66 0.92480518E-06 0.41915876E+02 0.78161638E-02 0.11784790E+00
       22 -1    0    0    0    0 0.00000000E+00 0.00000000E+00 0.58415632E+02 0.58415632E+02 0.00000000E+00 0.0000E+00 0.9000E+01
       -3 -1    0    0    0  501 0.00000000E+00 0.00000000E+00 -.18789298E+03 0.18789298E+03 0.00000000E+00 0.0000E+00 0.9000E+01
       24  2    1    2    0    0 0.34742585E+02 0.50561268E+02 0.27402600E+01 0.10055202E+03 0.79622295E+02 0.0000E+00 0.0000E+00
  9900012  1    3    3    0    0 0.55186355E+01 0.30578616E+02 -.15290969E+02 0.60822042E+02 0.50000000E+02 0.0000E+00 0.9000E+01
      -11  1    3    3    0    0 0.29223950E+02 0.19982652E+02 0.18031229E+02 0.39729974E+02 0.00000000E+00 0.0000E+00 0.9000E+01
       -4  1    1    2    0  501 -.34742585E+02 -.50561268E+02 -.13221761E+03 0.14575660E+03 0.00000000E+00 0.0000E+00 0.9000E+01
#aMCatNLO 1  0  0  2  5 0.32386370D+02 0.00000000D+00  -5  6  0 0.00000000D+00 0.00000000D+00 0.00000000D+00 0.00000000D+00 0.00000000D+00
  <mgrwgt>
 0.4915751283D-04    9    4    0
 0.104765867915263D+03 0.000000000000000D+00 0.000000000000000D+00 0.104765867915263D+03
 0.104765867915263D+03 0.000000000000000D+00 0.000000000000000D+00 -.104765867915263D+03
 0.620486374725038D+02 0.551863545468226D+01 0.305786164292152D+02 0.196093419621225D+02
 0.578455113312136D+02 0.292239498399517D+02 0.199826515886729D+02 0.457466673366187D+02
 0.896375870268090D+02 -.347425852946339D+02 -.505612680178881D+02 -.653560092987411D+02
 0.000000000000000D+00 -.000000000000000D+00 -.000000000000000D+00 -.000000000000000D+00
 0.113564888643941D+03 0.000000000000000D+00 0.000000000000000D+00 0.113564888643941D+03
 0.129877098869791D+03 0.000000000000000D+00 0.000000000000000D+00 -.129877098869791D+03
 0.662575151178426D+02 0.105468113448169D+02 0.373402837142480D+02 0.196093419621225D+02
 0.627623525757380D+02 0.339504383302877D+02 0.263386230774375D+02 0.457466673366187D+02
 0.823271198439179D+02 -.280034790586130D+02 -.414988177054661D+02 -.653560092987411D+02
 0.320949999762332D+02 -.164937706164915D+02 -.221800890862194D+02 -.163122102258506D+02
 0.104765867915263D+03 0.000000000000000D+00 0.000000000000000D+00 0.104765867915263D+03
 0.104765867915263D+03 0.000000000000000D+00 0.000000000000000D+00 -.104765867915263D+03
 0.620486374725038D+02 0.551863545468226D+01 0.305786164292152D+02 0.196093419621225D+02
 0.578455113312136D+02 0.292239498399517D+02 0.199826515886729D+02 0.457466673366187D+02
 0.000000000000000D+00 -.000000000000000D+00 -.000000000000000D+00 -.000000000000000D+00
 0.896375870268090D+02 -.347425852946339D+02 -.505612680178881D+02 -.653560092987411D+02
 0.113564888643941D+03 0.000000000000000D+00 0.000000000000000D+00 0.113564888643941D+03
 0.129877098869791D+03 0.000000000000000D+00 0.000000000000000D+00 -.129877098869791D+03
 0.662575151178426D+02 0.105468113448169D+02 0.373402837142480D+02 0.196093419621225D+02
 0.627623525757380D+02 0.339504383302877D+02 0.263386230774375D+02 0.457466673366187D+02
 0.320949999762332D+02 -.164937706164915D+02 -.221800890862194D+02 -.163122102258506D+02
 0.823271198439179D+02 -.280034790586130D+02 -.414988177054661D+02 -.653560092987411D+02
0.581363287223D-06 0.000000000000D+00 0.000000000000D+00 0.118487820061D-05 0.000000000000D+00  6 22 -3 9900012 -11 -4 21 0 0.89870202D-02 0.28906612D-01 0.60542764D+04 0.60542764D+04 0.60542764D+04 0.12326010D+01  1  2  2  1  6  2       -3 0.233659788094D-04 0.100000000000D+01
0.363516831852D-09 0.000000000000D+00 -.111629404970D-08 0.118487820061D-05 0.000000000000D+00  6 22 -3 9900012 -11 -4 21 2 0.89870202D-02 0.28906612D-01 0.60542764D+04 0.60542764D+04 0.60542764D+04 0.12326010D+01  1  2  3  1  6  2       -3 0.221975939689D-07 0.100000000000D+01
-.742425956869D-07 0.000000000000D+00 0.000000000000D+00 0.118487820061D-05 0.000000000000D+00  6 22 -3 9900012 -11 -4 21 2 0.89870202D-02 0.28906612D-01 0.60542764D+04 0.60542764D+04 0.60542764D+04 0.12326010D+01  1  2 15  1  6  2       -3 -.453350945500D-05 0.100000000000D+01
0.426349912880D-06 0.000000000000D+00 0.000000000000D+00 0.118487820061D-05 0.000000000000D+00  6 22 -3 9900012 -11 -4 21 2 0.89870202D-02 0.38844919D-01 0.84605505D+04 0.84605505D+04 0.84605505D+04 0.12169307D+01  1  2 12  1  6  2       -3 0.150223887625D-04 0.100000000000D+01
-.639783430969D-07 0.000000000000D+00 0.000000000000D+00 0.118487820061D-05 0.000000000000D+00  6 22 -3 9900012 -11 -4 21 2 0.89870202D-02 0.28906612D-01 0.60542764D+04 0.60542764D+04 0.60542764D+04 0.12326010D+01  1  2  4  1  6  2       -3 -.390673872138D-05 0.100000000000D+01
-.863436987938D-06 0.000000000000D+00 -.287102845690D-06 0.118487820061D-05 0.000000000000D+00  6 22 -3 9900012 -11 -4 21 2 0.89870202D-02 0.38491098D-01 0.60542764D+04 0.60542764D+04 0.60542764D+04 0.12326010D+01  1  2  5  1  6  2       -3 -.308532401111D-04 0.100000000000D+01
0.919091797652D-06 0.000000000000D+00 0.275720816208D-06 0.118487820061D-05 0.000000000000D+00  6 22 -3 9900012 -11 -4 21 2 0.89870202D-02 0.28906612D-01 0.60542764D+04 0.60542764D+04 0.60542764D+04 0.12326010D+01  1  2  6  1  6  2       -3 0.561229212977D-04 0.100000000000D+01
0.163018520703D-07 0.000000000000D+00 0.000000000000D+00 0.118487820061D-05 0.000000000000D+00  6 22 21 9900012 -11 3 -4 2 0.89870202D-02 0.38844919D-01 0.84605505D+04 0.84605505D+04 0.84605505D+04 0.12169307D+01  3  4 12  3  5  2       -3 0.929635456456D-05 0.100000000000D+01
-.262851622530D-07 0.000000000000D+00 -.107303653750D-07 0.118487820061D-05 0.000000000000D+00  6 22 21 9900012 -11 3 -4 2 0.89870202D-02 0.38491098D-01 0.60542764D+04 0.60542764D+04 0.60542764D+04 0.12326010D+01  3  4  5  3  5  2       -3 -.153788399060D-04 0.100000000000D+01
  </mgrwgt>
  </event>
  <event>
  6     66 0.92480518E-06 0.15698944E+02 0.78161638E-02 0.12637741E+00
       22 -1    0    0    0    0 0.00000000E+00 0.00000000E+00 0.35112557E+03 0.35112557E+03 0.00000000E+00 0.0000E+00 0.9000E+01
       -3 -1    0    0    0  501 0.00000000E+00 0.00000000E+00 -.10970863E+02 0.10970863E+02 0.00000000E+00 0.0000E+00 0.9000E+01
       24  2    1    2    0    0 0.12027306E+02 -.10089635E+02 0.32369476E+03 0.33935030E+03 0.10066712E+03 0.0000E+00 0.0000E+00
  9900012  1    3    3    0    0 -.14397893E+02 -.34042373E+02 0.24797051E+03 0.25564733E+03 0.50000000E+02 0.0000E+00 0.9000E+01
      -11  1    3    3    0    0 0.26425199E+02 0.23952737E+02 0.75724256E+02 0.83702973E+02 0.00000000E+00 0.0000E+00 0.9000E+01
       -4  1    1    2    0  501 -.12027306E+02 0.10089635E+02 0.16459941E+02 0.22746132E+02 0.00000000E+00 0.0000E+00 0.9000E+01
#aMCatNLO 1  0  0  2  5 0.44316302D+01 0.00000000D+00  -5  6  0 0.00000000D+00 0.00000000D+00 0.00000000D+00 0.00000000D+00 0.00000000D+00
  <mgrwgt>
 0.1089066117D-04   11    4    0
 0.620656947094633D+02 0.000000000000000D+00 0.000000000000000D+00 0.620656947094633D+02
 0.620656947094633D+02 0.000000000000000D+00 0.000000000000000D+00 -.620656947094633D+02
 0.662253868813726D+02 -.143978930318721D+02 -.340423726950211D+02 0.227951618797393D+02
 0.366594293927757D+02 0.264251993778718D+02 0.239527373313324D+02 -.847873667357525D+01
 0.212465731447783D+02 -.120273063459997D+02 0.100896353636888D+02 -.143164252061641D+02
 0.000000000000000D+00 -.000000000000000D+00 0.000000000000000D+00 -.000000000000000D+00
 0.627311892687520D+02 0.000000000000000D+00 0.000000000000000D+00 0.627311892687520D+02
 0.692071754640967D+02 0.000000000000000D+00 0.000000000000000D+00 -.692071754640967D+02
 0.670177606492455D+02 -.132527629070743D+02 -.360017376336880D+02 0.227951618797393D+02
 0.364303858637972D+02 0.270533543773398D+02 0.228779381837480D+02 -.847873667357525D+01
 0.207552858874245D+02 -.116663302285282D+02 0.947199031798303D+01 -.143164252061641D+02
 0.773493233238152D+01 -.213426124173733D+01 0.365180913195705D+01 -.647598619534461D+01
 0.620656947094633D+02 0.000000000000000D+00 0.000000000000000D+00 0.620656947094633D+02
 0.620656947094633D+02 0.000000000000000D+00 0.000000000000000D+00 -.620656947094633D+02
 0.662253868813726D+02 -.143978930318721D+02 -.340423726950211D+02 0.227951618797393D+02
 0.366594293927757D+02 0.264251993778718D+02 0.239527373313324D+02 -.847873667357525D+01
 0.000000000000000D+00 -.000000000000000D+00 0.000000000000000D+00 -.000000000000000D+00
 0.212465731447783D+02 -.120273063459997D+02 0.100896353636888D+02 -.143164252061641D+02
 0.627311892687520D+02 0.000000000000000D+00 0.000000000000000D+00 0.627311892687520D+02
 0.692071754640967D+02 0.000000000000000D+00 0.000000000000000D+00 -.692071754640967D+02
 0.670177606492455D+02 -.132527629070743D+02 -.360017376336880D+02 0.227951618797393D+02
 0.364303858637972D+02 0.270533543773398D+02 0.228779381837480D+02 -.847873667357525D+01
 0.773493233238152D+01 -.213426124173733D+01 0.365180913195705D+01 -.647598619534461D+01
 0.207552858874245D+02 -.116663302285282D+02 0.947199031798303D+01 -.143164252061641D+02
0.183970025575D-07 0.000000000000D+00 0.000000000000D+00 0.801953284306D-09 0.000000000000D+00  6 22 -3 9900012 -11 -4 21 0 0.54019318D-01 0.16878251D-02 0.32230051D+04 0.32230051D+04 0.32230051D+04 0.12639038D+01  1  2  2  1  6  2       -3 0.392973924630D-05 0.100000000000D+01
0.130282658615D-08 0.000000000000D+00 -.353246669314D-10 0.801953284306D-09 0.000000000000D+00  6 22 -3 9900012 -11 -4 21 2 0.54019318D-01 0.16878251D-02 0.32230051D+04 0.32230051D+04 0.32230051D+04 0.12639038D+01  1  2  3  1  6  2       -3 0.444560934289D-06 0.100000000000D+01
-.213817655250D-08 0.000000000000D+00 0.000000000000D+00 0.801953284306D-09 0.000000000000D+00  6 22 -3 9900012 -11 -4 21 2 0.54019318D-01 0.16878251D-02 0.32230051D+04 0.32230051D+04 0.32230051D+04 0.12639038D+01  1  2 15  1  6  2       -3 -.729605747962D-06 0.100000000000D+01
0.223432163233D-07 0.000000000000D+00 0.000000000000D+00 0.801953284306D-09 0.000000000000D+00  6 22 -3 9900012 -11 -4 21 2 0.54019318D-01 0.19022116D-02 0.34638531D+04 0.34638531D+04 0.34638531D+04 0.12602005D+01  1  2 12  1  6  2       -3 0.645686012963D-05 0.100000000000D+01
-.210281404156D-07 0.000000000000D+00 0.000000000000D+00 0.801953284306D-09 0.000000000000D+00  6 22 -3 9900012 -11 -4 21 2 0.54019318D-01 0.16878251D-02 0.32230051D+04 0.32230051D+04 0.32230051D+04 0.12639038D+01  1  2  4  1  6  2       -3 -.717539068432D-05 0.100000000000D+01
-.179614518804D-06 0.000000000000D+00 -.199867354280D-07 0.801953284306D-09 0.000000000000D+00  6 22 -3 9900012 -11 -4 21 2 0.54019318D-01 0.19018729D-02 0.32230051D+04 0.32230051D+04 0.32230051D+04 0.12639038D+01  1  2  5  1  6  2       -3 -.517203426405D-04 0.100000000000D+01
0.180851884467D-06 0.000000000000D+00 0.198451115948D-07 0.801953284306D-09 0.000000000000D+00  6 22 -3 9900012 -11 -4 21 2 0.54019318D-01 0.16878251D-02 0.32230051D+04 0.32230051D+04 0.32230051D+04 0.12639038D+01  1  2  6  1  6  2       -3 0.617117301575D-04 0.100000000000D+01
0.162856830347D-07 0.000000000000D+00 0.000000000000D+00 0.801953284306D-09 0.219424820217D-08  6 22 -3 9900012 -11 -4 21 2 0.54598536D-01 0.18820317D-02 0.34638531D+04 0.34638531D+04 0.34638531D+04 0.12602005D+01  1  2 11  1  6  2       -3 0.469372270294D-05 0.100000000000D+01
0.422676166504D-09 0.000000000000D+00 0.000000000000D+00 0.801953284306D-09 0.000000000000D+00  6 22 21 9900012 -11 3 -4 2 0.54019318D-01 0.19022116D-02 0.34638531D+04 0.34638531D+04 0.34638531D+04 0.12602005D+01  3  4 12  3  5  2       -3 0.238978218165D-05 0.100000000000D+01
-.330199847983D-08 0.000000000000D+00 -.377623755062D-09 0.801953284306D-09 0.000000000000D+00  6 22 21 9900012 -11 3 -4 2 0.54019318D-01 0.19018729D-02 0.32230051D+04 0.32230051D+04 0.32230051D+04 0.12639038D+01  3  4  5  3  5  2       -3 -.186035184455D-04 0.100000000000D+01
0.168234756125D-08 0.000000000000D+00 0.000000000000D+00 0.801953284306D-09 0.708203910558D-11  6 22 21 9900012 -11 3 -4 2 0.54598536D-01 0.18820317D-02 0.34638531D+04 0.34638531D+04 0.34638531D+04 0.12602005D+01  3  4 11  3  5  2       -3 0.949312333913D-05 0.100000000000D+01
  </mgrwgt>
  </event>
  <event>
  7     66 -.92480518E-06 0.10023911E+03 0.78161638E-02 0.11372137E+00
       22 -1    0    0    0    0 0.00000000E+00 0.00000000E+00 0.92425947E+03 0.92425947E+03 0.00000000E+00 0.0000E+00 0.9000E+01
       -3 -1    0    0    0  502 0.00000000E+00 0.00000000E+00 -.13238067E+03 0.13238067E+03 0.00000000E+00 0.0000E+00 0.9000E+01
       24  2    1    2    0    0 -.33886530E+02 0.91915555E+02 0.89649970E+03 0.90535684E+03 0.79765372E+02 0.0000E+00 0.0000E+00
  9900012  1    3    3    0    0 0.12297788E+01 0.43031097E+02 0.44592048E+03 0.45077518E+03 0.50000000E+02 0.0000E+00 0.9000E+01
      -11  1    3    3    0    0 -.35116309E+02 0.48884458E+02 0.45057922E+03 0.45458165E+03 0.00000000E+00 0.0000E+00 0.9000E+01
       -4  1    1    2    0  501 0.33995651E+02 -.96993623E+02 -.93033370E+02 0.13863144E+03 0.00000000E+00 0.0000E+00 0.9000E+01
       21  1    1    2  501  502 -.10912119E+00 0.50780681E+01 -.11587540E+02 0.12651868E+02 0.00000000E+00 0.0000E+00 0.9000E+01
#aMCatNLO 2  0  0  2  5 0.50951871D+01 0.00000000D+00  -5  6  0 0.00000000D+00 0.00000000D+00 0.00000000D+00 0.00000000D+00 0.00000000D+00
  <mgrwgt>
 -.1231420902D-03    5    2    0
 0.333289500028566D+03 0.000000000000000D+00 0.000000000000000D+00 0.333289500028566D+03
 0.333289500028566D+03 0.000000000000000D+00 0.000000000000000D+00 -.333289500028566D+03
 0.168832633374166D+03 0.120216793610073D+01 0.443159962124396D+02 0.155045494497609D+03
 0.169229380137928D+03 -.351439803614777D+02 0.501721870554493D+02 0.157753717522893D+03
 0.328516986545037D+03 0.339418124253770D+02 -.944881832678889D+02 -.312799212020501D+03
 0.000000000000000D+00 -.000000000000000D+00 0.000000000000000D+00 -.000000000000000D+00
 0.333491191032045D+03 0.000000000000000D+00 0.000000000000000D+00 0.333491191032045D+03
 0.366888522625837D+03 0.000000000000000D+00 0.000000000000000D+00 -.366888522625837D+03
 0.168500127643874D+03 0.122977878056555D+01 0.430310968503550D+02 0.155045494497609D+03
 0.168846322870242D+03 -.351163087068630D+02 0.488844578298011D+02 0.157753717522893D+03
 0.329251900819049D+03 0.339956511168459D+02 -.969936227669241D+02 -.312799212020501D+03
 0.337813623247172D+02 -.109121190548372D+00 0.507806808676805D+01 -.333973315937927D+02
-.180729017465D-03 0.000000000000D+00 0.000000000000D+00 0.681137883762D-04 0.000000000000D+00  6 22 -3 9900012 -11 -4 21 2 0.14210777D+00 0.20378582D-01 0.13692128D+05 0.13692128D+05 0.13692128D+05 0.11954350D+01  1  2 13  1  6  2       -3 -.220008526199D-03 0.100000000000D+01
-.572255397349D-06 0.000000000000D+00 0.000000000000D+00 0.681137883762D-04 0.000000000000D+00  6 22 -3 9900012 -11 -4 21 2 0.14210777D+00 0.18501150D-01 0.13050689D+05 0.13050689D+05 0.13050689D+05 0.11975257D+01  1  2  8  1  6  2       -3 -.824239105094D-06 0.100000000000D+01
-.129320262560D-05 0.000000000000D+00 0.000000000000D+00 0.681137883762D-04 0.000000000000D+00  6 22 -3 9900012 -11 -4 21 2 0.14210777D+00 0.20372537D-01 0.13050689D+05 0.13050689D+05 0.13050689D+05 0.11975257D+01  1  2  9  1  6  2       -3 -.157588645059D-05 0.100000000000D+01
0.128722254656D-05 0.000000000000D+00 0.000000000000D+00 0.681137883762D-04 0.000000000000D+00  6 22 -3 9900012 -11 -4 21 2 0.14210777D+00 0.18501150D-01 0.13050689D+05 0.13050689D+05 0.13050689D+05 0.11975257D+01  1  2 10  1  6  2       -3 0.185403084838D-05 0.100000000000D+01
0.800410252460D-04 0.000000000000D+00 0.000000000000D+00 0.681137883762D-04 0.920126979353D-05  6 22 -3 9900012 -11 -4 21 2 0.14219376D+00 0.20366257D-01 0.13692128D+05 0.13692128D+05 0.13692128D+05 0.11954350D+01  1  2  1  1  6  2       -3 0.974125306913D-04 0.100000000000D+01
  </mgrwgt>
  </event>
  <event>
  6     66 0.92480518E-06 0.89760910E+02 0.78161638E-02 0.10469879E+00
       22 -1    0    0    0    0 0.00000000E+00 0.00000000E+00 0.39418861E+03 0.39418861E+03 0.00000000E+00 0.0000E+00 0.9000E+01
       -3 -1    0    0    0  501 0.00000000E+00 0.00000000E+00 -.32862805E+03 0.32862805E+03 0.00000000E+00 0.0000E+00 0.9000E+01
       24  2    1    2    0    0 0.74644889E+02 0.11240903E+03 0.36290236E+03 0.39628978E+03 0.84497443E+02 0.0000E+00 0.0000E+00
  9900012  1    3    3    0    0 0.86451199E+02 0.94299272E+02 0.32057211E+03 0.34875872E+03 0.50000000E+02 0.0000E+00 0.9000E+01
      -11  1    3    3    0    0 -.11806311E+02 0.18109754E+02 0.42330251E+02 0.47531067E+02 0.00000000E+00 0.0000E+00 0.9000E+01
       -4  1    1    2    0  501 -.74644889E+02 -.11240903E+03 -.29734180E+03 0.32652687E+03 0.00000000E+00 0.0000E+00 0.9000E+01
#aMCatNLO 1  0  0  2  5 0.11477271D+03 0.00000000D+00  -5  6  0 0.00000000D+00 0.00000000D+00 0.00000000D+00 0.00000000D+00 0.00000000D+00
  <mgrwgt>
 0.1099691342D-04    9    4    0
 0.359918646000046D+03 0.000000000000000D+00 0.000000000000000D+00 0.359918646000046D+03
 0.359918646000046D+03 0.000000000000000D+00 0.000000000000000D+00 -.359918646000046D+03
 0.321005487457060D+03 0.864511990866696D+02 0.942992715564954D+02 0.290135072919383D+03
 0.438724860773287D+02 -.118063105008174D+02 0.181097539900478D+02 0.381764702059218D+02
 0.354959318465704D+03 -.746448885858522D+02 -.112409025546543D+03 -.328311543125305D+03
 0.000000000000000D+00 0.000000000000000D+00 -.000000000000000D+00 -.000000000000000D+00
 0.374856929513436D+03 0.000000000000000D+00 0.000000000000000D+00 0.374856929513436D+03
 0.654373723434362D+03 0.000000000000000D+00 0.000000000000000D+00 -.654373723434362D+03
 0.323130080301730D+03 0.472544951196997D+02 0.124505826967452D+03 0.290135072919383D+03
 0.475474199203636D+02 -.173693614662341D+02 0.223968646456385D+02 0.381764702059218D+02
 0.357707250826314D+03 -.118011816204660D+03 -.789887281862263D+02 -.328311543125305D+03
 0.300845901899391D+03 0.881266825511946D+02 -.679139634268637D+02 -.279516793920926D+03
 0.359918646000046D+03 0.000000000000000D+00 0.000000000000000D+00 0.359918646000046D+03
 0.359918646000046D+03 0.000000000000000D+00 0.000000000000000D+00 -.359918646000046D+03
 0.321005487457060D+03 0.864511990866696D+02 0.942992715564954D+02 0.290135072919383D+03
 0.438724860773287D+02 -.118063105008174D+02 0.181097539900478D+02 0.381764702059218D+02
 0.000000000000000D+00 0.000000000000000D+00 -.000000000000000D+00 -.000000000000000D+00
 0.354959318465704D+03 -.746448885858522D+02 -.112409025546543D+03 -.328311543125305D+03
 0.374856929513436D+03 0.000000000000000D+00 0.000000000000000D+00 0.374856929513436D+03
 0.654373723434362D+03 0.000000000000000D+00 0.000000000000000D+00 -.654373723434362D+03
 0.323130080301730D+03 0.472544951196997D+02 0.124505826967452D+03 0.290135072919383D+03
 0.475474199203636D+02 -.173693614662341D+02 0.223968646456385D+02 0.381764702059218D+02
 0.300845901899391D+03 0.881266825511946D+02 -.679139634268637D+02 -.279516793920926D+03
 0.357707250826314D+03 -.118011816204660D+03 -.789887281862263D+02 -.328311543125305D+03
0.959573647266D-05 0.000000000000D+00 0.000000000000D+00 0.187145305414D-05 0.000000000000D+00  6 22 -3 9900012 -11 -4 21 0 0.60644401D-01 0.50558161D-01 0.21595507D+05 0.21595507D+05 0.21595507D+05 0.11761326D+01  1  2  2  1  6  2       -3 0.770872127964D-05 0.100000000000D+01
0.884445805981D-07 0.000000000000D+00 -.184250773352D-07 0.187145305414D-05 0.000000000000D+00  6 22 -3 9900012 -11 -4 21 2 0.60644401D-01 0.50558161D-01 0.21595507D+05 0.21595507D+05 0.21595507D+05 0.11761326D+01  1  2  3  1  6  2       -3 0.982851321120D-07 0.100000000000D+01
-.139654278215D-05 0.000000000000D+00 0.000000000000D+00 0.187145305414D-05 0.000000000000D+00  6 22 -3 9900012 -11 -4 21 2 0.60644401D-01 0.50558161D-01 0.21595507D+05 0.21595507D+05 0.21595507D+05 0.11761326D+01  1  2 15  1  6  2       -3 -.155192540815D-05 0.100000000000D+01
0.226240424621D-05 0.000000000000D+00 0.000000000000D+00 0.187145305414D-05 0.000000000000D+00  6 22 -3 9900012 -11 -4 21 2 0.60644401D-01 0.95735712D-01 0.44913857D+05 0.44913857D+05 0.44913857D+05 0.11470326D+01  1  2 12  1  6  2       -3 0.587556882845D-06 0.100000000000D+01
-.541552224400D-05 0.000000000000D+00 0.000000000000D+00 0.187145305414D-05 0.000000000000D+00  6 22 -3 9900012 -11 -4 21 2 0.60644401D-01 0.50558161D-01 0.21595507D+05 0.21595507D+05 0.21595507D+05 0.11761326D+01  1  2  4  1  6  2       -3 -.601806595279D-05 0.100000000000D+01
-.189224453838D-04 0.000000000000D+00 -.287757663710D-05 0.187145305414D-05 0.000000000000D+00  6 22 -3 9900012 -11 -4 21 2 0.60644401D-01 0.93777158D-01 0.21595507D+05 0.21595507D+05 0.21595507D+05 0.11761326D+01  1  2  5  1  6  2       -3 -.531071315522D-05 0.100000000000D+01
0.176892563698D-04 0.000000000000D+00 0.240402257318D-05 0.187145305414D-05 0.000000000000D+00  6 22 -3 9900012 -11 -4 21 2 0.60644401D-01 0.50558161D-01 0.21595507D+05 0.21595507D+05 0.21595507D+05 0.11761326D+01  1  2  6  1  6  2       -3 0.196574045296D-04 0.100000000000D+01
0.157020481720D-06 0.000000000000D+00 0.000000000000D+00 0.187145305414D-05 0.000000000000D+00  6 22 21 9900012 -11 3 -4 2 0.60644401D-01 0.95735712D-01 0.44913857D+05 0.44913857D+05 0.44913857D+05 0.11470326D+01  3  4 12  3  5  2       -3 0.606710929367D-06 0.100000000000D+01
-.111508238759D-05 0.000000000000D+00 -.193840769241D-06 0.187145305414D-05 0.000000000000D+00  6 22 21 9900012 -11 3 -4 2 0.60644401D-01 0.93777158D-01 0.21595507D+05 0.21595507D+05 0.21595507D+05 0.11761326D+01  3  4  5  3  5  2       -3 -.478106081629D-05 0.100000000000D+01
  </mgrwgt>
  </event>
  <event>
  6     66 0.92480518E-06 0.28455369E+02 0.78161638E-02 0.12632441E+00
       22 -1    0    0    0    0 0.00000000E+00 0.00000000E+00 0.19588069E+03 0.19588069E+03 0.00000000E+00 0.0000E+00 0.9000E+01
       -3 -1    0    0    0  501 0.00000000E+00 0.00000000E+00 -.29241060E+02 0.29241060E+02 0.00000000E+00 0.0000E+00 0.9000E+01
       24  2    1    2    0    0 -.26116573E+02 -.11297464E+02 0.17455554E+03 0.19558585E+03 0.83513357E+02 0.0000E+00 0.0000E+00
  9900012  1    3    3    0    0 0.72944464E+01 -.28202030E+01 0.77209573E+02 0.92317283E+02 0.50000000E+02 0.0000E+00 0.9000E+01
      -11  1    3    3    0    0 -.33411019E+02 -.84772607E+01 0.97345963E+02 0.10326857E+03 0.00000000E+00 0.0000E+00 0.9000E+01
       -4  1    1    2    0  501 0.26116573E+02 0.11297464E+02 -.79159049E+01 0.29535904E+02 0.00000000E+00 0.0000E+00 0.9000E+01
#aMCatNLO 1  0  0  5  2 0.64023005D+01 0.00000000D+00  -5  6  0 0.00000000D+00 0.00000000D+00 0.00000000D+00 0.00000000D+00 0.00000000D+00
  <mgrwgt>
 0.6295527190D-04    6    2    0
 0.756819602558747D+02 0.000000000000000D+00 0.000000000000000D+00 0.756819602558747D+02
 0.756819602558747D+02 -.000000000000000D+00 -.000000000000000D+00 -.756819602558747D+02
 0.523007964577726D+02 0.729444642074264D+01 -.282020299715745D+01 0.131988945214021D+02
 0.464199460509829D+02 -.334110189697929D+02 -.847726066057344D+01 0.310910156551534D+02
 0.526431780029940D+02 0.261165725490503D+02 0.112974636577309D+02 -.442899101765555D+02
 0.000000000000000D+00 0.000000000000000D+00 0.000000000000000D+00 0.000000000000000D+00
 0.756819602558747D+02 0.000000000000000D+00 0.000000000000000D+00 0.756819602558747D+02
 0.756819602558747D+02 -.000000000000000D+00 -.000000000000000D+00 -.756819602558747D+02
 0.520772049712912D+02 0.808848314380865D+01 -.247671990783192D+01 0.118523236773363D+02
 0.450751252362703D+02 -.327149868022198D+02 -.817617221939302D+01 0.299106462891537D+02
 0.517384358164793D+01 -.330182739057628D+01 0.337348981200186D+01 -.211805565992006D+01
 0.490377467225400D+02 0.279283310489874D+02 0.727940231522308D+01 -.396449143065700D+02
0.516237562298D-06 0.000000000000D+00 0.000000000000D+00 0.535110082654D-07 0.000000000000D+00  6 22 -3 9900012 -11 -4 21 0 0.30135491D-01 0.44986247D-02 0.32224354D+04 0.32224354D+04 0.32224354D+04 0.12639129D+01  1  2  2  2  6  5       -4 0.678320150622D-04 0.100000000000D+01
0.218207862620D-07 0.000000000000D+00 -.991244083849D-09 0.535110082654D-07 0.000000000000D+00  6 22 -3 9900012 -11 -4 21 2 0.30135491D-01 0.44986247D-02 0.32224354D+04 0.32224354D+04 0.32224354D+04 0.12639129D+01  1  2  3  2  6  5       -4 0.458025654833D-05 0.100000000000D+01
-.630129572893D-07 0.000000000000D+00 0.000000000000D+00 0.535110082654D-07 0.000000000000D+00  6 22 -3 9900012 -11 -4 21 2 0.30135491D-01 0.44986247D-02 0.32224354D+04 0.32224354D+04 0.32224354D+04 0.12639129D+01  1  2 15  2  6  5       -4 -.132266320191D-04 0.100000000000D+01
0.572544435896D-07 0.000000000000D+00 0.000000000000D+00 0.535110082654D-07 0.000000000000D+00  6 22 -3 9900012 -11 -4 21 2 0.30135491D-01 0.44986247D-02 0.34818019D+04 0.34818019D+04 0.34818019D+04 0.12599363D+01  1  2 12  2  6  5       -4 0.120585255558D-04 0.100000000000D+01
-.452070646162D-07 0.000000000000D+00 0.000000000000D+00 0.535110082654D-07 0.000000000000D+00  6 22 -3 9900012 -11 -4 21 2 0.30135491D-01 0.44986247D-02 0.32224354D+04 0.32224354D+04 0.32224354D+04 0.12639129D+01  1  2  5  2  6  5       -4 -.948911516078D-05 0.100000000000D+01
0.569870982368D-08 0.000000000000D+00 0.000000000000D+00 0.535110082654D-07 0.444566392024D-09  6 22 -3 9900012 -11 -4 21 2 0.30135491D-01 0.44986247D-02 0.34818019D+04 0.34818019D+04 0.34818019D+04 0.12599363D+01  1  2 11  2  6  5       -4 0.120022191704D-05 0.100000000000D+01
  </mgrwgt>
  </event>
  <event>
  6     66 0.92480518E-06 0.31997432E+02 0.78161638E-02 0.12501589E+00
       22 -1    0    0    0    0 0.00000000E+00 0.00000000E+00 0.29551454E+03 0.29551454E+03 0.00000000E+00 0.0000E+00 0.9000E+01
       -3 -1    0    0    0  501 0.00000000E+00 0.00000000E+00 -.13800528E+03 0.13800528E+03 0.00000000E+00 0.0000E+00 0.9000E+01
       24  2    1    2    0    0 -.32285079E+02 -.20155422E+02 0.28603671E+03 0.29947552E+03 0.80125037E+02 0.0000E+00 0.0000E+00
  9900012  1    3    3    0    0 -.16991666E+02 0.10243005E+02 0.15401091E+03 0.16313490E+03 0.50000000E+02 0.0000E+00 0.9000E+01
      -11  1    3    3    0    0 -.15293413E+02 -.30398427E+02 0.13202580E+03 0.13634062E+03 0.00000000E+00 0.0000E+00 0.9000E+01
       -4  1    1    2    0  501 0.32285079E+02 0.20155422E+02 -.12852745E+03 0.13404429E+03 0.00000000E+00 0.0000E+00 0.9000E+01
#aMCatNLO 1  0  0  5  2 0.20649846D+01 0.00000000D+00  -5  6  0 0.00000000D+00 0.00000000D+00 0.00000000D+00 0.00000000D+00 0.00000000D+00
  <mgrwgt>
 0.3272208788D-03    8    2    0
 0.201946936709323D+03 0.000000000000000D+00 0.000000000000000D+00 0.201946936709323D+03
 0.201946936709323D+03 -.000000000000000D+00 -.000000000000000D+00 -.201946936709323D+03
 0.115040285999831D+03 -.169916661534912D+02 0.102430052631900D+02 0.101688895792164D+03
 0.948543097939834D+02 -.152934129246643D+02 -.303984268038400D+02 0.885403142950164D+02
 0.193999277624832D+03 0.322850790781555D+02 0.201554215406500D+02 -.190229210087180D+03
 0.000000000000000D+00 0.000000000000000D+00 0.000000000000000D+00 0.000000000000000D+00
 0.201946936709323D+03 0.000000000000000D+00 0.000000000000000D+00 0.201946936709323D+03
 0.201946936709323D+03 -.000000000000000D+00 -.000000000000000D+00 -.201946936709323D+03
 0.115028916593463D+03 -.169895211347051D+02 0.102443443882311D+02 0.101676256974451D+03
 0.948439434490688D+02 -.152916442989103D+02 -.303973226591813D+02 0.885298932494521D+02
 0.113401313828074D+03 0.170040919963794D+02 0.109885174839684D+02 -.111579439489614D+03
 0.806196995480407D+02 0.152770734372360D+02 0.916446078698185D+01 -.786267107342887D+02
0.492332544317D-06 0.000000000000D+00 0.000000000000D+00 0.383259890801D-04 0.000000000000D+00  6 22 -3 9900012 -11 -4 21 0 0.45463775D-01 0.21231581D-01 0.39615243D+04 0.39615243D+04 0.39615243D+04 0.12533926D+01  1  2  2  2  6  5       -4 0.293176249075D-05 0.100000000000D+01
0.306513809587D-07 0.000000000000D+00 -.945343302157D-09 0.383259890801D-04 0.000000000000D+00  6 22 -3 9900012 -11 -4 21 2 0.45463775D-01 0.21231581D-01 0.39615243D+04 0.39615243D+04 0.39615243D+04 0.12533926D+01  1  2  3  2  6  5       -4 0.286744121547D-06 0.100000000000D+01
-.622291045056D-07 0.000000000000D+00 0.000000000000D+00 0.383259890801D-04 0.000000000000D+00  6 22 -3 9900012 -11 -4 21 2 0.45463775D-01 0.21231581D-01 0.39615243D+04 0.39615243D+04 0.39615243D+04 0.12533926D+01  1  2 15  2  6  5       -4 -.582154191686D-06 0.100000000000D+01
0.190016177430D-06 0.000000000000D+00 0.000000000000D+00 0.383259890801D-04 0.000000000000D+00  6 22 -3 9900012 -11 -4 21 2 0.45463775D-01 0.21231581D-01 0.39614275D+04 0.39614275D+04 0.39614275D+04 0.12533938D+01  1  2 12  2  6  5       -4 0.177760392374D-05 0.100000000000D+01
-.125475723197D-03 0.000000000000D+00 0.000000000000D+00 0.383259890801D-04 0.000000000000D+00  6 22 -3 9900012 -11 -4 21 2 0.45463775D-01 0.21231581D-01 0.39615243D+04 0.39615243D+04 0.39615243D+04 0.12533926D+01  1  2  4  2  6  5       -4 -.117382724361D-02 0.100000000000D+01
-.125746851008D-03 0.000000000000D+00 0.000000000000D+00 0.383259890801D-04 0.000000000000D+00  6 22 -3 9900012 -11 -4 21 2 0.45463775D-01 0.21231581D-01 0.39615243D+04 0.39615243D+04 0.39615243D+04 0.12533926D+01  1  2  5  2  6  5       -4 -.117636364829D-02 0.100000000000D+01
0.187463357511D-03 0.000000000000D+00 -.000000000000D+00 0.383259890801D-04 0.000000000000D+00  6 22 -3 9900012 -11 -4 21 2 0.45463775D-01 0.21231581D-01 0.39615243D+04 0.39615243D+04 0.39615243D+04 0.12533926D+01  1  2  6  2  6  5       -4 0.175372247809D-02 0.100000000000D+01
0.982655264550D-04 0.000000000000D+00 0.000000000000D+00 0.383259890801D-04 0.231744354575D-04  6 22 -3 9900012 -11 -4 21 2 0.45463775D-01 0.21231581D-01 0.39614275D+04 0.39614275D+04 0.39614275D+04 0.12533938D+01  1  2 11  2  6  5       -4 0.919275336225D-03 0.100000000000D+01
  </mgrwgt>
  </event>
  <event>
  6     66 0.92480518E-06 0.41917904E+02 0.78161638E-02 0.10490028E+00
       22 -1    0    0    0    0 0.00000000E+00 0.00000000E+00 0.16362128E+02 0.16362128E+02 0.00000000E+00 0.0000E+00 0.9000E+01
       -1 -1    0    0    0  501 0.00000000E+00 0.00000000E+00 -.26121238E+03 0.26121238E+03 0.00000000E+00 0.0000E+00 0.9000E+01
       24  2    1    2    0    0 0.36044974E+02 0.21397909E+02 -.12687628E+03 0.15237479E+03 0.73235076E+02 0.0000E+00 0.0000E+00
  9900012  1    3    3    0    0 0.13796951E+02 0.19584174E+01 -.98865195E+02 0.11166252E+03 0.50000000E+02 0.0000E+00 0.9000E+01
      -11  1    3    3    0    0 0.22248023E+02 0.19439492E+02 -.28011082E+02 0.40712272E+02 0.00000000E+00 0.0000E+00 0.9000E+01
       -2  1    1    2    0  501 -.36044974E+02 -.21397909E+02 -.11797398E+03 0.12519972E+03 0.00000000E+00 0.0000E+00 0.9000E+01
#aMCatNLO 1  0  0  2  5 0.15580388D+02 0.00000000D+00  -5  6  0 0.00000000D+00 0.00000000D+00 0.00000000D+00 0.00000000D+00 0.00000000D+00
  <mgrwgt>
 0.2020090002D-03    3    2    0
 0.653757636845571D+02 0.000000000000000D+00 0.000000000000000D+00 0.653757636845571D+02
 0.653757636845571D+02 0.000000000000000D+00 0.000000000000000D+00 -.653757636845571D+02
 0.519114454348631D+02 0.137969506923195D+02 0.195841740331222D+01 -.779050707516031D+00
 0.339741223249478D+02 0.222480228792093D+02 0.194394918274595D+02 0.167741653505274D+02
 0.448659596093032D+02 -.360449735715288D+02 -.213979092307717D+02 -.159951146430113D+02
 0.000000000000000D+00 0.000000000000000D+00 -.000000000000000D+00 0.000000000000000D+00
 0.291759933137080D+03 0.000000000000000D+00 0.000000000000000D+00 0.291759933137080D+03
 0.167008238233791D+03 0.000000000000000D+00 0.000000000000000D+00 -.167008238233791D+03
 0.860430183427147D+02 -.161607074138575D+02 0.681294768907230D+02 -.779050707516031D+00
 0.724694483592516D+02 -.866851484690869D+00 0.704960771305105D+02 0.167741653505274D+02
 0.725423719081244D+02 -.615409130148993D+02 0.349180190575891D+02 -.159951146430113D+02
 0.227713332760781D+03 0.785684719134476D+02 -.173543573078823D+03 0.124751694903289D+03
0.133968396941D-05 0.000000000000D+00 0.000000000000D+00 0.514732655098D-08 0.000000000000D+00  6 22 -1 9900012 -11 -2 21 0 0.25172505D-02 0.40186520D-01 0.38049065D+04 0.38049065D+04 0.38049065D+04 0.12554261D+01  1  2  2  1  6  2       -1 0.251592298606D-03 0.100000000000D+01
-.198698149686D-07 0.000000000000D+00 -.257236959471D-08 0.514732655098D-08 0.000000000000D+00  6 22 -1 9900012 -11 -2 21 2 0.25172505D-02 0.40186520D-01 0.38049065D+04 0.38049065D+04 0.38049065D+04 0.12554261D+01  1  2  3  1  6  2       -1 -.588127025695D-05 0.100000000000D+01
-.147646881631D-06 0.000000000000D+00 0.000000000000D+00 0.514732655098D-08 0.000000000000D+00  6 22 -1 9900012 -11 -2 21 2 0.25172505D-02 0.40186520D-01 0.38049065D+04 0.38049065D+04 0.38049065D+04 0.12554261D+01  1  2 15  1  6  2       -1 -.437020281687D-04 0.100000000000D+01
  </mgrwgt>
  </event>
  <event>
  6     66 0.92480518E-06 0.73089184E+02 0.78161638E-02 0.10891014E+00
       22 -1    0    0    0    0 0.00000000E+00 0.00000000E+00 0.90460845E+03 0.90460845E+03 0.00000000E+00 0.0000E+00 0.9000E+01
       -1 -1    0    0    0  501 0.00000000E+00 0.00000000E+00 -.93759987E+01 0.93759987E+01 0.00000000E+00 0.0000E+00 0.9000E+01
       24  2    1    2    0    0 -.20750123E+02 0.70081818E+02 0.59546014E+03 0.60543062E+03 0.81433555E+02 0.0000E+00 0.0000E+00
  9900012  1    3    3    0    0 -.19775038E+02 0.28984479E+02 0.45488728E+03 0.45897014E+03 0.50000000E+02 0.0000E+00 0.9000E+01
      -11  1    3    3    0    0 -.97508485E+00 0.41097339E+02 0.14057286E+03 0.14646048E+03 0.00000000E+00 0.0000E+00 0.9000E+01
       -2  1    1    2    0  501 0.20750123E+02 -.70081818E+02 0.29977230E+03 0.30855383E+03 0.00000000E+00 0.0000E+00 0.9000E+01
#aMCatNLO 1  0  0  2  5 0.17553924D+03 0.00000000D+00  -5  6  0 0.00000000D+00 0.00000000D+00 0.00000000D+00 0.00000000D+00 0.00000000D+00
  <mgrwgt>
 0.7716059004D-04    3    2    0
 0.920956438582378D+02 0.000000000000000D+00 0.000000000000000D+00 0.920956438582378D+02
 0.920956438582378D+02 0.000000000000000D+00 0.000000000000000D+00 -.920956438582378D+02
 0.665705527649633D+02 -.197750380791544D+02 0.289844786805041D+02 0.264667028551001D+02
 0.435265503762790D+02 -.975084847118915D+00 0.410973393434127D+02 -.143044921647732D+02
 0.740941845752333D+02 0.207501229262733D+02 -.700818180239167D+02 -.121622106903269D+02
 0.000000000000000D+00 0.000000000000000D+00 -.000000000000000D+00 0.000000000000000D+00
 0.184082009923155D+03 0.000000000000000D+00 0.000000000000000D+00 0.184082009923155D+03
 0.146239546404075D+03 0.000000000000000D+00 0.000000000000000D+00 -.146239546404075D+03
 0.982819575814294D+02 -.483306037992207D+02 0.642106654880673D+02 0.264667028551001D+02
 0.700194492832533D+02 -.206433947121943D+02 0.653601945881021D+02 -.143044921647732D+02
 0.460453505410353D+02 -.603117063703849D-01 -.444100360286838D+02 -.121622106903269D+02
 0.115974798921512D+03 0.690343102177855D+02 -.851608240474856D+02 0.378424635190793D+02
0.182297197061D-05 0.000000000000D+00 0.000000000000D+00 0.125949243579D-06 0.000000000000D+00  6 22 -1 9900012 -11 -2 21 0 0.13917053D+00 0.14424613D-02 0.76808789D+04 0.76808789D+04 0.76808789D+04 0.12213970D+01  1  2  2  1  6  2       -1 0.991902444970D-04 0.100000000000D+01
-.621618633911D-07 0.000000000000D+00 -.350034618334D-08 0.125949243579D-06 0.000000000000D+00  6 22 -1 9900012 -11 -2 21 2 0.13917053D+00 0.14424613D-02 0.76808789D+04 0.76808789D+04 0.76808789D+04 0.12213970D+01  1  2  3  1  6  2       -1 -.504576091459D-05 0.100000000000D+01
-.209235135826D-06 0.000000000000D+00 0.000000000000D+00 0.125949243579D-06 0.000000000000D+00  6 22 -1 9900012 -11 -2 21 2 0.13917053D+00 0.14424613D-02 0.76808789D+04 0.76808789D+04 0.76808789D+04 0.12213970D+01  1  2 15  1  6  2       -1 -.169838935437D-04 0.100000000000D+01
  </mgrwgt>
  </event>
  <event>
  6     66 0.92480518E-06 0.35431100E+02 0.78161638E-02 0.10870125E+00
       22 -1    0    0    0    0 0.00000000E+00 0.00000000E+00 0.37624239E+03 0.37624239E+03 0.00000000E+00 0.0000E+00 0.9000E+01
       -1 -1    0    0    0  501 0.00000000E+00 0.00000000E+00 -.24155150E+03 0.24155150E+03 0.00000000E+00 0.0000E+00 0.9000E+01
       24  2    1    2    0    0 0.35252128E+02 0.35567308E+01 0.36998039E+03 0.37985165E+03 0.78399138E+02 0.0000E+00 0.0000E+00
  9900012  1    3    3    0    0 0.18184873E+02 -.13646910E+02 0.17622030E+03 0.18458202E+03 0.50000000E+02 0.0000E+00 0.9000E+01
      -11  1    3    3    0    0 0.17067254E+02 0.17203641E+02 0.19376009E+03 0.19526963E+03 0.00000000E+00 0.0000E+00 0.9000E+01
       -2  1    1    2    0  501 -.35252128E+02 -.35567308E+01 -.23528949E+03 0.23794224E+03 0.00000000E+00 0.0000E+00 0.9000E+01
#aMCatNLO 1  0  0  5  2 0.11774421D+02 0.00000000D+00  -5  6  0 0.00000000D+00 0.00000000D+00 0.00000000D+00 0.00000000D+00 0.00000000D+00
  <mgrwgt>
 0.3966435218D-03    3    2    0
 0.301466270516796D+03 0.000000000000000D+00 0.000000000000000D+00 0.301466270516796D+03
 0.301466270516796D+03 -.000000000000000D+00 -.000000000000000D+00 -.301466270516796D+03
 0.149765297082150D+03 0.181848733903288D+02 -.136469101663871D+02 0.139329524627025D+03
 0.156798081697510D+03 0.170672541874139D+02 0.172036409975934D+02 0.154914111671426D+03
 0.296369162253933D+03 -.352521275777429D+02 -.355673083120631D+01 -.294243636298451D+03
 0.000000000000000D+00 0.000000000000000D+00 0.000000000000000D+00 0.000000000000000D+00
 0.301466270516796D+03 0.000000000000000D+00 0.000000000000000D+00 0.301466270516796D+03
 0.301466270516796D+03 -.000000000000000D+00 -.000000000000000D+00 -.301466270516796D+03
 0.122295492892492D+03 0.146414153636981D+02 -.140044240890464D+02 0.109752870777485D+03
 0.126016742835171D+03 0.133837301480480D+02 0.168319952440312D+02 0.124168350146947D+03
 0.129757686576198D+03 0.175750391229340D+02 -.119572934459734D+03 -.472280485529775D+02
 0.224862618729731D+03 -.456001846346803D+02 0.116745363304749D+03 -.186693172371454D+03
0.210715357261D-03 0.000000000000D+00 0.000000000000D+00 0.722402161228D-04 0.000000000000D+00  6 22 -1 9900012 -11 -2 21 0 0.57883445D-01 0.37161769D-01 0.32827767D+04 0.32827767D+04 0.32827767D+04 0.12629562D+01  1  2  2  2  6  5       -2 0.471200953464D-03 0.100000000000D+01
0.131857641775D-04 0.000000000000D+00 -.404601227255D-06 0.722402161228D-04 0.000000000000D+00  6 22 -1 9900012 -11 -2 21 2 0.57883445D-01 0.37161769D-01 0.32827767D+04 0.32827767D+04 0.32827767D+04 0.12629562D+01  1  2  3  2  6  5       -2 0.470318280943D-04 0.100000000000D+01
-.340885602421D-04 0.000000000000D+00 0.000000000000D+00 0.722402161228D-04 0.000000000000D+00  6 22 -1 9900012 -11 -2 21 2 0.57883445D-01 0.37161769D-01 0.32827767D+04 0.32827767D+04 0.32827767D+04 0.12629562D+01  1  2 15  2  6  5       -2 -.121589259728D-03 0.100000000000D+01
  </mgrwgt>
  </event>
  <event>
  6     66 -.92480518E-06 0.30015808E+02 0.78161638E-02 0.12419289E+00
       22 -1    0    0    0    0 0.00000000E+00 0.00000000E+00 0.58062241E+03 0.58062241E+03 0.00000000E+00 0.0000E+00 0.9000E+01
       -1 -1    0    0    0  501 0.00000000E+00 0.00000000E+00 -.12169974E+02 0.12169974E+02 0.00000000E+00 0.0000E+00 0.9000E+01
       24  2    1    2    0    0 -.25524835E+02 -.36592082E+02 0.51640209E+03 0.52423776E+03 0.78508704E+02 0.0000E+00 0.0000E+00
  9900012  1    3    3    0    0 -.28762201E+02 -.97481333E+01 0.42214659E+03 0.42618075E+03 0.50000000E+02 0.0000E+00 0.9000E+01
      -11  1    3    3    0    0 0.32373661E+01 -.26843949E+02 0.94255494E+02 0.98057006E+02 0.00000000E+00 0.0000E+00 0.9000E+01
       -2  1    1    2    0  501 0.25524835E+02 0.36592082E+02 0.52050354E+02 0.68554629E+02 0.00000000E+00 0.0000E+00 0.9000E+01
#aMCatNLO 1  0  0  2  5 0.11219768D+01 0.00000000D+00  -5  6  0 0.00000000D+00 0.00000000D+00 0.00000000D+00 0.00000000D+00 0.00000000D+00
  <mgrwgt>
 -.1715230138D-04   11    4    0
 0.840604527841611D+02 0.000000000000000D+00 0.000000000000000D+00 0.840604527841611D+02
 0.840604527841611D+02 0.000000000000000D+00 0.000000000000000D+00 -.840604527841611D+02
 0.753412962170993D+02 -.287622014624064D+02 -.974813325061517D+01 0.474765266298716D+02
 0.270500614326003D+02 0.323736605256525D+01 -.268439492041460D+02 0.792259852812750D+00
 0.657295479186225D+02 0.255248354098412D+02 0.365920824547612D+02 -.482687864826843D+02
 0.000000000000000D+00 0.000000000000000D+00 0.000000000000000D+00 -.000000000000000D+00
 0.840739697081224D+02 0.000000000000000D+00 0.000000000000000D+00 0.840739697081224D+02
 0.111069555849304D+03 0.000000000000000D+00 0.000000000000000D+00 -.111069555849304D+03
 0.755105346511816D+02 -.290655247904371D+02 -.101496566999524D+02 0.474765266298716D+02
 0.271805473968454D+02 0.312832257157735D+01 -.269882952222985D+02 0.792259852812750D+00
 0.654335651765079D+02 0.252611009112283D+02 0.362429646131504D+02 -.482687864826843D+02
 0.270188783328912D+02 0.676101307631386D+00 0.894987309100449D+00 -.269955861411814D+02
 0.840604527841611D+02 0.000000000000000D+00 0.000000000000000D+00 0.840604527841611D+02
 0.840604527841611D+02 0.000000000000000D+00 0.000000000000000D+00 -.840604527841611D+02
 0.753412962170993D+02 -.287622014624064D+02 -.974813325061517D+01 0.474765266298716D+02
 0.270500614326003D+02 0.323736605256525D+01 -.268439492041460D+02 0.792259852812750D+00
 0.000000000000000D+00 0.000000000000000D+00 0.000000000000000D+00 -.000000000000000D+00
 0.657295479186225D+02 0.255248354098412D+02 0.365920824547612D+02 -.482687864826843D+02
 0.840739697081224D+02 0.000000000000000D+00 0.000000000000000D+00 0.840739697081224D+02
 0.111069555849304D+03 0.000000000000000D+00 0.000000000000000D+00 -.111069555849304D+03
 0.755105346511816D+02 -.290655247904371D+02 -.101496566999524D+02 0.474765266298716D+02
 0.271805473968454D+02 0.312832257157735D+01 -.269882952222985D+02 0.792259852812750D+00
 0.270188783328912D+02 0.676101307631386D+00 0.894987309100449D+00 -.269955861411814D+02
 0.654335651765079D+02 0.252611009112283D+02 0.362429646131504D+02 -.482687864826843D+02
0.121072639607D-07 0.000000000000D+00 0.000000000000D+00 0.293727560813D-06 0.000000000000D+00  6 22 -1 9900012 -11 -2 21 0 0.89326525D-01 0.18723037D-02 0.42350026D+04 0.42350026D+04 0.42350026D+04 0.12500491D+01  1  2  2  1  6  2       -1 0.103393847755D-05 0.100000000000D+01
0.103963317375D-09 0.000000000000D+00 -.232475407624D-10 0.293727560813D-06 0.000000000000D+00  6 22 -1 9900012 -11 -2 21 2 0.89326525D-01 0.18723037D-02 0.42350026D+04 0.42350026D+04 0.42350026D+04 0.12500491D+01  1  2  3  1  6  2       -1 0.138734021741D-07 0.100000000000D+01
-.119865761563D-08 0.000000000000D+00 0.000000000000D+00 0.293727560813D-06 0.000000000000D+00  6 22 -1 9900012 -11 -2 21 2 0.89326525D-01 0.18723037D-02 0.42350026D+04 0.42350026D+04 0.42350026D+04 0.12500491D+01  1  2 15  1  6  2       -1 -.159955064831D-06 0.100000000000D+01
0.132816143335D-09 0.000000000000D+00 0.000000000000D+00 0.293727560813D-06 0.000000000000D+00  6 22 -1 9900012 -11 -2 21 2 0.89326525D-01 0.24742834D-02 0.43024792D+04 0.43024792D+04 0.43024792D+04 0.12492613D+01  1  2 12  1  6  2       -1 0.120076765518D-07 0.100000000000D+01
-.601748479078D-05 0.000000000000D+00 0.000000000000D+00 0.293727560813D-06 0.000000000000D+00  6 22 -1 9900012 -11 -2 21 2 0.89326525D-01 0.18723037D-02 0.42350026D+04 0.42350026D+04 0.42350026D+04 0.12500491D+01  1  2  4  1  6  2       -1 -.803004258493D-03 0.100000000000D+01
-.552160139412D-05 0.000000000000D+00 -.627821281399D-08 0.293727560813D-06 0.000000000000D+00  6 22 -1 9900012 -11 -2 21 2 0.89326525D-01 0.24740736D-02 0.42350026D+04 0.42350026D+04 0.42350026D+04 0.12500491D+01  1  2  5  1  6  2       -1 -.498986905995D-03 0.100000000000D+01
0.531580383715D-05 0.000000000000D+00 0.604204225890D-08 0.293727560813D-06 0.000000000000D+00  6 22 -1 9900012 -11 -2 21 2 0.89326525D-01 0.18723037D-02 0.42350026D+04 0.42350026D+04 0.42350026D+04 0.12500491D+01  1  2  6  1  6  2       -1 0.709368326960D-03 0.100000000000D+01
0.630281254951D-05 0.000000000000D+00 0.000000000000D+00 0.293727560813D-06 0.230819853269D-05  6 22 -1 9900012 -11 -2 21 2 0.89340889D-01 0.24738856D-02 0.43024792D+04 0.43024792D+04 0.43024792D+04 0.12492613D+01  1  2 11  1  6  2       -1 0.569783830286D-03 0.100000000000D+01
0.486823821735D-11 0.000000000000D+00 0.000000000000D+00 0.293727560813D-06 0.000000000000D+00  6 22 21 9900012 -11 1 -2 2 0.89326525D-01 0.24742834D-02 0.43024792D+04 0.43024792D+04 0.43024792D+04 0.12492613D+01  3  4 12  3  5  2       -1 0.770617591444D-08 0.100000000000D+01
-.202218424696D-06 0.000000000000D+00 -.230070488938D-09 0.293727560813D-06 0.000000000000D+00  6 22 21 9900012 -11 1 -2 2 0.89326525D-01 0.24740736D-02 0.42350026D+04 0.42350026D+04 0.42350026D+04 0.12500491D+01  3  4  5  3  5  2       -1 -.319955359805D-03 0.100000000000D+01
0.205156816703D-06 0.000000000000D+00 0.000000000000D+00 0.293727560813D-06 0.750988038305D-07  6 22 21 9900012 -11 1 -2 2 0.89340889D-01 0.24738856D-02 0.43024792D+04 0.43024792D+04 0.43024792D+04 0.12492613D+01  3  4 11  3  5  2       -1 0.324734495002D-03 0.100000000000D+01
  </mgrwgt>
  </event>
  <event>
  7     66 -.92480518E-06 0.14135951E+03 0.78161638E-02 0.10963761E+00
       22 -1    0    0    0    0 0.00000000E+00 0.00000000E+00 0.30012495E+03 0.30012495E+03 0.00000000E+00 0.0000E+00 0.9000E+01
       -1 -1    0    0    0  501 0.00000000E+00 0.00000000E+00 -.13052364E+03 0.13052364E+03 0.00000000E+00 0.0000E+00 0.9000E+01
       24  2    1    2    0    0 -.10273753E+03 -.10194722E+03 0.21960332E+03 0.27495946E+03 0.80180106E+02 0.0000E+00 0.0000E+00
  9900012  1    3    3    0    0 -.81486079E+02 -.76157438E+02 0.20459680E+03 0.23832706E+03 0.50000000E+02 0.0000E+00 0.9000E+01
      -11  1    3    3    0    0 -.21251448E+02 -.25789781E+02 0.15006520E+02 0.36632397E+02 0.00000000E+00 0.0000E+00 0.9000E+01
       -2  1    1    2    0  502 0.10226932E+03 0.94216026E+02 -.50472433E+02 0.14792951E+03 0.00000000E+00 0.0000E+00 0.9000E+01
       21  1    1    2  502  501 0.46821174E+00 0.77311929E+01 0.47041944E+00 0.77596302E+01 0.00000000E+00 0.0000E+00 0.9000E+01
#aMCatNLO 2  0  0  5  2 0.57160064D+01 0.00000000D+00  -5  6  0 0.00000000D+00 0.00000000D+00 0.00000000D+00 0.00000000D+00 0.00000000D+00
  <mgrwgt>
 -.5372273524D-04    3    2    0
 0.197922716841935D+03 0.000000000000000D+00 0.000000000000000D+00 0.197922716841935D+03
 0.197922716841935D+03 -.000000000000000D+00 -.000000000000000D+00 -.197922716841935D+03
 0.172482387824998D+03 -.819803403505046D+02 -.766478971931107D+02 0.121055763025569D+03
 0.335607325694232D+02 -.213476627209745D+02 -.258852555771344D+02 0.744050169199905D+00
 0.189802313289450D+03 0.103328003071479D+03 0.102533152770245D+03 -.121799813194769D+03
 0.000000000000000D+00 0.000000000000000D+00 0.000000000000000D+00 0.000000000000000D+00
 0.197922716841935D+03 0.000000000000000D+00 0.000000000000000D+00 0.197922716841935D+03
 0.197922716841935D+03 -.000000000000000D+00 -.000000000000000D+00 -.197922716841935D+03
 0.171620845642173D+03 -.814860789902903D+02 -.761574379366764D+02 0.120473143217250D+03
 0.334235629382611D+02 -.212514481382837D+02 -.257897811247834D+02 0.630635433116665D+00
 0.182560712591347D+03 0.102269315387790D+03 0.942160261215599D+02 -.118290918222130D+03
 0.824031251208981D+01 0.468211740783869D+00 0.773119293989998D+01 -.281286042823611D+01
-.712415651053D-05 0.000000000000D+00 0.000000000000D+00 0.182128869688D-05 0.000000000000D+00  6 22 -1 9900012 -11 -2 21 2 0.46173069D-01 0.20080560D-01 0.22868210D+05 0.22868210D+05 0.22868210D+05 0.11737746D+01  1  2 13  2  6  5       -2 -.958813549287D-04 0.100000000000D+01
-.627612725805D-05 0.000000000000D+00 0.000000000000D+00 0.182128869688D-05 0.000000000000D+00  6 22 -1 9900012 -11 -2 21 2 0.46173069D-01 0.20080560D-01 0.22798562D+05 0.22798562D+05 0.22798562D+05 0.11738998D+01  1  2  8  2  6  5       -2 -.844699447923D-04 0.100000000000D+01
0.940872928564D-05 0.000000000000D+00 0.000000000000D+00 0.182128869688D-05 0.203427485966D-06  6 22 -1 9900012 -11 -2 21 2 0.46173069D-01 0.20080560D-01 0.22868210D+05 0.22868210D+05 0.22868210D+05 0.11737746D+01  1  2  1  2  6  5       -2 0.126628564481D-03 0.100000000000D+01
  </mgrwgt>
  </event>
  <event>
  6     66 0.92480518E-06 0.45929464E+02 0.78161638E-02 0.12157972E+00
       22 -1    0    0    0    0 0.00000000E+00 0.00000000E+00 0.58987903E+03 0.58987903E+03 0.00000000E+00 0.0000E+00 0.9000E+01
       -3 -1    0    0    0  501 0.00000000E+00 0.00000000E+00 -.27890911E+03 0.27890911E+03 0.00000000E+00 0.0000E+00 0.9000E+01
       24  2    1    2    0    0 -.45520312E+02 0.31189429E+02 0.58314065E+03 0.59108006E+03 0.79232163E+02 0.0000E+00 0.0000E+00
  9900012  1    3    3    0    0 -.45830131E+02 0.57935041E+01 0.34987274E+03 0.35643358E+03 0.50000000E+02 0.0000E+00 0.9000E+01
      -11  1    3    3    0    0 0.30981875E+00 0.25395925E+02 0.23326791E+03 0.23464647E+03 0.00000000E+00 0.0000E+00 0.9000E+01
       -4  1    1    2    0  501 0.45520312E+02 -.31189429E+02 -.27217072E+03 0.27770809E+03 0.00000000E+00 0.0000E+00 0.9000E+01
#aMCatNLO 1  0  0  2  5 0.15547327D+01 0.00000000D+00  -5  6  0 0.00000000D+00 0.00000000D+00 0.00000000D+00 0.00000000D+00 0.00000000D+00
  <mgrwgt>
 0.2682710669D-03   11    4    0
 0.405613900301067D+03 0.000000000000000D+00 0.000000000000000D+00 0.405613900301067D+03
 0.405613900301067D+03 0.000000000000000D+00 0.000000000000000D+00 -.405613900301067D+03
 0.247606618135314D+03 -.458301309038685D+02 0.579350413822172D+01 0.238065267848005D+03
 0.161876562535273D+03 0.309818747454056D+00 0.253959253336571D+02 0.159871737611834D+03
 0.401744619931546D+03 0.455203121564144D+02 -.311894294718788D+02 -.397937005459839D+03
 0.000000000000000D+00 -.000000000000000D+00 -.000000000000000D+00 -.000000000000000D+00
 0.405719351479965D+03 0.000000000000000D+00 0.000000000000000D+00 0.405719351479965D+03
 0.411279090382111D+03 0.000000000000000D+00 0.000000000000000D+00 -.411279090382111D+03
 0.247615104379175D+03 -.458141681565062D+02 0.626339822262195D+01 0.238065267848005D+03
 0.161925068522744D+03 0.320256019078265D+00 0.257031664421059D+02 0.159871737611834D+03
 0.401689090128884D+03 0.455462096660611D+02 -.304270866052367D+02 -.397937005459839D+03
 0.576917883127186D+01 -.522975286332603D-01 -.153947805949120D+01 -.555973890214634D+01
 0.405613900301067D+03 0.000000000000000D+00 0.000000000000000D+00 0.405613900301067D+03
 0.405613900301067D+03 0.000000000000000D+00 0.000000000000000D+00 -.405613900301067D+03
 0.247606618135314D+03 -.458301309038685D+02 0.579350413822172D+01 0.238065267848005D+03
 0.161876562535273D+03 0.309818747454056D+00 0.253959253336571D+02 0.159871737611834D+03
 0.000000000000000D+00 -.000000000000000D+00 -.000000000000000D+00 -.000000000000000D+00
 0.401744619931546D+03 0.455203121564144D+02 -.311894294718788D+02 -.397937005459839D+03
 0.405719351479965D+03 0.000000000000000D+00 0.000000000000000D+00 0.405719351479965D+03
 0.411279090382111D+03 0.000000000000000D+00 0.000000000000000D+00 -.411279090382111D+03
 0.247615104379175D+03 -.458141681565062D+02 0.626339822262195D+01 0.238065267848005D+03
 0.161925068522744D+03 0.320256019078265D+00 0.257031664421059D+02 0.159871737611834D+03
 0.576917883127186D+01 -.522975286332603D-01 -.153947805949120D+01 -.555973890214634D+01
 0.401689090128884D+03 0.455462096660611D+02 -.304270866052367D+02 -.397937005459839D+03
0.604839308134D-04 0.000000000000D+00 0.000000000000D+00 0.285765389207D-03 0.000000000000D+00  6 22 -3 9900012 -11 -4 21 0 0.90750621D-01 0.42909094D-01 0.55243154D+04 0.55243154D+04 0.55243154D+04 0.12369995D+01  1  2  2  1  6  2       -3 0.304196922252D-04 0.100000000000D+01
0.226639052102D-05 0.000000000000D+00 -.116137110054D-06 0.285765389207D-03 0.000000000000D+00  6 22 -3 9900012 -11 -4 21 2 0.90750621D-01 0.42909094D-01 0.55243154D+04 0.55243154D+04 0.55243154D+04 0.12369995D+01  1  2  3  1  6  2       -3 0.174416904948D-05 0.100000000000D+01
-.891371049193D-05 0.000000000000D+00 0.000000000000D+00 0.285765389207D-03 0.000000000000D+00  6 22 -3 9900012 -11 -4 21 2 0.90750621D-01 0.42909094D-01 0.55243154D+04 0.55243154D+04 0.55243154D+04 0.12369995D+01  1  2 15  1  6  2       -3 -.685981423409D-05 0.100000000000D+01
0.868204959753D-07 0.000000000000D+00 0.000000000000D+00 0.285765389207D-03 0.000000000000D+00  6 22 -3 9900012 -11 -4 21 2 0.90750621D-01 0.43519714D-01 0.56343263D+04 0.56343263D+04 0.56343263D+04 0.12360485D+01  1  2 12  1  6  2       -3 0.649632488729D-07 0.100000000000D+01
-.185112339465D-02 0.000000000000D+00 0.000000000000D+00 0.285765389207D-03 0.000000000000D+00  6 22 -3 9900012 -11 -4 21 2 0.90750621D-01 0.42909094D-01 0.55243154D+04 0.55243154D+04 0.55243154D+04 0.12369995D+01  1  2  4  1  6  2       -3 -.142458773181D-02 0.100000000000D+01
-.160071689576D-01 0.000000000000D+00 -.506162973411D-03 0.285765389207D-03 0.000000000000D+00  6 22 -3 9900012 -11 -4 21 2 0.90750621D-01 0.43514361D-01 0.55243154D+04 0.55243154D+04 0.55243154D+04 0.12369995D+01  1  2  5  1  6  2       -3 -.119850728244D-01 0.100000000000D+01
0.160127376615D-01 0.000000000000D+00 0.506113322084D-03 0.285765389207D-03 0.000000000000D+00  6 22 -3 9900012 -11 -4 21 2 0.90750621D-01 0.42909094D-01 0.55243154D+04 0.55243154D+04 0.55243154D+04 0.12369995D+01  1  2  6  1  6  2       -3 0.123230842910D-01 0.100000000000D+01
0.186062658986D-02 0.000000000000D+00 0.000000000000D+00 0.285765389207D-03 0.351568108750D-03  6 22 -3 9900012 -11 -4 21 2 0.90774214D-01 0.43508403D-01 0.56343263D+04 0.56343263D+04 0.56343263D+04 0.12360485D+01  1  2 11  1  6  2       -3 0.139224101449D-02 0.100000000000D+01
0.868056071453D-08 0.000000000000D+00 0.000000000000D+00 0.285765389207D-03 0.000000000000D+00  6 22 21 9900012 -11 3 -4 2 0.90750621D-01 0.43519714D-01 0.56343263D+04 0.56343263D+04 0.56343263D+04 0.12360485D+01  3  4 12  3  5  2       -3 0.106207029394D-06 0.100000000000D+01
-.411406517504D-04 0.000000000000D+00 -.130186837764D-05 0.285765389207D-03 0.000000000000D+00  6 22 21 9900012 -11 3 -4 2 0.90750621D-01 0.43514361D-01 0.55243154D+04 0.55243154D+04 0.55243154D+04 0.12369995D+01  3  4  5  3  5  2       -3 -.504040350111D-03 0.100000000000D+01
0.360569314240D-04 0.000000000000D+00 0.000000000000D+00 0.285765389207D-03 0.255889771166D-05  6 22 21 9900012 -11 3 -4 2 0.90774214D-01 0.43508403D-01 0.56343263D+04 0.56343263D+04 0.56343263D+04 0.12360485D+01  3  4 11  3  5  2       -3 0.441171450445D-03 0.100000000000D+01
  </mgrwgt>
  </event>
  <event>
  7     66 -.92480518E-06 0.13871118E+02 0.78161638E-02 0.12369234E+00
       22 -1    0    0    0    0 0.00000000E+00 0.00000000E+00 0.73746768E+03 0.73746768E+03 0.00000000E+00 0.0000E+00 0.9000E+01
       -1 -1    0    0    0  501 0.00000000E+00 0.00000000E+00 -.24865201E+02 0.24865201E+02 0.00000000E+00 0.0000E+00 0.9000E+01
       24  2    1    2    0    0 0.12904518E+02 0.28078501E+02 0.71812978E+03 0.72531024E+03 0.97003223E+02 0.0000E+00 0.0000E+00
  9900012  1    3    3    0    0 0.39789938E+02 0.31847074E+02 0.59213594E+03 0.59642472E+03 0.50000000E+02 0.0000E+00 0.9000E+01
      -11  1    3    3    0    0 -.26885419E+02 -.37685735E+01 0.12599385E+03 0.12888552E+03 0.00000000E+00 0.0000E+00 0.9000E+01
       -2  1    1    2    0  502 0.33423894E+01 -.14378547E+02 -.55494324E+01 0.15770554E+02 0.00000000E+00 0.0000E+00 0.9000E+01
       21  1    1    2  502  501 -.16246907E+02 -.13699954E+02 0.22125607E-01 0.21252088E+02 0.00000000E+00 0.0000E+00 0.9000E+01
#aMCatNLO 2  0  0  5  2 0.98130003D+01 0.00000000D+00  -5  6  0 0.00000000D+00 0.00000000D+00 0.00000000D+00 0.00000000D+00 0.00000000D+00
  <mgrwgt>
 -.1734256799D-04    2    2    0
 0.135415221135841D+03 0.000000000000000D+00 0.000000000000000D+00 0.135415221135841D+03
 0.135415221135841D+03 -.000000000000000D+00 -.000000000000000D+00 -.135415221135841D+03
 0.121444545567076D+03 0.398706504708808D+02 0.320226949678405D+02 0.981511889180108D+02
 0.313424770668061D+02 -.268645562959088D+02 -.372317798815290D+01 0.157093739332842D+02
 0.118043419637799D+03 -.130060941749720D+02 -.282995169796876D+02 -.113860562851295D+03
 0.000000000000000D+00 -.000000000000000D+00 0.000000000000000D+00 0.000000000000000D+00
 0.135415221135841D+03 0.000000000000000D+00 0.000000000000000D+00 0.135415221135841D+03
 0.135415221135841D+03 -.000000000000000D+00 -.000000000000000D+00 -.135415221135841D+03
 0.120801177596872D+03 0.397899375524865D+02 0.318470744799483D+02 0.974445956707136D+02
 0.312747062225757D+02 -.268854194737553D+02 -.376857346567087D+01 0.155267293098862D+02
 0.589924485776955D+02 0.334238937894912D+01 -.143785465603046D+02 -.571156267692536D+02
 0.597621098745379D+02 -.162469074576804D+02 -.136999544539729D+02 -.558556982113462D+02
-.962665038230D-06 0.000000000000D+00 0.000000000000D+00 0.144971605365D-07 0.000000000000D+00  6 22 -1 9900012 -11 -2 21 2 0.11345657D+00 0.38254156D-02 0.45265215D+04 0.45265215D+04 0.45265215D+04 0.12467413D+01  1  2 13  2  6  5       -2 -.296974241280D-04 0.100000000000D+01
0.400492244746D-06 0.000000000000D+00 0.000000000000D+00 0.144971605365D-07 0.194936397803D-09  6 22 -1 9900012 -11 -2 21 2 0.11345657D+00 0.38254156D-02 0.45265215D+04 0.45265215D+04 0.45265215D+04 0.12467413D+01  1  2  1  2  6  5       -2 0.123548561336D-04 0.100000000000D+01
  </mgrwgt>
  </event>
  <event>
  6     66 0.92480518E-06 0.40646325E+02 0.78161638E-02 0.12442442E+00
       22 -1    0    0    0    0 0.00000000E+00 0.00000000E+00 0.69251372E+03 0.69251372E+03 0.00000000E+00 0.0000E+00 0.9000E+01
       -1 -1    0    0    0  501 0.00000000E+00 0.00000000E+00 -.61913046E+01 0.61913046E+01 0.00000000E+00 0.0000E+00 0.9000E+01
       24  2    1    2    0    0 -.39661526E+02 -.88930938E+01 0.48730949E+03 0.49558371E+03 0.80501871E+02 0.0000E+00 0.0000E+00
  9900012  1    3    3    0    0 -.31032275E+02 0.17383122E+02 0.29674351E+03 0.30302126E+03 0.50000000E+02 0.0000E+00 0.9000E+01
      -11  1    3    3    0    0 -.86292503E+01 -.26276216E+02 0.19056598E+03 0.19256245E+03 0.00000000E+00 0.0000E+00 0.9000E+01
       -2  1    1    2    0  501 0.39661526E+02 0.88930938E+01 0.19901292E+03 0.20312131E+03 0.00000000E+00 0.0000E+00 0.9000E+01
#aMCatNLO 1  0  0  2  5 0.54189489D+01 0.00000000D+00  -5  6  0 0.00000000D+00 0.00000000D+00 0.00000000D+00 0.00000000D+00 0.00000000D+00
  <mgrwgt>
 0.3661778127D-04    1    2    0
 0.654794879577720D+02 0.000000000000000D+00 0.000000000000000D+00 0.654794879577720D+02
 0.654794879577720D+02 0.000000000000000D+00 0.000000000000000D+00 -.654794879577720D+02
 0.615517670443519D+02 -.310322753344741D+02 0.173831220566456D+02 -.484200179794654D+01
 0.286703979909252D+02 -.862925029649803D+01 -.262762158101800D+02 0.755567620900240D+01
 0.407368108802669D+02 0.396615256309721D+02 0.889309375353444D+01 -.271367441105587D+01
 0.000000000000000D+00 -.000000000000000D+00 -.000000000000000D+00 0.000000000000000D+00
 0.194940706152186D+03 0.000000000000000D+00 0.000000000000000D+00 0.194940706152186D+03
 0.718414977199365D+02 0.000000000000000D+00 0.000000000000000D+00 -.718414977199365D+02
 0.696489646175432D+02 -.306104551063048D+02 0.372898555785533D+02 -.484200179794654D+01
 0.218037681170067D+02 -.846697205311770D+01 -.186179065787923D+02 0.755567620900240D+01
 0.456808194609724D+02 0.399393648174359D+02 0.220050079708346D+02 -.271367441105587D+01
 0.129648651676600D+03 -.861937658013477D+00 -.406769569705956D+02 0.123099208432249D+03
0.150896734189D-06 0.000000000000D+00 0.000000000000D+00 0.106995270185D-06 0.000000000000D+00  6 22 -1 9900012 -11 -2 21 2 0.10654057D+00 0.95250839D-03 0.42032035D+04 0.42032035D+04 0.42032035D+04 0.12504253D+01  1  2 14  1  6  2       -1 0.366177812697D-04 0.100000000000D+01
  </mgrwgt>
  </event>
  <event>
  6     66 -.92480518E-06 0.44804601E+02 0.78161638E-02 0.11435867E+00
       22 -1    0    0    0    0 0.00000000E+00 0.00000000E+00 0.26137846E+04 0.26137846E+04 0.00000000E+00 0.0000E+00 0.9000E+01
       -1 -1    0    0    0  501 0.00000000E+00 0.00000000E+00 -.21365161E+02 0.21365161E+02 0.00000000E+00 0.0000E+00 0.9000E+01
       24  2    1    2    0    0 -.89136802E+02 0.44798747E+02 0.24858573E+04 0.24891779E+04 0.81041496E+02 0.0000E+00 0.0000E+00
  9900012  1    3    3    0    0 -.84729555E+02 0.20159252E+02 0.17355030E+04 0.17384062E+04 0.50000000E+02 0.0000E+00 0.9000E+01
      -11  1    3    3    0    0 -.44072469E+01 0.24639495E+02 0.75035429E+03 0.75077167E+03 0.00000000E+00 0.0000E+00 0.9000E+01
       -2  1    1    2    0  501 0.89136802E+02 -.44798747E+02 0.10656211E+03 0.14597185E+03 0.00000000E+00 0.0000E+00 0.9000E+01
#aMCatNLO 1  0  0  5  2 0.33242528D+01 0.00000000D+00  -5  6  0 0.00000000D+00 0.00000000D+00 0.00000000D+00 0.00000000D+00 0.00000000D+00
  <mgrwgt>
 -.4566595592D-04    8    2    0
 0.236313200987855D+03 0.000000000000000D+00 0.000000000000000D+00 0.236313200987855D+03
 0.236313200987855D+03 -.000000000000000D+00 -.000000000000000D+00 -.236313200987855D+03
 0.173094435930278D+03 -.847295546805200D+02 0.201592519840218D+02 0.140982945327109D+03
 0.701668788866536D+02 -.440724687265861D+01 0.246394950886763D+02 0.655504565161285D+02
 0.229365087158779D+03 0.891368015531786D+02 -.447987470726982D+02 -.206533401843237D+03
 0.000000000000000D+00 0.000000000000000D+00 0.000000000000000D+00 -.000000000000000D+00
 0.236313200987855D+03 0.000000000000000D+00 0.000000000000000D+00 0.236313200987855D+03
 0.236313200987855D+03 -.000000000000000D+00 -.000000000000000D+00 -.236313200987855D+03
 0.173052011101834D+03 -.847121331260536D+02 0.201504961862082D+02 0.140942578914509D+03
 0.701499025518725D+02 -.440018472751360D+01 0.246359457661897D+02 0.655340932538653D+02
 0.167624767060061D+03 0.681880288891962D+02 -.326399334722569D+02 -.149609792430418D+03
 0.617997212619432D+02 0.209242889643710D+02 -.121465084801410D+02 -.568668797379568D+02
0.107935793399D-05 0.000000000000D+00 0.000000000000D+00 0.618832014899D-05 0.000000000000D+00  6 22 -1 9900012 -11 -2 21 0 0.40212071D+00 0.32869479D-02 0.12680821D+05 0.12680821D+05 0.12680821D+05 0.11987836D+01  1  2  2  2  6  5       -2 0.910304982138D-06 0.100000000000D+01
0.103916038646D-07 0.000000000000D+00 -.207250933400D-08 0.618832014899D-05 0.000000000000D+00  6 22 -1 9900012 -11 -2 21 2 0.40212071D+00 0.32869479D-02 0.12680821D+05 0.12680821D+05 0.12680821D+05 0.11987836D+01  1  2  3  2  6  5       -2 0.125946353630D-07 0.100000000000D+01
-.168320591165D-06 0.000000000000D+00 0.000000000000D+00 0.618832014899D-05 0.000000000000D+00  6 22 -1 9900012 -11 -2 21 2 0.40212071D+00 0.32869479D-02 0.12680821D+05 0.12680821D+05 0.12680821D+05 0.11987836D+01  1  2 15  2  6  5       -2 -.204004742427D-06 0.100000000000D+01
0.534834321266D-05 0.000000000000D+00 0.000000000000D+00 0.618832014899D-05 0.000000000000D+00  6 22 -1 9900012 -11 -2 21 2 0.40212071D+00 0.32869479D-02 0.12681872D+05 0.12681872D+05 0.12681872D+05 0.11987800D+01  1  2 12  2  6  5       -2 0.648219793751D-05 0.100000000000D+01
-.303271884920D-03 0.000000000000D+00 0.000000000000D+00 0.618832014899D-05 0.000000000000D+00  6 22 -1 9900012 -11 -2 21 2 0.40212071D+00 0.32869479D-02 0.12680821D+05 0.12680821D+05 0.12680821D+05 0.11987836D+01  1  2  4  2  6  5       -2 -.367565859532D-03 0.100000000000D+01
-.172232798682D-03 0.000000000000D+00 0.000000000000D+00 0.618832014899D-05 0.000000000000D+00  6 22 -1 9900012 -11 -2 21 2 0.40212071D+00 0.32869479D-02 0.12680821D+05 0.12680821D+05 0.12680821D+05 0.11987836D+01  1  2  5  2  6  5       -2 -.208746342259D-03 0.100000000000D+01
0.224594764672D-03 0.000000000000D+00 -.000000000000D+00 0.618832014899D-05 0.000000000000D+00  6 22 -1 9900012 -11 -2 21 2 0.40212071D+00 0.32869479D-02 0.12680821D+05 0.12680821D+05 0.12680821D+05 0.11987836D+01  1  2  6  2  6  5       -2 0.272209102881D-03 0.100000000000D+01
0.207290279735D-03 0.000000000000D+00 0.000000000000D+00 0.618832014899D-05 0.299631875256D-05  6 22 -1 9900012 -11 -2 21 2 0.40212071D+00 0.32869479D-02 0.12681872D+05 0.12681872D+05 0.12681872D+05 0.11987800D+01  1  2 11  2  6  5       -2 0.251236050181D-03 0.100000000000D+01
  </mgrwgt>
  </event>
  <event>
  6     66 0.92480518E-06 0.26000391E+02 0.78161638E-02 0.12729832E+00
       22 -1    0    0    0    0 0.00000000E+00 0.00000000E+00 0.25781032E+02 0.25781032E+02 0.00000000E+00 0.0000E+00 0.9000E+01
       -1 -1    0    0    0  501 0.00000000E+00 0.00000000E+00 -.20684504E+03 0.20684504E+03 0.00000000E+00 0.0000E+00 0.9000E+01
       24  2    1    2    0    0 0.19297150E+02 0.17425279E+02 -.47095398E+02 0.96157729E+02 0.79701393E+02 0.0000E+00 0.0000E+00
  9900012  1    3    3    0    0 0.26678456E+02 -.78744083E+01 -.28644030E+02 0.63986145E+02 0.50000000E+02 0.0000E+00 0.9000E+01
      -11  1    3    3    0    0 -.73813062E+01 0.25299687E+02 -.18451368E+02 0.32171584E+02 0.00000000E+00 0.0000E+00 0.9000E+01
       -2  1    1    2    0  501 -.19297150E+02 -.17425279E+02 -.13396861E+03 0.13646834E+03 0.00000000E+00 0.0000E+00 0.9000E+01
#aMCatNLO 1  0  0  2  5 0.35349451D+01 0.00000000D+00  -5  6  0 0.00000000D+00 0.00000000D+00 0.00000000D+00 0.00000000D+00 0.00000000D+00
  <mgrwgt>
 0.3727739354D-04   11    4    0
 0.730251916996210D+02 0.000000000000000D+00 0.000000000000000D+00 0.730251916996210D+02
 0.730251916996210D+02 0.000000000000000D+00 0.000000000000000D+00 -.730251916996210D+02
 0.664047737591992D+02 0.266784556895346D+02 -.787440833146590D+01 0.337023392876713D+02
 0.283674066697539D+02 -.738130616718779D+01 0.252996872533736D+02 0.104953277850154D+02
 0.512782029702889D+02 -.192971495223468D+02 -.174252789219077D+02 -.441976670726867D+02
 0.000000000000000D+00 -.000000000000000D+00 -.000000000000000D+00 -.000000000000000D+00
 0.733865465736130D+02 0.000000000000000D+00 0.000000000000000D+00 0.733865465736130D+02
 0.818306792292443D+02 0.000000000000000D+00 0.000000000000000D+00 -.818306792292443D+02
 0.664926339873548D+02 0.272802425251951D+02 -.641958479043267D+01 0.337023392876713D+02
 0.288624998921161D+02 -.712215736241429D+01 0.259261811536619D+02 0.104953277850154D+02
 0.507362489104024D+02 -.188352070719267D+02 -.163085300805408D+02 -.441976670726867D+02
 0.912584301298402D+01 -.132287809085417D+01 -.319806628268842D+01 -.844413265563129D+01
 0.730251916996210D+02 0.000000000000000D+00 0.000000000000000D+00 0.730251916996210D+02
 0.730251916996210D+02 0.000000000000000D+00 0.000000000000000D+00 -.730251916996210D+02
 0.664047737591992D+02 0.266784556895346D+02 -.787440833146590D+01 0.337023392876713D+02
 0.283674066697539D+02 -.738130616718779D+01 0.252996872533736D+02 0.104953277850154D+02
 0.000000000000000D+00 -.000000000000000D+00 -.000000000000000D+00 -.000000000000000D+00
 0.512782029702889D+02 -.192971495223468D+02 -.174252789219077D+02 -.441976670726867D+02
 0.733865465736130D+02 0.000000000000000D+00 0.000000000000000D+00 0.733865465736130D+02
 0.818306792292443D+02 0.000000000000000D+00 0.000000000000000D+00 -.818306792292443D+02
 0.664926339873548D+02 0.272802425251951D+02 -.641958479043267D+01 0.337023392876713D+02
 0.288624998921161D+02 -.712215736241429D+01 0.259261811536619D+02 0.104953277850154D+02
 0.912584301298402D+01 -.132287809085417D+01 -.319806628268842D+01 -.844413265563129D+01
 0.507362489104024D+02 -.188352070719267D+02 -.163085300805408D+02 -.441976670726867D+02
0.618037030652D-07 0.000000000000D+00 0.000000000000D+00 0.612542725416D-06 0.000000000000D+00  6 22 -1 9900012 -11 -2 21 0 0.39663127D-02 0.31822313D-01 0.30014794D+04 0.30014794D+04 0.30014794D+04 0.12675978D+01  1  2  2  1  6  2       -1 0.896867720011D-05 0.100000000000D+01
0.324499424636D-08 0.000000000000D+00 -.118671246530D-09 0.612542725416D-06 0.000000000000D+00  6 22 -1 9900012 -11 -2 21 2 0.39663127D-02 0.31822313D-01 0.30014794D+04 0.30014794D+04 0.30014794D+04 0.12675978D+01  1  2  3  1  6  2       -1 0.756642549329D-06 0.100000000000D+01
-.758972773238D-08 0.000000000000D+00 0.000000000000D+00 0.612542725416D-06 0.000000000000D+00  6 22 -1 9900012 -11 -2 21 2 0.39663127D-02 0.31822313D-01 0.30014794D+04 0.30014794D+04 0.30014794D+04 0.12675978D+01  1  2 15  1  6  2       -1 -.176971375114D-05 0.100000000000D+01
0.371017014373D-07 0.000000000000D+00 0.000000000000D+00 0.612542725416D-06 0.000000000000D+00  6 22 -1 9900012 -11 -2 21 2 0.39663127D-02 0.35835952D-01 0.31686005D+04 0.31686005D+04 0.31686005D+04 0.12647837D+01  1  2 12  1  6  2       -1 0.716141628626D-05 0.100000000000D+01
-.400789775014D-06 0.000000000000D+00 0.000000000000D+00 0.612542725416D-06 0.000000000000D+00  6 22 -1 9900012 -11 -2 21 2 0.39663127D-02 0.31822313D-01 0.30014794D+04 0.30014794D+04 0.30014794D+04 0.12675978D+01  1  2  4  1  6  2       -1 -.934530461653D-04 0.100000000000D+01
-.100134747201D-05 0.000000000000D+00 -.664264001562D-07 0.612542725416D-06 0.000000000000D+00  6 22 -1 9900012 -11 -2 21 2 0.39663127D-02 0.35767279D-01 0.30014794D+04 0.30014794D+04 0.30014794D+04 0.12675978D+01  1  2  5  1  6  2       -1 -.193720125218D-03 0.100000000000D+01
0.100270640848D-05 0.000000000000D+00 0.659753544934D-07 0.612542725416D-06 0.000000000000D+00  6 22 -1 9900012 -11 -2 21 2 0.39663127D-02 0.31822313D-01 0.30014794D+04 0.30014794D+04 0.30014794D+04 0.12675978D+01  1  2  6  1  6  2       -1 0.233803290713D-03 0.100000000000D+01
0.408073539426D-06 0.000000000000D+00 0.000000000000D+00 0.612542725416D-06 0.228925582795D-05  6 22 -1 9900012 -11 -2 21 2 0.39859394D-02 0.35659496D-01 0.31686005D+04 0.31686005D+04 0.31686005D+04 0.12647837D+01  1  2 11  1  6  2       -1 0.788688616284D-04 0.100000000000D+01
0.697950880001D-09 0.000000000000D+00 0.000000000000D+00 0.612542725416D-06 0.000000000000D+00  6 22 21 9900012 -11 1 -2 2 0.39663127D-02 0.35835952D-01 0.31686005D+04 0.31686005D+04 0.31686005D+04 0.12647837D+01  3  4 12  3  5  2       -1 0.145794335500D-05 0.100000000000D+01
-.182877426810D-07 0.000000000000D+00 -.123256468073D-08 0.612542725416D-06 0.000000000000D+00  6 22 21 9900012 -11 1 -2 2 0.39663127D-02 0.35767279D-01 0.30014794D+04 0.30014794D+04 0.30014794D+04 0.12675978D+01  3  4  5  3  5  2       -1 -.383547463690D-04 0.100000000000D+01
0.160212065155D-07 0.000000000000D+00 0.000000000000D+00 0.612542725416D-06 0.912965869608D-08  6 22 21 9900012 -11 1 -2 2 0.39859394D-02 0.35659496D-01 0.31686005D+04 0.31686005D+04 0.31686005D+04 0.12647837D+01  3  4 11  3  5  2       -1 0.335581933164D-04 0.100000000000D+01
  </mgrwgt>
  </event>
  <event>
  6     66 0.92480518E-06 0.34052221E+02 0.78161638E-02 0.12591679E+00
       22 -1    0    0    0    0 0.00000000E+00 0.00000000E+00 0.56095126E+03 0.56095126E+03 0.00000000E+00 0.0000E+00 0.9000E+01
       -1 -1    0    0    0  501 0.00000000E+00 0.00000000E+00 -.87351940E+01 0.87351940E+01 0.00000000E+00 0.0000E+00 0.9000E+01
       24  2    1    2    0    0 -.18057763E+02 0.29463984E+02 0.49118414E+03 0.49955012E+03 0.84227402E+02 0.0000E+00 0.0000E+00
  9900012  1    3    3    0    0 -.37687589E+02 0.25222472E+02 0.42684494E+03 0.43214943E+03 0.50000000E+02 0.0000E+00 0.9000E+01
      -11  1    3    3    0    0 0.19629826E+02 0.42415117E+01 0.64339200E+02 0.67400691E+02 0.00000000E+00 0.0000E+00 0.9000E+01
       -2  1    1    2    0  501 0.18057763E+02 -.29463984E+02 0.61031927E+02 0.70136333E+02 0.00000000E+00 0.0000E+00 0.9000E+01
#aMCatNLO 1  0  0  5  2 0.80788772D+01 0.00000000D+00  -5  6  0 0.00000000D+00 0.00000000D+00 0.00000000D+00 0.00000000D+00 0.00000000D+00
  <mgrwgt>
 0.7148502477D-04    8    2    0
 0.700001290943641D+02 0.000000000000000D+00 0.000000000000000D+00 0.700001290943641D+02
 0.700001290943641D+02 -.000000000000000D+00 -.000000000000000D+00 -.700001290943641D+02
 0.748501696106593D+02 -.376875889843388D+02 0.252224724489084D+02 0.323422388040170D+02
 0.204865387529955D+02 0.196298258947326D+02 0.424151171887487D+01 -.404694746186811D+01
 0.446635498250734D+02 0.180577630896062D+02 -.294639841677833D+02 -.282952913421489D+02
 0.000000000000000D+00 0.000000000000000D+00 -.000000000000000D+00 0.000000000000000D+00
 0.700001290943641D+02 0.000000000000000D+00 0.000000000000000D+00 0.700001290943641D+02
 0.700001290943641D+02 -.000000000000000D+00 -.000000000000000D+00 -.700001290943641D+02
 0.735199485846107D+02 -.369114531796967D+02 0.239560889579662D+02 0.311260865815936D+02
 0.206927410455809D+02 0.198452379591685D+02 0.389003420615109D+01 -.438448357260250D+01
 0.134412648711768D+02 0.405555145510430D+01 -.177724163158285D+01 -.126910013755851D+02
 0.323463036873598D+02 0.130106637654239D+02 -.260688815325345D+02 -.140506016334061D+02
0.328231369485D-06 0.000000000000D+00 0.000000000000D+00 0.222907357113D-07 0.000000000000D+00  6 22 -1 9900012 -11 -2 21 0 0.86300193D-01 0.13438760D-02 0.37296809D+04 0.37296809D+04 0.37296809D+04 0.12564366D+01  1  2  2  2  6  5       -2 0.466136475239D-04 0.100000000000D+01
0.382068931320D-08 0.000000000000D+00 -.630247442064D-09 0.222907357113D-07 0.000000000000D+00  6 22 -1 9900012 -11 -2 21 2 0.86300193D-01 0.13438760D-02 0.37296809D+04 0.37296809D+04 0.37296809D+04 0.12564366D+01  1  2  3  2  6  5       -2 0.856556254093D-06 0.100000000000D+01
-.378671618483D-07 0.000000000000D+00 0.000000000000D+00 0.222907357113D-07 0.000000000000D+00  6 22 -1 9900012 -11 -2 21 2 0.86300193D-01 0.13438760D-02 0.37296809D+04 0.37296809D+04 0.37296809D+04 0.12564366D+01  1  2 15  2  6  5       -2 -.848939854750D-05 0.100000000000D+01
0.112294877145D-06 0.000000000000D+00 0.000000000000D+00 0.222907357113D-07 0.000000000000D+00  6 22 -1 9900012 -11 -2 21 2 0.86300193D-01 0.13438760D-02 0.36235570D+04 0.36235570D+04 0.36235570D+04 0.12579018D+01  1  2 12  2  6  5       -2 0.251407643545D-04 0.100000000000D+01
-.551877990225D-07 0.000000000000D+00 0.000000000000D+00 0.222907357113D-07 0.000000000000D+00  6 22 -1 9900012 -11 -2 21 2 0.86300193D-01 0.13438760D-02 0.37296809D+04 0.37296809D+04 0.37296809D+04 0.12564366D+01  1  2  4  2  6  5       -2 -.123724936857D-04 0.100000000000D+01
-.102366209804D-06 0.000000000000D+00 0.000000000000D+00 0.222907357113D-07 0.000000000000D+00  6 22 -1 9900012 -11 -2 21 2 0.86300193D-01 0.13438760D-02 0.37296809D+04 0.37296809D+04 0.37296809D+04 0.12564366D+01  1  2  5  2  6  5       -2 -.229493711809D-04 0.100000000000D+01
0.190262257063D-06 0.000000000000D+00 -.000000000000D+00 0.222907357113D-07 0.000000000000D+00  6 22 -1 9900012 -11 -2 21 2 0.86300193D-01 0.13438760D-02 0.37296809D+04 0.37296809D+04 0.37296809D+04 0.12564366D+01  1  2  6  2  6  5       -2 0.426546920846D-04 0.100000000000D+01
0.136804256197D-09 0.000000000000D+00 0.000000000000D+00 0.222907357113D-07 0.137954331551D-09  6 22 -1 9900012 -11 -2 21 2 0.86300193D-01 0.13438760D-02 0.36235570D+04 0.36235570D+04 0.36235570D+04 0.12579018D+01  1  2 11  2  6  5       -2 0.306279650078D-07 0.100000000000D+01
  </mgrwgt>
  </event>
  <event>
  5     66 0.92480518E-06 0.61587459E+02 0.78161638E-02 0.10572872E+00
       22 -1    0    0    0    0 0.00000000E+00 0.00000000E+00 0.38583226E+03 0.38583226E+03 0.00000000E+00 0.0000E+00 0.9000E+01
       -1 -1    0    0    0  501 0.00000000E+00 0.00000000E+00 -.44438385E+02 0.44438385E+02 0.00000000E+00 0.0000E+00 0.9000E+01
  9900012  1    1    2    0    0 -.43450696E+02 0.55978028E+00 0.20519738E+03 0.21562523E+03 0.50000000E+02 0.0000E+00 0.9000E+01
      -11  1    1    2    0    0 0.19820291E+02 -.57433491E+02 0.14033128E+03 0.15291932E+03 0.00000000E+00 0.0000E+00 0.9000E+01
       -2  1    1    2    0  501 0.23630405E+02 0.56873711E+02 -.41347785E+01 0.61726100E+02 0.00000000E+00 0.0000E+00 0.9000E+01
#aMCatNLO 1  0  0  2  5 0.21579588D+01 0.00000000D+00  -5  6  0 0.00000000D+00 0.00000000D+00 0.00000000D+00 0.00000000D+00 0.00000000D+00
  <mgrwgt>
 0.3234743805D-04    5    4    0
 0.130941829834299D+03 0.000000000000000D+00 0.000000000000000D+00 0.130941829834299D+03
 0.130941829834299D+03 0.000000000000000D+00 0.000000000000000D+00 -.130941829834299D+03
 0.867716579385696D+02 -.434506963464680D+02 0.559780281474318D+00 0.560450198898317D+02
 0.683068756325921D+02 0.198202910902367D+02 -.574334914683204D+02 0.312150504972050D+02
 0.106805126097436D+03 0.236304052562313D+02 0.568737111868461D+02 -.872600703870367D+02
 0.000000000000000D+00 -.000000000000000D+00 0.000000000000000D+00 -.000000000000000D+00
 0.183147209988754D+03 0.000000000000000D+00 0.000000000000000D+00 0.183147209988754D+03
 0.356690019736875D+03 0.000000000000000D+00 0.000000000000000D+00 -.356690019736875D+03
 0.823618186522921D+02 -.996175069879083D+01 -.322984278297963D+02 0.560450198898317D+02
 0.112374463857815D+03 0.555957489103397D+02 -.925351471219813D+02 0.312150504972050D+02
 0.110809686551394D+03 0.667188037200980D+02 0.145968482840187D+02 -.872600703870367D+02
 0.234291260664129D+03 -.112352801931647D+03 0.110236726667759D+03 -.173542809748121D+03
 0.130941829834299D+03 0.000000000000000D+00 0.000000000000000D+00 0.130941829834299D+03
 0.130941829834299D+03 0.000000000000000D+00 0.000000000000000D+00 -.130941829834299D+03
 0.867716579385696D+02 -.434506963464680D+02 0.559780281474318D+00 0.560450198898317D+02
 0.683068756325921D+02 0.198202910902367D+02 -.574334914683204D+02 0.312150504972050D+02
 0.000000000000000D+00 -.000000000000000D+00 0.000000000000000D+00 -.000000000000000D+00
 0.106805126097436D+03 0.236304052562313D+02 0.568737111868461D+02 -.872600703870367D+02
 0.183147209988754D+03 0.000000000000000D+00 0.000000000000000D+00 0.183147209988754D+03
 0.356690019736875D+03 0.000000000000000D+00 0.000000000000000D+00 -.356690019736875D+03
 0.823618186522921D+02 -.996175069879083D+01 -.322984278297963D+02 0.560450198898317D+02
 0.112374463857815D+03 0.555957489103397D+02 -.925351471219813D+02 0.312150504972050D+02
 0.234291260664129D+03 -.112352801931647D+03 0.110236726667759D+03 -.173542809748121D+03
 0.110809686551394D+03 0.667188037200980D+02 0.145968482840187D+02 -.872600703870367D+02
0.120697209793D-05 0.000000000000D+00 0.000000000000D+00 0.235349292004D-08 0.000000000000D+00  6 22 -1 9900012 -11 -2 21 0 0.59358810D-01 0.68366747D-02 0.88914366D+04 0.88914366D+04 0.88914366D+04 0.12146560D+01  1  2  2  1  6  2       -1 0.364783078191D-04 0.100000000000D+01
0.267656945036D-07 0.000000000000D+00 -.231754532955D-08 0.235349292004D-08 0.000000000000D+00  6 22 -1 9900012 -11 -2 21 2 0.59358810D-01 0.68366747D-02 0.88914366D+04 0.88914366D+04 0.88914366D+04 0.12146560D+01  1  2  3  1  6  2       -1 0.119350039112D-05 0.100000000000D+01
-.183694659782D-06 0.000000000000D+00 0.000000000000D+00 0.235349292004D-08 0.000000000000D+00  6 22 -1 9900012 -11 -2 21 2 0.59358810D-01 0.68366747D-02 0.88914366D+04 0.88914366D+04 0.88914366D+04 0.12146560D+01  1  2 15  1  6  2       -1 -.819106891726D-05 0.100000000000D+01
0.131355303477D-06 0.000000000000D+00 -.399164496704D-06 0.235349292004D-08 0.000000000000D+00  6 22 -1 9900012 -11 -2 21 2 0.59358810D-01 0.25629342D-01 0.88914366D+04 0.88914366D+04 0.88914366D+04 0.12146560D+01  1  2  5  1  6  2       -1 0.797481945219D-06 0.100000000000D+01
0.293003644553D-07 0.000000000000D+00 -.623824651117D-07 0.235349292004D-08 0.000000000000D+00  6 22 21 9900012 -11 1 -2 2 0.59358810D-01 0.25629342D-01 0.88914366D+04 0.88914366D+04 0.88914366D+04 0.12146560D+01  3  4  5  3  5  2       -1 0.206921680993D-05 0.100000000000D+01
  </mgrwgt>
  </event>
  <event>
  7     66 -.92480518E-06 0.30078972E+02 0.78161638E-02 0.11350654E+00
       22 -1    0    0    0    0 0.00000000E+00 0.00000000E+00 0.13784078E+03 0.13784078E+03 0.00000000E+00 0.0000E+00 0.9000E+01
       -1 -1    0    0    0  501 -.00000000E+00 -.00000000E+00 -.81235171E+03 0.81235171E+03 0.00000000E+00 0.0000E+00 0.9000E+01
       24  2    1    2    0    0 0.10604342E+03 0.14671461E+02 0.94318600E+02 0.16385314E+03 0.80569187E+02 0.0000E+00 0.0000E+00
  9900012  1    3    3    0    0 0.48062922E+02 0.16567760E+02 0.30346540E+02 0.77494824E+02 0.50000000E+02 0.0000E+00 0.9000E+01
      -11  1    3    3    0    0 0.57980498E+02 -.18962990E+01 0.63972060E+02 0.86358315E+02 0.00000000E+00 0.0000E+00 0.9000E+01
       -2  1    1    2    0  502 -.55958326E+02 -.14647655E+01 -.68841236E+03 0.69068448E+03 0.00000000E+00 0.0000E+00 0.9000E+01
       21  1    1    2  502  501 -.50085095E+02 -.13206696E+02 -.80417177E+02 0.95654879E+02 0.00000000E+00 0.0000E+00 0.9000E+01
#aMCatNLO 2  0  0  5  2 0.46075928D+02 0.00000000D+00  -5  6  0 0.00000000D+00 0.00000000D+00 0.00000000D+00 0.00000000D+00 0.00000000D+00
  <mgrwgt>
 -.5320319386D-04    2    2    0
 0.334626950725678D+03 0.000000000000000D+00 0.000000000000000D+00 0.334626950725678D+03
 0.334626950725678D+03 -.000000000000000D+00 -.000000000000000D+00 -.334626950725678D+03
 0.145469904634237D+03 0.498010416842563D+02 0.168082345445201D+02 0.126090573212090D+03
 0.194006770455642D+03 0.602958674148920D+02 -.157595984546651D+01 0.184392385162401D+03
 0.329777226361478D+03 -.110096909099148D+03 -.152322746990536D+02 -.310482958374491D+03
 0.000000000000000D+00 0.000000000000000D+00 -.000000000000000D+00 0.000000000000000D+00
 0.334626950725678D+03 0.000000000000000D+00 0.000000000000000D+00 0.334626950725678D+03
 0.334626950725678D+03 -.000000000000000D+00 -.000000000000000D+00 -.334626950725678D+03
 0.140610421052297D+03 0.480629224080169D+02 0.165677599436251D+02 0.121188924116668D+03
 0.187084269127193D+03 0.579804978405899D+02 -.189629895102521D+01 0.177862839500840D+03
 0.286799301418527D+03 -.559583255759003D+02 -.146476548479217D+01 -.281283415001615D+03
 0.547599098533393D+02 -.500850946727066D+02 -.132066955078077D+02 -.177683486158935D+02
-.354752593535D-04 0.000000000000D+00 0.000000000000D+00 0.465953584504D-04 0.000000000000D+00  6 22 -1 9900012 -11 -2 21 2 0.21206274D-01 0.12497719D+00 0.14053149D+05 0.14053149D+05 0.14053149D+05 0.11943053D+01  1  2 13  2  6  5       -2 -.570684969651D-04 0.100000000000D+01
0.240277276475D-05 0.000000000000D+00 0.000000000000D+00 0.465953584504D-04 0.983258070607D-08  6 22 -1 9900012 -11 -2 21 2 0.21206274D-01 0.12497719D+00 0.14053149D+05 0.14053149D+05 0.14053149D+05 0.11943053D+01  1  2  1  2  6  5       -2 0.386530310791D-05 0.100000000000D+01
  </mgrwgt>
  </event>
  <event>
  6     66 0.92480518E-06 0.41739492E+02 0.78161638E-02 0.12048994E+00
       22 -1    0    0    0    0 0.00000000E+00 0.00000000E+00 0.27586337E+03 0.27586337E+03 0.00000000E+00 0.0000E+00 0.9000E+01
       -1 -1    0    0    0  501 0.00000000E+00 0.00000000E+00 -.46003920E+02 0.46003920E+02 0.00000000E+00 0.0000E+00 0.9000E+01
       24  2    1    2    0    0 -.45414832E+00 0.68637233E+02 0.23056722E+03 0.25322490E+03 0.79059031E+02 0.0000E+00 0.0000E+00
  9900012  1    3    3    0    0 -.35509236E+01 0.48372040E+02 0.10506904E+03 0.12606335E+03 0.50000000E+02 0.0000E+00 0.9000E+01
      -11  1    3    3    0    0 0.30967753E+01 0.20265193E+02 0.12549818E+03 0.12716156E+03 0.00000000E+00 0.0000E+00 0.9000E+01
       -2  1    1    2    0  501 0.45414832E+00 -.68637233E+02 -.70777680E+00 0.68642385E+02 0.00000000E+00 0.0000E+00 0.9000E+01
#aMCatNLO 1  0  0  5  2 0.20410852D+01 0.00000000D+00  -5  6  0 0.00000000D+00 0.00000000D+00 0.00000000D+00 0.00000000D+00 0.00000000D+00
  <mgrwgt>
 0.1628466480D-04    8    2    0
 0.112653434176944D+03 0.000000000000000D+00 0.000000000000000D+00 0.112653434176944D+03
 0.112653434176944D+03 -.000000000000000D+00 -.000000000000000D+00 -.112653434176944D+03
 0.728985985482675D+02 -.355092360527284D+01 0.483720401557333D+02 0.214881907805918D+02
 0.536255408387192D+02 0.309677528382402D+01 0.202651929846068D+02 0.495523013227770D+02
 0.987827289669003D+02 0.454148321448809D+00 -.686372331403401D+02 -.710404921033688D+02
 0.000000000000000D+00 0.000000000000000D+00 0.000000000000000D+00 0.000000000000000D+00
 0.112653434176944D+03 0.000000000000000D+00 0.000000000000000D+00 0.112653434176944D+03
 0.112653434176944D+03 -.000000000000000D+00 -.000000000000000D+00 -.112653434176944D+03
 0.728006037381144D+02 -.355025389588840D+01 0.482708243260472D+02 0.213834309873925D+02
 0.535262627330620D+02 0.309726780929627D+01 0.201907556607869D+02 0.494752576560515D+02
 0.941007620693934D+02 -.156739826079443D+01 -.653540534398354D+02 -.676856290782304D+02
 0.487923981331715D+01 0.202038434738656D+01 -.310752654699862D+01 -.317305956521358D+01
0.148449155440D-06 0.000000000000D+00 0.000000000000D+00 0.673353144845D-06 0.000000000000D+00  6 22 -1 9900012 -11 -2 21 0 0.42440518D-01 0.70775261D-02 0.63042648D+04 0.63042648D+04 0.63042648D+04 0.12306738D+01  1  2  2  2  6  5       -2 0.722081266983D-05 0.100000000000D+01
-.106647511014D-08 0.000000000000D+00 -.285041922225D-09 0.673353144845D-06 0.000000000000D+00  6 22 -1 9900012 -11 -2 21 2 0.42440518D-01 0.70775261D-02 0.63042648D+04 0.63042648D+04 0.63042648D+04 0.12306738D+01  1  2  3  2  6  5       -2 -.785678722780D-07 0.100000000000D+01
-.165704461589D-07 0.000000000000D+00 0.000000000000D+00 0.673353144845D-06 0.000000000000D+00  6 22 -1 9900012 -11 -2 21 2 0.42440518D-01 0.70775261D-02 0.63042648D+04 0.63042648D+04 0.63042648D+04 0.12306738D+01  1  2 15  2  6  5       -2 -.122075488216D-05 0.100000000000D+01
0.232824266395D-08 0.000000000000D+00 0.000000000000D+00 0.673353144845D-06 0.000000000000D+00  6 22 -1 9900012 -11 -2 21 2 0.42440518D-01 0.70775261D-02 0.63278602D+04 0.63278602D+04 0.63278602D+04 0.12304964D+01  1  2 12  2  6  5       -2 0.171535400170D-06 0.100000000000D+01
-.332745804531D-05 0.000000000000D+00 0.000000000000D+00 0.673353144845D-06 0.000000000000D+00  6 22 -1 9900012 -11 -2 21 2 0.42440518D-01 0.70775261D-02 0.63042648D+04 0.63042648D+04 0.63042648D+04 0.12306738D+01  1  2  4  2  6  5       -2 -.245135865084D-03 0.100000000000D+01
-.449002550405D-05 0.000000000000D+00 0.000000000000D+00 0.673353144845D-06 0.000000000000D+00  6 22 -1 9900012 -11 -2 21 2 0.42440518D-01 0.70775261D-02 0.63042648D+04 0.63042648D+04 0.63042648D+04 0.12306738D+01  1  2  5  2  6  5       -2 -.330782919332D-03 0.100000000000D+01
0.471727447657D-05 0.000000000000D+00 -.000000000000D+00 0.673353144845D-06 0.000000000000D+00  6 22 -1 9900012 -11 -2 21 2 0.42440518D-01 0.70775261D-02 0.63042648D+04 0.63042648D+04 0.63042648D+04 0.12306738D+01  1  2  6  2  6  5       -2 0.347524489837D-03 0.100000000000D+01
0.323831669827D-05 0.000000000000D+00 0.000000000000D+00 0.673353144845D-06 0.944013677137D-06  6 22 -1 9900012 -11 -2 21 2 0.42440518D-01 0.70775261D-02 0.63278602D+04 0.63278602D+04 0.63278602D+04 0.12304964D+01  1  2 11  2  6  5       -2 0.238585934067D-03 0.100000000000D+01
  </mgrwgt>
  </event>
  <event>
  6     66 0.92480518E-06 0.85974210E+02 0.78161638E-02 0.10397355E+00
       22 -1    0    0    0    0 0.00000000E+00 0.00000000E+00 0.16529401E+04 0.16529401E+04 0.00000000E+00 0.0000E+00 0.9000E+01
       -1 -1    0    0    0  501 0.00000000E+00 0.00000000E+00 -.50261037E+02 0.50261037E+02 0.00000000E+00 0.0000E+00 0.9000E+01
       24  2    1    2    0    0 0.23241118E+03 -.37215661E+01 0.12918996E+04 0.13151126E+04 0.80547413E+02 0.0000E+00 0.0000E+00
  9900012  1    3    3    0    0 0.12683353E+03 0.19970186E+02 0.71771395E+03 0.73082068E+03 0.50000000E+02 0.0000E+00 0.9000E+01
      -11  1    3    3    0    0 0.10557765E+03 -.23691752E+02 0.57418561E+03 0.58429193E+03 0.00000000E+00 0.0000E+00 0.9000E+01
       -2  1    1    2    0  501 -.23241118E+03 0.37215661E+01 0.31077951E+03 0.38808853E+03 0.00000000E+00 0.0000E+00 0.9000E+01
#aMCatNLO 1  0  0  5  2 0.67667024D+02 0.00000000D+00  -5  6  0 0.00000000D+00 0.00000000D+00 0.00000000D+00 0.00000000D+00 0.00000000D+00
  <mgrwgt>
 0.1326844550D-04    7    2    0
 0.288233383690619D+03 0.000000000000000D+00 0.000000000000000D+00 0.288233383690619D+03
 0.288233383690619D+03 -.000000000000000D+00 -.000000000000000D+00 -.288233383690619D+03
 0.163876736398885D+03 0.126833530285514D+03 0.199701862623032D+02 0.887132007579047D+02
 0.129983932411247D+03 0.105577653350698D+03 -.236917523371194D+02 0.720269579341523D+02
 0.282606098571106D+03 -.232411183636212D+03 0.372156607481617D+01 -.160740158692057D+03
 0.000000000000000D+00 0.000000000000000D+00 0.000000000000000D+00 0.000000000000000D+00
 0.288233383690619D+03 0.000000000000000D+00 0.000000000000000D+00 0.288233383690619D+03
 0.288233383690619D+03 -.000000000000000D+00 -.000000000000000D+00 -.288233383690619D+03
 0.152483884885601D+03 0.116848787792305D+03 0.201300704741863D+02 0.818075559100649D+02
 0.120520144662475D+03 0.976714269280648D+02 -.235651510971363D+02 0.665588557974727D+02
 0.225805543640173D+03 -.143373369823071D+03 -.144352862497846D+02 -.173850058599639D+03
 0.776571941929899D+02 -.711468448972989D+02 0.178703668727345D+02 0.254836468921014D+02
0.616673695467D-05 0.000000000000D+00 0.000000000000D+00 0.135084654634D-05 0.000000000000D+00  6 22 -1 9900012 -11 -2 21 0 0.25429848D+00 0.77324672D-02 0.57224363D+05 0.57224363D+05 0.57224363D+05 0.11378817D+01  1  2  2  2  6  5       -2 0.793293931042D-05 0.100000000000D+01
-.103839065526D-06 0.000000000000D+00 -.118409468225D-07 0.135084654634D-05 0.000000000000D+00  6 22 -1 9900012 -11 -2 21 2 0.25429848D+00 0.77324672D-02 0.57224363D+05 0.57224363D+05 0.57224363D+05 0.11378817D+01  1  2  3  2  6  5       -2 -.172955245963D-06 0.100000000000D+01
-.809071195947D-06 0.000000000000D+00 0.000000000000D+00 0.135084654634D-05 0.000000000000D+00  6 22 -1 9900012 -11 -2 21 2 0.25429848D+00 0.77324672D-02 0.57224363D+05 0.57224363D+05 0.57224363D+05 0.11378817D+01  1  2 15  2  6  5       -2 -.134759598411D-05 0.100000000000D+01
0.399663687700D-05 0.000000000000D+00 0.000000000000D+00 0.135084654634D-05 0.000000000000D+00  6 22 -1 9900012 -11 -2 21 2 0.25429848D+00 0.77324672D-02 0.49865186D+05 0.49865186D+05 0.49865186D+05 0.11430530D+01  1  2 12  2  6  5       -2 0.666622838188D-05 0.100000000000D+01
-.106484826779D-05 0.000000000000D+00 0.000000000000D+00 0.135084654634D-05 0.000000000000D+00  6 22 -1 9900012 -11 -2 21 2 0.25429848D+00 0.77324672D-02 0.57224363D+05 0.57224363D+05 0.57224363D+05 0.11378817D+01  1  2  4  2  6  5       -2 -.177362048797D-05 0.100000000000D+01
-.379436583165D-05 0.000000000000D+00 0.000000000000D+00 0.135084654634D-05 0.000000000000D+00  6 22 -1 9900012 -11 -2 21 2 0.25429848D+00 0.77324672D-02 0.57224363D+05 0.57224363D+05 0.57224363D+05 0.11378817D+01  1  2  5  2  6  5       -2 -.631992855833D-05 0.100000000000D+01
0.497318387389D-05 0.000000000000D+00 -.000000000000D+00 0.135084654634D-05 0.000000000000D+00  6 22 -1 9900012 -11 -2 21 2 0.25429848D+00 0.77324672D-02 0.57224363D+05 0.57224363D+05 0.57224363D+05 0.11378817D+01  1  2  6  2  6  5       -2 0.828337808870D-05 0.100000000000D+01
  </mgrwgt>
  </event>
  <event>
  7     66 -.92480518E-06 0.41644497E+02 0.78161638E-02 0.12405298E+00
       22 -1    0    0    0    0 0.00000000E+00 0.00000000E+00 0.78203849E+03 0.78203849E+03 0.00000000E+00 0.0000E+00 0.9000E+01
       -1 -1    0    0    0  502 0.00000000E+00 0.00000000E+00 -.33542863E+02 0.33542863E+02 0.00000000E+00 0.0000E+00 0.9000E+01
       24  2    1    2    0    0 -.40066779E+02 -.23036065E+02 0.75890241E+03 0.76438552E+03 0.78843825E+02 0.0000E+00 0.0000E+00
  9900012  1    3    3    0    0 -.44556701E+02 -.74569412E+01 0.70174698E+03 0.70497499E+03 0.50000000E+02 0.0000E+00 0.9000E+01
      -11  1    3    3    0    0 0.44899224E+01 -.15579124E+02 0.57155424E+02 0.59410529E+02 0.00000000E+00 0.0000E+00 0.9000E+01
       -2  1    1    2    0  501 0.39870637E+02 0.18457679E+02 -.13141791E+02 0.45859135E+02 0.00000000E+00 0.0000E+00 0.9000E+01
       21  1    1    2  501  502 0.19614194E+00 0.45783859E+01 0.27350105E+01 0.53367004E+01 0.00000000E+00 0.0000E+00 0.9000E+01
#aMCatNLO 2  0  0  2  5 0.48779692D+01 0.00000000D+00  -5  6  0 0.00000000D+00 0.00000000D+00 0.00000000D+00 0.00000000D+00 0.00000000D+00
  <mgrwgt>
 -.3170774539D-04    3    2    0
 0.158363900787276D+03 0.000000000000000D+00 0.000000000000000D+00 0.158363900787276D+03
 0.158363900787276D+03 0.000000000000000D+00 0.000000000000000D+00 -.158363900787276D+03
 0.150994233522289D+03 -.444631620658984D+02 -.527352884225683D+01 0.135257072530922D+03
 0.171830600887880D+02 0.450063116801956D+01 -.153291565327162D+02 0.632604403239779D+01
 0.148550507963475D+03 0.399625308978788D+02 0.206026853749730D+02 -.141583116563319D+03
 0.000000000000000D+00 0.000000000000000D+00 0.000000000000000D+00 -.000000000000000D+00
 0.159202067696473D+03 0.000000000000000D+00 0.000000000000000D+00 0.159202067696473D+03
 0.164770536158018D+03 0.000000000000000D+00 0.000000000000000D+00 -.164770536158018D+03
 0.151113802389951D+03 -.445567013041807D+02 -.745694119624295D+01 0.135257072530922D+03
 0.174036584949710D+02 0.448992236545083D+01 -.155791236294589D+02 0.632604403239779D+01
 0.148243490589980D+03 0.398706370014863D+02 0.184576789335727D+02 -.141583116563319D+03
 0.721165237958816D+01 0.196141937243560D+00 0.457838589212913D+01 -.556846846154550D+01
-.194763169472D-05 0.000000000000D+00 0.000000000000D+00 0.720403502963D-05 0.000000000000D+00  6 22 -1 9900012 -11 -2 21 2 0.11968019D+00 0.51877530D-02 0.43637807D+04 0.43637807D+04 0.43637807D+04 0.12485575D+01  1  2 13  1  6  2       -1 -.349114513605D-04 0.100000000000D+01
-.313055359300D-06 0.000000000000D+00 0.000000000000D+00 0.720403502963D-05 0.000000000000D+00  6 22 -1 9900012 -11 -2 21 2 0.11968019D+00 0.49597914D-02 0.40995004D+04 0.40995004D+04 0.40995004D+04 0.12516745D+01  1  2  8  1  6  2       -1 -.597815884944D-05 0.100000000000D+01
0.513851275451D-06 0.000000000000D+00 0.000000000000D+00 0.720403502963D-05 0.689069688247D-06  6 22 -1 9900012 -11 -2 21 2 0.12031361D+00 0.51604405D-02 0.43637807D+04 0.43637807D+04 0.43637807D+04 0.12485575D+01  1  2  1  1  6  2       -1 0.918186481638D-05 0.100000000000D+01
  </mgrwgt>
  </event>
  <event>
  6     66 0.92480518E-06 0.20014339E+02 0.78161638E-02 0.12567362E+00
       22 -1    0    0    0    0 0.00000000E+00 0.00000000E+00 0.27581972E+03 0.27581972E+03 0.00000000E+00 0.0000E+00 0.9000E+01
       -1 -1    0    0    0  501 0.00000000E+00 0.00000000E+00 -.18024724E+02 0.18024724E+02 0.00000000E+00 0.0000E+00 0.9000E+01
       24  2    1    2    0    0 0.17928036E+02 -.31045359E+02 0.23625538E+03 0.25202120E+03 0.80080279E+02 0.0000E+00 0.0000E+00
  9900012  1    3    3    0    0 0.21153312E+02 -.50650167E+01 0.20001376E+03 0.20731286E+03 0.50000000E+02 0.0000E+00 0.9000E+01
      -11  1    3    3    0    0 -.32252764E+01 -.25980342E+02 0.36241615E+02 0.44708335E+02 0.00000000E+00 0.0000E+00 0.9000E+01
       -2  1    1    2    0  501 -.17928036E+02 0.31045359E+02 0.21539614E+02 0.41823244E+02 0.00000000E+00 0.0000E+00 0.9000E+01
#aMCatNLO 1  0  0  5  2 0.10353477D+02 0.00000000D+00  -5  6  0 0.00000000D+00 0.00000000D+00 0.00000000D+00 0.00000000D+00 0.00000000D+00
  <mgrwgt>
 0.8143295058D-04    5    2    0
 0.705093919958040D+02 0.000000000000000D+00 0.000000000000000D+00 0.705093919958040D+02
 0.705093919958040D+02 -.000000000000000D+00 -.000000000000000D+00 -.705093919958040D+02
 0.663399942590521D+02 0.211533123630714D+02 -.506501673275886D+01 0.377872706060952D+02
 0.269069752787451D+02 -.322527643028317D+01 -.259803421604912D+02 -.621327062206899D+01
 0.477718144538109D+02 -.179280359327882D+02 0.310453588932500D+02 -.315739999840262D+02
 0.000000000000000D+00 0.000000000000000D+00 -.000000000000000D+00 0.000000000000000D+00
 0.705093919958040D+02 0.000000000000000D+00 0.000000000000000D+00 0.705093919958040D+02
 0.705093919958040D+02 -.000000000000000D+00 -.000000000000000D+00 -.705093919958040D+02
 0.638487828641037D+02 0.193531408551903D+02 -.194772208090243D+01 0.346168945886571D+02
 0.261266103683009D+02 -.395859271108877D+01 -.247104837551855D+02 -.750475220573186D+01
 0.441945192913177D+02 -.175205207281966D+02 0.325149547523832D+02 -.242685930011190D+02
 0.684887146788570D+01 0.212597258409501D+01 -.585674891629519D+01 -.284354938180618D+01
0.274615255842D-06 0.000000000000D+00 0.000000000000D+00 0.505037990861D-06 0.000000000000D+00  6 22 -1 9900012 -11 -2 21 0 0.42433803D-01 0.27730345D-02 0.33963345D+04 0.33963345D+04 0.33963345D+04 0.12612086D+01  1  2  2  2  6  5       -2 0.476043336426D-04 0.100000000000D+01
0.185585826041D-08 0.000000000000D+00 -.527297445145D-09 0.505037990861D-06 0.000000000000D+00  6 22 -1 9900012 -11 -2 21 2 0.42433803D-01 0.27730345D-02 0.33963345D+04 0.33963345D+04 0.33963345D+04 0.12612086D+01  1  2  3  2  6  5       -2 0.511729521175D-06 0.100000000000D+01
-.270049005329D-07 0.000000000000D+00 0.000000000000D+00 0.505037990861D-06 0.000000000000D+00  6 22 -1 9900012 -11 -2 21 2 0.42433803D-01 0.27730345D-02 0.33963345D+04 0.33963345D+04 0.33963345D+04 0.12612086D+01  1  2 15  2  6  5       -2 -.744626091006D-05 0.100000000000D+01
0.180232571022D-06 0.000000000000D+00 0.000000000000D+00 0.505037990861D-06 0.000000000000D+00  6 22 -1 9900012 -11 -2 21 2 0.42433803D-01 0.27730345D-02 0.37113271D+04 0.37113271D+04 0.37113271D+04 0.12566866D+01  1  2 12  2  6  5       -2 0.498804102852D-04 0.100000000000D+01
-.330650181824D-07 0.000000000000D+00 0.000000000000D+00 0.505037990861D-06 0.000000000000D+00  6 22 -1 9900012 -11 -2 21 2 0.42433803D-01 0.27730345D-02 0.33963345D+04 0.33963345D+04 0.33963345D+04 0.12612086D+01  1  2  4  2  6  5       -2 -.911726196072D-05 0.100000000000D+01
  </mgrwgt>
  </event>
  <event>
  7     66 -.92480518E-06 0.90275978E+02 0.78161638E-02 0.11444866E+00
       22 -1    0    0    0    0 0.00000000E+00 0.00000000E+00 0.42187108E+02 0.42187108E+02 0.00000000E+00 0.0000E+00 0.9000E+01
       -1 -1    0    0    0  502 0.00000000E+00 0.00000000E+00 -.60774570E+03 0.60774570E+03 0.00000000E+00 0.0000E+00 0.9000E+01
       24  2    1    2    0    0 -.22948700E+02 -.88220004E+02 -.62285389E+02 0.13569827E+03 0.78899553E+02 0.0000E+00 0.0000E+00
  9900012  1    3    3    0    0 -.28852467E+02 -.39996890E+02 -.47973247E+02 0.85050858E+02 0.50000000E+02 0.0000E+00 0.9000E+01
      -11  1    3    3    0    0 0.59037664E+01 -.48223114E+02 -.14312142E+02 0.50647414E+02 0.00000000E+00 0.0000E+00 0.9000E+01
       -2  1    1    2    0  501 0.14902511E+02 0.94079938E+02 -.44089033E+03 0.45106253E+03 0.00000000E+00 0.0000E+00 0.9000E+01
       21  1    1    2  501  502 0.80461892E+01 -.58599339E+01 -.62382870E+02 0.63172007E+02 0.00000000E+00 0.0000E+00 0.9000E+01
#aMCatNLO 2  0  0  2  5 0.10394764D+02 0.00000000D+00  -5  6  0 0.00000000D+00 0.00000000D+00 0.00000000D+00 0.00000000D+00 0.00000000D+00
  <mgrwgt>
 -.3374618404D-04    2    2    0
 0.150833807985782D+03 0.000000000000000D+00 0.000000000000000D+00 0.150833807985782D+03
 0.150833807985782D+03 0.000000000000000D+00 0.000000000000000D+00 -.150833807985782D+03
 0.854177304936580D+02 -.265755111436079D+02 -.416551668952338D+02 0.485260544560690D+02
 0.757339558160249D+02 0.790809080400200D+01 -.496828369121919D+02 0.566101570368412D+02
 0.140515929661881D+03 0.186674203396059D+02 0.913380038074257D+02 -.105136211492910D+03
 0.000000000000000D+00 0.000000000000000D+00 -.000000000000000D+00 -.000000000000000D+00
 0.152340711190935D+03 0.000000000000000D+00 0.000000000000000D+00 0.152340711190935D+03
 0.168300602604655D+03 0.000000000000000D+00 0.000000000000000D+00 -.168300602604655D+03
 0.853638917301453D+02 -.288524665541653D+02 -.399968901789047D+02 0.485260544560690D+02
 0.745991490445659D+02 0.590376638055998D+01 -.482231137626068D+02 0.566101570368412D+02
 0.141868750976221D+03 0.149025109889098D+02 0.940799378331873D+02 -.105136211492910D+03
 0.188095220446580D+02 0.804618918469555D+01 -.585993389167590D+01 -.159598914137206D+02
-.327552642253D-05 0.000000000000D+00 0.000000000000D+00 0.130124543110D-05 0.000000000000D+00  6 22 -1 9900012 -11 -2 21 2 0.64261242D-02 0.94433442D-01 0.12546208D+05 0.12546208D+05 0.12546208D+05 0.11992515D+01  1  2 13  1  6  2       -1 -.559800086290D-04 0.100000000000D+01
0.129160984089D-05 0.000000000000D+00 0.000000000000D+00 0.130124543110D-05 0.438715722643D-07  6 22 -1 9900012 -11 -2 21 2 0.64903243D-02 0.93499338D-01 0.12546208D+05 0.12546208D+05 0.12546208D+05 0.11992515D+01  1  2  1  1  6  2       -1 0.222338245897D-04 0.100000000000D+01
  </mgrwgt>
  </event>
  <event>
  7     66 -.92480518E-06 0.20340459E+02 0.78161638E-02 0.12998804E+00
       22 -1    0    0    0    0 0.00000000E+00 0.00000000E+00 0.13206702E+04 0.13206702E+04 0.00000000E+00 0.0000E+00 0.9000E+01
       -1 -1    0    0    0  502 0.00000000E+00 0.00000000E+00 -.63039109E+01 0.63039109E+01 0.00000000E+00 0.0000E+00 0.9000E+01
       24  2    1    2    0    0 0.12108975E+02 0.21193225E+02 0.12604620E+04 0.12631544E+04 0.78733539E+02 0.0000E+00 0.0000E+00
  9900012  1    3    3    0    0 0.13829634E+02 0.50758473E+01 0.11757976E+04 0.11769524E+04 0.50000000E+02 0.0000E+00 0.9000E+01
      -11  1    3    3    0    0 -.17206589E+01 0.16117378E+02 0.84664397E+02 0.86202034E+02 0.00000000E+00 0.0000E+00 0.9000E+01
       -2  1    1    2    0  501 -.53845691E+01 -.23239192E+02 0.27074165E+02 0.36084124E+02 0.00000000E+00 0.0000E+00 0.9000E+01
       21  1    1    2  501  502 -.67244062E+01 0.20459668E+01 0.26830152E+02 0.27735549E+02 0.00000000E+00 0.0000E+00 0.9000E+01
#aMCatNLO 2  0  0  2  5 0.79759399D+01 0.00000000D+00  -5  6  0 0.00000000D+00 0.00000000D+00 0.00000000D+00 0.00000000D+00 0.00000000D+00
  <mgrwgt>
 -.8100038079D-04    3    2    0
 0.869225705801082D+02 0.000000000000000D+00 0.000000000000000D+00 0.869225705801082D+02
 0.869225705801082D+02 0.000000000000000D+00 0.000000000000000D+00 -.869225705801082D+02
 0.873045376794659D+02 0.104462340330116D+02 0.610528008878301D+01 0.705385288263821D+02
 0.174470331401096D+02 -.239001718578337D+01 0.163210364870959D+02 -.568423708430855D+01
 0.690935703406409D+02 -.805621684722818D+01 -.224263165758789D+02 -.648542917420735D+02
 0.000000000000000D+00 -.000000000000000D+00 0.000000000000000D+00 -.000000000000000D+00
 0.888286389776231D+02 0.000000000000000D+00 0.000000000000000D+00 0.888286389776231D+02
 0.937241346435738D+02 0.000000000000000D+00 0.000000000000000D+00 -.937241346435738D+02
 0.877080786327110D+02 0.138296342248066D+02 0.507584728489063D+01 0.705385288263821D+02
 0.171767598832532D+02 -.172065888222566D+01 0.161173776361828D+02 -.568423708430855D+01
 0.691023355047548D+02 -.538456914436446D+01 -.232391916807634D+02 -.648542917420735D+02
 0.856559960047808D+01 -.672440619821644D+01 0.204596675968997D+01 -.489549566595071D+01
-.148879483114D-05 0.000000000000D+00 0.000000000000D+00 0.913917383176D-06 0.000000000000D+00  6 22 -1 9900012 -11 -2 21 2 0.19882023D+00 0.99109927D-03 0.24610356D+04 0.24610356D+04 0.24610356D+04 0.12780759D+01  1  2 13  1  6  2       -1 -.855944726590D-04 0.100000000000D+01
-.556305665157D-09 0.000000000000D+00 0.000000000000D+00 0.913917383176D-06 0.000000000000D+00  6 22 -1 9900012 -11 -2 21 2 0.19882023D+00 0.89945167D-03 0.21053277D+04 0.21053277D+04 0.21053277D+04 0.12865020D+01  1  2  8  1  6  2       -1 -.362278620722D-07 0.100000000000D+01
0.825092468858D-07 0.000000000000D+00 0.000000000000D+00 0.913917383176D-06 0.160665550582D-07  6 22 -1 9900012 -11 -2 21 2 0.20318003D+00 0.96983245D-03 0.24610356D+04 0.24610356D+04 0.24610356D+04 0.12780759D+01  1  2  1  1  6  2       -1 0.463031972725D-05 0.100000000000D+01
  </mgrwgt>
  </event>
  <event>
  7     66 0.92480518E-06 0.16205021E+03 0.78161638E-02 0.10129642E+00
       22 -1    0    0    0    0 0.00000000E+00 0.00000000E+00 0.12220449E+04 0.12220449E+04 0.00000000E+00 0.0000E+00 0.9000E+01
       21 -1    0    0  502  501 0.00000000E+00 0.00000000E+00 -.83345332E+02 0.83345332E+02 0.00000000E+00 0.0000E+00 0.9000E+01
       24  2    1    2    0    0 -.35197366E+02 0.78609726E+02 0.14340842E+03 0.18652849E+03 0.82513996E+02 0.0000E+00 0.0000E+00
  9900012  1    3    3    0    0 0.93506124E+00 0.52035115E+02 0.70251072E+02 0.10071614E+03 0.50000000E+02 0.0000E+00 0.9000E+01
      -11  1    3    3    0    0 -.36132427E+02 0.26574611E+02 0.73157346E+02 0.85812351E+02 0.00000000E+00 0.0000E+00 0.9000E+01
        1  1    1    2  502    0 -.15749369E+03 0.81956006E+02 0.13580856E+03 0.22352856E+03 0.00000000E+00 0.0000E+00 0.9000E+01
       -2  1    1    2    0  501 0.19269106E+03 -.16056573E+03 0.85948263E+03 0.89533323E+03 0.00000000E+00 0.0000E+00 0.9000E+01
#aMCatNLO 2  0  0  2  5 0.23568235D+02 0.00000000D+00  -5  6  0 0.00000000D+00 0.00000000D+00 0.00000000D+00 0.00000000D+00 0.00000000D+00
  <mgrwgt>
 0.1552375036D-04    1    2    0
 0.182423458058713D+03 0.000000000000000D+00 0.000000000000000D+00 0.182423458058713D+03
 0.182423458058713D+03 0.000000000000000D+00 0.000000000000000D+00 -.182423458058713D+03
 0.116827320925763D+03 -.423379070311739D+02 0.745533475906734D+02 -.616272902692881D+02
 0.749268442963149D+02 -.612520791569452D+02 0.396462862954889D+02 -.170407387789281D+02
 0.000000000000000D+00 -.000000000000000D+00 0.000000000000000D+00 -.000000000000000D+00
 0.173092750895349D+03 0.103589986188119D+03 -.114199633886162D+03 0.786680290482162D+02
 0.237844334014614D+03 0.000000000000000D+00 0.000000000000000D+00 0.237844334014614D+03
 0.428228579272349D+03 0.000000000000000D+00 0.000000000000000D+00 -.428228579272349D+03
 0.949023204377501D+02 0.935061238125257D+00 0.520351148650146D+02 -.616272902692881D+02
 0.479807152704761D+02 -.361324270811197D+02 0.265746114357746D+02 -.170407387789281D+02
 0.260321360874149D+03 -.157493692722167D+03 0.819560055014126D+02 -.190384245257735D+03
 0.262868516704587D+03 0.192691058565161D+03 -.160565731802202D+03 0.786680290482162D+02
0.683590986806D-06 0.000000000000D+00 0.000000000000D+00 0.337328016532D-07 0.421234934245D-11  6 22 21 9900012 -11 1 -2 2 0.18800691D+00 0.12822359D-01 0.74361346D+05 0.74361346D+05 0.74361346D+05 0.11282413D+01  1  2  1  3  5  2       -1 0.155237503561D-04 0.100000000000D+01
  </mgrwgt>
  </event>
  <event>
  7     66 -.92480518E-06 0.95240063E+02 0.78161638E-02 0.11449577E+00
       22 -1    0    0    0    0 0.00000000E+00 0.00000000E+00 0.24329823E+03 0.24329823E+03 0.00000000E+00 0.0000E+00 0.9000E+01
       -3 -1    0    0    0  501 0.00000000E+00 0.00000000E+00 -.19233371E+03 0.19233371E+03 0.00000000E+00 0.0000E+00 0.9000E+01
       24  2    1    2    0    0 -.24111471E+02 -.95374378E+02 0.21120669E+03 0.24600767E+03 0.78954883E+02 0.0000E+00 0.0000E+00
  9900012  1    3    3    0    0 0.44230228E+01 -.48632729E+02 0.99423080E+02 0.12153047E+03 0.50000000E+02 0.0000E+00 0.9000E+01
      -11  1    3    3    0    0 -.28534494E+02 -.46741649E+02 0.11178361E+03 0.12447720E+03 0.00000000E+00 0.0000E+00 0.9000E+01
       -4  1    1    2    0  502 0.22429720E+02 0.93760087E+02 -.14448135E+03 0.17369199E+03 0.00000000E+00 0.0000E+00 0.9000E+01
       21  1    1    2  502  501 0.16817508E+01 0.16142911E+01 -.15760813E+02 0.15932277E+02 0.00000000E+00 0.0000E+00 0.9000E+01
#aMCatNLO 2  0  0  5  2 0.68548625D+01 0.00000000D+00  -5  6  0 0.00000000D+00 0.00000000D+00 0.00000000D+00 0.00000000D+00 0.00000000D+00
  <mgrwgt>
 -.4651067164D-04    5    2    0
 0.216320249738143D+03 0.000000000000000D+00 0.000000000000000D+00 0.216320249738143D+03
 0.216320249738143D+03 -.000000000000000D+00 -.000000000000000D+00 -.216320249738143D+03
 0.110984123164204D+03 0.438027025322342D+01 -.488018390535223D+02 0.861200866931172D+02
 0.112540576370152D+03 -.285778380249945D+02 -.469130998922957D+02 0.982234674710621D+02
 0.209115799941929D+03 0.241975677717711D+02 0.957149389458179D+02 -.184343554164179D+03
 0.000000000000000D+00 0.000000000000000D+00 0.000000000000000D+00 -.000000000000000D+00
 0.216320249738143D+03 0.000000000000000D+00 0.000000000000000D+00 0.216320249738143D+03
 0.216320249738143D+03 -.000000000000000D+00 -.000000000000000D+00 -.216320249738143D+03
 0.110658855137373D+03 0.442302276769811D+01 -.486327289036378D+02 0.857943865838313D+02
 0.112169913132500D+03 -.285344938210468D+02 -.467416492790093D+02 0.978932597128487D+02
 0.191912687591888D+03 0.224297202257337D+02 0.937600870888500D+02 -.165941053927074D+03
 0.178990436145241D+02 0.168175082761503D+01 0.161429109379709D+01 -.177465923696055D+02
-.129139217488D-04 0.000000000000D+00 0.000000000000D+00 0.624688653077D-05 0.000000000000D+00  6 22 -3 9900012 -11 -4 21 2 0.37430497D-01 0.29589801D-01 0.12475836D+05 0.12475836D+05 0.12475836D+05 0.11994984D+01  1  2 13  2  6  5       -4 -.913781837041D-04 0.100000000000D+01
-.217247591479D-06 0.000000000000D+00 0.000000000000D+00 0.624688653077D-05 0.000000000000D+00  6 22 -3 9900012 -11 -4 21 2 0.37430497D-01 0.29589801D-01 0.12506404D+05 0.12506404D+05 0.12506404D+05 0.11993910D+01  1  2  8  2  6  5       -4 -.153721819368D-05 0.100000000000D+01
-.108886396322D-07 0.000000000000D+00 0.000000000000D+00 0.624688653077D-05 0.000000000000D+00  6 22 -3 9900012 -11 -4 21 2 0.37430497D-01 0.29589801D-01 0.12506404D+05 0.12506404D+05 0.12506404D+05 0.11993910D+01  1  2  9  2  6  5       -4 -.770467227418D-07 0.100000000000D+01
0.118603687999D-07 0.000000000000D+00 0.000000000000D+00 0.624688653077D-05 0.000000000000D+00  6 22 -3 9900012 -11 -4 21 2 0.37430497D-01 0.29589801D-01 0.12506404D+05 0.12506404D+05 0.12506404D+05 0.11993910D+01  1  2 10  2  6  5       -4 0.839225630941D-07 0.100000000000D+01
0.655712596846D-05 0.000000000000D+00 0.000000000000D+00 0.624688653077D-05 0.118801048460D-04  6 22 -3 9900012 -11 -4 21 2 0.37430497D-01 0.29589801D-01 0.12475836D+05 0.12475836D+05 0.12475836D+05 0.11994984D+01  1  2  1  2  6  5       -4 0.463978544220D-04 0.100000000000D+01
  </mgrwgt>
  </event>
</LesHouchesEvents>
