<LesHouchesEvents version="3.0">
  <!--
  <scalesfunctionalform>
    muR  H_T/2 := sum_i mT(i)/2, i=final state
    muF1 H_T/2 := sum_i mT(i)/2, i=final state
    muF2 H_T/2 := sum_i mT(i)/2, i=final state
    QES  H_T/2 := sum_i mT(i)/2, i=final state
  </scalesfunctionalform>
PYTHIA8   
  -->
  <header>
        5
  </header>
  <init>
   2212   2212 0.65000000D+04 0.65000000D+04 -1 -1  82200  82200 -4   1
 0.22563668D-05 0.43547117D-07 0.71174277D-06     66
  </init>
  <event>
  6     66 0.71174277E-06 0.15907937E+03 0.78161638E-02 0.97680770E-01
       22 -1    0    0    0    0 0.00000000E+00 0.00000000E+00 0.28535258E+02 0.28535258E+02 0.00000000E+00 0.0000E+00 0.9000E+01
        2 -1    0    0  501    0 0.00000000E+00 0.00000000E+00 -.10059807E+04 0.10059807E+04 0.00000000E+00 0.0000E+00 0.9000E+01
       24  2    1    2    0    0 -.13799184E+03 -.79148587E+02 -.46545513E+03 0.49838134E+03 0.80182521E+02 0.0000E+00 0.0000E+00
  9900012  1    3    3    0    0 -.11038501E+03 -.85863454E+02 -.41002504E+03 0.43609393E+03 0.50000000E+02 0.0000E+00 0.9000E+01
      -11  1    3    3    0    0 -.27606835E+02 0.67148677E+01 -.55430094E+02 0.62287415E+02 0.00000000E+00 0.0000E+00 0.9000E+01
        1  1    1    2  501    0 0.13799184E+03 0.79148587E+02 -.51199029E+03 0.53613460E+03 0.00000000E+00 0.0000E+00 0.9000E+01
#aMCatNLO 1  0  0  2  5 0.35598863D+03 0.00000000D+00  -5  6  0 0.00000000D+00 0.00000000D+00 0.00000000D+00 0.00000000D+00 0.00000000D+00
  <mgrwgt>
 0.7226331854D-05    5    2    0
 0.169428209868732D+03 0.000000000000000D+00 0.000000000000000D+00 0.169428209868732D+03
 0.169428209868732D+03 0.000000000000000D+00 0.000000000000000D+00 -.169428209868732D+03
 0.148644144607436D+03 -.110385005249528D+03 -.858634543994293D+02 0.613999517385588D+01
 0.302707331593724D+02 -.276068349304246D+02 0.671486773208432D+01 0.104446398918695D+02
 0.159941541970656D+03 0.137991840179953D+03 0.791485866673450D+02 -.165846350657254D+02
 0.000000000000000D+00 0.000000000000000D+00 0.000000000000000D+00 -.000000000000000D+00
 0.308759500487927D+03 0.000000000000000D+00 0.000000000000000D+00 0.308759500487927D+03
 0.457195825971596D+03 0.000000000000000D+00 0.000000000000000D+00 -.457195825971596D+03
 0.295063909782469D+03 -.167017948027162D+03 -.237970620775293D+03 0.613999517385588D+01
 0.424440095605716D+02 -.368878245874891D+02 -.182124090199428D+02 0.104446398918695D+02
 0.106041377289353D+03 0.104042951271474D+03 -.120327830480402D+02 -.165846350657254D+02
 0.322406029827130D+03 0.998628213431765D+02 0.268215812843276D+03 -.148436325483668D+03
0.153715753927D-06 0.000000000000D+00 0.000000000000D+00 0.276012139626D-06 0.000000000000D+00  6 22 2 9900012 -11 1 21 0 0.43900397D-02 0.15476626D+00 0.28225409D+05 0.28225409D+05 0.28225409D+05 0.11652267D+01  1  2  2  1  6  2        2 0.866878331544D-05 0.100000000000D+01
-.618963820582D-08 0.000000000000D+00 -.295154484684D-09 0.276012139626D-06 0.000000000000D+00  6 22 2 9900012 -11 1 21 2 0.43900397D-02 0.15476626D+00 0.28225409D+05 0.28225409D+05 0.28225409D+05 0.11652267D+01  1  2  3  1  6  2        2 -.473942778543D-06 0.100000000000D+01
-.130251409083D-07 0.000000000000D+00 0.000000000000D+00 0.276012139626D-06 0.000000000000D+00  6 22 2 9900012 -11 1 21 2 0.43900397D-02 0.15476626D+00 0.28225409D+05 0.28225409D+05 0.28225409D+05 0.11652267D+01  1  2 15  1  6  2        2 -.997339629187D-06 0.100000000000D+01
0.826285293635D-08 0.000000000000D+00 -.322339730006D-07 0.276012139626D-06 0.000000000000D+00  6 22 2 9900012 -11 1 21 2 0.43900397D-02 0.52037919D+00 0.28225409D+05 0.28225409D+05 0.28225409D+05 0.11652267D+01  1  2  5  1  6  2        2 0.280711539129D-07 0.100000000000D+01
0.236527693735D-08 0.000000000000D+00 -.454175213744D-08 0.276012139626D-06 0.000000000000D+00  6 22 21 9900012 -11 1 -2 2 0.43900397D-02 0.52037919D+00 0.28225409D+05 0.28225409D+05 0.28225409D+05 0.11652267D+01  1  2  5  3  6  2        2 0.759792025853D-09 0.100000000000D+01
  </mgrwgt>
  </event>
  <event>
  6     66 0.71174277E-06 0.79481058E+02 0.78161638E-02 0.11117911E+00
       22 -1    0    0    0    0 0.00000000E+00 0.00000000E+00 0.75027653E+03 0.75027653E+03 0.00000000E+00 0.0000E+00 0.9000E+01
        2 -1    0    0  501    0 0.00000000E+00 0.00000000E+00 -.35865841E+02 0.35865841E+02 0.00000000E+00 0.0000E+00 0.9000E+01
       24  2    1    2    0    0 0.11024636E+03 -.46957815E+02 0.61089226E+03 0.62779036E+03 0.81068394E+02 0.0000E+00 0.0000E+00
  9900012  1    3    3    0    0 0.68034233E+02 -.56227602E+02 0.43291323E+03 0.44463925E+03 0.50000000E+02 0.0000E+00 0.9000E+01
      -11  1    3    3    0    0 0.42212122E+02 0.92697870E+01 0.17797903E+03 0.18315111E+03 0.00000000E+00 0.0000E+00 0.9000E+01
        1  1    1    2  501    0 -.11024636E+03 0.46957815E+02 0.10351843E+03 0.15835201E+03 0.00000000E+00 0.0000E+00 0.9000E+01
#aMCatNLO 1  0  0  2  5 0.96556635D+01 0.00000000D+00  -5  6  0 0.00000000D+00 0.00000000D+00 0.00000000D+00 0.00000000D+00 0.00000000D+00
  <mgrwgt>
 0.3706277358D-05   11    2    0
 0.164040541145282D+03 0.000000000000000D+00 0.000000000000000D+00 0.164040541145282D+03
 0.164040541145282D+03 0.000000000000000D+00 0.000000000000000D+00 -.164040541145282D+03
 0.122749892925806D+03 0.680342332894643D+02 -.562276023659272D+02 0.691182757755913D+02
 0.513065938385970D+02 0.422121219422235D+02 0.926978703511829D+01 0.276509381536534D+02
 0.154024595526162D+03 -.110246355231688D+03 0.469578153308089D+02 -.967692139292447D+02
 0.000000000000000D+00 0.000000000000000D+00 0.000000000000000D+00 -.000000000000000D+00
 0.165668709865227D+03 0.000000000000000D+00 0.000000000000000D+00 0.165668709865227D+03
 0.177320409058749D+03 0.000000000000000D+00 0.000000000000000D+00 -.177320409058749D+03
 0.121787645347071D+03 0.649896092242472D+02 -.577169403717213D+02 0.691182757755913D+02
 0.501620456687376D+02 0.409487827269406D+02 0.865179970163224D+01 0.276509381536534D+02
 0.156257470292129D+03 -.114109534076408D+03 0.450680650846776D+02 -.967692139292447D+02
 0.147819576160388D+02 0.817114212521995D+01 0.399707558541147D+01 -.116516991935225D+02
0.476585823507D-07 0.000000000000D+00 0.000000000000D+00 0.558361114206D-06 0.000000000000D+00  6 22 2 9900012 -11 1 21 0 0.11542716D+00 0.55178218D-02 0.17488590D+05 0.17488590D+05 0.17488590D+05 0.11849444D+01  1  2  2  1  6  2        2 0.751945312355D-06 0.100000000000D+01
-.506016148051D-09 0.000000000000D+00 -.915107525097D-10 0.558361114206D-06 0.000000000000D+00  6 22 2 9900012 -11 1 21 2 0.11542716D+00 0.55178218D-02 0.17488590D+05 0.17488590D+05 0.17488590D+05 0.11849444D+01  1  2  3  1  6  2        2 -.112099966670D-07 0.100000000000D+01
-.425278900643D-08 0.000000000000D+00 0.000000000000D+00 0.558361114206D-06 0.000000000000D+00  6 22 2 9900012 -11 1 21 2 0.11542716D+00 0.55178218D-02 0.17488590D+05 0.17488590D+05 0.17488590D+05 0.11849444D+01  1  2 15  1  6  2        2 -.942138917331D-07 0.100000000000D+01
0.232331517482D-06 0.000000000000D+00 0.000000000000D+00 0.558361114206D-06 0.000000000000D+00  6 22 2 9900012 -11 1 21 2 0.11542716D+00 0.60237161D-02 0.18756719D+05 0.18756719D+05 0.18756719D+05 0.11819974D+01  1  2 12  1  6  2        2 0.459492449255D-05 0.100000000000D+01
-.893285847649D-07 0.000000000000D+00 0.000000000000D+00 0.558361114206D-06 0.000000000000D+00  6 22 2 9900012 -11 1 21 2 0.11542716D+00 0.55178218D-02 0.17488590D+05 0.17488590D+05 0.17488590D+05 0.11849444D+01  1  2  4  1  6  2        2 -.197893514138D-05 0.100000000000D+01
-.443728710169D-06 0.000000000000D+00 -.541694580964D-07 0.558361114206D-06 0.000000000000D+00  6 22 2 9900012 -11 1 21 2 0.11542716D+00 0.60216109D-02 0.17488590D+05 0.17488590D+05 0.17488590D+05 0.11849444D+01  1  2  5  1  6  2        2 -.877722184731D-05 0.100000000000D+01
0.446960598232D-06 0.000000000000D+00 0.539633542071D-07 0.558361114206D-06 0.000000000000D+00  6 22 2 9900012 -11 1 21 2 0.11542716D+00 0.55178218D-02 0.17488590D+05 0.17488590D+05 0.17488590D+05 0.11849444D+01  1  2  6  1  6  2        2 0.990171328677D-05 0.100000000000D+01
0.187902507506D-12 0.000000000000D+00 0.000000000000D+00 0.558361114206D-06 0.201594014815D-07  6 22 2 9900012 -11 1 21 2 0.11657282D+00 0.59645159D-02 0.18756719D+05 0.18756719D+05 0.18756719D+05 0.11819974D+01  1  2 11  1  6  2        2 0.368955278626D-11 0.100000000000D+01
0.348890262124D-08 0.000000000000D+00 0.000000000000D+00 0.558361114206D-06 0.000000000000D+00  6 22 21 9900012 -11 1 -2 2 0.11542716D+00 0.60237161D-02 0.18756719D+05 0.18756719D+05 0.18756719D+05 0.11819974D+01  1  2 12  3  6  2        2 0.853373571685D-06 0.100000000000D+01
-.626840322752D-08 0.000000000000D+00 -.782161814555D-09 0.558361114206D-06 0.000000000000D+00  6 22 21 9900012 -11 1 -2 2 0.11542716D+00 0.60216109D-02 0.17488590D+05 0.17488590D+05 0.17488590D+05 0.11849444D+01  1  2  5  3  6  2        2 -.153410366222D-05 0.100000000000D+01
0.633995705789D-14 0.000000000000D+00 0.000000000000D+00 0.558361114206D-06 0.596695911504D-09  6 22 21 9900012 -11 1 -2 2 0.11657282D+00 0.59645159D-02 0.18756719D+05 0.18756719D+05 0.18756719D+05 0.11819974D+01  1  2 11  3  6  2        2 0.154465942158D-11 0.100000000000D+01
  </mgrwgt>
  </event>
  <event>
  6     66 0.71174277E-06 0.58222508E+02 0.78161638E-02 0.11313072E+00
       22 -1    0    0    0    0 0.00000000E+00 0.00000000E+00 0.38075386E+02 0.38075386E+02 0.00000000E+00 0.0000E+00 0.9000E+01
        2 -1    0    0  501    0 0.00000000E+00 0.00000000E+00 -.16238333E+03 0.16238333E+03 0.00000000E+00 0.0000E+00 0.9000E+01
       24  2    1    2    0    0 -.57170061E+02 -.11020190E+02 -.69296217E+02 0.12035784E+03 0.79335886E+02 0.0000E+00 0.0000E+00
  9900012  1    3    3    0    0 -.49515689E+02 0.14428154E+02 -.50571421E+02 0.87848982E+02 0.50000000E+02 0.0000E+00 0.9000E+01
      -11  1    3    3    0    0 -.76543724E+01 -.25448345E+02 -.18724797E+02 0.32508855E+02 0.00000000E+00 0.0000E+00 0.9000E+01
        1  1    1    2  501    0 0.57170061E+02 0.11020190E+02 -.55011722E+02 0.80100874E+02 0.00000000E+00 0.0000E+00 0.9000E+01
#aMCatNLO 1  0  0  2  5 0.11311777D+00 0.00000000D+00  -5  6  0 0.00000000D+00 0.00000000D+00 0.00000000D+00 0.00000000D+00 0.00000000D+00
  <mgrwgt>
 0.5582422987D-05    5    2    0
 0.786308324371241D+02 0.000000000000000D+00 0.000000000000000D+00 0.786308324371241D+02
 0.786308324371241D+02 0.000000000000000D+00 0.000000000000000D+00 -.786308324371241D+02
 0.720052447097941D+02 -.495156886431877D+02 0.144281544912623D+02 0.497797166368891D+01
 0.266374031762894D+02 -.765437236215174D+01 -.254483447586793D+02 0.182854607847904D+01
 0.586190169881648D+02 0.571700610053394D+02 0.110201902674170D+02 -.680651774216794D+01
 0.000000000000000D+00 -.000000000000000D+00 0.000000000000000D+00 -.000000000000000D+00
 0.112805292423258D+03 0.000000000000000D+00 0.000000000000000D+00 0.112805292423258D+03
 0.133226600997859D+03 0.000000000000000D+00 0.000000000000000D+00 -.133226600997859D+03
 0.619401379106423D+02 -.347483760365833D+02 -.102152261514416D+02 0.497797166368891D+01
 0.372528367671818D+02 -.610552505891549D+00 -.372029231657772D+02 0.182854607847904D+01
 0.732356742987458D+02 0.717068774807439D+02 -.132385432801012D+02 -.680651774216794D+01
 0.736032444445478D+02 -.363479489382690D+02 0.606566925973200D+02 -.204213085746010D+02
0.282304541624D-07 0.000000000000D+00 0.000000000000D+00 0.948889558577D-07 0.000000000000D+00  6 22 2 9900012 -11 1 21 0 0.58577517D-02 0.24982050D-01 0.61332426D+04 0.61332426D+04 0.61332426D+04 0.12319827D+01  1  2  2  1  6  2        2 0.730039837867D-05 0.100000000000D+01
-.850939547883D-09 0.000000000000D+00 -.542061886165D-10 0.948889558577D-07 0.000000000000D+00  6 22 2 9900012 -11 1 21 2 0.58577517D-02 0.24982050D-01 0.61332426D+04 0.61332426D+04 0.61332426D+04 0.12319827D+01  1  2  3  1  6  2        2 -.333992440562D-06 0.100000000000D+01
-.230892302733D-08 0.000000000000D+00 0.000000000000D+00 0.948889558577D-07 0.000000000000D+00  6 22 2 9900012 -11 1 21 2 0.58577517D-02 0.24982050D-01 0.61332426D+04 0.61332426D+04 0.61332426D+04 0.12319827D+01  1  2 15  1  6  2        2 -.906248674052D-06 0.100000000000D+01
-.330853042428D-08 0.000000000000D+00 -.633402140079D-08 0.948889558577D-07 0.000000000000D+00  6 22 2 9900012 -11 1 21 2 0.58577517D-02 0.58702683D-01 0.61332426D+04 0.61332426D+04 0.61332426D+04 0.12319827D+01  1  2  5  1  6  2        2 -.518855729880D-06 0.100000000000D+01
0.914677531961D-10 0.000000000000D+00 -.590401373773D-09 0.948889558577D-07 0.000000000000D+00  6 22 21 9900012 -11 1 -2 2 0.58577517D-02 0.58702683D-01 0.61332426D+04 0.61332426D+04 0.61332426D+04 0.12319827D+01  1  2  5  3  6  2        2 0.411214530778D-07 0.100000000000D+01
  </mgrwgt>
  </event>
  <event>
  6     66 0.71174277E-06 0.57283301E+02 0.78161638E-02 0.12099096E+00
       22 -1    0    0    0    0 0.00000000E+00 0.00000000E+00 0.10142454E+02 0.10142454E+02 0.00000000E+00 0.0000E+00 0.9000E+01
        2 -1    0    0  501    0 -.00000000E+00 -.00000000E+00 -.61545691E+03 0.61545691E+03 0.00000000E+00 0.0000E+00 0.9000E+01
       24  2    1    2    0    0 -.45271690E+02 -.35097729E+02 -.43707774E+03 0.44787775E+03 0.79222214E+02 0.0000E+00 0.0000E+00
  9900012  1    3    3    0    0 -.39660113E+02 -.17438212E+01 -.29505697E+03 0.30188504E+03 0.50000000E+02 0.0000E+00 0.9000E+01
      -11  1    3    3    0    0 -.56115771E+01 -.33353908E+02 -.14202077E+03 0.14599271E+03 0.00000000E+00 0.0000E+00 0.9000E+01
        1  1    1    2  501    0 0.45271690E+02 0.35097729E+02 -.16823672E+03 0.17772161E+03 0.00000000E+00 0.0000E+00 0.9000E+01
#aMCatNLO 1  0  0  5  2 0.15870333D+02 0.00000000D+00  -5  6  0 0.00000000D+00 0.00000000D+00 0.00000000D+00 0.00000000D+00 0.00000000D+00
  <mgrwgt>
 0.6135294564D-05    7    2    0
 0.790078693265440D+02 0.000000000000000D+00 0.000000000000000D+00 0.790078693265440D+02
 0.790078693265440D+02 -.000000000000000D+00 -.000000000000000D+00 -.790078693265440D+02
 0.649102655009656D+02 -.396601133862139D+02 -.174382118660972D+01 -.117207961021267D+02
 0.339568888338827D+02 -.561157710947530D+01 -.333539076055693D+02 -.301618120480678D+01
 0.591485843182396D+02 0.452716904956892D+02 0.350977287921790D+02 0.147369773069334D+02
 0.000000000000000D+00 0.000000000000000D+00 0.000000000000000D+00 0.000000000000000D+00
 0.790078693265440D+02 0.000000000000000D+00 0.000000000000000D+00 0.790078693265440D+02
 0.790078693265440D+02 -.000000000000000D+00 -.000000000000000D+00 -.790078693265440D+02
 0.630655656142111D+02 -.368797527579414D+02 0.411705638368360D+00 -.108157247200928D+02
 0.326004471343780D+02 -.416557441633931D+01 -.322328668447592D+02 -.254547404452217D+01
 0.291681743126690D+02 0.102342533073933D+02 0.272457732241856D+02 0.192621218732673D+01
 0.331815515918298D+02 0.308110738668874D+02 0.457538798220523D+01 0.114349865772882D+02
0.142238443252D-07 0.000000000000D+00 0.000000000000D+00 0.416997755591D-07 0.000000000000D+00  6 22 2 9900012 -11 1 21 0 0.15603775D-02 0.94685678D-01 0.60023182D+04 0.60023182D+04 0.60023182D+04 0.12330127D+01  1  2  2  2  6  5        1 0.528325279255D-05 0.100000000000D+01
-.667539664360D-09 0.000000000000D+00 -.273116537166D-10 0.416997755591D-07 0.000000000000D+00  6 22 2 9900012 -11 1 21 2 0.15603775D-02 0.94685678D-01 0.60023182D+04 0.60023182D+04 0.60023182D+04 0.12330127D+01  1  2  3  2  6  5        1 -.376961136145D-06 0.100000000000D+01
-.996895566729D-09 0.000000000000D+00 0.000000000000D+00 0.416997755591D-07 0.000000000000D+00  6 22 2 9900012 -11 1 21 2 0.15603775D-02 0.94685678D-01 0.60023182D+04 0.60023182D+04 0.60023182D+04 0.12330127D+01  1  2 15  2  6  5        1 -.562949148217D-06 0.100000000000D+01
0.764229428406D-08 0.000000000000D+00 0.000000000000D+00 0.416997755591D-07 0.000000000000D+00  6 22 2 9900012 -11 1 21 2 0.15603775D-02 0.94685678D-01 0.59973841D+04 0.59973841D+04 0.59973841D+04 0.12330520D+01  1  2 12  2  6  5        1 0.431556999552D-05 0.100000000000D+01
-.901597859479D-08 0.000000000000D+00 0.000000000000D+00 0.416997755591D-07 0.000000000000D+00  6 22 2 9900012 -11 1 21 2 0.15603775D-02 0.94685678D-01 0.60023182D+04 0.60023182D+04 0.60023182D+04 0.12330127D+01  1  2  4  2  6  5        1 -.509134320552D-05 0.100000000000D+01
-.671823254762D-08 0.000000000000D+00 0.000000000000D+00 0.416997755591D-07 0.000000000000D+00  6 22 2 9900012 -11 1 21 2 0.15603775D-02 0.94685678D-01 0.60023182D+04 0.60023182D+04 0.60023182D+04 0.12330127D+01  1  2  5  2  6  5        1 -.379380089192D-05 0.100000000000D+01
0.112652754600D-07 0.000000000000D+00 -.000000000000D+00 0.416997755591D-07 0.000000000000D+00  6 22 2 9900012 -11 1 21 2 0.15603775D-02 0.94685678D-01 0.60023182D+04 0.60023182D+04 0.60023182D+04 0.12330127D+01  1  2  6  2  6  5        1 0.636152615808D-05 0.100000000000D+01
  </mgrwgt>
  </event>
  <event>
  6     66 0.71174277E-06 0.45964983E+02 0.78161638E-02 0.12098446E+00
       22 -1    0    0    0    0 0.00000000E+00 0.00000000E+00 0.55372244E+01 0.55372244E+01 0.00000000E+00 0.0000E+00 0.9000E+01
        2 -1    0    0  501    0 0.00000000E+00 0.00000000E+00 -.18127916E+04 0.18127916E+04 0.00000000E+00 0.0000E+00 0.9000E+01
       24  2    1    2    0    0 -.15982230E+01 -.50292119E+02 -.41122048E+03 0.42138842E+03 0.77032895E+02 0.0000E+00 0.0000E+00
  9900012  1    3    3    0    0 0.13554108E+02 -.15522403E+02 -.24320237E+03 0.24914263E+03 0.50000000E+02 0.0000E+00 0.9000E+01
      -11  1    3    3    0    0 -.15152331E+02 -.34769716E+02 -.16801811E+03 0.17224579E+03 0.00000000E+00 0.0000E+00 0.9000E+01
        1  1    1    2  501    0 0.15982230E+01 0.50292119E+02 -.13960339E+04 0.13969404E+04 0.00000000E+00 0.0000E+00 0.9000E+01
#aMCatNLO 1  0  0  2  5 0.13762124D+02 0.00000000D+00  -5  6  0 0.00000000D+00 0.00000000D+00 0.00000000D+00 0.00000000D+00 0.00000000D+00
  <mgrwgt>
 0.4654748161D-05    9    2    0
 0.100188989558729D+03 0.000000000000000D+00 0.000000000000000D+00 0.100188989558729D+03
 0.100188989558729D+03 0.000000000000000D+00 0.000000000000000D+00 -.100188989558729D+03
 0.673461407250398D+02 0.135541084741187D+02 -.155224028656130D+02 0.401353189012656D+02
 0.476500322395347D+02 -.151523314736689D+02 -.347697160415394D+02 0.288443975449561D+02
 0.853818061528837D+02 0.159822299955018D+01 0.502921189071525D+02 -.689797164462218D+02
 0.000000000000000D+00 -.000000000000000D+00 -.000000000000000D+00 -.000000000000000D+00
 0.104038197426208D+03 0.000000000000000D+00 0.000000000000000D+00 0.104038197426208D+03
 0.109333990309796D+03 0.000000000000000D+00 0.000000000000000D+00 -.109333990309796D+03
 0.676360345639514D+02 0.168220316158879D+02 -.134465088608089D+02 0.401353189012656D+02
 0.459238844194890D+02 -.128869037084006D+02 -.333306406067079D+02 0.288443975449561D+02
 0.871480094982026D+02 0.577517581575902D+01 0.529454589440371D+02 -.689797164462218D+02
 0.126642592543613D+02 -.971030372324632D+01 -.616830947652026D+01 -.529579288358735D+01
0.840554273573D-08 0.000000000000D+00 0.000000000000D+00 0.129140543244D-06 0.000000000000D+00  6 22 2 9900012 -11 1 21 0 0.85188067D-03 0.27889101D+00 0.50641392D+04 0.50641392D+04 0.50641392D+04 0.12412227D+01  1  2  2  1  6  2        2 0.148005893591D-05 0.100000000000D+01
0.138295531557D-09 0.000000000000D+00 -.161397486677D-10 0.129140543244D-06 0.000000000000D+00  6 22 2 9900012 -11 1 21 2 0.85188067D-03 0.27889101D+00 0.50641392D+04 0.50641392D+04 0.50641392D+04 0.12412227D+01  1  2  3  1  6  2        2 0.375163696504D-07 0.100000000000D+01
-.830263146310D-09 0.000000000000D+00 0.000000000000D+00 0.129140543244D-06 0.000000000000D+00  6 22 2 9900012 -11 1 21 2 0.85188067D-03 0.27889101D+00 0.50641392D+04 0.50641392D+04 0.50641392D+04 0.12412227D+01  1  2 15  1  6  2        2 -.225231131862D-06 0.100000000000D+01
0.971482251693D-08 0.000000000000D+00 0.000000000000D+00 0.129140543244D-06 0.000000000000D+00  6 22 2 9900012 -11 1 21 2 0.85188067D-03 0.31604035D+00 0.60015400D+04 0.60015400D+04 0.60015400D+04 0.12330189D+01  1  2 12  1  6  2        2 0.197832970125D-05 0.100000000000D+01
-.117498628727D-08 0.000000000000D+00 0.000000000000D+00 0.129140543244D-06 0.000000000000D+00  6 22 2 9900012 -11 1 21 2 0.85188067D-03 0.27889101D+00 0.50641392D+04 0.50641392D+04 0.50641392D+04 0.12412227D+01  1  2  4  1  6  2        2 -.318746523413D-06 0.100000000000D+01
-.281399208981D-07 0.000000000000D+00 -.586462759369D-08 0.129140543244D-06 0.000000000000D+00  6 22 2 9900012 -11 1 21 2 0.85188067D-03 0.30953051D+00 0.50641392D+04 0.50641392D+04 0.50641392D+04 0.12412227D+01  1  2  5  1  6  2        2 -.604670271934D-05 0.100000000000D+01
0.286272806372D-07 0.000000000000D+00 0.583291142189D-08 0.129140543244D-06 0.000000000000D+00  6 22 2 9900012 -11 1 21 2 0.85188067D-03 0.27889101D+00 0.50641392D+04 0.50641392D+04 0.50641392D+04 0.12412227D+01  1  2  6  1  6  2        2 0.776591716581D-05 0.100000000000D+01
0.190804316059D-09 0.000000000000D+00 0.000000000000D+00 0.129140543244D-06 0.000000000000D+00  6 22 21 9900012 -11 1 -2 2 0.85188067D-03 0.31604035D+00 0.60015400D+04 0.60015400D+04 0.60015400D+04 0.12330189D+01  1  2 12  3  6  2        2 0.101243139737D-07 0.100000000000D+01
-.452785407803D-09 0.000000000000D+00 -.987202657510D-10 0.129140543244D-06 0.000000000000D+00  6 22 21 9900012 -11 1 -2 2 0.85188067D-03 0.30953051D+00 0.50641392D+04 0.50641392D+04 0.50641392D+04 0.12412227D+01  1  2  5  3  6  2        2 -.265179507643D-07 0.100000000000D+01
  </mgrwgt>
  </event>
</LesHouchesEvents>
