<LesHouchesEvents version="3.0">
  <!--
  <scalesfunctionalform>
    muR  H_T/2 := sum_i mT(i)/2, i=final state
    muF1 H_T/2 := sum_i mT(i)/2, i=final state
    muF2 H_T/2 := sum_i mT(i)/2, i=final state
    QES  H_T/2 := sum_i mT(i)/2, i=final state
  </scalesfunctionalform>
PYTHIA8   
  -->
  <header>
       83
  </header>
  <init>
   2212   2212 0.65000000D+04 0.65000000D+04 -1 -1  82200  82200 -4   1
 0.50634178D-04 0.20222963D-06 0.11438559D-05     66
  </init>
  <event>
  6     66 0.11438559E-05 0.27072075E+02 0.78161638E-02 0.12754537E+00
       -3 -1    0    0    0  501 0.00000000E+00 0.00000000E+00 0.11556325E+03 0.11556325E+03 0.00000000E+00 0.0000E+00 0.9000E+01
       22 -1    0    0    0    0 0.00000000E+00 0.00000000E+00 -.35065457E+02 0.35065457E+02 0.00000000E+00 0.0000E+00 0.9000E+01
       24  2    1    2    0    0 -.41201187E+01 0.26756716E+02 0.23984037E+02 0.87965306E+02 0.80185808E+02 0.0000E+00 0.0000E+00
  9900012  1    3    3    0    0 -.10339606E+02 -.54816149E+01 0.19014159E+02 0.54758504E+02 0.50000000E+02 0.0000E+00 0.9000E+01
      -13  1    3    3    0    0 0.62194874E+01 0.32238331E+02 0.49698779E+01 0.33206802E+02 0.00000000E+00 0.0000E+00 0.9000E+01
       -4  1    1    2    0  501 0.41201187E+01 -.26756716E+02 0.56513752E+02 0.62663398E+02 0.00000000E+00 0.0000E+00 0.9000E+01
#aMCatNLO 1  0  0  0  0 0.00000000D+00 0.00000000D+00  -5  6  0 0.00000000D+00 0.00000000D+00 0.00000000D+00 0.00000000D+00 0.00000000D+00
  <mgrwgt>
 0.4956273701D-05    1    2    0
 0.636575063076583D+02 0.000000000000000D+00 0.000000000000000D+00 0.636575063076583D+02
 0.636575063076583D+02 0.000000000000000D+00 0.000000000000000D+00 -.636575063076583D+02
 0.527636501565929D+02 -.103396060838762D+02 -.548161490971071D+01 -.121263028932662D+02
 0.361452531225214D+02 0.621948743375250D+01 0.322383309425933D+02 -.151157969485028D+02
 0.384061093362023D+02 0.412011865012371D+01 -.267567160328826D+02 0.272420998417690D+02
 0.000000000000000D+00 0.000000000000000D+00 -.000000000000000D+00 0.000000000000000D+00
 0.971337519913695D+02 0.000000000000000D+00 0.000000000000000D+00 0.971337519913695D+02
 0.904442756614175D+02 0.000000000000000D+00 0.000000000000000D+00 -.904442756614175D+02
 0.600985354176796D+02 -.310606944586015D+02 0.141411598713455D+00 -.121263028932662D+02
 0.398231488616874D+02 -.772803593903855D+01 0.360232331752256D+02 -.151157969485028D+02
 0.369543679009802D+02 -.971579194160859D+01 -.230021018630789D+02 0.272420998417690D+02
 0.507019754724399D+02 0.485045223392486D+02 -.131625429108602D+02 0.668947632995199D+01
0.174428780059D-07 0.000000000000D+00 0.000000000000D+00 0.297426249453D-06 0.000000000000D+00  6 -3 22 9900012 -13 -4 21 2 0.17778961D-01 0.53946857D-02 0.30944832D+04 0.30944832D+04 0.30944832D+04 0.12660104D+01  1  2 14  1  6  1       -3 0.495627370103D-05 0.100000000000D+01
  </mgrwgt>
  </event>
  <event>
  6     66 0.11438559E-05 0.16739635E+02 0.78161638E-02 0.12837650E+00
       -1 -1    0    0    0  501 0.00000000E+00 0.00000000E+00 0.29900062E+03 0.29900062E+03 0.00000000E+00 0.0000E+00 0.9000E+01
       22 -1    0    0    0    0 0.00000000E+00 0.00000000E+00 -.23271996E+02 0.23271996E+02 0.00000000E+00 0.0000E+00 0.9000E+01
       24  2    1    2    0    0 -.98901778E+01 -.23435276E+02 0.60319195E+02 0.10536653E+03 0.82563144E+02 0.0000E+00 0.0000E+00
  9900012  1    3    3    0    0 -.21130733E+02 -.52935815E+00 0.58470047E+02 0.79784300E+02 0.50000000E+02 0.0000E+00 0.9000E+01
      -13  1    3    3    0    0 0.11240556E+02 -.22905918E+02 0.18491480E+01 0.25582231E+02 0.00000000E+00 0.0000E+00 0.9000E+01
       -2  1    1    2    0  501 0.98901778E+01 0.23435276E+02 0.21540943E+03 0.21690608E+03 0.00000000E+00 0.0000E+00 0.9000E+01
#aMCatNLO 1  0  0  5  1 0.54220187D+01 0.00000000D+00  -5  6  0 0.00000000D+00 0.00000000D+00 0.00000000D+00 0.00000000D+00 0.00000000D+00
  <mgrwgt>
 0.4568358358D-04    8    2    0
 0.834166723934648D+02 0.000000000000000D+00 0.000000000000000D+00 0.834166723934648D+02
 0.834166723934648D+02 -.000000000000000D+00 -.000000000000000D+00 -.834166723934648D+02
 0.574850875482459D+02 -.211307334264475D+02 -.529358148514786D+00 -.189142056465637D+02
 0.463611719728206D+02 0.112405556110090D+02 -.229059182468255D+02 -.387082302039115D+02
 0.629870852658632D+02 0.989017781543854D+01 0.234352763953402D+02 0.576224358504752D+02
 0.000000000000000D+00 0.000000000000000D+00 0.000000000000000D+00 0.000000000000000D+00
 0.834166723934648D+02 0.000000000000000D+00 0.000000000000000D+00 0.834166723934648D+02
 0.834166723934648D+02 -.000000000000000D+00 -.000000000000000D+00 -.834166723934648D+02
 0.573267395490212D+02 -.210614375508793D+02 -.365158067656540D+00 -.185104720414513D+02
 0.460383538283947D+02 0.112963243084016D+02 -.227737714986079D+02 -.383833090297993D+02
 0.481488778487101D+02 0.220076075511350D+01 0.179896596980862D+02 0.446076589179012D+02
 0.153193735608035D+02 0.756435248736425D+01 0.514926986817816D+01 0.122861221533494D+02
0.882467789141D-07 0.000000000000D+00 0.000000000000D+00 0.142221028517D-06 0.000000000000D+00  6 -1 22 9900012 -13 -2 21 0 0.46000095D-01 0.35803071D-02 0.27686739D+04 0.27686739D+04 0.27686739D+04 0.12718284D+01  1  2  2  2  6  5       -2 0.800896618673D-05 0.100000000000D+01
0.521885396838D-08 0.000000000000D+00 -.169445433470D-09 0.142221028517D-06 0.000000000000D+00  6 -1 22 9900012 -13 -2 21 2 0.46000095D-01 0.35803071D-02 0.27686739D+04 0.27686739D+04 0.27686739D+04 0.12718284D+01  1  2  3  2  6  5       -2 0.766142917368D-06 0.100000000000D+01
-.130471884215D-07 0.000000000000D+00 0.000000000000D+00 0.142221028517D-06 0.000000000000D+00  6 -1 22 9900012 -13 -2 21 2 0.46000095D-01 0.35803071D-02 0.27686739D+04 0.27686739D+04 0.27686739D+04 0.12718284D+01  1  2 15  2  6  5       -2 -.191536514746D-05 0.100000000000D+01
0.237062207627D-06 0.000000000000D+00 0.000000000000D+00 0.142221028517D-06 0.000000000000D+00  6 -1 22 9900012 -13 -2 21 2 0.46000095D-01 0.35803071D-02 0.28596794D+04 0.28596794D+04 0.28596794D+04 0.12701286D+01  1  2 12  2  6  5       -2 0.348119225138D-04 0.100000000000D+01
-.146991443850D-06 0.000000000000D+00 0.000000000000D+00 0.142221028517D-06 0.000000000000D+00  6 -1 22 9900012 -13 -2 21 2 0.46000095D-01 0.35803071D-02 0.27686739D+04 0.27686739D+04 0.27686739D+04 0.12718284D+01  1  2  4  2  6  5       -2 -.215787707995D-04 0.100000000000D+01
-.409605457395D-06 0.000000000000D+00 0.000000000000D+00 0.142221028517D-06 0.000000000000D+00  6 -1 22 9900012 -13 -2 21 2 0.46000095D-01 0.35803071D-02 0.27686739D+04 0.27686739D+04 0.27686739D+04 0.12718284D+01  1  2  5  2  6  5       -2 -.601312705817D-04 0.100000000000D+01
0.520886548483D-06 0.000000000000D+00 -.000000000000D+00 0.142221028517D-06 0.000000000000D+00  6 -1 22 9900012 -13 -2 21 2 0.46000095D-01 0.35803071D-02 0.27686739D+04 0.27686739D+04 0.27686739D+04 0.12718284D+01  1  2  6  2  6  5       -2 0.764676578979D-04 0.100000000000D+01
0.630199302321D-07 0.000000000000D+00 0.000000000000D+00 0.142221028517D-06 0.103359398886D-07  6 -1 22 9900012 -13 -2 21 2 0.46000095D-01 0.35803071D-02 0.28596794D+04 0.28596794D+04 0.28596794D+04 0.12701286D+01  1  2 11  2  6  5       -2 0.925430059065D-05 0.100000000000D+01
  </mgrwgt>
  </event>
  <event>
  7     66 -.11438559E-05 0.22858122E+02 0.78161638E-02 0.12252862E+00
       -3 -1    0    0    0  502 0.00000000E+00 0.00000000E+00 0.60271948E+02 0.60271948E+02 0.00000000E+00 0.0000E+00 0.9000E+01
       22 -1    0    0    0    0 0.00000000E+00 0.00000000E+00 -.12322455E+04 0.12322455E+04 0.00000000E+00 0.0000E+00 0.9000E+01
       24  2    1    2    0    0 -.24401546E+02 0.44533276E+02 -.11867525E+04 0.11905065E+04 0.79659106E+02 0.0000E+00 0.0000E+00
  9900012  1    3    3    0    0 -.37888943E+02 0.23475147E+02 -.97146696E+03 0.97377344E+03 0.50000000E+02 0.0000E+00 0.9000E+01
      -13  1    3    3    0    0 0.13487397E+02 0.21058129E+02 -.21528552E+03 0.21673304E+03 0.00000000E+00 0.0000E+00 0.9000E+01
       -4  1    1    2    0  501 0.16672129E+02 -.27539282E+02 0.51547461E+02 0.60774276E+02 0.00000000E+00 0.0000E+00 0.9000E+01
       21  1    1    2  501  502 0.77294172E+01 -.16993994E+02 -.36768484E+02 0.41236648E+02 0.00000000E+00 0.0000E+00 0.9000E+01
#aMCatNLO 2  0  0  1  5 0.25419703D+02 0.00000000D+00  -5  6  0 0.00000000D+00 0.00000000D+00 0.00000000D+00 0.00000000D+00 0.00000000D+00
  <mgrwgt>
 -.7475731704D-04    3    2    0
 0.262994556060654D+03 0.000000000000000D+00 0.000000000000000D+00 0.262994556060654D+03
 0.262994556060654D+03 0.000000000000000D+00 0.000000000000000D+00 -.262994556060654D+03
 0.218555846105053D+03 -.346696289150729D+02 0.163971215573031D+02 -.209274482682963D+03
 0.504707484681001D+02 0.142321382459073D+02 0.194207320278313D+02 -.443573878782642D+02
 0.256962517548155D+03 0.204374906691656D+02 -.358178535851344D+02 0.253631870561228D+03
 0.000000000000000D+00 0.000000000000000D+00 -.000000000000000D+00 0.000000000000000D+00
 0.273290125333858D+03 0.000000000000000D+00 0.000000000000000D+00 0.273290125333858D+03
 0.271761866756677D+03 0.000000000000000D+00 0.000000000000000D+00 -.271761866756677D+03
 0.219732709621376D+03 -.378889434880918D+02 0.234751472132975D+02 -.209274482682963D+03
 0.509208458042146D+02 0.134873972921275D+02 0.210581288892944D+02 -.443573878782642D+02
 0.255666770803438D+03 0.166721289754036D+02 -.275392818370017D+02 0.253631870561228D+03
 0.187316658615069D+02 0.772941722056078D+01 -.169939942655901D+02 0.152825857718194D+01
-.314977190019D-04 0.000000000000D+00 0.000000000000D+00 0.101066679970D-03 0.000000000000D+00  6 -3 22 9900012 -13 -4 21 2 0.95817235D-02 0.18346030D+00 0.51016404D+04 0.51016404D+04 0.51016404D+04 0.12408626D+01  1  2 13  1  6  1       -3 -.754813063424D-04 0.100000000000D+01
-.539760869756D-07 0.000000000000D+00 0.000000000000D+00 0.101066679970D-03 0.000000000000D+00  6 -3 22 9900012 -13 -4 21 2 0.89232836D-02 0.18346030D+00 0.41171771D+04 0.41171771D+04 0.41171771D+04 0.12514591D+01  1  2  8  1  6  1       -3 -.144525453958D-06 0.100000000000D+01
0.372314699442D-06 0.000000000000D+00 0.000000000000D+00 0.101066679970D-03 0.258365019125D-07  6 -3 22 9900012 -13 -4 21 2 0.92726075D-02 0.18957622D+00 0.51016404D+04 0.51016404D+04 0.51016404D+04 0.12408626D+01  1  2  1  1  6  1       -3 0.868514759768D-06 0.100000000000D+01
  </mgrwgt>
  </event>
  <event>
  6     66 0.11438559E-05 0.13148645E+02 0.78161638E-02 0.13102811E+00
       -1 -1    0    0    0  501 0.00000000E+00 0.00000000E+00 0.34067358E+02 0.34067358E+02 0.00000000E+00 0.0000E+00 0.9000E+01
       22 -1    0    0    0    0 -.00000000E+00 -.00000000E+00 -.79963785E+02 0.79963785E+02 0.00000000E+00 0.0000E+00 0.9000E+01
       24  2    1    2    0    0 0.90073515E+01 0.95788561E+01 -.54686053E+02 0.98215190E+02 0.80515664E+02 0.0000E+00 0.0000E+00
  9900012  1    3    3    0    0 0.14617035E+02 0.30121990E+02 -.42619980E+02 0.73739099E+02 0.50000000E+02 0.0000E+00 0.9000E+01
      -13  1    3    3    0    0 -.56096836E+01 -.20543134E+02 -.12066074E+02 0.24476091E+02 0.00000000E+00 0.0000E+00 0.9000E+01
       -2  1    1    2    0  501 -.90073515E+01 -.95788561E+01 0.87896266E+01 0.15815954E+02 0.00000000E+00 0.0000E+00 0.9000E+01
#aMCatNLO 1  0  0  5  1 0.56227001D+01 0.00000000D+00  -5  6  0 0.00000000D+00 0.00000000D+00 0.00000000D+00 0.00000000D+00 0.00000000D+00
  <mgrwgt>
 0.2463184212D-05    1    2    0
 0.521934376165540D+02 0.000000000000000D+00 0.000000000000000D+00 0.521934376165540D+02
 0.521934376165540D+02 -.000000000000000D+00 -.000000000000000D+00 -.521934376165540D+02
 0.618128375639333D+02 0.146170350506043D+02 0.301219899450841D+02 -.141362971029497D+02
 0.214322631578569D+02 -.560968355823015D+01 -.205431338066427D+02 -.241929904032698D+01
 0.211417745113178D+02 -.900735149237418D+01 -.957885613844143D+01 0.165555961432766D+02
 0.000000000000000D+00 0.000000000000000D+00 0.000000000000000D+00 -.000000000000000D+00
 0.521934376165540D+02 0.000000000000000D+00 0.000000000000000D+00 0.521934376165540D+02
 0.521934376165540D+02 -.000000000000000D+00 -.000000000000000D+00 -.521934376165540D+02
 0.581149784000063D+02 0.110932593190169D+02 0.263746352620140D+02 -.765956440732536D+01
 0.229957295185173D+02 -.691508782276894D+01 -.219313642607458D+02 -.199538137404249D-01
 0.162766143020458D+02 -.377838821122707D+01 -.864538389159623D+01 0.132630800732616D+02
 0.699955301253872D+01 -.399783285020915D+00 0.420211289032802D+01 -.558356185219586D+01
0.349920858836D-08 0.000000000000D+00 0.000000000000D+00 0.179079949244D-06 0.000000000000D+00  6 -1 22 9900012 -13 -2 21 2 0.52411321D-02 0.12302121D-01 0.22381700D+04 0.22381700D+04 0.22381700D+04 0.12831788D+01  1  2 14  2  6  5       -2 0.246318421249D-05 0.100000000000D+01
  </mgrwgt>
  </event>
  <event>
  6     66 0.11438559E-05 0.10630431E+02 0.78161638E-02 0.11115802E+00
       -1 -1    0    0    0  501 0.00000000E+00 0.00000000E+00 0.91295459E+01 0.91295459E+01 0.00000000E+00 0.0000E+00 0.9000E+01
       22 -1    0    0    0    0 0.00000000E+00 0.00000000E+00 -.21520596E+04 0.21520596E+04 0.00000000E+00 0.0000E+00 0.9000E+01
       24  2    1    2    0    0 0.22525744E+01 -.10389031E+02 -.21481291E+04 0.21493555E+04 0.71814790E+02 0.0000E+00 0.0000E+00
  9900012  1    3    3    0    0 0.33258923E+01 -.21141087E+02 -.12749404E+04 0.12760999E+04 0.50000000E+02 0.0000E+00 0.9000E+01
      -13  1    3    3    0    0 -.10733179E+01 0.10752056E+02 -.87318876E+03 0.87325561E+03 0.00000000E+00 0.0000E+00 0.9000E+01
       -2  1    1    2    0  501 -.22525744E+01 0.10389031E+02 0.51990281E+01 0.11833679E+02 0.00000000E+00 0.0000E+00 0.9000E+01
#aMCatNLO 1  0  0  1  5 0.11895805D+02 0.00000000D+00  -5  6  0 0.00000000D+00 0.00000000D+00 0.00000000D+00 0.00000000D+00 0.00000000D+00
  <mgrwgt>
 0.7780349251D-04    5    4    0
 0.140168924511298D+03 0.000000000000000D+00 0.000000000000000D+00 0.140168924511298D+03
 0.140168924511298D+03 0.000000000000000D+00 0.000000000000000D+00 -.140168924511298D+03
 0.919790770128512D+02 0.332589234273125D+01 -.211410871088278D+02 -.741764348301907D+02
 0.573883272374414D+02 -.107331792520588D+01 0.107520557771049D+02 -.563618788571594D+02
 0.130970444772304D+03 -.225257441752537D+01 0.103890313317229D+02 0.130538313687350D+03
 0.000000000000000D+00 -.000000000000000D+00 -.000000000000000D+00 0.000000000000000D+00
 0.288953405670308D+03 0.000000000000000D+00 0.000000000000000D+00 0.288953405670308D+03
 0.178061622507638D+03 0.000000000000000D+00 0.000000000000000D+00 -.178061622507638D+03
 0.909886561465040D+02 0.449987354543685D+01 0.160169660455496D+02 -.741764348301907D+02
 0.668717756927156D+02 -.276024202606081D+00 0.359874534612736D+02 -.563618788571594D+02
 0.146621588445259D+03 -.471452558544820D+00 0.667638868727610D+02 0.130538313687350D+03
 0.162533007893468D+03 -.375239678428595D+01 -.118768306379584D+03 0.110891783162670D+03
 0.140168924511298D+03 0.000000000000000D+00 0.000000000000000D+00 0.140168924511298D+03
 0.140168924511298D+03 0.000000000000000D+00 0.000000000000000D+00 -.140168924511298D+03
 0.919790770128512D+02 0.332589234273125D+01 -.211410871088278D+02 -.741764348301907D+02
 0.573883272374414D+02 -.107331792520588D+01 0.107520557771049D+02 -.563618788571594D+02
 0.000000000000000D+00 -.000000000000000D+00 -.000000000000000D+00 0.000000000000000D+00
 0.130970444772304D+03 -.225257441752537D+01 0.103890313317229D+02 0.130538313687350D+03
 0.288953405670308D+03 0.000000000000000D+00 0.000000000000000D+00 0.288953405670308D+03
 0.178061622507638D+03 0.000000000000000D+00 0.000000000000000D+00 -.178061622507638D+03
 0.909886561465040D+02 0.449987354543685D+01 0.160169660455496D+02 -.741764348301907D+02
 0.668717756927156D+02 -.276024202606081D+00 0.359874534612736D+02 -.563618788571594D+02
 0.162533007893468D+03 -.375239678428595D+01 -.118768306379584D+03 0.110891783162670D+03
 0.146621588445259D+03 -.471452558544820D+00 0.667638868727610D+02 0.130538313687350D+03
0.911884122870D-05 0.000000000000D+00 0.000000000000D+00 0.432567978590D-06 0.000000000000D+00  6 -1 22 9900012 -13 -2 21 0 0.14045455D-02 0.33108610D+00 0.14373004D+04 0.14373004D+04 0.14373004D+04 0.13078645D+01  1  2  2  1  6  1       -1 0.429593167440D-04 0.100000000000D+01
0.195588560244D-05 0.000000000000D+00 -.175093756821D-07 0.432567978590D-06 0.000000000000D+00  6 -1 22 9900012 -13 -2 21 2 0.14045455D-02 0.33108610D+00 0.14373004D+04 0.14373004D+04 0.14373004D+04 0.13078645D+01  1  2  3  1  6  1       -1 0.157611053572D-04 0.100000000000D+01
-.138020342679D-05 0.000000000000D+00 0.000000000000D+00 0.432567978590D-06 0.000000000000D+00  6 -1 22 9900012 -13 -2 21 2 0.14045455D-02 0.33108610D+00 0.14373004D+04 0.14373004D+04 0.14373004D+04 0.13078645D+01  1  2 15  1  6  1       -1 -.111220879160D-04 0.100000000000D+01
0.445758424951D-05 0.000000000000D+00 -.265800155869D-05 0.432567978590D-06 0.000000000000D+00  6 -1 22 9900012 -13 -2 21 2 0.39140975D-02 0.33108610D+00 0.14373004D+04 0.14373004D+04 0.14373004D+04 0.13078645D+01  1  2  5  1  6  1       -1 0.873164623135D-05 0.100000000000D+01
0.661792946884D-06 0.000000000000D+00 -.305646916942D-06 0.432567978590D-06 0.000000000000D+00  6 21 22 9900012 -13 1 -2 2 0.39140975D-02 0.33108610D+00 0.14373004D+04 0.14373004D+04 0.14373004D+04 0.13078645D+01  3  4  5  3  5  1       -1 0.214735120928D-04 0.100000000000D+01
  </mgrwgt>
  </event>
  <event>
  7     66 0.11438559E-05 0.74297132E+02 0.78161638E-02 0.10539194E+00
       -1 -1    0    0    0  502 0.00000000E+00 0.00000000E+00 0.44717409E+03 0.44717409E+03 0.00000000E+00 0.0000E+00 0.9000E+01
       22 -1    0    0    0    0 0.00000000E+00 0.00000000E+00 -.91102679E+03 0.91102679E+03 0.00000000E+00 0.0000E+00 0.9000E+01
       24  2    1    2    0    0 0.73461390E+02 0.89339012E+02 -.85964420E+03 0.87119516E+03 0.81331532E+02 0.0000E+00 0.0000E+00
  9900012  1    3    3    0    0 0.76906424E+02 0.79105935E+02 -.64473657E+03 0.65601646E+03 0.50000000E+02 0.0000E+00 0.9000E+01
      -13  1    3    3    0    0 -.34450336E+01 0.10233077E+02 -.21490763E+03 0.21517870E+03 0.00000000E+00 0.0000E+00 0.9000E+01
       -2  1    1    2    0  501 -.12497538E+03 0.40886128E+02 0.26287320E+03 0.29392659E+03 0.00000000E+00 0.0000E+00 0.9000E+01
       21  1    1    2  501  502 0.51513986E+02 -.13022514E+03 0.13291830E+03 0.19307913E+03 0.00000000E+00 0.0000E+00 0.9000E+01
#aMCatNLO 2  0  0  1  1 0.68604201D+02 0.00000000D+00  -5  6  0 0.00000000D+00 0.00000000D+00 0.00000000D+00 0.00000000D+00 0.00000000D+00
  <mgrwgt>
 0.3015463864D-05    1    2    0
 0.495419210187637D+03 0.000000000000000D+00 0.000000000000000D+00 0.495419210187637D+03
 0.495419210187637D+03 0.000000000000000D+00 0.000000000000000D+00 -.495419210187637D+03
 0.376690205405219D+03 0.964618066908570D+02 0.296707678168298D+02 -.359458309453713D+03
 0.122066995118164D+03 0.287784503254602D+01 -.575088760851686D+01 -.121897483964439D+03
 0.492081219851892D+03 -.993396517234031D+02 -.239198802083129D+02 0.481355793418152D+03
 0.000000000000000D+00 0.000000000000000D+00 -.000000000000000D+00 0.000000000000000D+00
 0.787332440446407D+03 0.000000000000000D+00 0.000000000000000D+00 0.787332440446407D+03
 0.517427648816003D+03 0.000000000000000D+00 0.000000000000000D+00 -.517427648816003D+03
 0.379318630139665D+03 0.769064235112174D+02 0.791059350391863D+02 -.359458309453713D+03
 0.122374755269081D+03 -.344503357571674D+01 0.102330774437031D+02 -.121897483964439D+03
 0.498992905798614D+03 -.124975376301349D+03 0.408861284357154D+02 0.481355793418152D+03
 0.304073798055050D+03 0.515139863658479D+02 -.130225140918605D+03 0.269904791630404D+03
0.146604038375D-04 0.000000000000D+00 0.000000000000D+00 0.138531538772D-03 0.336234520351D-08  6 -1 22 9900012 -13 -2 21 2 0.68796013D-01 0.14015797D+00 0.40695829D+05 0.40695829D+05 0.40695829D+05 0.11508233D+01  1  2  1  1  6  1       -1 0.301546386363D-05 0.100000000000D+01
  </mgrwgt>
  </event>
  <event>
  6     66 0.11438559E-05 0.25016368E+02 0.78161638E-02 0.12688031E+00
       -1 -1    0    0    0  501 0.00000000E+00 0.00000000E+00 0.49590998E+01 0.49590998E+01 0.00000000E+00 0.0000E+00 0.9000E+01
       22 -1    0    0    0    0 0.00000000E+00 0.00000000E+00 -.20881498E+04 0.20881498E+04 0.00000000E+00 0.0000E+00 0.9000E+01
       24  2    1    2    0    0 -.19299368E+02 -.16972270E+02 -.20469894E+04 0.20487123E+04 0.79974691E+02 0.0000E+00 0.0000E+00
  9900012  1    3    3    0    0 -.23389012E+02 0.73453897E+01 -.11072630E+04 0.11086624E+04 0.50000000E+02 0.0000E+00 0.9000E+01
      -13  1    3    3    0    0 0.40896438E+01 -.24317660E+02 -.93972646E+03 0.94004994E+03 0.00000000E+00 0.0000E+00 0.9000E+01
       -2  1    1    2    0  501 0.19299368E+02 0.16972270E+02 -.36201265E+02 0.44396567E+02 0.00000000E+00 0.0000E+00 0.9000E+01
#aMCatNLO 1  0  0  1  5 0.96497203D+01 0.00000000D+00  -5  6  0 0.00000000D+00 0.00000000D+00 0.00000000D+00 0.00000000D+00 0.00000000D+00
  <mgrwgt>
 0.4384479155D-04   11    4    0
 0.101761206649069D+03 0.000000000000000D+00 0.000000000000000D+00 0.101761206649069D+03
 0.101761206649069D+03 0.000000000000000D+00 0.000000000000000D+00 -.101761206649069D+03
 0.683521006953401D+02 -.233890121307586D+02 0.734538974009450D+01 -.396359562844048D+02
 0.491222432072134D+02 0.408964383073335D+01 -.243176596835155D+02 -.424843620472650D+02
 0.860480693955836D+02 0.192993683000253D+02 0.169722699434210D+02 0.821203183316698D+02
 0.000000000000000D+00 0.000000000000000D+00 -.000000000000000D+00 0.000000000000000D+00
 0.112554503278085D+03 0.000000000000000D+00 0.000000000000000D+00 0.112554503278085D+03
 0.103692278882182D+03 0.000000000000000D+00 0.000000000000000D+00 -.103692278882182D+03
 0.692394097074157D+02 -.250187565724887D+02 0.985640125089644D+01 -.396359562844048D+02
 0.481838385552808D+02 0.293707238621070D+01 -.225418474211060D+02 -.424843620472650D+02
 0.862919321621080D+02 0.172580347991120D+02 0.201174329437854D+02 0.821203183316698D+02
 0.125316017354623D+02 0.482364938716597D+01 -.743198677357574D+01 0.886222439590252D+01
 0.101761206649069D+03 0.000000000000000D+00 0.000000000000000D+00 0.101761206649069D+03
 0.101761206649069D+03 0.000000000000000D+00 0.000000000000000D+00 -.101761206649069D+03
 0.683521006953401D+02 -.233890121307586D+02 0.734538974009450D+01 -.396359562844048D+02
 0.491222432072134D+02 0.408964383073335D+01 -.243176596835155D+02 -.424843620472650D+02
 0.000000000000000D+00 0.000000000000000D+00 -.000000000000000D+00 0.000000000000000D+00
 0.860480693955836D+02 0.192993683000253D+02 0.169722699434210D+02 0.821203183316698D+02
 0.112554503278085D+03 0.000000000000000D+00 0.000000000000000D+00 0.112554503278085D+03
 0.103692278882182D+03 0.000000000000000D+00 0.000000000000000D+00 -.103692278882182D+03
 0.692394097074157D+02 -.250187565724887D+02 0.985640125089644D+01 -.396359562844048D+02
 0.481838385552808D+02 0.293707238621070D+01 -.225418474211060D+02 -.424843620472650D+02
 0.125316017354623D+02 0.482364938716597D+01 -.743198677357574D+01 0.886222439590252D+01
 0.862919321621080D+02 0.172580347991120D+02 0.201174329437854D+02 0.821203183316698D+02
0.597734169993D-06 0.000000000000D+00 0.000000000000D+00 0.257971162774D-05 0.000000000000D+00  6 -1 22 9900012 -13 -2 21 0 0.76293842D-03 0.32125382D+00 0.28114615D+04 0.28114615D+04 0.28114615D+04 0.12710216D+01  1  2  2  1  6  1       -1 0.778023199640D-05 0.100000000000D+01
0.457545896278D-07 0.000000000000D+00 -.114772829990D-08 0.257971162774D-05 0.000000000000D+00  6 -1 22 9900012 -13 -2 21 2 0.76293842D-03 0.32125382D+00 0.28114615D+04 0.28114615D+04 0.28114615D+04 0.12710216D+01  1  2  3  1  6  1       -1 0.962110531419D-06 0.100000000000D+01
-.868314434897D-07 0.000000000000D+00 0.000000000000D+00 0.257971162774D-05 0.000000000000D+00  6 -1 22 9900012 -13 -2 21 2 0.76293842D-03 0.32125382D+00 0.28114615D+04 0.28114615D+04 0.28114615D+04 0.12710216D+01  1  2 15  1  6  1       -1 -.182585937104D-05 0.100000000000D+01
0.198114504944D-05 0.000000000000D+00 0.000000000000D+00 0.257971162774D-05 0.000000000000D+00  6 -1 22 9900012 -13 -2 21 2 0.85987295D-03 0.32125382D+00 0.32988041D+04 0.32988041D+04 0.32988041D+04 0.12627054D+01  1  2 12  1  6  1       -1 0.356139911213D-04 0.100000000000D+01
-.120480475278D-06 0.000000000000D+00 0.000000000000D+00 0.257971162774D-05 0.000000000000D+00  6 -1 22 9900012 -13 -2 21 2 0.76293842D-03 0.32125382D+00 0.28114615D+04 0.28114615D+04 0.28114615D+04 0.12710216D+01  1  2  4  1  6  1       -1 -.253341872452D-05 0.100000000000D+01
-.334868833383D-05 0.000000000000D+00 -.622097876885D-06 0.257971162774D-05 0.000000000000D+00  6 -1 22 9900012 -13 -2 21 2 0.86217511D-03 0.32125382D+00 0.28114615D+04 0.28114615D+04 0.28114615D+04 0.12710216D+01  1  2  5  1  6  1       -1 -.596128144235D-04 0.100000000000D+01
0.340390092008D-05 0.000000000000D+00 0.617475670282D-06 0.257971162774D-05 0.000000000000D+00  6 -1 22 9900012 -13 -2 21 2 0.76293842D-03 0.32125382D+00 0.28114615D+04 0.28114615D+04 0.28114615D+04 0.12710216D+01  1  2  6  1  6  1       -1 0.715759653786D-04 0.100000000000D+01
0.247472751052D-12 0.000000000000D+00 0.000000000000D+00 0.257971162774D-05 0.272594435522D-07  6 -1 22 9900012 -13 -2 21 2 0.84385944D-03 0.32735009D+00 0.32988041D+04 0.32988041D+04 0.32988041D+04 0.12627054D+01  1  2 11  1  6  1       -1 0.428219691327D-11 0.100000000000D+01
0.374862992804D-07 0.000000000000D+00 0.000000000000D+00 0.257971162774D-05 0.000000000000D+00  6 21 22 9900012 -13 1 -2 2 0.85987295D-03 0.32125382D+00 0.32988041D+04 0.32988041D+04 0.32988041D+04 0.12627054D+01  3  4 12  3  5  1       -1 0.130289151538D-04 0.100000000000D+01
-.615711380502D-07 0.000000000000D+00 -.119916265234D-07 0.257971162774D-05 0.000000000000D+00  6 21 22 9900012 -13 1 -2 2 0.86217511D-03 0.32125382D+00 0.28114615D+04 0.28114615D+04 0.28114615D+04 0.12710216D+01  3  4  5  3  5  1       -1 -.211443483679D-04 0.100000000000D+01
0.416916186085D-13 0.000000000000D+00 0.000000000000D+00 0.257971162774D-05 0.424229110690D-08  6 21 22 9900012 -13 1 -2 2 0.84385944D-03 0.32735009D+00 0.32988041D+04 0.32988041D+04 0.32988041D+04 0.12627054D+01  3  4 11  3  5  1       -1 0.139698126332D-10 0.100000000000D+01
  </mgrwgt>
  </event>
  <event>
  6     66 0.11438559E-05 0.30561334E+02 0.78161638E-02 0.12581326E+00
       -1 -1    0    0    0  501 0.00000000E+00 0.00000000E+00 0.96722554E+01 0.96722554E+01 0.00000000E+00 0.0000E+00 0.9000E+01
       22 -1    0    0    0    0 -.00000000E+00 -.00000000E+00 -.53258200E+03 0.53258200E+03 0.00000000E+00 0.0000E+00 0.9000E+01
       24  2    1    2    0    0 -.36888398E+02 -.22748072E+02 -.32739247E+03 0.34199134E+03 0.88848308E+02 0.0000E+00 0.0000E+00
  9900012  1    3    3    0    0 -.15179772E+02 -.20736383E+02 -.11023655E+03 0.12374377E+03 0.50000000E+02 0.0000E+00 0.9000E+01
      -13  1    3    3    0    0 -.21708626E+02 -.20116890E+01 -.21715592E+03 0.21824758E+03 0.00000000E+00 0.0000E+00 0.9000E+01
       -2  1    1    2    0  501 0.36888398E+02 0.22748072E+02 -.19551728E+03 0.20026292E+03 0.00000000E+00 0.0000E+00 0.9000E+01
#aMCatNLO 1  0  0  5  1 0.67847064D+01 0.00000000D+00  -5  6  0 0.00000000D+00 0.00000000D+00 0.00000000D+00 0.00000000D+00 0.00000000D+00
  <mgrwgt>
 0.4851102121D-04    6    2    0
 0.717723426542772D+02 0.000000000000000D+00 0.000000000000000D+00 0.717723426542772D+02
 0.717723426542772D+02 -.000000000000000D+00 -.000000000000000D+00 -.717723426542772D+02
 0.658806591261417D+02 -.151797719143926D+02 -.207363831955343D+02 0.343487726635153D+02
 0.333884236821659D+02 -.217086262183740D+02 -.201168899238093D+01 -.252878526389386D+02
 0.442756025002469D+02 0.368883981327665D+02 0.227480721879152D+02 -.906092002457668D+01
 0.000000000000000D+00 0.000000000000000D+00 -.000000000000000D+00 0.000000000000000D+00
 0.717723426542772D+02 0.000000000000000D+00 0.000000000000000D+00 0.717723426542772D+02
 0.717723426542772D+02 -.000000000000000D+00 -.000000000000000D+00 -.717723426542772D+02
 0.646404210916149D+02 -.128489629092786D+02 -.192990366533032D+02 0.337762546075159D+02
 0.328210463667984D+02 -.205262759899167D+02 -.128256575283173D+01 -.255782740560609D+02
 0.415494498232624D+02 0.325453315926020D+02 0.248687636159618D+02 -.697873687401952D+01
 0.453376802687867D+01 0.829907306593225D+00 -.428716120982686D+01 -.121924367743548D+01
0.313690987235D-06 0.000000000000D+00 0.000000000000D+00 0.128225973975D-08 0.000000000000D+00  6 -1 22 9900012 -13 -2 21 0 0.14880393D-02 0.81935693D-01 0.36819297D+04 0.36819297D+04 0.36819297D+04 0.12570900D+01  1  2  2  2  6  5       -2 0.424954009663D-04 0.100000000000D+01
-.137929045583D-07 0.000000000000D+00 -.602327993859D-09 0.128225973975D-08 0.000000000000D+00  6 -1 22 9900012 -13 -2 21 2 0.14880393D-02 0.81935693D-01 0.36819297D+04 0.36819297D+04 0.36819297D+04 0.12570900D+01  1  2  3  2  6  5       -2 -.295276149248D-05 0.100000000000D+01
-.361694406885D-07 0.000000000000D+00 0.000000000000D+00 0.128225973975D-08 0.000000000000D+00  6 -1 22 9900012 -13 -2 21 2 0.14880393D-02 0.81935693D-01 0.36819297D+04 0.36819297D+04 0.36819297D+04 0.12570900D+01  1  2 15  2  6  5       -2 -.774309219771D-05 0.100000000000D+01
0.229994753826D-06 0.000000000000D+00 0.000000000000D+00 0.128225973975D-08 0.000000000000D+00  6 -1 22 9900012 -13 -2 21 2 0.14880393D-02 0.81935693D-01 0.36606246D+04 0.36606246D+04 0.36606246D+04 0.12573846D+01  1  2 12  2  6  5       -2 0.492237006359D-04 0.100000000000D+01
-.164430382172D-06 0.000000000000D+00 0.000000000000D+00 0.128225973975D-08 0.000000000000D+00  6 -1 22 9900012 -13 -2 21 2 0.14880393D-02 0.81935693D-01 0.36819297D+04 0.36819297D+04 0.36819297D+04 0.12570900D+01  1  2  4  2  6  5       -2 -.352009758800D-04 0.100000000000D+01
0.125630173555D-07 0.000000000000D+00 0.000000000000D+00 0.128225973975D-08 0.164413463929D-09  6 -1 22 9900012 -13 -2 21 2 0.14880393D-02 0.81935693D-01 0.36606246D+04 0.36606246D+04 0.36606246D+04 0.12573846D+01  1  2 11  2  6  5       -2 0.268874917843D-05 0.100000000000D+01
  </mgrwgt>
  </event>
  <event>
  6     66 0.11438559E-05 0.69950072E+02 0.78161638E-02 0.10911303E+00
       -3 -1    0    0    0  501 0.00000000E+00 0.00000000E+00 0.69752237E+03 0.69752237E+03 0.00000000E+00 0.0000E+00 0.9000E+01
       22 -1    0    0    0    0 0.00000000E+00 0.00000000E+00 -.31396691E+03 0.31396691E+03 0.00000000E+00 0.0000E+00 0.9000E+01
       24  2    1    2    0    0 0.19362033E+02 -.67216994E+02 -.30313042E+03 0.32124982E+03 0.80127328E+02 0.0000E+00 0.0000E+00
  9900012  1    3    3    0    0 -.93618919E+01 -.51997674E+02 -.18681826E+03 0.20048059E+03 0.50000000E+02 0.0000E+00 0.9000E+01
      -13  1    3    3    0    0 0.28723925E+02 -.15219320E+02 -.11631215E+03 0.12076924E+03 0.00000000E+00 0.0000E+00 0.9000E+01
       -4  1    1    2    0  501 -.19362033E+02 0.67216994E+02 0.68668588E+03 0.69023946E+03 0.00000000E+00 0.0000E+00 0.9000E+01
#aMCatNLO 1  0  0  1  5 0.25195504D+01 0.00000000D+00  -5  6  0 0.00000000D+00 0.00000000D+00 0.00000000D+00 0.00000000D+00 0.00000000D+00
  <mgrwgt>
 0.6351321524D-04    7    4    0
 0.467973229577869D+03 0.000000000000000D+00 0.000000000000000D+00 0.467973229577869D+03
 0.467973229577869D+03 0.000000000000000D+00 0.000000000000000D+00 -.467973229577869D+03
 0.293220971567558D+03 -.936189185797668D+01 -.519976737727802D+02 -.284054809975261D+03
 0.178182148995001D+03 0.287239249100177D+02 -.152193199153842D+02 -.175191856715869D+03
 0.464543338593179D+03 -.193620330520411D+02 0.672169936881645D+02 0.459246666691130D+03
 0.000000000000000D+00 0.000000000000000D+00 -.000000000000000D+00 0.000000000000000D+00
 0.576488087710778D+03 0.000000000000000D+00 0.000000000000000D+00 0.576488087710778D+03
 0.501134024283535D+03 0.000000000000000D+00 0.000000000000000D+00 -.501134024283535D+03
 0.294158652069682D+03 -.421171357966091D+02 -.396020755726342D+02 -.284054809975261D+03
 0.175593918450934D+03 0.899559092886095D+01 -.775350767332417D+01 -.175191856715869D+03
 0.472872368768386D+03 -.716370506571750D+02 0.869994784516057D+02 0.459246666691130D+03
 0.134997172705312D+03 0.104758595524923D+03 -.396438952056473D+02 0.753540634272431D+02
 0.467973229577869D+03 0.000000000000000D+00 0.000000000000000D+00 0.467973229577869D+03
 0.467973229577869D+03 0.000000000000000D+00 0.000000000000000D+00 -.467973229577869D+03
 0.293220971567558D+03 -.936189185797668D+01 -.519976737727802D+02 -.284054809975261D+03
 0.178182148995001D+03 0.287239249100177D+02 -.152193199153842D+02 -.175191856715869D+03
 0.000000000000000D+00 0.000000000000000D+00 -.000000000000000D+00 0.000000000000000D+00
 0.464543338593179D+03 -.193620330520411D+02 0.672169936881645D+02 0.459246666691130D+03
 0.576488087710778D+03 0.000000000000000D+00 0.000000000000000D+00 0.576488087710778D+03
 0.501134024283535D+03 0.000000000000000D+00 0.000000000000000D+00 -.501134024283535D+03
 0.294158652069682D+03 -.421171357966091D+02 -.396020755726342D+02 -.284054809975261D+03
 0.175593918450934D+03 0.899559092886095D+01 -.775350767332417D+01 -.175191856715869D+03
 0.134997172705312D+03 0.104758595524923D+03 -.396438952056473D+02 0.753540634272431D+02
 0.472872368768386D+03 -.716370506571750D+02 0.869994784516057D+02 0.459246666691130D+03
0.257046428871D-03 0.000000000000D+00 0.000000000000D+00 0.499892809035D-03 0.000000000000D+00  6 -3 22 9900012 -13 -4 21 0 0.10731113D+00 0.48302601D-01 0.76736633D+04 0.76736633D+04 0.76736633D+04 0.12214406D+01  1  2  2  1  6  1       -3 0.529982605120D-04 0.100000000000D+01
0.733132305998D-05 0.000000000000D+00 -.493562984372D-06 0.499892809035D-03 0.000000000000D+00  6 -3 22 9900012 -13 -4 21 2 0.10731113D+00 0.48302601D-01 0.76736633D+04 0.76736633D+04 0.76736633D+04 0.12214406D+01  1  2  3  1  6  1       -3 0.225515873575D-05 0.100000000000D+01
-.383873877841D-04 0.000000000000D+00 0.000000000000D+00 0.499892809035D-03 0.000000000000D+00  6 -3 22 9900012 -13 -4 21 2 0.10731113D+00 0.48302601D-01 0.76736633D+04 0.76736633D+04 0.76736633D+04 0.12214406D+01  1  2 15  1  6  1       -3 -.118081896263D-04 0.100000000000D+01
-.273860417601D-05 0.000000000000D+00 0.000000000000D+00 0.499892809035D-03 0.000000000000D+00  6 -3 22 9900012 -13 -4 21 2 0.10731113D+00 0.48302601D-01 0.76736633D+04 0.76736633D+04 0.76736633D+04 0.12214406D+01  1  2  4  1  6  1       -3 -.842410991955D-06 0.100000000000D+01
-.888603547135D-04 0.000000000000D+00 -.126238185909D-03 0.499892809035D-03 0.000000000000D+00  6 -3 22 9900012 -13 -4 21 2 0.13815047D+00 0.48302601D-01 0.76736633D+04 0.76736633D+04 0.76736633D+04 0.12214406D+01  1  2  5  1  6  1       -3 -.140117617800D-04 0.100000000000D+01
0.120798166334D-03 0.000000000000D+00 0.122314791382D-03 0.499892809035D-03 0.000000000000D+00  6 -3 22 9900012 -13 -4 21 2 0.10731113D+00 0.48302601D-01 0.76736633D+04 0.76736633D+04 0.76736633D+04 0.12214406D+01  1  2  6  1  6  1       -3 0.371582370387D-04 0.100000000000D+01
-.878563202663D-06 0.000000000000D+00 -.430515549808D-05 0.499892809035D-03 0.000000000000D+00  6 21 22 9900012 -13 3 -4 2 0.13815047D+00 0.48302601D-01 0.76736633D+04 0.76736633D+04 0.76736633D+04 0.12214406D+01  3  4  5  3  5  1       -3 -.223607864987D-05 0.100000000000D+01
  </mgrwgt>
  </event>
  <event>
  7     66 0.11438559E-05 0.14113394E+02 0.78161638E-02 0.13158297E+00
       21 -1    0    0  502  501 0.00000000E+00 0.00000000E+00 0.44316572E+03 0.44316572E+03 0.00000000E+00 0.0000E+00 0.9000E+01
       22 -1    0    0    0    0 0.00000000E+00 0.00000000E+00 -.47336155E+02 0.47336155E+02 0.00000000E+00 0.0000E+00 0.9000E+01
       24  2    1    2    0    0 0.11589633E+02 0.16483577E+02 -.97540086E+01 0.84175943E+02 0.81144444E+02 0.0000E+00 0.0000E+00
  9900012  1    3    3    0    0 0.20564047E+02 0.27223211E+01 -.26884500E+02 0.60440611E+02 0.50000000E+02 0.0000E+00 0.9000E+01
      -13  1    3    3    0    0 -.89744141E+01 0.13761256E+02 0.17130492E+02 0.23735333E+02 0.00000000E+00 0.0000E+00 0.9000E+01
        1  1    1    2  502    0 -.12098717E+02 -.11437546E+02 0.20390202E+03 0.20458062E+03 0.00000000E+00 0.0000E+00 0.9000E+01
       -2  1    1    2    0  501 0.50908429E+00 -.50460305E+01 0.20168155E+03 0.20174531E+03 0.00000000E+00 0.0000E+00 0.9000E+01
#aMCatNLO 2  0  0  1  5 0.16778190D+02 0.00000000D+00  -5  6  0 0.00000000D+00 0.00000000D+00 0.00000000D+00 0.00000000D+00 0.00000000D+00
  <mgrwgt>
 0.1141044480D-04    1    2    0
 0.105638043121153D+03 0.000000000000000D+00 0.000000000000000D+00 0.105638043121153D+03
 0.105638043121153D+03 0.000000000000000D+00 0.000000000000000D+00 -.105638043121153D+03
 0.104892117153861D+03 0.145382064260193D+02 -.297421926956254D+01 -.910063229378612D+02
 0.163284297744956D+02 -.991315621578334D+01 0.128738139517904D+02 0.161612718459849D+01
 0.000000000000000D+00 -.000000000000000D+00 -.000000000000000D+00 0.000000000000000D+00
 0.900555393139490D+02 -.462505021023596D+01 -.989959468222788D+01 0.893901957532627D+02
 0.196548757985825D+03 0.000000000000000D+00 0.000000000000000D+00 0.196548757985825D+03
 0.106730570565605D+03 0.000000000000000D+00 0.000000000000000D+00 -.106730570565605D+03
 0.105888818494199D+03 0.205640471494507D+02 0.272232111666875D+01 -.910063229378612D+02
 0.165083049552911D+02 -.897441413860780D+01 0.137612556218118D+02 0.161612718459849D+01
 0.913482523930045D+02 -.120987173047765D+02 -.114375462133039D+02 0.898181874202196D+02
 0.895339527089359D+02 0.509084293933620D+00 -.504603052517674D+01 0.893901957532627D+02
0.453682021923D-07 0.000000000000D+00 0.000000000000D+00 0.217117270061D-05 0.591055000797D-07  6 21 22 9900012 -13 1 -2 2 0.68179341D-01 0.72824854D-02 0.21289934D+04 0.21289934D+04 0.21289934D+04 0.12858928D+01  1  2  1  3  5  1       -1 0.114104447966D-04 0.100000000000D+01
  </mgrwgt>
  </event>
  <event>
  7     66 -.11438559E-05 0.92383426E+02 0.78161638E-02 0.11278592E+00
       -1 -1    0    0    0  502 0.00000000E+00 0.00000000E+00 0.21532747E+03 0.21532747E+03 0.00000000E+00 0.0000E+00 0.9000E+01
       22 -1    0    0    0    0 0.00000000E+00 0.00000000E+00 -.12571920E+03 0.12571920E+03 0.00000000E+00 0.0000E+00 0.9000E+01
       24  2    1    2    0    0 0.10220913E+03 0.41268955E+02 -.58860755E+02 0.14829576E+03 0.79857446E+02 0.0000E+00 0.0000E+00
  9900012  1    3    3    0    0 0.70513963E+02 0.72422271E+01 -.23485356E+02 0.89867852E+02 0.50000000E+02 0.0000E+00 0.9000E+01
      -13  1    3    3    0    0 0.31695168E+02 0.34026728E+02 -.35375399E+02 0.58427911E+02 0.00000000E+00 0.0000E+00 0.9000E+01
       -2  1    1    2    0  501 -.95749933E+02 -.28003095E+02 0.14736225E+03 0.17795465E+03 0.00000000E+00 0.0000E+00 0.9000E+01
       21  1    1    2  501  502 -.64591973E+01 -.13265860E+02 0.11067723E+01 0.14796257E+02 0.00000000E+00 0.0000E+00 0.9000E+01
#aMCatNLO 2  0  0  1  5 0.23209479D+02 0.00000000D+00  -5  6  0 0.00000000D+00 0.00000000D+00 0.00000000D+00 0.00000000D+00 0.00000000D+00
  <mgrwgt>
 -.2724529550D-04    3    2    0
 0.156835191707849D+03 0.000000000000000D+00 0.000000000000000D+00 0.156835191707849D+03
 0.156835191707849D+03 0.000000000000000D+00 0.000000000000000D+00 -.156835191707849D+03
 0.983400918351864D+02 0.684730759368544D+02 0.305066579962773D+01 -.497283115747723D+02
 0.686605664704262D+02 0.302613483780016D+02 0.310819588260614D+02 -.532206352641535D+02
 0.146669725110086D+03 -.987344243148560D+02 -.341326246256891D+02 0.102948946838926D+03
 0.000000000000000D+00 -.000000000000000D+00 -.000000000000000D+00 -.000000000000000D+00
 0.163028865221574D+03 0.000000000000000D+00 0.000000000000000D+00 0.163028865221574D+03
 0.166049100826572D+03 0.000000000000000D+00 0.000000000000000D+00 -.166049100826572D+03
 0.999878681848045D+02 0.705139628659332D+02 0.724222707501039D+01 -.497283115747723D+02
 0.706741670446919D+02 0.316951675750982D+02 0.340267280520388D+02 -.532206352641535D+02
 0.143355183591512D+03 -.957499331457003D+02 -.280030946487384D+02 0.102948946838926D+03
 0.150607472271371D+02 -.645919729533104D+01 -.132658604783107D+02 -.302023560499841D+01
-.131856991449D-05 0.000000000000D+00 0.000000000000D+00 0.193571172393D-05 0.000000000000D+00  6 -1 22 9900012 -13 -2 21 2 0.35073498D-01 0.18268178D-01 0.15346517D+05 0.15346517D+05 0.15346517D+05 0.11905081D+01  1  2 13  1  6  1       -1 -.308440516666D-04 0.100000000000D+01
-.145287025971D-08 0.000000000000D+00 0.000000000000D+00 0.193571172393D-05 0.000000000000D+00  6 -1 22 9900012 -13 -2 21 2 0.31868754D-01 0.18268178D-01 0.13535951D+05 0.13535951D+05 0.13535951D+05 0.11959339D+01  1  2  8  1  6  1       -1 -.398010986601D-07 0.100000000000D+01
0.154152778610D-06 0.000000000000D+00 0.000000000000D+00 0.193571172393D-05 0.118663587557D-07  6 -1 22 9900012 -13 -2 21 2 0.33127303D-01 0.19341415D-01 0.15346517D+05 0.15346517D+05 0.15346517D+05 0.11905081D+01  1  2  1  1  6  1       -1 0.363855726495D-05 0.100000000000D+01
  </mgrwgt>
  </event>
  <event>
  7     66 -.11438559E-05 0.87664349E+01 0.78161638E-02 0.12748652E+00
       -1 -1    0    0    0  501 0.00000000E+00 0.00000000E+00 0.11015506E+04 0.11015506E+04 0.00000000E+00 0.0000E+00 0.9000E+01
       22 -1    0    0    0    0 0.00000000E+00 0.00000000E+00 -.12667268E+02 0.12667268E+02 0.00000000E+00 0.0000E+00 0.9000E+01
       24  2    1    2    0    0 -.18694495E+02 -.23478550E+02 0.14017774E+03 0.16444871E+03 0.80578235E+02 0.0000E+00 0.0000E+00
  9900012  1    3    3    0    0 0.38804264E+01 -.29509226E+02 0.73186568E+02 0.93499336E+02 0.50000000E+02 0.0000E+00 0.9000E+01
      -13  1    3    3    0    0 -.22574921E+02 0.60306756E+01 0.66991172E+02 0.70949371E+02 0.00000000E+00 0.0000E+00 0.9000E+01
       -2  1    1    2    0  502 0.86570071E+01 0.11212744E+02 0.81563843E+03 0.81576143E+03 0.00000000E+00 0.0000E+00 0.9000E+01
       21  1    1    2  502  501 0.10037488E+02 0.12265806E+02 0.13306713E+03 0.13400770E+03 0.00000000E+00 0.0000E+00 0.9000E+01
#aMCatNLO 2  0  0  5  1 0.12713665D+02 0.00000000D+00  -5  6  0 0.00000000D+00 0.00000000D+00 0.00000000D+00 0.00000000D+00 0.00000000D+00
  <mgrwgt>
 -.8787688742D-04    2    2    0
 0.118125511250800D+03 0.000000000000000D+00 0.000000000000000D+00 0.118125511250800D+03
 0.118125511250800D+03 -.000000000000000D+00 -.000000000000000D+00 -.118125511250800D+03
 0.105701679197920D+03 0.343631944748474D+01 -.300669826695859D+02 -.880739078675499D+02
 0.261652583181123D+02 -.226852682037491D+02 0.589209026070991D+01 -.116311057830787D+02
 0.104384084985567D+03 0.192489487562643D+02 0.241748924088760D+02 0.997050136506286D+02
 0.000000000000000D+00 0.000000000000000D+00 0.000000000000000D+00 0.000000000000000D+00
 0.118125511250800D+03 0.000000000000000D+00 0.000000000000000D+00 0.118125511250800D+03
 0.118125511250800D+03 -.000000000000000D+00 -.000000000000000D+00 -.118125511250800D+03
 0.103648212944196D+03 0.388042638302830D+01 -.295092255930439D+02 -.857735387081017D+02
 0.258516818075334D+02 -.225749214362433D+02 0.603067555520553D+01 -.110595355586590D+02
 0.880456507826549D+02 0.865700714705351D+01 0.112127444546241D+02 0.868986030428129D+02
 0.187054769672146D+02 0.100374879061615D+02 0.122658055832143D+02 0.993447122394779D+01
-.447817874226D-05 0.000000000000D+00 0.000000000000D+00 0.376983352106D-05 0.000000000000D+00  6 -1 22 9900012 -13 -2 21 2 0.16946932D+00 0.19488105D-02 0.31119520D+04 0.31119520D+04 0.31119520D+04 0.12657183D+01  1  2 13  2  6  5       -2 -.932931073394D-04 0.100000000000D+01
0.259984918406D-06 0.000000000000D+00 0.000000000000D+00 0.376983352106D-05 0.109048741797D-07  6 -1 22 9900012 -13 -2 21 2 0.16946932D+00 0.19488105D-02 0.31119520D+04 0.31119520D+04 0.31119520D+04 0.12657183D+01  1  2  1  2  6  5       -2 0.541621991784D-05 0.100000000000D+01
  </mgrwgt>
  </event>
  <event>
  6     66 0.11438559E-05 0.42356291E+02 0.78161638E-02 0.12009497E+00
       -1 -1    0    0    0  501 0.00000000E+00 0.00000000E+00 0.60545523E+03 0.60545523E+03 0.00000000E+00 0.0000E+00 0.9000E+01
       22 -1    0    0    0    0 -.00000000E+00 -.00000000E+00 -.10802807E+04 0.10802807E+04 0.00000000E+00 0.0000E+00 0.9000E+01
       24  2    1    2    0    0 -.35675876E+01 -.42205778E+02 -.10775985E+04 0.10814765E+04 0.81109984E+02 0.0000E+00 0.0000E+00
  9900012  1    3    3    0    0 -.16841717E+02 -.62697871E+01 -.60625871E+03 0.60858243E+03 0.50000000E+02 0.0000E+00 0.9000E+01
      -13  1    3    3    0    0 0.13274130E+02 -.35935991E+02 -.47133981E+03 0.47289409E+03 0.00000000E+00 0.0000E+00 0.9000E+01
       -2  1    1    2    0  501 0.35675876E+01 0.42205778E+02 0.60277307E+03 0.60425940E+03 0.00000000E+00 0.0000E+00 0.9000E+01
#aMCatNLO 1  0  0  5  5 0.36433815D+02 0.00000000D+00  -5  6  0 0.00000000D+00 0.00000000D+00 0.00000000D+00 0.00000000D+00 0.00000000D+00
  <mgrwgt>
 0.2986790492D-02    6    2    0
 0.808740745661985D+03 0.000000000000000D+00 0.000000000000000D+00 0.808740745661985D+03
 0.808740745661985D+03 -.000000000000000D+00 -.000000000000000D+00 -.808740745661985D+03
 0.456290968790844D+03 -.168417173461860D+02 -.626978707050689D+01 -.453187041437649D+03
 0.354483441411698D+03 0.132741297792326D+02 -.359359910221868D+02 -.352407310172388D+03
 0.806707081121428D+03 0.356758756695318D+01 0.422057780926920D+02 0.805594351610037D+03
 0.000000000000000D+00 0.000000000000000D+00 0.000000000000000D+00 0.000000000000000D+00
 0.808740745661985D+03 0.000000000000000D+00 0.000000000000000D+00 0.808740745661985D+03
 0.808740745661985D+03 -.000000000000000D+00 -.000000000000000D+00 -.808740745661985D+03
 0.455333822549834D+03 -.168374533033610D+02 -.621934198909793D+01 -.452224181031182D+03
 0.353735953793452D+03 0.132774424116438D+02 -.358968014505715D+02 -.351659287058919D+03
 0.482090076372016D+03 -.187216628284923D+02 -.467645644267613D+01 0.481703717893532D+03
 0.326321638608668D+03 0.222816737202094D+02 0.467925998823438D+02 0.322179750196569D+03
0.493291450477D-02 0.000000000000D+00 0.000000000000D+00 0.420145473872D-02 0.000000000000D+00  6 -1 22 9900012 -13 -2 21 0 0.93146959D-01 0.16619703D+00 0.44754098D+04 0.44754098D+04 0.44754098D+04 0.12473037D+01  1  2  2  2  6  5       -2 0.276824651386D-03 0.100000000000D+01
0.295462853171D-03 0.000000000000D+00 -.947184528227D-05 0.420145473872D-02 0.000000000000D+00  6 -1 22 9900012 -13 -2 21 2 0.93146959D-01 0.16619703D+00 0.44754098D+04 0.44754098D+04 0.44754098D+04 0.12473037D+01  1  2  3  2  6  5       -2 0.257957708367D-04 0.100000000000D+01
-.707158144137D-03 0.000000000000D+00 0.000000000000D+00 0.420145473872D-02 0.000000000000D+00  6 -1 22 9900012 -13 -2 21 2 0.93146959D-01 0.16619703D+00 0.44754098D+04 0.44754098D+04 0.44754098D+04 0.12473037D+01  1  2 15  2  6  5       -2 -.617393666772D-04 0.100000000000D+01
-.362823777264D-02 0.000000000000D+00 0.000000000000D+00 0.420145473872D-02 0.000000000000D+00  6 -1 22 9900012 -13 -2 21 2 0.93146959D-01 0.16619703D+00 0.44754098D+04 0.44754098D+04 0.44754098D+04 0.12473037D+01  1  2  4  2  6  5       -2 -.316768044170D-03 0.100000000000D+01
-.736283759850D-01 0.000000000000D+00 0.000000000000D+00 0.420145473872D-02 0.000000000000D+00  6 -1 22 9900012 -13 -2 21 2 0.93146959D-01 0.16619703D+00 0.44754098D+04 0.44754098D+04 0.44754098D+04 0.12473037D+01  1  2  5  2  6  5       -2 -.642822166509D-02 0.100000000000D+01
0.108708057554D+00 0.000000000000D+00 -.000000000000D+00 0.420145473872D-02 0.000000000000D+00  6 -1 22 9900012 -13 -2 21 2 0.93146959D-01 0.16619703D+00 0.44754098D+04 0.44754098D+04 0.44754098D+04 0.12473037D+01  1  2  6  2  6  5       -2 0.949089914578D-02 0.100000000000D+01
  </mgrwgt>
  </event>
  <event>
  7     66 -.11438559E-05 0.97391823E+02 0.78161638E-02 0.11347117E+00
       -1 -1    0    0    0  501 0.00000000E+00 0.00000000E+00 0.18262525E+03 0.18262525E+03 0.00000000E+00 0.0000E+00 0.9000E+01
       22 -1    0    0    0    0 0.00000000E+00 0.00000000E+00 -.89025272E+02 0.89025272E+02 0.00000000E+00 0.0000E+00 0.9000E+01
       24  2    1    2    0    0 0.34899250E+02 -.98324754E+02 0.12456817E+02 0.13169999E+03 0.79397735E+02 0.0000E+00 0.0000E+00
  9900012  1    3    3    0    0 0.16420990E+02 -.36436302E+02 -.66259120E+01 0.64351812E+02 0.50000000E+02 0.0000E+00 0.9000E+01
      -13  1    3    3    0    0 0.18478260E+02 -.61888452E+02 0.19082729E+02 0.67348178E+02 0.00000000E+00 0.0000E+00 0.9000E+01
       -2  1    1    2    0  502 -.27197700E+02 0.97541631E+02 0.84132214E+02 0.13165225E+03 0.00000000E+00 0.0000E+00 0.9000E+01
       21  1    1    2  502  501 -.77015501E+01 0.78312308E+00 -.29890493E+01 0.82982873E+01 0.00000000E+00 0.0000E+00 0.9000E+01
#aMCatNLO 2  0  0  5  1 0.12711641D+02 0.00000000D+00  -5  6  0 0.00000000D+00 0.00000000D+00 0.00000000D+00 0.00000000D+00 0.00000000D+00
  <mgrwgt>
 -.4224172955D-04    3    2    0
 0.127507892865916D+03 0.000000000000000D+00 0.000000000000000D+00 0.127507892865916D+03
 0.127507892865916D+03 -.000000000000000D+00 -.000000000000000D+00 -.127507892865916D+03
 0.727814776412681D+02 0.172607429802577D+02 -.388022118909550D+02 -.315213989503213D+02
 0.670864349120018D+02 0.192482725444397D+02 -.640578773326745D+02 -.516547237813220D+01
 0.115147873178562D+03 -.365090155246975D+02 0.102860089223630D+03 0.366868713284536D+02
 0.000000000000000D+00 -.000000000000000D+00 0.000000000000000D+00 0.000000000000000D+00
 0.127507892865916D+03 0.000000000000000D+00 0.000000000000000D+00 0.127507892865916D+03
 0.127507892865916D+03 -.000000000000000D+00 -.000000000000000D+00 -.127507892865916D+03
 0.709814444761856D+02 0.164209903674263D+02 -.364363023357332D+02 -.306775554335374D+02
 0.647372663114557D+02 0.184782596933857D+02 -.618884517969687D+02 -.439170836445278D+01
 0.109360399679027D+03 -.271976999433611D+02 0.975416310501709D+02 0.412990598902646D+02
 0.993667526516381D+01 -.770155011745090D+01 0.783123082531020D+00 -.622979609227441D+01
-.118943448353D-05 0.000000000000D+00 0.000000000000D+00 0.531528795914D-06 0.000000000000D+00  6 -1 22 9900012 -13 -2 21 2 0.28096193D-01 0.13696196D-01 0.14113634D+05 0.14113634D+05 0.14113634D+05 0.11941192D+01  1  2 13  2  6  5       -2 -.609140427923D-04 0.100000000000D+01
-.295505123207D-07 0.000000000000D+00 0.000000000000D+00 0.531528795914D-06 0.000000000000D+00  6 -1 22 9900012 -13 -2 21 2 0.28096193D-01 0.13696196D-01 0.14596972D+05 0.14596972D+05 0.14596972D+05 0.11926630D+01  1  2  8  2  6  5       -2 -.151337597736D-05 0.100000000000D+01
0.394154676576D-06 0.000000000000D+00 0.000000000000D+00 0.531528795914D-06 0.854596427799D-08  6 -1 22 9900012 -13 -2 21 2 0.28096193D-01 0.13696196D-01 0.14113634D+05 0.14113634D+05 0.14113634D+05 0.11941192D+01  1  2  1  2  6  5       -2 0.201856892230D-04 0.100000000000D+01
  </mgrwgt>
  </event>
  <event>
  7     66 -.11438559E-05 0.16204151E+02 0.78161638E-02 0.12413827E+00
       -1 -1    0    0    0  501 0.00000000E+00 0.00000000E+00 0.46299141E+03 0.46299141E+03 0.00000000E+00 0.0000E+00 0.9000E+01
       22 -1    0    0    0    0 0.00000000E+00 0.00000000E+00 -.14570225E+02 0.14570225E+02 0.00000000E+00 0.0000E+00 0.9000E+01
       24  2    1    2    0    0 0.33757144E+02 -.23316636E+02 0.13672362E+03 0.16228331E+03 0.77196594E+02 0.0000E+00 0.0000E+00
  9900012  1    3    3    0    0 0.14748725E+01 -.18958185E+02 0.98271720E+02 0.11188798E+03 0.50000000E+02 0.0000E+00 0.9000E+01
      -13  1    3    3    0    0 0.32282271E+02 -.43584505E+01 0.38451898E+02 0.50395333E+02 0.00000000E+00 0.0000E+00 0.9000E+01
       -2  1    1    2    0  502 -.25326154E+02 0.57142705E+01 0.22000144E+03 0.22152810E+03 0.00000000E+00 0.0000E+00 0.9000E+01
       21  1    1    2  502  501 -.84309900E+01 0.17602365E+02 0.91696127E+02 0.93750224E+02 0.00000000E+00 0.0000E+00 0.9000E+01
#aMCatNLO 2  0  0  5  1 0.11216014D+02 0.00000000D+00  -5  6  0 0.00000000D+00 0.00000000D+00 0.00000000D+00 0.00000000D+00 0.00000000D+00
  <mgrwgt>
 -.4311699458D-04    2    2    0
 0.821333621675974D+02 0.000000000000000D+00 0.000000000000000D+00 0.821333621675974D+02
 0.821333621675974D+02 -.000000000000000D+00 -.000000000000000D+00 -.821333621675974D+02
 0.576595272933709D+02 0.233725708822391D+01 -.195538489813473D+02 -.208998877272869D+02
 0.426129745521465D+02 0.329151315473844D+02 -.479557797124238D+01 -.266357306511761D+02
 0.639942224896774D+02 -.352523886356083D+02 0.243494269525897D+02 0.475356183784629D+02
 0.000000000000000D+00 0.000000000000000D+00 0.000000000000000D+00 0.000000000000000D+00
 0.821333621675974D+02 0.000000000000000D+00 0.000000000000000D+00 0.821333621675974D+02
 0.821333621675974D+02 -.000000000000000D+00 -.000000000000000D+00 -.821333621675974D+02
 0.570187500958166D+02 0.147487252876222D+01 -.189581852363254D+02 -.197370166453358D+02
 0.415436051901047D+02 0.322822711958069D+02 -.435845051695233D+01 -.257823584592826D+02
 0.434659968742431D+02 -.253261536978866D+02 0.571427045704383D+01 0.348600908817876D+02
 0.222383721750305D+02 -.843099002668250D+01 0.176023652962339D+02 0.106592842228308D+02
-.563098383981D-06 0.000000000000D+00 0.000000000000D+00 0.892648768218D-07 0.000000000000D+00  6 -1 22 9900012 -13 -2 21 2 0.71229448D-01 0.22415731D-02 0.43262894D+04 0.43262894D+04 0.43262894D+04 0.12489866D+01  1  2 13  2  6  5       -2 -.717721239211D-04 0.100000000000D+01
0.224817883903D-06 0.000000000000D+00 0.000000000000D+00 0.892648768218D-07 0.126625783233D-08  6 -1 22 9900012 -13 -2 21 2 0.71229448D-01 0.22415731D-02 0.43262894D+04 0.43262894D+04 0.43262894D+04 0.12489866D+01  1  2  1  2  6  5       -2 0.286551293383D-04 0.100000000000D+01
  </mgrwgt>
  </event>
  <event>
  7     66 -.11438559E-05 0.34079146E+02 0.78161638E-02 0.12714625E+00
       -1 -1    0    0    0  501 0.00000000E+00 0.00000000E+00 0.69056977E+02 0.69056977E+02 0.00000000E+00 0.0000E+00 0.9000E+01
       22 -1    0    0    0    0 -.00000000E+00 -.00000000E+00 -.36431073E+03 0.36431073E+03 0.00000000E+00 0.0000E+00 0.9000E+01
       24  2    1    2    0    0 0.32513882E+02 -.12639927E+02 -.35106292E+03 0.36307814E+03 0.85811647E+02 0.0000E+00 0.0000E+00
  9900012  1    3    3    0    0 0.14402756E+02 -.11515022E+02 -.11997028E+03 0.13127415E+03 0.50000000E+02 0.0000E+00 0.9000E+01
      -13  1    3    3    0    0 0.18111126E+02 -.11249053E+01 -.23109264E+03 0.23180398E+03 0.00000000E+00 0.0000E+00 0.9000E+01
       -2  1    1    2    0  502 -.32060178E+02 0.17879866E+02 0.43599565E+02 0.56995322E+02 0.00000000E+00 0.0000E+00 0.9000E+01
       21  1    1    2  502  501 -.45370371E+00 -.52399388E+01 0.12209600E+02 0.13294252E+02 0.00000000E+00 0.0000E+00 0.9000E+01
#aMCatNLO 2  0  0  5  1 0.98629791D+01 0.00000000D+00  -5  6  0 0.00000000D+00 0.00000000D+00 0.00000000D+00 0.00000000D+00 0.00000000D+00
  <mgrwgt>
 -.2147356132D-03    2    2    0
 0.158613360293027D+03 0.000000000000000D+00 0.000000000000000D+00 0.158613360293027D+03
 0.158613360293027D+03 -.000000000000000D+00 -.000000000000000D+00 -.158613360293027D+03
 0.679694660719211D+02 0.145018295053720D+02 -.115535372985716D+02 -.421433391532953D+02
 0.102250165486198D+03 0.182600048021847D+02 -.118278269106897D+01 -.100599550653493D+03
 0.147007089027935D+03 -.327618343075567D+02 0.127363199896406D+02 0.142742889806788D+03
 0.000000000000000D+00 0.000000000000000D+00 0.000000000000000D+00 0.000000000000000D+00
 0.158613360293027D+03 0.000000000000000D+00 0.000000000000000D+00 0.158613360293027D+03
 0.158613360293027D+03 -.000000000000000D+00 -.000000000000000D+00 -.158613360293027D+03
 0.676749523760458D+02 0.144027561369675D+02 -.115150220521234D+02 -.417116777641253D+02
 0.101584733226078D+03 0.181111257679797D+02 -.112490525351213D+01 -.999508866203819D+02
 0.118441685463495D+03 -.320601781975331D+02 0.178798661115825D+02 0.112609449946298D+03
 0.295253495204354D+02 -.453703707414053D+00 -.523993880594701D+01 0.290531144382093D+02
-.104571428067D-04 0.000000000000D+00 0.000000000000D+00 0.721208196865D-06 0.000000000000D+00  6 -1 22 9900012 -13 -2 21 2 0.10624150D-01 0.56047805D-01 0.32152568D+04 0.32152568D+04 0.32152568D+04 0.12640281D+01  1  2 13  2  6  5       -2 -.266384423049D-03 0.100000000000D+01
0.202751712984D-05 0.000000000000D+00 0.000000000000D+00 0.721208196865D-06 0.735015173290D-07  6 -1 22 9900012 -13 -2 21 2 0.10624150D-01 0.56047805D-01 0.32152568D+04 0.32152568D+04 0.32152568D+04 0.12640281D+01  1  2  1  2  6  5       -2 0.516488098935D-04 0.100000000000D+01
  </mgrwgt>
  </event>
  <event>
  6     66 0.11438559E-05 0.32009587E+02 0.78161638E-02 0.11609025E+00
       -1 -1    0    0    0  501 0.00000000E+00 0.00000000E+00 0.89227123E+02 0.89227123E+02 0.00000000E+00 0.0000E+00 0.9000E+01
       22 -1    0    0    0    0 0.00000000E+00 0.00000000E+00 -.46793903E+02 0.46793903E+02 0.00000000E+00 0.0000E+00 0.9000E+01
       24  2    1    2    0    0 0.22960626E+02 -.22302989E+02 0.57329962E+01 0.87322771E+02 0.81041875E+02 0.0000E+00 0.0000E+00
  9900012  1    3    3    0    0 -.23813006E+01 -.23267283E+02 0.19405534E+02 0.58511638E+02 0.50000000E+02 0.0000E+00 0.9000E+01
      -13  1    3    3    0    0 0.25341926E+02 0.96429374E+00 -.13672538E+02 0.28811133E+02 0.00000000E+00 0.0000E+00 0.9000E+01
       -2  1    1    2    0  501 -.22960626E+02 0.22302989E+02 0.36700223E+02 0.48698255E+02 0.00000000E+00 0.0000E+00 0.9000E+01
#aMCatNLO 1  0  0  1  5 0.99114922D+02 0.00000000D+00  -5  6  0 0.00000000D+00 0.00000000D+00 0.00000000D+00 0.00000000D+00 0.00000000D+00
  <mgrwgt>
 0.6405173504D-04    5    4    0
 0.646164481173954D+02 0.000000000000000D+00 0.000000000000000D+00 0.646164481173954D+02
 0.646164481173954D+02 0.000000000000000D+00 0.000000000000000D+00 -.646164481173954D+02
 0.552132931719730D+02 -.238130060692205D+01 -.232672829627840D+02 0.121272166775876D+01
 0.348138115379427D+02 0.253419262149361D+02 0.964293742752226D+00 -.238507523381091D+02
 0.392057915248751D+02 -.229606256080140D+02 0.223029892200318D+02 0.226380306703503D+02
 0.000000000000000D+00 0.000000000000000D+00 0.000000000000000D+00 0.000000000000000D+00
 0.114182386157684D+03 0.000000000000000D+00 0.000000000000000D+00 0.114182386157684D+03
 0.106785353745425D+03 0.000000000000000D+00 0.000000000000000D+00 -.106785353745425D+03
 0.763819348328993D+02 -.379587301762865D+01 -.576048663136011D+02 0.121272166775876D+01
 0.387853491481013D+02 0.245507779055629D+02 -.182401816240418D+02 -.238507523381091D+02
 0.329836802441871D+02 -.237366205787756D+02 0.346634870119890D+01 0.226380306703503D+02
 0.728167756779209D+02 0.298171569084137D+01 0.723786992364441D+02 0.739703241225934D+01
 0.646164481173954D+02 0.000000000000000D+00 0.000000000000000D+00 0.646164481173954D+02
 0.646164481173954D+02 0.000000000000000D+00 0.000000000000000D+00 -.646164481173954D+02
 0.552132931719730D+02 -.238130060692205D+01 -.232672829627840D+02 0.121272166775876D+01
 0.348138115379427D+02 0.253419262149361D+02 0.964293742752226D+00 -.238507523381091D+02
 0.000000000000000D+00 0.000000000000000D+00 0.000000000000000D+00 0.000000000000000D+00
 0.392057915248751D+02 -.229606256080140D+02 0.223029892200318D+02 0.226380306703503D+02
 0.114182386157684D+03 0.000000000000000D+00 0.000000000000000D+00 0.114182386157684D+03
 0.106785353745425D+03 0.000000000000000D+00 0.000000000000000D+00 -.106785353745425D+03
 0.763819348328993D+02 -.379587301762865D+01 -.576048663136011D+02 0.121272166775876D+01
 0.387853491481013D+02 0.245507779055629D+02 -.182401816240418D+02 -.238507523381091D+02
 0.728167756779209D+02 0.298171569084137D+01 0.723786992364441D+02 0.739703241225934D+01
 0.329836802441871D+02 -.237366205787756D+02 0.346634870119890D+01 0.226380306703503D+02
0.287395962298D-06 0.000000000000D+00 0.000000000000D+00 0.999110332602D-07 0.000000000000D+00  6 -1 22 9900012 -13 -2 21 0 0.13727250D-01 0.71990621D-02 0.31679914D+04 0.31679914D+04 0.31679914D+04 0.12647937D+01  1  2  2  1  6  1       -1 0.671765449099D-04 0.100000000000D+01
0.159166209720D-08 0.000000000000D+00 -.551838084159D-09 0.999110332602D-07 0.000000000000D+00  6 -1 22 9900012 -13 -2 21 2 0.13727250D-01 0.71990621D-02 0.31679914D+04 0.31679914D+04 0.31679914D+04 0.12647937D+01  1  2  3  1  6  1       -1 0.595151092987D-06 0.100000000000D+01
-.361916988966D-07 0.000000000000D+00 0.000000000000D+00 0.999110332602D-07 0.000000000000D+00  6 -1 22 9900012 -13 -2 21 2 0.13727250D-01 0.71990621D-02 0.31679914D+04 0.31679914D+04 0.31679914D+04 0.12647937D+01  1  2 15  1  6  1       -1 -.135327273253D-04 0.100000000000D+01
0.374823055476D-07 0.000000000000D+00 -.831340435264D-07 0.999110332602D-07 0.000000000000D+00  6 -1 22 9900012 -13 -2 21 2 0.39073437D-01 0.71990621D-02 0.31679914D+04 0.31679914D+04 0.31679914D+04 0.12647937D+01  1  2  5  1  6  1       -1 0.278827825578D-05 0.100000000000D+01
0.895219879453D-08 0.000000000000D+00 -.979636825502D-08 0.999110332602D-07 0.000000000000D+00  6 21 22 9900012 -13 1 -2 2 0.39073437D-01 0.71990621D-02 0.31679914D+04 0.31679914D+04 0.31679914D+04 0.12647937D+01  3  4  5  3  5  1       -1 0.702448810172D-05 0.100000000000D+01
  </mgrwgt>
  </event>
  <event>
  7     66 -.11438559E-05 0.15917430E+02 0.78161638E-02 0.12668980E+00
       -1 -1    0    0    0  502 0.00000000E+00 0.00000000E+00 0.35593080E+01 0.35593080E+01 0.00000000E+00 0.0000E+00 0.9000E+01
       22 -1    0    0    0    0 0.00000000E+00 0.00000000E+00 -.17552263E+04 0.17552263E+04 0.00000000E+00 0.0000E+00 0.9000E+01
       24  2    1    2    0    0 -.15822967E+01 0.24068134E+02 -.15683321E+04 0.15705155E+04 0.79193715E+02 0.0000E+00 0.0000E+00
  9900012  1    3    3    0    0 0.14968443E+02 0.75713230E+01 -.75103680E+03 0.75288621E+03 0.50000000E+02 0.0000E+00 0.9000E+01
      -13  1    3    3    0    0 -.16550739E+02 0.16496811E+02 -.81729529E+03 0.81762930E+03 0.00000000E+00 0.0000E+00 0.9000E+01
       -2  1    1    2    0  501 -.13708065E+02 -.19562851E+02 -.73494831E+02 0.77279404E+02 0.00000000E+00 0.0000E+00 0.9000E+01
       21  1    1    2  501  502 0.15290361E+02 -.45052837E+01 -.10984003E+03 0.11099065E+03 0.00000000E+00 0.0000E+00 0.9000E+01
#aMCatNLO 2  0  0  1  5 0.18787828D+02 0.00000000D+00  -5  6  0 0.00000000D+00 0.00000000D+00 0.00000000D+00 0.00000000D+00 0.00000000D+00
  <mgrwgt>
 -.1559191740D-04    2    2    0
 0.696030697200564D+02 0.000000000000000D+00 0.000000000000000D+00 0.696030697200564D+02
 0.696030697200564D+02 0.000000000000000D+00 0.000000000000000D+00 -.696030697200564D+02
 0.554889529404856D+02 0.209476725534662D+02 0.580955120504835D+01 -.103183345468204D+02
 0.366405819851477D+02 -.124243717294611D+02 0.152809827660674D+02 -.308975533180485D+02
 0.470766045144795D+02 -.852330082400506D+01 -.210905339711157D+02 0.412158878648688D+02
 0.000000000000000D+00 0.000000000000000D+00 -.000000000000000D+00 0.000000000000000D+00
 0.835649934274231D+02 0.000000000000000D+00 0.000000000000000D+00 0.835649934274231D+02
 0.747608608002259D+02 0.000000000000000D+00 0.000000000000000D+00 -.747608608002259D+02
 0.537386940281491D+02 0.149684426815926D+02 0.757132298338943D+01 -.103183345468204D+02
 0.387392637450337D+02 -.165507393464121D+02 0.164968112540808D+02 -.308975533180485D+02
 0.476378585597047D+02 -.137080645960769D+02 -.195628505257995D+02 0.412158878648688D+02
 0.182100378947614D+02 0.152903612608964D+02 -.450528371167071D+01 0.880413262719716D+01
-.268366678008D-06 0.000000000000D+00 0.000000000000D+00 0.286575160718D-06 0.000000000000D+00  6 -1 22 9900012 -13 -2 21 2 0.58816356D-03 0.25140497D+00 0.33602207D+04 0.33602207D+04 0.33602207D+04 0.12617571D+01  1  2 13  1  6  1       -1 -.171866398021D-04 0.100000000000D+01
0.277715706893D-07 0.000000000000D+00 0.000000000000D+00 0.286575160718D-06 0.162987303535D-08  6 -1 22 9900012 -13 -2 21 2 0.54758584D-03 0.27003481D+00 0.33602207D+04 0.33602207D+04 0.33602207D+04 0.12617571D+01  1  2  1  1  6  1       -1 0.159472240570D-05 0.100000000000D+01
  </mgrwgt>
  </event>
  <event>
  7     66 -.11438559E-05 0.53972278E+02 0.78161638E-02 0.11998773E+00
       -1 -1    0    0    0  501 0.00000000E+00 0.00000000E+00 0.26691223E+03 0.26691223E+03 0.00000000E+00 0.0000E+00 0.9000E+01
       22 -1    0    0    0    0 -.00000000E+00 -.00000000E+00 -.54331054E+03 0.54331054E+03 0.00000000E+00 0.0000E+00 0.9000E+01
       24  2    1    2    0    0 0.55660777E+02 -.75467721E+01 -.52975175E+03 0.53877724E+03 0.80553884E+02 0.0000E+00 0.0000E+00
  9900012  1    3    3    0    0 0.21629902E+02 0.14613084E+02 -.26568993E+03 0.27161100E+03 0.50000000E+02 0.0000E+00 0.9000E+01
      -13  1    3    3    0    0 0.34030875E+02 -.22159856E+02 -.26406182E+03 0.26716625E+03 0.00000000E+00 0.0000E+00 0.9000E+01
       -2  1    1    2    0  502 -.58131704E+02 -.39951683E+00 0.25615215E+03 0.26266591E+03 0.00000000E+00 0.0000E+00 0.9000E+01
       21  1    1    2  502  501 0.24709270E+01 0.79462889E+01 -.27987101E+01 0.87796222E+01 0.00000000E+00 0.0000E+00 0.9000E+01
#aMCatNLO 2  0  0  5  1 0.11644075D+02 0.00000000D+00  -5  6  0 0.00000000D+00 0.00000000D+00 0.00000000D+00 0.00000000D+00 0.00000000D+00
  <mgrwgt>
 -.2392078564D-03    3    2    0
 0.380809964189728D+03 0.000000000000000D+00 0.000000000000000D+00 0.380809964189728D+03
 0.380809964189728D+03 -.000000000000000D+00 -.000000000000000D+00 -.380809964189728D+03
 0.194590059800006D+03 0.219515695278063D+02 0.145694709881634D+02 -.186201907840282D+03
 0.190479856104940D+03 0.343456889244394D+02 -.222025405032233D+02 -.186037621005180D+03
 0.376550012474509D+03 -.562972584522459D+02 0.763306951505997D+01 0.372239528845462D+03
 0.000000000000000D+00 0.000000000000000D+00 0.000000000000000D+00 0.000000000000000D+00
 0.380809964189728D+03 0.000000000000000D+00 0.000000000000000D+00 0.380809964189728D+03
 0.380809964189728D+03 -.000000000000000D+00 -.000000000000000D+00 -.380809964189728D+03
 0.192522755889962D+03 0.216299019293850D+02 0.146130843222225D+02 -.184075029932315D+03
 0.188385219435972D+03 0.340308747048230D+02 -.221598563852267D+02 -.183956057888155D+03
 0.372387734038717D+03 -.581317036495513D+02 -.399516834319601D+00 0.367822198731384D+03
 0.832421901480391D+01 0.247092701534303D+01 0.794628889732382D+01 0.208889089086076D+00
-.154866343004D-03 0.000000000000D+00 0.000000000000D+00 0.271128862010D-03 0.000000000000D+00  6 -1 22 9900012 -13 -2 21 2 0.41063420D-01 0.83586237D-01 0.66804775D+04 0.66804775D+04 0.66804775D+04 0.12279293D+01  1  2 13  2  6  5       -2 -.240288117417D-03 0.100000000000D+01
-.113683260876D-04 0.000000000000D+00 0.000000000000D+00 0.271128862010D-03 0.000000000000D+00  6 -1 22 9900012 -13 -2 21 2 0.41063420D-01 0.83586237D-01 0.59464361D+04 0.59464361D+04 0.59464361D+04 0.12334600D+01  1  2  8  2  6  5       -2 -.177022160862D-04 0.100000000000D+01
0.121053573878D-04 0.000000000000D+00 0.000000000000D+00 0.271128862010D-03 0.175936050650D-06  6 -1 22 9900012 -13 -2 21 2 0.41063420D-01 0.83586237D-01 0.66804775D+04 0.66804775D+04 0.66804775D+04 0.12279293D+01  1  2  1  2  6  5       -2 0.187824770764D-04 0.100000000000D+01
  </mgrwgt>
  </event>
  <event>
  6     66 0.11438559E-05 0.24947890E+02 0.78161638E-02 0.12315006E+00
       -1 -1    0    0    0  501 0.00000000E+00 0.00000000E+00 0.93776832E+01 0.93776832E+01 0.00000000E+00 0.0000E+00 0.9000E+01
       22 -1    0    0    0    0 -.00000000E+00 -.00000000E+00 -.20038966E+04 0.20038966E+04 0.00000000E+00 0.0000E+00 0.9000E+01
       24  2    1    2    0    0 -.37885736E+02 -.17857600E+02 -.19503298E+04 0.19523899E+04 0.79284613E+02 0.0000E+00 0.0000E+00
  9900012  1    3    3    0    0 -.28220341E+01 -.19893794E+02 -.10622450E+04 0.10636109E+04 0.50000000E+02 0.0000E+00 0.9000E+01
      -13  1    3    3    0    0 -.35063702E+02 0.20361944E+01 -.88808480E+03 0.88877906E+03 0.00000000E+00 0.0000E+00 0.9000E+01
       -2  1    1    2    0  501 0.37885736E+02 0.17857600E+02 -.44189162E+02 0.60884356E+02 0.00000000E+00 0.0000E+00 0.9000E+01
#aMCatNLO 1  0  0  5  1 0.80909267D+01 0.00000000D+00  -5  6  0 0.00000000D+00 0.00000000D+00 0.00000000D+00 0.00000000D+00 0.00000000D+00
  <mgrwgt>
 0.1405450788D-03    8    2    0
 0.137083578514522D+03 0.000000000000000D+00 0.000000000000000D+00 0.137083578514522D+03
 0.137083578514522D+03 -.000000000000000D+00 -.000000000000000D+00 -.137083578514522D+03
 0.826967908662736D+02 -.282203410249155D+01 -.198937940915593D+02 -.627298358020105D+02
 0.658506880035138D+02 -.350637015700090D+02 0.203619435350462D+01 -.557019196733848D+02
 0.125619678159256D+03 0.378857356725006D+02 0.178575997380547D+02 0.118431755475395D+03
 0.000000000000000D+00 0.000000000000000D+00 0.000000000000000D+00 0.000000000000000D+00
 0.137083578514522D+03 0.000000000000000D+00 0.000000000000000D+00 0.137083578514522D+03
 0.137083578514522D+03 -.000000000000000D+00 -.000000000000000D+00 -.137083578514522D+03
 0.819948981684263D+02 -.254248935080748D+01 -.197620295053414D+02 -.618559719298116D+02
 0.651479472464249D+02 -.348413468101755D+02 0.214100219821124D+01 -.550068331433768D+02
 0.115110618336855D+03 0.371409116669159D+02 0.233537099902760D+02 0.106421855669470D+03
 0.119136932773366D+02 0.242924494067058D+00 -.573268268314577D+01 0.104409494037179D+02
0.242904361327D-05 0.000000000000D+00 0.000000000000D+00 0.512787660974D-05 0.000000000000D+00  6 -1 22 9900012 -13 -2 21 0 0.14427205D-02 0.30829178D+00 0.42832089D+04 0.42832089D+04 0.42832089D+04 0.12494849D+01  1  2  2  2  6  5       -2 0.158609449471D-04 0.100000000000D+01
0.108828714629D-06 0.000000000000D+00 -.466408352842D-08 0.512787660974D-05 0.000000000000D+00  6 -1 22 9900012 -13 -2 21 2 0.14427205D-02 0.30829178D+00 0.42832089D+04 0.42832089D+04 0.42832089D+04 0.12494849D+01  1  2  3  2  6  5       -2 0.110942834248D-05 0.100000000000D+01
-.364815326111D-06 0.000000000000D+00 0.000000000000D+00 0.512787660974D-05 0.000000000000D+00  6 -1 22 9900012 -13 -2 21 2 0.14427205D-02 0.30829178D+00 0.42832089D+04 0.42832089D+04 0.42832089D+04 0.12494849D+01  1  2 15  2  6  5       -2 -.371902272240D-05 0.100000000000D+01
0.127937845912D-04 0.000000000000D+00 0.000000000000D+00 0.512787660974D-05 0.000000000000D+00  6 -1 22 9900012 -13 -2 21 2 0.14427205D-02 0.30829178D+00 0.47846088D+04 0.47846088D+04 0.47846088D+04 0.12440053D+01  1  2 12  2  6  5       -2 0.130805305378D-03 0.100000000000D+01
-.163846533667D-05 0.000000000000D+00 0.000000000000D+00 0.512787660974D-05 0.000000000000D+00  6 -1 22 9900012 -13 -2 21 2 0.14427205D-02 0.30829178D+00 0.42832089D+04 0.42832089D+04 0.42832089D+04 0.12494849D+01  1  2  4  2  6  5       -2 -.167029436014D-04 0.100000000000D+01
-.129626124169D-04 0.000000000000D+00 0.000000000000D+00 0.512787660974D-05 0.000000000000D+00  6 -1 22 9900012 -13 -2 21 2 0.14427205D-02 0.30829178D+00 0.42832089D+04 0.42832089D+04 0.42832089D+04 0.12494849D+01  1  2  5  2  6  5       -2 -.132144256751D-03 0.100000000000D+01
0.142499865920D-04 0.000000000000D+00 -.000000000000D+00 0.512787660974D-05 0.000000000000D+00  6 -1 22 9900012 -13 -2 21 2 0.14427205D-02 0.30829178D+00 0.42832089D+04 0.42832089D+04 0.42832089D+04 0.12494849D+01  1  2  6  2  6  5       -2 0.145268085348D-03 0.100000000000D+01
0.660573326393D-08 0.000000000000D+00 0.000000000000D+00 0.512787660974D-05 0.242005830560D-06  6 -1 22 9900012 -13 -2 21 2 0.14427205D-02 0.30829178D+00 0.47846088D+04 0.47846088D+04 0.47846088D+04 0.12440053D+01  1  2 11  2  6  5       -2 0.675378697115D-07 0.100000000000D+01
  </mgrwgt>
  </event>
  <event>
  7     66 0.11438559E-05 0.12465800E+03 0.78161638E-02 0.11081397E+00
       -3 -1    0    0    0  502 0.00000000E+00 0.00000000E+00 0.18196720E+03 0.18196720E+03 0.00000000E+00 0.0000E+00 0.9000E+01
       22 -1    0    0    0    0 0.00000000E+00 0.00000000E+00 -.26335748E+03 0.26335748E+03 0.00000000E+00 0.0000E+00 0.9000E+01
       24  2    1    2    0    0 -.88738396E+01 -.13362979E+03 -.20478288E+03 0.25765809E+03 0.80721732E+02 0.0000E+00 0.0000E+00
  9900012  1    3    3    0    0 0.95163947E+00 -.11281884E+03 -.19861693E+03 0.23383259E+03 0.50000000E+02 0.0000E+00 0.9000E+01
      -13  1    3    3    0    0 -.98254791E+01 -.20810947E+02 -.61659566E+01 0.23825502E+02 0.00000000E+00 0.0000E+00 0.9000E+01
       -4  1    1    2    0  501 0.86053826E+01 0.12745709E+03 0.96568367E+02 0.16013998E+03 0.00000000E+00 0.0000E+00 0.9000E+01
       21  1    1    2  501  502 0.26845698E+00 0.61726926E+01 0.26824244E+02 0.27526611E+02 0.00000000E+00 0.0000E+00 0.9000E+01
#aMCatNLO 2  0  0  1  5 0.62060504D+01 0.00000000D+00  -5  6  0 0.00000000D+00 0.00000000D+00 0.00000000D+00 0.00000000D+00 0.00000000D+00
  <mgrwgt>
 0.1218993035D-03    2    2    0
 0.201746543145454D+03 0.000000000000000D+00 0.000000000000000D+00 0.201746543145454D+03
 0.201746543145454D+03 0.000000000000000D+00 0.000000000000000D+00 -.201746543145454D+03
 0.187129423977670D+03 0.107670196894097D+01 -.109943247932889D+03 -.142929158204518D+03
 0.226916045503875D+02 -.981027533975063D+01 -.204613632657870D+02 0.530423886453235D-02
 0.193672057762850D+03 0.873357337080966D+01 0.130404611198676D+03 0.142923853965654D+03
 0.000000000000000D+00 0.000000000000000D+00 0.000000000000000D+00 0.000000000000000D+00
 0.237193208266654D+03 0.000000000000000D+00 0.000000000000000D+00 0.237193208266654D+03
 0.202039610762820D+03 0.000000000000000D+00 0.000000000000000D+00 -.202039610762820D+03
 0.188832571864987D+03 0.951639472508272D+00 -.112818838473048D+03 -.142929158204518D+03
 0.230138125441709D+02 -.982547909338943D+01 -.208109466451830D+02 0.530423886453235D-02
 0.191694003764672D+03 0.860538264348082D+01 0.127457092531148D+03 0.142923853965654D+03
 0.356924308556443D+02 0.268456977400338D+00 0.617269258708250D+01 0.351535975038347D+02
-.269728081642D-04 0.000000000000D+00 0.000000000000D+00 0.223133238306D-05 0.000000000000D+00  6 -3 22 9900012 -13 -4 21 2 0.28035621D-01 0.40457764D-01 0.19648389D+05 0.19648389D+05 0.19648389D+05 0.11800549D+01  1  2 13  1  6  1       -3 -.185713245464D-03 0.100000000000D+01
0.446629954933D-04 0.000000000000D+00 0.000000000000D+00 0.223133238306D-05 0.753597651510D-06  6 -3 22 9900012 -13 -4 21 2 0.27994954D-01 0.40516535D-01 0.19648389D+05 0.19648389D+05 0.19648389D+05 0.11800549D+01  1  2  1  1  6  1       -3 0.307612548931D-03 0.100000000000D+01
  </mgrwgt>
  </event>
  <event>
  7     66 -.11438559E-05 0.12335805E+02 0.78161638E-02 0.12706285E+00
       -3 -1    0    0    0  501 0.00000000E+00 0.00000000E+00 0.21325239E+02 0.21325239E+02 0.00000000E+00 0.0000E+00 0.9000E+01
       22 -1    0    0    0    0 -.00000000E+00 -.00000000E+00 -.15702777E+03 0.15702777E+03 0.00000000E+00 0.0000E+00 0.9000E+01
       24  2    1    2    0    0 0.26444420E+01 0.29460689E+02 -.94300160E+02 0.12477950E+03 0.76173992E+02 0.0000E+00 0.0000E+00
  9900012  1    3    3    0    0 -.18216000E+02 0.17329283E+02 -.76534135E+02 0.94813503E+02 0.50000000E+02 0.0000E+00 0.9000E+01
      -13  1    3    3    0    0 0.20860441E+02 0.12131406E+02 -.17766025E+02 0.29965992E+02 0.00000000E+00 0.0000E+00 0.9000E+01
       -4  1    1    2    0  502 -.90414136E+01 -.11061846E+02 -.14463966E+02 0.20330222E+02 0.00000000E+00 0.0000E+00 0.9000E+01
       21  1    1    2  502  501 0.63969717E+01 -.18398844E+02 -.26938401E+02 0.33243287E+02 0.00000000E+00 0.0000E+00 0.9000E+01
#aMCatNLO 2  0  0  5  1 0.82807812D+01 0.00000000D+00  -5  6  0 0.00000000D+00 0.00000000D+00 0.00000000D+00 0.00000000D+00 0.00000000D+00
  <mgrwgt>
 -.1214016560D-04    2    2    0
 0.578675607180056D+02 0.000000000000000D+00 0.000000000000000D+00 0.578675607180056D+02
 0.578675607180056D+02 -.000000000000000D+00 -.000000000000000D+00 -.578675607180056D+02
 0.570156873595385D+02 -.180188481303983D+02 0.195256689003666D+02 -.669760935913244D+01
 0.259197915645781D+02 0.209495811084380D+02 0.131244762440253D+02 0.779094149972698D+01
 0.327996425118947D+02 -.293073297803971D+01 -.326501451443919D+02 -.109333214059454D+01
 0.000000000000000D+00 0.000000000000000D+00 0.000000000000000D+00 -.000000000000000D+00
 0.578675607180056D+02 0.000000000000000D+00 0.000000000000000D+00 0.578675607180056D+02
 0.578675607180056D+02 -.000000000000000D+00 -.000000000000000D+00 -.578675607180056D+02
 0.563735333710413D+02 -.182159995071291D+02 0.173292828379336D+02 -.677115817383424D+01
 0.253477957878131D+02 0.208604414586276D+02 0.121314064126089D+02 0.775768727804616D+01
 0.143703941810951D+02 -.904141364858153D+01 -.110618455156272D+02 0.154810915109156D+01
 0.196433980960618D+02 0.639697169708303D+01 -.183988437349153D+02 -.253463825530348D+01
-.108477316677D-06 0.000000000000D+00 0.000000000000D+00 0.126861030742D-07 0.000000000000D+00  6 -3 22 9900012 -13 -4 21 2 0.32808059D-02 0.24158118D-01 0.32411871D+04 0.32411871D+04 0.32411871D+04 0.12636134D+01  1  2 13  2  6  5       -4 -.507079958044D-04 0.100000000000D+01
0.825064107596D-07 0.000000000000D+00 0.000000000000D+00 0.126861030742D-07 0.298087226643D-09  6 -3 22 9900012 -13 -4 21 2 0.32808059D-02 0.24158118D-01 0.32411871D+04 0.32411871D+04 0.32411871D+04 0.12636134D+01  1  2  1  2  6  5       -4 0.385678302045D-04 0.100000000000D+01
  </mgrwgt>
  </event>
  <event>
  6     66 0.11438559E-05 0.66075573E+02 0.78161638E-02 0.11101123E+00
       -1 -1    0    0    0  501 0.00000000E+00 0.00000000E+00 0.16446251E+04 0.16446251E+04 0.00000000E+00 0.0000E+00 0.9000E+01
       22 -1    0    0    0    0 0.00000000E+00 0.00000000E+00 -.11815477E+03 0.11815477E+03 0.00000000E+00 0.0000E+00 0.9000E+01
       24  2    1    2    0    0 0.10894270E+03 -.52353721E+02 -.71165290E+02 0.16057857E+03 0.78176439E+02 0.0000E+00 0.0000E+00
  9900012  1    3    3    0    0 0.93232764E+02 -.58495352E+02 -.44087998E+02 0.12867714E+03 0.50000000E+02 0.0000E+00 0.9000E+01
      -13  1    3    3    0    0 0.15709933E+02 0.61416307E+01 -.27077292E+02 0.31901432E+02 0.00000000E+00 0.0000E+00 0.9000E+01
       -2  1    1    2    0  501 -.10894270E+03 0.52353721E+02 0.15976357E+04 0.16022013E+04 0.00000000E+00 0.0000E+00 0.9000E+01
#aMCatNLO 1  0  0  1  5 0.16921856D+02 0.00000000D+00  -5  6  0 0.00000000D+00 0.00000000D+00 0.00000000D+00 0.00000000D+00 0.00000000D+00
  <mgrwgt>
 0.9998350884D-04    9    4    0
 0.440817767629737D+03 0.000000000000000D+00 0.000000000000000D+00 0.440817767629737D+03
 0.440817767629737D+03 0.000000000000000D+00 0.000000000000000D+00 -.440817767629737D+03
 0.333616882494362D+03 0.932327639808803D+02 -.584953516359198D+02 -.310943997920417D+03
 0.110666918032409D+03 0.157099328580645D+02 0.614163072794269D+01 -.109373877724018D+03
 0.437351734732702D+03 -.108942696838945D+03 0.523537209079771D+02 0.420317875644436D+03
 0.000000000000000D+00 0.000000000000000D+00 -.000000000000000D+00 0.000000000000000D+00
 0.476515627868376D+03 0.000000000000000D+00 0.000000000000000D+00 0.476515627868376D+03
 0.442795112705531D+03 0.000000000000000D+00 0.000000000000000D+00 -.442795112705531D+03
 0.332425171112876D+03 0.926513988515111D+02 -.523071968045544D+02 -.310943997920417D+03
 0.110772899458962D+03 0.155166456813072D+02 0.819901414546779D+01 -.109373877724018D+03
 0.438591029712047D+03 -.109707277056986D+03 0.604920500426638D+02 0.420317875644436D+03
 0.375216402900212D+02 0.153923252416747D+01 -.163838673835772D+02 0.337205151628448D+02
 0.440817767629737D+03 0.000000000000000D+00 0.000000000000000D+00 0.440817767629737D+03
 0.440817767629737D+03 0.000000000000000D+00 0.000000000000000D+00 -.440817767629737D+03
 0.333616882494362D+03 0.932327639808803D+02 -.584953516359198D+02 -.310943997920417D+03
 0.110666918032409D+03 0.157099328580645D+02 0.614163072794269D+01 -.109373877724018D+03
 0.000000000000000D+00 0.000000000000000D+00 -.000000000000000D+00 0.000000000000000D+00
 0.437351734732702D+03 -.108942696838945D+03 0.523537209079771D+02 0.420317875644436D+03
 0.476515627868376D+03 0.000000000000000D+00 0.000000000000000D+00 0.476515627868376D+03
 0.442795112705531D+03 0.000000000000000D+00 0.000000000000000D+00 -.442795112705531D+03
 0.332425171112876D+03 0.926513988515111D+02 -.523071968045544D+02 -.310943997920417D+03
 0.110772899458962D+03 0.155166456813072D+02 0.819901414546779D+01 -.109373877724018D+03
 0.375216402900212D+02 0.153923252416747D+01 -.163838673835772D+02 0.337205151628448D+02
 0.438591029712047D+03 -.109707277056986D+03 0.604920500426638D+02 0.420317875644436D+03
0.533263379287D-04 0.000000000000D+00 0.000000000000D+00 0.244403339210D-04 0.000000000000D+00  6 -1 22 9900012 -13 -2 21 0 0.25301925D+00 0.18177657D-01 0.16721829D+05 0.16721829D+05 0.16721829D+05 0.11868441D+01  1  2  2  1  6  1       -1 0.716910135837D-05 0.100000000000D+01
0.530940444745D-06 0.000000000000D+00 -.102393589397D-06 0.244403339210D-04 0.000000000000D+00  6 -1 22 9900012 -13 -2 21 2 0.25301925D+00 0.18177657D-01 0.16721829D+05 0.16721829D+05 0.16721829D+05 0.11868441D+01  1  2  3  1  6  1       -1 0.100543990134D-06 0.100000000000D+01
-.763556341932D-05 0.000000000000D+00 0.000000000000D+00 0.244403339210D-04 0.000000000000D+00  6 -1 22 9900012 -13 -2 21 2 0.25301925D+00 0.18177657D-01 0.16721829D+05 0.16721829D+05 0.16721829D+05 0.11868441D+01  1  2 15  1  6  1       -1 -.144594374133D-05 0.100000000000D+01
0.534612268010D-03 0.000000000000D+00 0.000000000000D+00 0.244403339210D-04 0.000000000000D+00  6 -1 22 9900012 -13 -2 21 2 0.27473586D+00 0.18177657D-01 0.19160805D+05 0.19160805D+05 0.19160805D+05 0.11811047D+01  1  2 12  1  6  1       -1 0.669664172796D-04 0.100000000000D+01
-.723152501159D-04 0.000000000000D+00 0.000000000000D+00 0.244403339210D-04 0.000000000000D+00  6 -1 22 9900012 -13 -2 21 2 0.25301925D+00 0.18177657D-01 0.16721829D+05 0.16721829D+05 0.16721829D+05 0.11868441D+01  1  2  4  1  6  1       -1 -.136943114170D-04 0.100000000000D+01
-.691821671639D-03 0.000000000000D+00 -.622035762731D-04 0.244403339210D-04 0.000000000000D+00  6 -1 22 9900012 -13 -2 21 2 0.27396117D+00 0.18177657D-01 0.16721829D+05 0.16721829D+05 0.16721829D+05 0.11868441D+01  1  2  5  1  6  1       -1 -.889260979558D-04 0.100000000000D+01
0.694766451330D-03 0.000000000000D+00 0.620074191378D-04 0.244403339210D-04 0.000000000000D+00  6 -1 22 9900012 -13 -2 21 2 0.25301925D+00 0.18177657D-01 0.16721829D+05 0.16721829D+05 0.16721829D+05 0.11868441D+01  1  2  6  1  6  1       -1 0.131567658707D-03 0.100000000000D+01
0.784093066846D-05 0.000000000000D+00 0.000000000000D+00 0.244403339210D-04 0.000000000000D+00  6 21 22 9900012 -13 1 -2 2 0.27473586D+00 0.18177657D-01 0.19160805D+05 0.19160805D+05 0.19160805D+05 0.11811047D+01  3  4 12  3  5  1       -1 0.946166525321D-05 0.100000000000D+01
-.905811579888D-05 0.000000000000D+00 -.826422234605D-06 0.244403339210D-04 0.000000000000D+00  6 21 22 9900012 -13 1 -2 2 0.27396117D+00 0.18177657D-01 0.16721829D+05 0.16721829D+05 0.16721829D+05 0.11868441D+01  3  4  5  3  5  1       -1 -.112155246328D-04 0.100000000000D+01
  </mgrwgt>
  </event>
  <event>
  6     66 0.11438559E-05 0.10246845E+03 0.78161638E-02 0.10138437E+00
       -1 -1    0    0    0  501 0.00000000E+00 0.00000000E+00 0.74182292E+02 0.74182292E+02 0.00000000E+00 0.0000E+00 0.9000E+01
       22 -1    0    0    0    0 0.00000000E+00 0.00000000E+00 -.48012478E+03 0.48012478E+03 0.00000000E+00 0.0000E+00 0.9000E+01
       24  2    1    2    0    0 0.20800964E+02 0.10033495E+03 -.42981904E+03 0.44909361E+03 0.80255076E+02 0.0000E+00 0.0000E+00
  9900012  1    3    3    0    0 -.52402458E+01 0.39430537E+02 -.20656434E+03 0.21621992E+03 0.50000000E+02 0.0000E+00 0.9000E+01
      -13  1    3    3    0    0 0.26041210E+02 0.60904416E+02 -.22325470E+03 0.23287369E+03 0.00000000E+00 0.0000E+00 0.9000E+01
       -2  1    1    2    0  501 -.20800964E+02 -.10033495E+03 0.23876555E+02 0.10521346E+03 0.00000000E+00 0.0000E+00 0.9000E+01
#aMCatNLO 1  0  0  1  1 0.31348036D+03 0.00000000D+00  -5  6  0 0.00000000D+00 0.00000000D+00 0.00000000D+00 0.00000000D+00 0.00000000D+00
  <mgrwgt>
 0.1038028672D-03    5    4    0
 0.188724022765644D+03 0.000000000000000D+00 0.000000000000000D+00 0.188724022765644D+03
 0.188724022765644D+03 0.000000000000000D+00 0.000000000000000D+00 -.188724022765644D+03
 0.953746866987853D+02 -.524024576798943D+01 0.394305370429668D+02 -.708103342435675D+02
 0.101881473447017D+03 0.260412095416353D+02 0.609044164822053D+02 -.774102195469426D+02
 0.180191885385487D+03 -.208009637736459D+02 -.100334953525172D+03 0.148220553790510D+03
 0.000000000000000D+00 0.000000000000000D+00 -.000000000000000D+00 0.000000000000000D+00
 0.407723091259110D+03 0.000000000000000D+00 0.000000000000000D+00 0.407723091259110D+03
 0.309560965923754D+03 0.000000000000000D+00 0.000000000000000D+00 -.309560965923754D+03
 0.140077661218210D+03 -.151170050325884D+02 0.108991393676393D+03 -.708103342435675D+02
 0.158904028529192D+03 0.151017746814460D+02 0.137949572648744D+03 -.774102195469426D+02
 0.152253519254823D+03 -.347463895011993D+02 -.211895638090779D+01 0.148220553790510D+03
 0.266048848180640D+03 0.347616198523417D+02 -.244822009944229D+03 0.981621253353557D+02
 0.188724022765644D+03 0.000000000000000D+00 0.000000000000000D+00 0.188724022765644D+03
 0.188724022765644D+03 0.000000000000000D+00 0.000000000000000D+00 -.188724022765644D+03
 0.953746866987853D+02 -.524024576798943D+01 0.394305370429668D+02 -.708103342435675D+02
 0.101881473447017D+03 0.260412095416353D+02 0.609044164822053D+02 -.774102195469426D+02
 0.000000000000000D+00 0.000000000000000D+00 -.000000000000000D+00 0.000000000000000D+00
 0.180191885385487D+03 -.208009637736459D+02 -.100334953525172D+03 0.148220553790510D+03
 0.407723091259110D+03 0.000000000000000D+00 0.000000000000000D+00 0.407723091259110D+03
 0.309560965923754D+03 0.000000000000000D+00 0.000000000000000D+00 -.309560965923754D+03
 0.140077661218210D+03 -.151170050325884D+02 0.108991393676393D+03 -.708103342435675D+02
 0.158904028529192D+03 0.151017746814460D+02 0.137949572648744D+03 -.774102195469426D+02
 0.266048848180640D+03 0.347616198523417D+02 -.244822009944229D+03 0.981621253353557D+02
 0.152253519254823D+03 -.347463895011993D+02 -.211895638090779D+01 0.148220553790510D+03
0.102439714298D-04 0.000000000000D+00 0.000000000000D+00 0.578061716234D-05 0.000000000000D+00  6 -1 22 9900012 -13 -2 21 0 0.11412660D-01 0.73865351D-01 0.13525563D+05 0.13525563D+05 0.13525563D+05 0.11959673D+01  1  2  2  1  6  1       -1 0.102220542340D-03 0.100000000000D+01
0.419665396390D-07 0.000000000000D+00 -.196697737950D-07 0.578061716234D-05 0.000000000000D+00  6 -1 22 9900012 -13 -2 21 2 0.11412660D-01 0.73865351D-01 0.13525563D+05 0.13525563D+05 0.13525563D+05 0.11959673D+01  1  2  3  1  6  1       -1 0.598979033497D-06 0.100000000000D+01
-.161342924882D-05 0.000000000000D+00 0.000000000000D+00 0.578061716234D-05 0.000000000000D+00  6 -1 22 9900012 -13 -2 21 2 0.11412660D-01 0.73865351D-01 0.13525563D+05 0.13525563D+05 0.13525563D+05 0.11959673D+01  1  2 15  1  6  1       -1 -.230281147883D-04 0.100000000000D+01
0.436332449447D-05 0.000000000000D+00 -.318196972109D-05 0.578061716234D-05 0.000000000000D+00  6 -1 22 9900012 -13 -2 21 2 0.39625050D-01 0.73865351D-01 0.13525563D+05 0.13525563D+05 0.13525563D+05 0.11959673D+01  1  2  5  1  6  1       -1 0.881352613066D-05 0.100000000000D+01
0.739684137432D-06 0.000000000000D+00 -.462750594130D-06 0.578061716234D-05 0.000000000000D+00  6 21 22 9900012 -13 1 -2 2 0.39625050D-01 0.73865351D-01 0.13525563D+05 0.13525563D+05 0.13525563D+05 0.11959673D+01  3  4  5  3  5  1       -1 0.151979345075D-04 0.100000000000D+01
  </mgrwgt>
  </event>
  <event>
  6     66 0.11438559E-05 0.93867298E+02 0.78161638E-02 0.10784071E+00
       -1 -1    0    0    0  501 0.00000000E+00 0.00000000E+00 0.98510446E+02 0.98510446E+02 0.00000000E+00 0.0000E+00 0.9000E+01
       22 -1    0    0    0    0 -.00000000E+00 -.00000000E+00 -.49001387E+03 0.49001387E+03 0.00000000E+00 0.0000E+00 0.9000E+01
       24  2    1    2    0    0 0.46328689E+01 0.93752900E+02 -.45727205E+03 0.47390938E+03 0.81739275E+02 0.0000E+00 0.0000E+00
  9900012  1    3    3    0    0 0.55079182E+01 0.53940166E+02 -.37877301E+03 0.38588713E+03 0.50000000E+02 0.0000E+00 0.9000E+01
      -13  1    3    3    0    0 -.87504933E+00 0.39812734E+02 -.78499036E+02 0.88022259E+02 0.00000000E+00 0.0000E+00 0.9000E+01
       -2  1    1    2    0  501 -.46328689E+01 -.93752900E+02 0.65768627E+02 0.11461493E+03 0.00000000E+00 0.0000E+00 0.9000E+01
#aMCatNLO 1  0  0  5  1 0.53723261D+00 0.00000000D+00  -5  6  0 0.00000000D+00 0.00000000D+00 0.00000000D+00 0.00000000D+00 0.00000000D+00
  <mgrwgt>
 0.8400232515D-04    3    2    0
 0.219707725331830D+03 0.000000000000000D+00 0.000000000000000D+00 0.219707725331830D+03
 0.219707725331830D+03 -.000000000000000D+00 -.000000000000000D+00 -.219707725331830D+03
 0.179358793720385D+03 0.550791822098649D+01 0.539401660399139D+02 -.163492196172445D+03
 0.479514283027796D+02 -.875049327448383D+00 0.398127336558229D+02 -.267117952186229D+02
 0.212105228640496D+03 -.463286889353811D+01 -.937528996957369D+02 0.190203991391068D+03
 0.000000000000000D+00 0.000000000000000D+00 0.000000000000000D+00 -.000000000000000D+00
 0.219707725331830D+03 0.000000000000000D+00 0.000000000000000D+00 0.219707725331830D+03
 0.219707725331830D+03 -.000000000000000D+00 -.000000000000000D+00 -.219707725331830D+03
 0.115365558930798D+03 0.399193349236226D+01 0.232619907085947D+02 -.101252933007796D+03
 0.328725452839400D+02 -.129078663779278D+01 0.313996791852210D+02 -.964356004624758D+01
 0.149032024884379D+03 0.106869515665278D+03 0.349405007323109D+02 0.978192847611479D+02
 0.142145321564544D+03 -.109570662519847D+03 -.896021706261267D+02 0.130772082928956D+02
0.169455519931D-04 0.000000000000D+00 0.000000000000D+00 0.326857338542D-05 0.000000000000D+00  6 -1 22 9900012 -13 -2 21 0 0.15155453D-01 0.75386749D-01 0.10758376D+05 0.10758376D+05 0.10758376D+05 0.12060536D+01  1  2  2  2  6  5       -2 0.104500959338D-03 0.100000000000D+01
0.109771061928D-06 0.000000000000D+00 -.325376907599D-07 0.326857338542D-05 0.000000000000D+00  6 -1 22 9900012 -13 -2 21 2 0.15155453D-01 0.75386749D-01 0.10758376D+05 0.10758376D+05 0.10758376D+05 0.12060536D+01  1  2  3  2  6  5       -2 0.984658484846D-06 0.100000000000D+01
-.239498657289D-05 0.000000000000D+00 0.000000000000D+00 0.326857338542D-05 0.000000000000D+00  6 -1 22 9900012 -13 -2 21 2 0.15155453D-01 0.75386749D-01 0.10758376D+05 0.10758376D+05 0.10758376D+05 0.12060536D+01  1  2 15  2  6  5       -2 -.214832926700D-04 0.100000000000D+01
  </mgrwgt>
  </event>
  <event>
  6     66 0.11438559E-05 0.17797754E+02 0.78161638E-02 0.12928585E+00
       -1 -1    0    0    0  501 0.00000000E+00 0.00000000E+00 0.26180678E+03 0.26180678E+03 0.00000000E+00 0.0000E+00 0.9000E+01
       22 -1    0    0    0    0 0.00000000E+00 0.00000000E+00 -.22723514E+03 0.22723514E+03 0.00000000E+00 0.0000E+00 0.9000E+01
       24  2    1    2    0    0 -.40477798E+01 -.17331345E+02 -.22012901E+03 0.23372019E+03 0.76495654E+02 0.0000E+00 0.0000E+00
  9900012  1    3    3    0    0 -.11530623E+02 -.32114857E+02 -.15211837E+03 0.16372024E+03 0.50000000E+02 0.0000E+00 0.9000E+01
      -13  1    3    3    0    0 0.74828432E+01 0.14783511E+02 -.68010646E+02 0.69999951E+02 0.00000000E+00 0.0000E+00 0.9000E+01
       -2  1    1    2    0  501 0.40477798E+01 0.17331345E+02 0.25470066E+03 0.25532173E+03 0.00000000E+00 0.0000E+00 0.9000E+01
#aMCatNLO 1  0  0  1  5 0.12757515D+02 0.00000000D+00  -5  6  0 0.00000000D+00 0.00000000D+00 0.00000000D+00 0.00000000D+00 0.00000000D+00
  <mgrwgt>
 0.1297059365D-02    9    4    0
 0.243909204619786D+03 0.000000000000000D+00 0.000000000000000D+00 0.243909204619786D+03
 0.243909204619786D+03 0.000000000000000D+00 0.000000000000000D+00 -.243909204619786D+03
 0.174911485105894D+03 -.115306229619153D+02 -.321148567313054D+02 -.164102737128871D+03
 0.749954277926075D+02 0.748284317047724D+01 0.147835113307897D+02 -.731421153687440D+02
 0.237911496341070D+03 0.404777979143803D+01 0.173313454005157D+02 0.237244852497615D+03
 0.000000000000000D+00 0.000000000000000D+00 0.000000000000000D+00 0.000000000000000D+00
 0.417093273029683D+03 0.000000000000000D+00 0.000000000000000D+00 0.417093273029683D+03
 0.244226921387845D+03 0.000000000000000D+00 0.000000000000000D+00 -.244226921387845D+03
 0.175851546142411D+03 -.137329209116469D+02 -.361312168453231D+02 -.164102737128871D+03
 0.745884202669485D+02 0.654366722390683D+01 0.130707236435879D+02 -.731421153687440D+02
 0.237544847797001D+03 0.106258340926586D+01 0.118872029840334D+02 0.237244852497615D+03
 0.173335380211167D+03 0.612667027847424D+01 0.111732902177019D+02 0.172866351641839D+03
 0.243909204619786D+03 0.000000000000000D+00 0.000000000000000D+00 0.243909204619786D+03
 0.243909204619786D+03 0.000000000000000D+00 0.000000000000000D+00 -.243909204619786D+03
 0.174911485105894D+03 -.115306229619153D+02 -.321148567313054D+02 -.164102737128871D+03
 0.749954277926075D+02 0.748284317047724D+01 0.147835113307897D+02 -.731421153687440D+02
 0.000000000000000D+00 0.000000000000000D+00 0.000000000000000D+00 0.000000000000000D+00
 0.237911496341070D+03 0.404777979143803D+01 0.173313454005157D+02 0.237244852497615D+03
 0.417093273029683D+03 0.000000000000000D+00 0.000000000000000D+00 0.417093273029683D+03
 0.244226921387845D+03 0.000000000000000D+00 0.000000000000000D+00 -.244226921387845D+03
 0.175851546142411D+03 -.137329209116469D+02 -.361312168453231D+02 -.164102737128871D+03
 0.745884202669485D+02 0.654366722390683D+01 0.130707236435879D+02 -.731421153687440D+02
 0.173335380211167D+03 0.612667027847424D+01 0.111732902177019D+02 0.172866351641839D+03
 0.237544847797001D+03 0.106258340926586D+01 0.118872029840334D+02 0.237244852497615D+03
0.372844093795D-05 0.000000000000D+00 0.000000000000D+00 0.113470559429D-04 0.000000000000D+00  6 -1 22 9900012 -13 -2 21 0 0.40277967D-01 0.34959252D-01 0.22515395D+04 0.22515395D+04 0.22515395D+04 0.12828567D+01  1  2  2  1  6  1       -1 0.162212047290D-04 0.100000000000D+01
0.581207996622D-06 0.000000000000D+00 -.715909746139D-08 0.113470559429D-04 0.000000000000D+00  6 -1 22 9900012 -13 -2 21 2 0.40277967D-01 0.34959252D-01 0.22515395D+04 0.22515395D+04 0.22515395D+04 0.12828567D+01  1  2  3  1  6  1       -1 0.416144101841D-05 0.100000000000D+01
-.516930696751D-06 0.000000000000D+00 0.000000000000D+00 0.113470559429D-04 0.000000000000D+00  6 -1 22 9900012 -13 -2 21 2 0.40277967D-01 0.34959252D-01 0.22515395D+04 0.22515395D+04 0.22515395D+04 0.12828567D+01  1  2 15  1  6  1       -1 -.370121646233D-05 0.100000000000D+01
0.253257628373D-03 0.000000000000D+00 0.000000000000D+00 0.113470559429D-04 0.000000000000D+00  6 -1 22 9900012 -13 -2 21 2 0.68966451D-01 0.34959252D-01 0.26262126D+04 0.26262126D+04 0.26262126D+04 0.12746191D+01  1  2 12  1  6  1       -1 0.714947594768D-03 0.100000000000D+01
-.409180895119D-04 0.000000000000D+00 0.000000000000D+00 0.113470559429D-04 0.000000000000D+00  6 -1 22 9900012 -13 -2 21 2 0.40277967D-01 0.34959252D-01 0.22515395D+04 0.22515395D+04 0.22515395D+04 0.12828567D+01  1  2  4  1  6  1       -1 -.292972940977D-03 0.100000000000D+01
-.251369088841D-03 0.000000000000D+00 -.117612581090D-05 0.113470559429D-04 0.000000000000D+00  6 -1 22 9900012 -13 -2 21 2 0.68908300D-01 0.34959252D-01 0.22515395D+04 0.22515395D+04 0.22515395D+04 0.12828567D+01  1  2  5  1  6  1       -1 -.714973386128D-03 0.100000000000D+01
0.219708279662D-03 0.000000000000D+00 0.102479700786D-05 0.113470559429D-04 0.000000000000D+00  6 -1 22 9900012 -13 -2 21 2 0.40277967D-01 0.34959252D-01 0.22515395D+04 0.22515395D+04 0.22515395D+04 0.12828567D+01  1  2  6  1  6  1       -1 0.157310816848D-02 0.100000000000D+01
0.151451027621D-04 0.000000000000D+00 0.000000000000D+00 0.113470559429D-04 0.000000000000D+00  6 21 22 9900012 -13 1 -2 2 0.68966451D-01 0.34959252D-01 0.26262126D+04 0.26262126D+04 0.26262126D+04 0.12746191D+01  3  4 12  3  5  1       -1 0.377336430197D-03 0.100000000000D+01
-.149554578021D-04 0.000000000000D+00 -.702429047164D-07 0.113470559429D-04 0.000000000000D+00  6 21 22 9900012 -13 1 -2 2 0.68908300D-01 0.34959252D-01 0.22515395D+04 0.22515395D+04 0.22515395D+04 0.12828567D+01  3  4  5  3  5  1       -1 -.377067930695D-03 0.100000000000D+01
  </mgrwgt>
  </event>
  <event>
  6     66 0.11438559E-05 0.42833149E+02 0.78161638E-02 0.11956650E+00
       -1 -1    0    0    0  501 0.00000000E+00 0.00000000E+00 0.63717542E+03 0.63717542E+03 0.00000000E+00 0.0000E+00 0.9000E+01
       22 -1    0    0    0    0 0.00000000E+00 0.00000000E+00 -.15277793E+02 0.15277793E+02 0.00000000E+00 0.0000E+00 0.9000E+01
       24  2    1    2    0    0 0.52984724E+02 0.12362443E+02 0.15517423E+03 0.18256925E+03 0.79323880E+02 0.0000E+00 0.0000E+00
  9900012  1    3    3    0    0 0.51836909E+02 -.10247693E+02 0.12771933E+03 0.14698404E+03 0.50000000E+02 0.0000E+00 0.9000E+01
      -13  1    3    3    0    0 0.11478154E+01 0.22610135E+02 0.27454905E+02 0.35585215E+02 0.00000000E+00 0.0000E+00 0.9000E+01
       -2  1    1    2    0  501 -.52984724E+02 -.12362443E+02 0.46672339E+03 0.46988396E+03 0.00000000E+00 0.0000E+00 0.9000E+01
#aMCatNLO 1  0  0  1  5 0.20190817D+02 0.00000000D+00  -5  6  0 0.00000000D+00 0.00000000D+00 0.00000000D+00 0.00000000D+00 0.00000000D+00
  <mgrwgt>
 0.5878837343D-04    9    4    0
 0.986642494447999D+02 0.000000000000000D+00 0.000000000000000D+00 0.986642494447999D+02
 0.986642494447999D+02 0.000000000000000D+00 0.000000000000000D+00 -.986642494447999D+02
 0.834743081746924D+02 0.518369088823012D+02 -.102476925326729D+02 -.409375109224697D+02
 0.311336037993996D+02 0.114781535763316D+01 0.226101351545765D+02 -.213720750919175D+02
 0.827205869155077D+02 -.529847242399343D+02 -.123624426219036D+02 0.623095860143872D+02
 0.000000000000000D+00 0.000000000000000D+00 0.000000000000000D+00 0.000000000000000D+00
 0.110373437030781D+03 0.000000000000000D+00 0.000000000000000D+00 0.110373437030781D+03
 0.104821531026805D+03 0.000000000000000D+00 0.000000000000000D+00 -.104821531026805D+03
 0.833161037041666D+02 0.498293977026249D+02 -.168144122855888D+02 -.409375109224697D+02
 0.294282514803168D+02 0.418884958298990D+00 0.202257491046913D+02 -.213720750919175D+02
 0.852542036578574D+02 -.550064907562538D+02 -.189757926509878D+02 0.623095860143872D+02
 0.171964092152447D+02 0.475820809532990D+01 0.155644558318853D+02 0.555190600397563D+01
 0.986642494447999D+02 0.000000000000000D+00 0.000000000000000D+00 0.986642494447999D+02
 0.986642494447999D+02 0.000000000000000D+00 0.000000000000000D+00 -.986642494447999D+02
 0.834743081746924D+02 0.518369088823012D+02 -.102476925326729D+02 -.409375109224697D+02
 0.311336037993996D+02 0.114781535763316D+01 0.226101351545765D+02 -.213720750919175D+02
 0.000000000000000D+00 0.000000000000000D+00 0.000000000000000D+00 0.000000000000000D+00
 0.827205869155077D+02 -.529847242399343D+02 -.123624426219036D+02 0.623095860143872D+02
 0.110373437030781D+03 0.000000000000000D+00 0.000000000000000D+00 0.110373437030781D+03
 0.104821531026805D+03 0.000000000000000D+00 0.000000000000000D+00 -.104821531026805D+03
 0.833161037041666D+02 0.498293977026249D+02 -.168144122855888D+02 -.409375109224697D+02
 0.294282514803168D+02 0.418884958298990D+00 0.202257491046913D+02 -.213720750919175D+02
 0.171964092152447D+02 0.475820809532990D+01 0.155644558318853D+02 0.555190600397563D+01
 0.852542036578574D+02 -.550064907562538D+02 -.189757926509878D+02 0.623095860143872D+02
0.507730497213D-06 0.000000000000D+00 0.000000000000D+00 0.681431006748D-06 0.000000000000D+00  6 -1 22 9900012 -13 -2 21 0 0.98026987D-01 0.23504297D-02 0.56095425D+04 0.56095425D+04 0.56095425D+04 0.12362609D+01  1  2  2  1  6  1       -1 0.210139174434D-04 0.100000000000D+01
0.462915408854D-08 0.000000000000D+00 -.974909398904D-09 0.681431006748D-06 0.000000000000D+00  6 -1 22 9900012 -13 -2 21 2 0.98026987D-01 0.23504297D-02 0.56095425D+04 0.56095425D+04 0.56095425D+04 0.12362609D+01  1  2  3  1  6  1       -1 0.292816573154D-06 0.100000000000D+01
-.676895840004D-07 0.000000000000D+00 0.000000000000D+00 0.681431006748D-06 0.000000000000D+00  6 -1 22 9900012 -13 -2 21 2 0.98026987D-01 0.23504297D-02 0.56095425D+04 0.56095425D+04 0.56095425D+04 0.12362609D+01  1  2 15  1  6  1       -1 -.428169631991D-05 0.100000000000D+01
0.524171875203D-06 0.000000000000D+00 0.000000000000D+00 0.681431006748D-06 0.000000000000D+00  6 -1 22 9900012 -13 -2 21 2 0.11650407D+00 0.23504297D-02 0.69938343D+04 0.69938343D+04 0.69938343D+04 0.12257720D+01  1  2 12  1  6  1       -1 0.224920793052D-04 0.100000000000D+01
-.724071341824D-07 0.000000000000D+00 0.000000000000D+00 0.681431006748D-06 0.000000000000D+00  6 -1 22 9900012 -13 -2 21 2 0.98026987D-01 0.23504297D-02 0.56095425D+04 0.56095425D+04 0.56095425D+04 0.12362609D+01  1  2  4  1  6  1       -1 -.458010437709D-05 0.100000000000D+01
-.146563060390D-05 0.000000000000D+00 -.378946021498D-06 0.681431006748D-06 0.000000000000D+00  6 -1 22 9900012 -13 -2 21 2 0.11473024D+00 0.23504297D-02 0.56095425D+04 0.56095425D+04 0.56095425D+04 0.12362609D+01  1  2  5  1  6  1       -1 -.653958274988D-04 0.100000000000D+01
0.151115321890D-05 0.000000000000D+00 0.374303305198D-06 0.681431006748D-06 0.000000000000D+00  6 -1 22 9900012 -13 -2 21 2 0.98026987D-01 0.23504297D-02 0.56095425D+04 0.56095425D+04 0.56095425D+04 0.12362609D+01  1  2  6  1  6  1       -1 0.955878112080D-04 0.100000000000D+01
0.133810597560D-07 0.000000000000D+00 0.000000000000D+00 0.681431006748D-06 0.000000000000D+00  6 21 22 9900012 -13 1 -2 2 0.11650407D+00 0.23504297D-02 0.69938343D+04 0.69938343D+04 0.69938343D+04 0.12257720D+01  3  4 12  3  5  1       -1 0.422917171034D-05 0.100000000000D+01
-.318800056706D-07 0.000000000000D+00 -.898350150514D-08 0.681431006748D-06 0.000000000000D+00  6 21 22 9900012 -13 1 -2 2 0.11473024D+00 0.23504297D-02 0.56095425D+04 0.56095425D+04 0.56095425D+04 0.12362609D+01  3  4  5  3  5  1       -1 -.105697946141D-04 0.100000000000D+01
  </mgrwgt>
  </event>
  <event>
  6     66 0.11438559E-05 0.36436202E+02 0.78161638E-02 0.12270548E+00
       -1 -1    0    0    0  501 0.00000000E+00 0.00000000E+00 0.85385515E+03 0.85385515E+03 0.00000000E+00 0.0000E+00 0.9000E+01
       22 -1    0    0    0    0 0.00000000E+00 0.00000000E+00 -.10887309E+02 0.10887309E+02 0.00000000E+00 0.0000E+00 0.9000E+01
       24  2    1    2    0    0 -.91484122E+00 -.40370832E+02 0.18252169E+03 0.20306296E+03 0.79307990E+02 0.0000E+00 0.0000E+00
  9900012  1    3    3    0    0 0.45790711E+01 -.50892030E+02 0.17492671E+03 0.18897174E+03 0.50000000E+02 0.0000E+00 0.9000E+01
      -13  1    3    3    0    0 -.54939124E+01 0.10521198E+02 0.75949872E+01 0.14091221E+02 0.00000000E+00 0.0000E+00 0.9000E+01
       -2  1    1    2    0  501 0.91484122E+00 0.40370832E+02 0.66044615E+03 0.66167949E+03 0.00000000E+00 0.0000E+00 0.9000E+01
#aMCatNLO 1  0  0  1  5 0.16842159D+02 0.00000000D+00  -5  6  0 0.00000000D+00 0.00000000D+00 0.00000000D+00 0.00000000D+00 0.00000000D+00
  <mgrwgt>
 0.1047424306D-03    9    4    0
 0.964167231674373D+02 0.000000000000000D+00 0.000000000000000D+00 0.964167231674373D+02
 0.964167231674373D+02 0.000000000000000D+00 0.000000000000000D+00 -.964167231674373D+02
 0.827361684870635D+02 0.457907114131509D+01 -.508920297427155D+02 -.416450116108653D+02
 0.299893365426337D+02 -.549391236465400D+01 0.105211979319615D+02 -.275405451520723D+02
 0.801079413051775D+02 0.914841223338910D+00 0.403708318107539D+02 0.691855567629376D+02
 0.000000000000000D+00 -.000000000000000D+00 -.000000000000000D+00 0.000000000000000D+00
 0.126587973873436D+03 0.000000000000000D+00 0.000000000000000D+00 0.126587973873436D+03
 0.989266493089326D+02 0.000000000000000D+00 0.000000000000000D+00 -.989266493089326D+02
 0.821638452688902D+02 0.111619076015240D+02 -.489081005151097D+02 -.416450116108653D+02
 0.299079875285374D+02 -.310280104947731D+01 0.112418288717263D+02 -.275405451520723D+02
 0.814332117673086D+02 0.736359139654108D+01 0.423143502359006D+02 0.691855567629376D+02
 0.320095786176327D+02 -.154226979485877D+02 -.464807859251711D+01 0.276613245645037D+02
 0.964167231674373D+02 0.000000000000000D+00 0.000000000000000D+00 0.964167231674373D+02
 0.964167231674373D+02 0.000000000000000D+00 0.000000000000000D+00 -.964167231674373D+02
 0.827361684870635D+02 0.457907114131509D+01 -.508920297427155D+02 -.416450116108653D+02
 0.299893365426337D+02 -.549391236465400D+01 0.105211979319615D+02 -.275405451520723D+02
 0.000000000000000D+00 -.000000000000000D+00 -.000000000000000D+00 0.000000000000000D+00
 0.801079413051775D+02 0.914841223338910D+00 0.403708318107539D+02 0.691855567629376D+02
 0.126587973873436D+03 0.000000000000000D+00 0.000000000000000D+00 0.126587973873436D+03
 0.989266493089326D+02 0.000000000000000D+00 0.000000000000000D+00 -.989266493089326D+02
 0.821638452688902D+02 0.111619076015240D+02 -.489081005151097D+02 -.416450116108653D+02
 0.299079875285374D+02 -.310280104947731D+01 0.112418288717263D+02 -.275405451520723D+02
 0.320095786176327D+02 -.154226979485877D+02 -.464807859251711D+01 0.276613245645037D+02
 0.814332117673086D+02 0.736359139654108D+01 0.423143502359006D+02 0.691855567629376D+02
0.801164974711D-06 0.000000000000D+00 0.000000000000D+00 0.100311986765D-05 0.000000000000D+00  6 -1 22 9900012 -13 -2 21 0 0.13136233D+00 0.16749706D-02 0.38279868D+04 0.38279868D+04 0.38279868D+04 0.12551206D+01  1  2  2  1  6  1       -1 0.259326287592D-04 0.100000000000D+01
0.207661684988D-07 0.000000000000D+00 -.153834222724D-08 0.100311986765D-05 0.000000000000D+00  6 -1 22 9900012 -13 -2 21 2 0.13136233D+00 0.16749706D-02 0.38279868D+04 0.38279868D+04 0.38279868D+04 0.12551206D+01  1  2  3  1  6  1       -1 0.105889252385D-05 0.100000000000D+01
-.106848541960D-06 0.000000000000D+00 0.000000000000D+00 0.100311986765D-05 0.000000000000D+00  6 -1 22 9900012 -13 -2 21 2 0.13136233D+00 0.16749706D-02 0.38279868D+04 0.38279868D+04 0.38279868D+04 0.12551206D+01  1  2 15  1  6  1       -1 -.544833883399D-05 0.100000000000D+01
0.200810891888D-05 0.000000000000D+00 0.000000000000D+00 0.100311986765D-05 0.000000000000D+00  6 -1 22 9900012 -13 -2 21 2 0.17695867D+00 0.16749706D-02 0.50089756D+04 0.50089756D+04 0.50089756D+04 0.12417579D+01  1  2 12  1  6  1       -1 0.440998363252D-04 0.100000000000D+01
-.511938922406D-06 0.000000000000D+00 0.000000000000D+00 0.100311986765D-05 0.000000000000D+00  6 -1 22 9900012 -13 -2 21 2 0.13136233D+00 0.16749706D-02 0.38279868D+04 0.38279868D+04 0.38279868D+04 0.12551206D+01  1  2  4  1  6  1       -1 -.261043965637D-04 0.100000000000D+01
-.235852645388D-05 0.000000000000D+00 -.349034048879D-06 0.100311986765D-05 0.000000000000D+00  6 -1 22 9900012 -13 -2 21 2 0.17441755D+00 0.16749706D-02 0.38279868D+04 0.38279868D+04 0.38279868D+04 0.12551206D+01  1  2  5  1  6  1       -1 -.546359243822D-04 0.100000000000D+01
0.237496906839D-05 0.000000000000D+00 0.335463243809D-06 0.100311986765D-05 0.000000000000D+00  6 -1 22 9900012 -13 -2 21 2 0.13136233D+00 0.16749706D-02 0.38279868D+04 0.38279868D+04 0.38279868D+04 0.12551206D+01  1  2  6  1  6  1       -1 0.121102599694D-03 0.100000000000D+01
0.772415317719D-07 0.000000000000D+00 0.000000000000D+00 0.100311986765D-05 0.000000000000D+00  6 21 22 9900012 -13 1 -2 2 0.17695867D+00 0.16749706D-02 0.50089756D+04 0.50089756D+04 0.50089756D+04 0.12417579D+01  3  4 12  3  5  1       -1 0.124579222618D-04 0.100000000000D+01
-.803463972756D-07 0.000000000000D+00 -.129502245786D-07 0.100311986765D-05 0.000000000000D+00  6 21 22 9900012 -13 1 -2 2 0.17441755D+00 0.16749706D-02 0.38279868D+04 0.38279868D+04 0.38279868D+04 0.12551206D+01  3  4  5  3  5  1       -1 -.137207892245D-04 0.100000000000D+01
  </mgrwgt>
  </event>
  <event>
  6     66 0.11438559E-05 0.37125260E+02 0.78161638E-02 0.10419827E+00
       -1 -1    0    0    0  501 0.00000000E+00 0.00000000E+00 0.17828779E+03 0.17828779E+03 0.00000000E+00 0.0000E+00 0.9000E+01
       22 -1    0    0    0    0 0.00000000E+00 0.00000000E+00 -.25868819E+02 0.25868819E+02 0.00000000E+00 0.0000E+00 0.9000E+01
       24  2    1    2    0    0 0.36650225E+02 0.59199628E+01 0.65046536E+02 0.10922386E+03 0.79501661E+02 0.0000E+00 0.0000E+00
  9900012  1    3    3    0    0 0.47669335E+02 0.59929966E+00 0.36431608E+02 0.78102412E+02 0.50000000E+02 0.0000E+00 0.9000E+01
      -13  1    3    3    0    0 -.11019110E+02 0.53206632E+01 0.28614927E+02 0.31121445E+02 0.00000000E+00 0.0000E+00 0.9000E+01
       -2  1    1    2    0  501 -.36650225E+02 -.59199628E+01 0.87372434E+02 0.94932751E+02 0.00000000E+00 0.0000E+00 0.9000E+01
#aMCatNLO 1  0  0  1  5 0.45778449D+02 0.00000000D+00  -5  6  0 0.00000000D+00 0.00000000D+00 0.00000000D+00 0.00000000D+00 0.00000000D+00
  <mgrwgt>
 0.1152890945D-03    3    2    0
 0.679124028135007D+02 0.000000000000000D+00 0.000000000000000D+00 0.679124028135007D+02
 0.679124028135007D+02 0.000000000000000D+00 0.000000000000000D+00 -.679124028135007D+02
 0.765122034317619D+02 0.476693346032564D+02 0.599299659547420D+00 -.328845351553610D+02
 0.146673559507121D+02 -.110191099613254D+02 0.532066315042191D+01 0.808709403215090D+01
 0.446452462445274D+02 -.366502246419309D+02 -.591996280996933D+01 0.247974411232101D+02
 0.000000000000000D+00 -.000000000000000D+00 -.000000000000000D+00 -.000000000000000D+00
 0.192482198257973D+03 0.000000000000000D+00 0.000000000000000D+00 0.192482198257973D+03
 0.270887020726641D+03 0.000000000000000D+00 0.000000000000000D+00 -.270887020726641D+03
 0.141312331275542D+03 0.516214531064296D+02 0.117145242743037D+03 -.328845351553610D+02
 0.338728261573308D+02 -.101384169204135D+02 0.312918482092026D+02 0.808709403215090D+01
 0.697729509597548D+02 -.345742680703795D+02 0.552989293456104D+02 0.247974411232101D+02
 0.218411110591987D+03 -.690876811563655D+01 -.203736020297850D+03 -.784048224686681D+02
0.766907630092D-06 0.000000000000D+00 0.000000000000D+00 0.374552194238D-06 0.000000000000D+00  6 -1 22 9900012 -13 -2 21 0 0.27428891D-01 0.39798182D-02 0.35073992D+04 0.35073992D+04 0.35073992D+04 0.12595621D+01  1  2  2  1  6  1       -1 0.142251734764D-03 0.100000000000D+01
-.864575729962D-09 0.000000000000D+00 -.147256361549D-08 0.374552194238D-06 0.000000000000D+00  6 -1 22 9900012 -13 -2 21 2 0.27428891D-01 0.39798182D-02 0.35073992D+04 0.35073992D+04 0.35073992D+04 0.12595621D+01  1  2  3  1  6  1       -1 -.254423191205D-06 0.100000000000D+01
-.907593216251D-07 0.000000000000D+00 0.000000000000D+00 0.374552194238D-06 0.000000000000D+00  6 -1 22 9900012 -13 -2 21 2 0.27428891D-01 0.39798182D-02 0.35073992D+04 0.35073992D+04 0.35073992D+04 0.12595621D+01  1  2 15  1  6  1       -1 -.267082170355D-04 0.100000000000D+01
  </mgrwgt>
  </event>
  <event>
  6     66 0.11438559E-05 0.44411806E+02 0.78161638E-02 0.12181108E+00
       -1 -1    0    0    0  501 0.00000000E+00 0.00000000E+00 0.62044561E+01 0.62044561E+01 0.00000000E+00 0.0000E+00 0.9000E+01
       22 -1    0    0    0    0 0.00000000E+00 0.00000000E+00 -.13782637E+04 0.13782637E+04 0.00000000E+00 0.0000E+00 0.9000E+01
       24  2    1    2    0    0 -.49010907E+02 -.14903171E+02 -.12262251E+04 0.12298985E+04 0.79988865E+02 0.0000E+00 0.0000E+00
  9900012  1    3    3    0    0 -.50162412E+02 -.29737260E+02 -.87735138E+03 0.88070768E+03 0.50000000E+02 0.0000E+00 0.9000E+01
      -13  1    3    3    0    0 0.11515041E+01 0.14834088E+02 -.34887367E+03 0.34919080E+03 0.00000000E+00 0.0000E+00 0.9000E+01
       -2  1    1    2    0  501 0.49010907E+02 0.14903171E+02 -.14583420E+03 0.15456969E+03 0.00000000E+00 0.0000E+00 0.9000E+01
#aMCatNLO 1  0  0  1  5 0.19907076D+02 0.00000000D+00  -5  6  0 0.00000000D+00 0.00000000D+00 0.00000000D+00 0.00000000D+00 0.00000000D+00
  <mgrwgt>
 0.5570845637D-04    6    4    0
 0.924736540203114D+02 0.000000000000000D+00 0.000000000000000D+00 0.924736540203114D+02
 0.924736540203114D+02 0.000000000000000D+00 0.000000000000000D+00 -.924736540203114D+02
 0.839896819988649D+02 -.501624115182979D+02 -.297372596600032D+02 -.339660792681896D+02
 0.257813812852615D+02 0.115150414575985D+01 0.148340884134434D+02 -.210547733333910D+02
 0.751762447564964D+02 0.490109073725380D+02 0.149031712465599D+02 0.550208526015807D+02
 0.000000000000000D+00 -.000000000000000D+00 0.000000000000000D+00 -.000000000000000D+00
 0.932175926024339D+02 0.000000000000000D+00 0.000000000000000D+00 0.932175926024339D+02
 0.102572077035344D+03 0.000000000000000D+00 0.000000000000000D+00 -.102572077035344D+03
 0.838851310937677D+02 -.487611557233389D+02 -.317075759131781D+02 -.339660792681896D+02
 0.254630239578661D+02 0.157924264019699D+01 0.142326421173924D+02 -.210547733333910D+02
 0.756758945914789D+02 0.502700744301160D+02 0.131326470296870D+02 0.550208526015807D+02
 0.107656199946653D+02 -.308816134697416D+01 0.434228676609860D+01 -.935448443291007D+01
 0.924736540203114D+02 0.000000000000000D+00 0.000000000000000D+00 0.924736540203114D+02
 0.924736540203114D+02 0.000000000000000D+00 0.000000000000000D+00 -.924736540203114D+02
 0.839896819988649D+02 -.501624115182979D+02 -.297372596600032D+02 -.339660792681896D+02
 0.257813812852615D+02 0.115150414575985D+01 0.148340884134434D+02 -.210547733333910D+02
 0.000000000000000D+00 -.000000000000000D+00 0.000000000000000D+00 -.000000000000000D+00
 0.751762447564964D+02 0.490109073725380D+02 0.149031712465599D+02 0.550208526015807D+02
 0.932175926024339D+02 0.000000000000000D+00 0.000000000000000D+00 0.932175926024339D+02
 0.102572077035344D+03 0.000000000000000D+00 0.000000000000000D+00 -.102572077035344D+03
 0.838851310937677D+02 -.487611557233389D+02 -.317075759131781D+02 -.339660792681896D+02
 0.254630239578661D+02 0.157924264019699D+01 0.142326421173924D+02 -.210547733333910D+02
 0.107656199946653D+02 -.308816134697416D+01 0.434228676609860D+01 -.935448443291007D+01
 0.756758945914789D+02 0.502700744301160D+02 0.131326470296870D+02 0.550208526015807D+02
0.992545568516D-06 0.000000000000D+00 0.000000000000D+00 0.753457576366D-06 0.000000000000D+00  6 -1 22 9900012 -13 -2 21 0 0.95453171D-03 0.21204057D+00 0.51065733D+04 0.51065733D+04 0.51065733D+04 0.12408155D+01  1  2  2  1  6  1       -1 0.342579997038D-04 0.100000000000D+01
0.677262996219D-08 0.000000000000D+00 -.190581816318D-08 0.753457576366D-06 0.000000000000D+00  6 -1 22 9900012 -13 -2 21 2 0.95453171D-03 0.21204057D+00 0.51065733D+04 0.51065733D+04 0.51065733D+04 0.12408155D+01  1  2  3  1  6  1       -1 0.359901199008D-06 0.100000000000D+01
-.125915225824D-06 0.000000000000D+00 0.000000000000D+00 0.753457576366D-06 0.000000000000D+00  6 -1 22 9900012 -13 -2 21 2 0.95453171D-03 0.21204057D+00 0.51065733D+04 0.51065733D+04 0.51065733D+04 0.12408155D+01  1  2 15  1  6  1       -1 -.669120282672D-05 0.100000000000D+01
0.480064096127D-06 0.000000000000D+00 0.000000000000D+00 0.753457576366D-06 0.000000000000D+00  6 -1 22 9900012 -13 -2 21 2 0.10672873D-02 0.21204057D+00 0.54986999D+04 0.54986999D+04 0.54986999D+04 0.12372240D+01  1  2 12  1  6  1       -1 0.219320468391D-04 0.100000000000D+01
-.304466025200D-07 0.000000000000D+00 0.000000000000D+00 0.753457576366D-06 0.000000000000D+00  6 -1 22 9900012 -13 -2 21 2 0.95453171D-03 0.21204057D+00 0.51065733D+04 0.51065733D+04 0.51065733D+04 0.12408155D+01  1  2  4  1  6  1       -1 -.161794883433D-05 0.100000000000D+01
0.857004410508D-08 0.000000000000D+00 0.000000000000D+00 0.753457576366D-06 0.000000000000D+00  6 21 22 9900012 -13 1 -2 2 0.10672873D-02 0.21204057D+00 0.54986999D+04 0.54986999D+04 0.54986999D+04 0.12372240D+01  3  4 12  3  5  1       -1 0.746766029022D-05 0.100000000000D+01
  </mgrwgt>
  </event>
  <event>
  7     66 -.11438559E-05 0.34568558E+02 0.78161638E-02 0.12513237E+00
       -1 -1    0    0    0  501 0.00000000E+00 0.00000000E+00 0.40937649E+02 0.40937649E+02 0.00000000E+00 0.0000E+00 0.9000E+01
       22 -1    0    0    0    0 -.00000000E+00 -.00000000E+00 -.28288927E+03 0.28288927E+03 0.00000000E+00 0.0000E+00 0.9000E+01
       24  2    1    2    0    0 -.20034185E+02 0.29194439E+02 -.24626003E+03 0.26127994E+03 0.79809274E+02 0.0000E+00 0.0000E+00
  9900012  1    3    3    0    0 -.57058207E+01 0.35136248E+02 -.23276046E+03 0.24071673E+03 0.50000000E+02 0.0000E+00 0.9000E+01
      -13  1    3    3    0    0 -.14328365E+02 -.59418089E+01 -.13499566E+02 0.20563205E+02 0.00000000E+00 0.0000E+00 0.9000E+01
       -2  1    1    2    0  502 0.28766981E+02 -.26530992E+02 0.20335558E+02 0.44101787E+02 0.00000000E+00 0.0000E+00 0.9000E+01
       21  1    1    2  502  501 -.87327953E+01 -.26634473E+01 -.16027150E+02 0.18445195E+02 0.00000000E+00 0.0000E+00 0.9000E+01
#aMCatNLO 2  0  0  5  1 0.15302557D+02 0.00000000D+00  -5  6  0 0.00000000D+00 0.00000000D+00 0.00000000D+00 0.00000000D+00 0.00000000D+00
  <mgrwgt>
 -.6033037509D-04    3    2    0
 0.107614226123821D+03 0.000000000000000D+00 0.000000000000000D+00 0.107614226123821D+03
 0.107614226123821D+03 -.000000000000000D+00 -.000000000000000D+00 -.107614226123821D+03
 0.106693840964296D+03 -.740303542193377D+01 0.376094822825800D+02 -.861063157305692D+02
 0.157175000016765D+02 -.145862169458594D+02 -.556605835414921D+01 0.181688632259445D+01
 0.928171112816682D+02 0.219892523677932D+02 -.320434239284308D+02 0.842894294079747D+02
 0.000000000000000D+00 -.000000000000000D+00 0.000000000000000D+00 0.000000000000000D+00
 0.107614226123821D+03 0.000000000000000D+00 0.000000000000000D+00 0.107614226123821D+03
 0.107614226123821D+03 -.000000000000000D+00 -.000000000000000D+00 -.107614226123821D+03
 0.100515458701675D+03 -.570582068707956D+01 0.351362480708445D+02 -.796005346703091D+02
 0.157631459105065D+02 -.143283645415947D+02 -.594180891458764D+01 0.280528882320802D+01
 0.892148167683507D+02 0.287669805727899D+02 -.265309918861754D+02 0.801738787216311D+02
 0.973503086710913D+01 -.873279534411565D+01 -.266344727008147D+01 -.337863287453005D+01
-.751367491793D-06 0.000000000000D+00 0.000000000000D+00 0.332623510915D-05 0.000000000000D+00  6 -1 22 9900012 -13 -2 21 2 0.62980999D-02 0.43521426D-01 0.39157419D+04 0.39157419D+04 0.39157419D+04 0.12539776D+01  1  2 13  2  6  5       -2 -.622917656742D-04 0.100000000000D+01
-.298118321294D-09 0.000000000000D+00 0.000000000000D+00 0.332623510915D-05 0.000000000000D+00  6 -1 22 9900012 -13 -2 21 2 0.62980999D-02 0.43521426D-01 0.34502129D+04 0.34502129D+04 0.34502129D+04 0.12604024D+01  1  2  8  2  6  5       -2 -.246404439951D-07 0.100000000000D+01
0.239556406732D-07 0.000000000000D+00 0.000000000000D+00 0.332623510915D-05 0.540394210057D-08  6 -1 22 9900012 -13 -2 21 2 0.62980999D-02 0.43521426D-01 0.39157419D+04 0.39157419D+04 0.39157419D+04 0.12539776D+01  1  2  1  2  6  5       -2 0.198603103233D-05 0.100000000000D+01
  </mgrwgt>
  </event>
  <event>
  6     66 0.11438559E-05 0.74240258E+02 0.78161638E-02 0.11120228E+00
       -3 -1    0    0    0  501 0.00000000E+00 0.00000000E+00 0.93496262E+02 0.93496262E+02 0.00000000E+00 0.0000E+00 0.9000E+01
       22 -1    0    0    0    0 0.00000000E+00 0.00000000E+00 -.37682474E+03 0.37682474E+03 0.00000000E+00 0.0000E+00 0.9000E+01
       24  2    1    2    0    0 0.54871542E+02 0.85639202E+02 -.33291135E+03 0.35716880E+03 0.79966437E+02 0.0000E+00 0.0000E+00
  9900012  1    3    3    0    0 0.28193376E+02 0.49100298E+02 -.14058349E+03 0.15959143E+03 0.50000000E+02 0.0000E+00 0.9000E+01
      -13  1    3    3    0    0 0.26678166E+02 0.36538904E+02 -.19232785E+03 0.19757738E+03 0.00000000E+00 0.0000E+00 0.9000E+01
       -4  1    1    2    0  501 -.54871542E+02 -.85639202E+02 0.49582868E+02 0.11315220E+03 0.00000000E+00 0.0000E+00 0.9000E+01
#aMCatNLO 1  0  0  1  5 0.81309954D+02 0.00000000D+00  -5  6  0 0.00000000D+00 0.00000000D+00 0.00000000D+00 0.00000000D+00 0.00000000D+00
  <mgrwgt>
 0.4452248137D-04    6    4    0
 0.187701104376716D+03 0.000000000000000D+00 0.000000000000000D+00 0.187701104376716D+03
 0.187701104376716D+03 0.000000000000000D+00 0.000000000000000D+00 -.187701104376716D+03
 0.938404005367866D+02 0.281933755946537D+02 0.491002975219589D+02 -.556804734959971D+02
 0.102377743662758D+03 0.266781663468951D+02 0.365389043152912D+02 -.918389150049302D+02
 0.179184064553888D+03 -.548715419415488D+02 -.856392018372501D+02 0.147519388500927D+03
 0.000000000000000D+00 -.000000000000000D+00 -.000000000000000D+00 -.000000000000000D+00
 0.207601487471205D+03 0.000000000000000D+00 0.000000000000000D+00 0.207601487471205D+03
 0.222754559572760D+03 0.000000000000000D+00 0.000000000000000D+00 -.222754559572760D+03
 0.101697179771618D+03 0.378645461898074D+02 0.575176267469565D+02 -.556804734959971D+02
 0.109071585850477D+03 0.371363224452167D+02 0.456411884803643D+02 -.918389150049302D+02
 0.167875303874219D+03 -.377061952423584D+02 -.706992963721646D+02 0.147519388500927D+03
 0.517119775476510D+02 -.372946733926657D+02 -.324595188551563D+02 -.151530721015546D+02
 0.187701104376716D+03 0.000000000000000D+00 0.000000000000000D+00 0.187701104376716D+03
 0.187701104376716D+03 0.000000000000000D+00 0.000000000000000D+00 -.187701104376716D+03
 0.938404005367866D+02 0.281933755946537D+02 0.491002975219589D+02 -.556804734959971D+02
 0.102377743662758D+03 0.266781663468951D+02 0.365389043152912D+02 -.918389150049302D+02
 0.000000000000000D+00 -.000000000000000D+00 -.000000000000000D+00 -.000000000000000D+00
 0.179184064553888D+03 -.548715419415488D+02 -.856392018372501D+02 0.147519388500927D+03
 0.207601487471205D+03 0.000000000000000D+00 0.000000000000000D+00 0.207601487471205D+03
 0.222754559572760D+03 0.000000000000000D+00 0.000000000000000D+00 -.222754559572760D+03
 0.101697179771618D+03 0.378645461898074D+02 0.575176267469565D+02 -.556804734959971D+02
 0.109071585850477D+03 0.371363224452167D+02 0.456411884803643D+02 -.918389150049302D+02
 0.517119775476510D+02 -.372946733926657D+02 -.324595188551563D+02 -.151530721015546D+02
 0.167875303874219D+03 -.377061952423584D+02 -.706992963721646D+02 0.147519388500927D+03
0.622590178099D-05 0.000000000000D+00 0.000000000000D+00 0.608091670613D-05 0.000000000000D+00  6 -3 22 9900012 -13 -4 21 0 0.14384040D-01 0.57973037D-01 0.12375233D+05 0.12375233D+05 0.12375233D+05 0.11998539D+01  1  2  2  1  6  1       -3 0.526089573832D-04 0.100000000000D+01
0.196235980322D-08 0.000000000000D+00 -.119545510783D-07 0.608091670613D-05 0.000000000000D+00  6 -3 22 9900012 -13 -4 21 2 0.14384040D-01 0.57973037D-01 0.12375233D+05 0.12375233D+05 0.12375233D+05 0.11998539D+01  1  2  3  1  6  1       -3 0.238722212456D-07 0.100000000000D+01
-.886627818184D-06 0.000000000000D+00 0.000000000000D+00 0.608091670613D-05 0.000000000000D+00  6 -3 22 9900012 -13 -4 21 2 0.14384040D-01 0.57973037D-01 0.12375233D+05 0.12375233D+05 0.12375233D+05 0.11998539D+01  1  2 15  1  6  1       -3 -.107858790235D-04 0.100000000000D+01
0.391737384359D-06 0.000000000000D+00 0.000000000000D+00 0.608091670613D-05 0.000000000000D+00  6 -3 22 9900012 -13 -4 21 2 0.18880100D-01 0.57973037D-01 0.18701719D+05 0.18701719D+05 0.18701719D+05 0.11821206D+01  1  2 12  1  6  1       -3 0.300212450319D-05 0.100000000000D+01
-.172285165986D-06 0.000000000000D+00 0.000000000000D+00 0.608091670613D-05 0.000000000000D+00  6 -3 22 9900012 -13 -4 21 2 0.14384040D-01 0.57973037D-01 0.12375233D+05 0.12375233D+05 0.12375233D+05 0.11998539D+01  1  2  4  1  6  1       -3 -.209585907386D-05 0.100000000000D+01
0.141031184262D-07 0.000000000000D+00 0.000000000000D+00 0.608091670613D-05 0.000000000000D+00  6 21 22 9900012 -13 3 -4 2 0.18880100D-01 0.57973037D-01 0.18701719D+05 0.18701719D+05 0.18701719D+05 0.11821206D+01  3  4 12  3  5  1       -3 0.176926536092D-05 0.100000000000D+01
  </mgrwgt>
  </event>
  <event>
  6     66 0.11438559E-05 0.23954829E+02 0.78161638E-02 0.12897749E+00
       -1 -1    0    0    0  501 0.00000000E+00 0.00000000E+00 0.20920844E+04 0.20920844E+04 0.00000000E+00 0.0000E+00 0.9000E+01
       22 -1    0    0    0    0 0.00000000E+00 0.00000000E+00 -.10093181E+02 0.10093181E+02 0.00000000E+00 0.0000E+00 0.9000E+01
       24  2    1    2    0    0 -.11097617E+02 0.21229148E+02 0.16490792E+03 0.18494462E+03 0.80225047E+02 0.0000E+00 0.0000E+00
  9900012  1    3    3    0    0 0.52241531E+01 0.32790249E+02 0.14401108E+03 0.15601821E+03 0.50000000E+02 0.0000E+00 0.9000E+01
      -13  1    3    3    0    0 -.16321770E+02 -.11561101E+02 0.20896839E+02 0.28926409E+02 0.00000000E+00 0.0000E+00 0.9000E+01
       -2  1    1    2    0  501 0.11097617E+02 -.21229148E+02 0.19170833E+04 0.19172330E+04 0.00000000E+00 0.0000E+00 0.9000E+01
#aMCatNLO 1  0  0  1  5 0.12169617D+01 0.00000000D+00  -5  6  0 0.00000000D+00 0.00000000D+00 0.00000000D+00 0.00000000D+00 0.00000000D+00
  <mgrwgt>
 0.3590883144D-04    7    4    0
 0.145312719709175D+03 0.000000000000000D+00 0.000000000000000D+00 0.145312719709175D+03
 0.145312719709175D+03 0.000000000000000D+00 0.000000000000000D+00 -.145312719709175D+03
 0.968538396359494D+02 0.522415308399463D+01 0.327902491278762D+02 -.760143015419664D+02
 0.595316515753556D+02 -.163217704763106D+02 -.115611007580009D+02 -.560710112007223D+02
 0.134239948207046D+03 0.110976173923160D+02 -.212291483698754D+02 0.132085312742689D+03
 0.000000000000000D+00 -.000000000000000D+00 -.000000000000000D+00 0.000000000000000D+00
 0.241800745761763D+03 0.000000000000000D+00 0.000000000000000D+00 0.241800745761763D+03
 0.157225935980825D+03 0.000000000000000D+00 0.000000000000000D+00 -.157225935980825D+03
 0.103689623474337D+03 0.207368591616532D+02 0.452033920126182D+02 -.760143015419664D+02
 0.567163132021715D+02 -.732960248563383D+01 -.436564011089744D+01 -.560710112007223D+02
 0.135980935621314D+03 0.320001044734790D+02 -.450314598924399D+01 0.132085312742689D+03
 0.102639809444766D+03 -.454073611494983D+02 -.363346059124768D+02 0.845748097809388D+02
 0.145312719709175D+03 0.000000000000000D+00 0.000000000000000D+00 0.145312719709175D+03
 0.145312719709175D+03 0.000000000000000D+00 0.000000000000000D+00 -.145312719709175D+03
 0.968538396359494D+02 0.522415308399463D+01 0.327902491278762D+02 -.760143015419664D+02
 0.595316515753556D+02 -.163217704763106D+02 -.115611007580009D+02 -.560710112007223D+02
 0.000000000000000D+00 -.000000000000000D+00 -.000000000000000D+00 0.000000000000000D+00
 0.134239948207046D+03 0.110976173923160D+02 -.212291483698754D+02 0.132085312742689D+03
 0.241800745761763D+03 0.000000000000000D+00 0.000000000000000D+00 0.241800745761763D+03
 0.157225935980825D+03 0.000000000000000D+00 0.000000000000000D+00 -.157225935980825D+03
 0.103689623474337D+03 0.207368591616532D+02 0.452033920126182D+02 -.760143015419664D+02
 0.567163132021715D+02 -.732960248563383D+01 -.436564011089744D+01 -.560710112007223D+02
 0.102639809444766D+03 -.454073611494983D+02 -.363346059124768D+02 0.845748097809388D+02
 0.135980935621314D+03 0.320001044734790D+02 -.450314598924399D+01 0.132085312742689D+03
0.177228632016D-04 0.000000000000D+00 0.000000000000D+00 0.107625783117D-04 0.000000000000D+00  6 -1 22 9900012 -13 -2 21 0 0.32185914D+00 0.15527971D-02 0.27028080D+04 0.27028080D+04 0.27028080D+04 0.12730982D+01  1  2  2  1  6  1       -1 0.193924663615D-04 0.100000000000D+01
0.180685291623D-05 0.000000000000D+00 -.340302306157D-07 0.107625783117D-04 0.000000000000D+00  6 -1 22 9900012 -13 -2 21 2 0.32185914D+00 0.15527971D-02 0.27028080D+04 0.27028080D+04 0.27028080D+04 0.12730982D+01  1  2  3  1  6  1       -1 0.320439275217D-05 0.100000000000D+01
-.264978332238D-05 0.000000000000D+00 0.000000000000D+00 0.107625783117D-04 0.000000000000D+00  6 -1 22 9900012 -13 -2 21 2 0.32185914D+00 0.15527971D-02 0.27028080D+04 0.27028080D+04 0.27028080D+04 0.12730982D+01  1  2 15  1  6  1       -1 -.469930141894D-05 0.100000000000D+01
-.398930264939D-06 0.000000000000D+00 0.000000000000D+00 0.107625783117D-04 0.000000000000D+00  6 -1 22 9900012 -13 -2 21 2 0.32185914D+00 0.15527971D-02 0.27028080D+04 0.27028080D+04 0.27028080D+04 0.12730982D+01  1  2  4  1  6  1       -1 -.707489380075D-06 0.100000000000D+01
-.903277373455D-05 0.000000000000D+00 -.399411882925D-05 0.107625783117D-04 0.000000000000D+00  6 -1 22 9900012 -13 -2 21 2 0.54422963D+00 0.15527971D-02 0.27028080D+04 0.27028080D+04 0.27028080D+04 0.12730982D+01  1  2  5  1  6  1       -1 0.112331643752D-05 0.100000000000D+01
0.101868824971D-04 0.000000000000D+00 0.350008680682D-05 0.107625783117D-04 0.000000000000D+00  6 -1 22 9900012 -13 -2 21 2 0.32185914D+00 0.15527971D-02 0.27028080D+04 0.27028080D+04 0.27028080D+04 0.12730982D+01  1  2  6  1  6  1       -1 0.180660927891D-04 0.100000000000D+01
-.339680470161D-06 0.000000000000D+00 -.234281229766D-06 0.107625783117D-04 0.000000000000D+00  6 21 22 9900012 -13 1 -2 2 0.54422963D+00 0.15527971D-02 0.27028080D+04 0.27028080D+04 0.27028080D+04 0.12730982D+01  3  4  5  3  5  1       -1 -.470646105116D-06 0.100000000000D+01
  </mgrwgt>
  </event>
  <event>
  7     66 0.11438559E-05 0.10796348E+02 0.78161638E-02 0.12773257E+00
       -1 -1    0    0    0  501 0.00000000E+00 0.00000000E+00 0.16497308E+02 0.16497308E+02 0.00000000E+00 0.0000E+00 0.9000E+01
       22 -1    0    0    0    0 -.00000000E+00 -.00000000E+00 -.32438830E+03 0.32438830E+03 0.00000000E+00 0.0000E+00 0.9000E+01
       24  2    1    2    0    0 -.16674205E+02 0.42986386E+01 -.11112433E+03 0.13858335E+03 0.80995185E+02 0.0000E+00 0.0000E+00
  9900012  1    3    3    0    0 -.59416884E+01 -.19566176E+02 -.57380151E+02 0.78807491E+02 0.50000000E+02 0.0000E+00 0.9000E+01
      -13  1    3    3    0    0 -.10732517E+02 0.23864814E+02 -.53744178E+02 0.59775856E+02 0.00000000E+00 0.0000E+00 0.9000E+01
       -2  1    1    2    0  502 0.16645421E+01 -.12747322E+02 -.16991828E+03 0.17040389E+03 0.00000000E+00 0.0000E+00 0.9000E+01
       21  1    1    2  502  501 0.15009663E+02 0.84486834E+01 -.26848387E+02 0.31898372E+02 0.00000000E+00 0.0000E+00 0.9000E+01
#aMCatNLO 2  0  0  5  1 0.20247067D+02 0.00000000D+00  -5  6  0 0.00000000D+00 0.00000000D+00 0.00000000D+00 0.00000000D+00 0.00000000D+00
  <mgrwgt>
 0.5005077643D-04    2    2    0
 0.731541775757490D+02 0.000000000000000D+00 0.000000000000000D+00 0.731541775757490D+02
 0.731541775757490D+02 -.000000000000000D+00 -.000000000000000D+00 -.731541775757490D+02
 0.678906673827098D+02 -.103351501888185D+02 -.184335335622124D+02 0.407741612869608D+02
 0.276826675441570D+02 -.125421241642164D+02 0.243313340682856D+02 0.412448618220327D+01
 0.507350202246312D+02 0.228772743530349D+02 -.589780050607320D+01 -.448986474691641D+02
 0.000000000000000D+00 0.000000000000000D+00 0.000000000000000D+00 0.000000000000000D+00
 0.731541775757490D+02 0.000000000000000D+00 0.000000000000000D+00 0.731541775757490D+02
 0.731541775757490D+02 -.000000000000000D+00 -.000000000000000D+00 -.731541775757490D+02
 0.628638596988290D+02 -.594168841917132D+01 -.195661755303322D+02 0.321516091367100D+02
 0.261733560168478D+02 -.107325166052144D+02 0.238648141405801D+02 0.572973419128438D+00
 0.394504255959651D+02 0.166454208226008D+01 -.127473220512410D+02 -.372970663709777D+02
 0.178207138398561D+02 0.150096629421256D+02 0.844868344099304D+01 0.457248381513923D+01
-.111447914033D-06 0.000000000000D+00 0.000000000000D+00 0.124295261144D-06 0.000000000000D+00  6 -1 22 9900012 -13 -2 21 2 0.25380474D-02 0.49905893D-01 0.30396776D+04 0.30396776D+04 0.30396776D+04 0.12669392D+01  1  2 13  2  6  5       -2 -.265786827260D-04 0.100000000000D+01
0.321317405555D-06 0.000000000000D+00 0.000000000000D+00 0.124295261144D-06 0.606013383661D-08  6 -1 22 9900012 -13 -2 21 2 0.25380474D-02 0.49905893D-01 0.30396776D+04 0.30396776D+04 0.30396776D+04 0.12669392D+01  1  2  1  2  6  5       -2 0.766294591578D-04 0.100000000000D+01
  </mgrwgt>
  </event>
  <event>
  6     66 0.11438559E-05 0.19995345E+02 0.78161638E-02 0.12795264E+00
       -1 -1    0    0    0  501 0.00000000E+00 0.00000000E+00 0.50232058E+02 0.50232058E+02 0.00000000E+00 0.0000E+00 0.9000E+01
       22 -1    0    0    0    0 0.00000000E+00 0.00000000E+00 -.16152556E+03 0.16152556E+03 0.00000000E+00 0.0000E+00 0.9000E+01
       24  2    1    2    0    0 -.17131410E+02 0.10311577E+02 -.14735484E+03 0.17052372E+03 0.83457025E+02 0.0000E+00 0.0000E+00
  9900012  1    3    3    0    0 -.26282588E+02 -.23418076E+01 -.62634252E+02 0.84375992E+02 0.50000000E+02 0.0000E+00 0.9000E+01
      -13  1    3    3    0    0 0.91511781E+01 0.12653384E+02 -.84720592E+02 0.86147727E+02 0.00000000E+00 0.0000E+00 0.9000E+01
       -2  1    1    2    0  501 0.17131410E+02 -.10311577E+02 0.36061343E+02 0.41233897E+02 0.00000000E+00 0.0000E+00 0.9000E+01
#aMCatNLO 1  0  0  1  5 0.16134583D+02 0.00000000D+00  -5  6  0 0.00000000D+00 0.00000000D+00 0.00000000D+00 0.00000000D+00 0.00000000D+00
  <mgrwgt>
 0.5244639762D-04    9    4    0
 0.900764185099830D+02 0.000000000000000D+00 0.000000000000000D+00 0.900764185099830D+02
 0.900764185099830D+02 0.000000000000000D+00 0.000000000000000D+00 -.900764185099830D+02
 0.604846081180567D+02 -.262825884250934D+02 -.234180755381578D+01 -.214971928923972D+02
 0.489228270392622D+02 0.915117810981861D+01 0.126533843517044D+02 -.463636798492525D+02
 0.707454018626471D+02 0.171314103152748D+02 -.103115767978886D+02 0.678608727416497D+02
 0.000000000000000D+00 0.000000000000000D+00 -.000000000000000D+00 0.000000000000000D+00
 0.138126180929998D+03 0.000000000000000D+00 0.000000000000000D+00 0.138126180929998D+03
 0.917327705528696D+02 0.000000000000000D+00 0.000000000000000D+00 -.917327705528696D+02
 0.605875282486522D+02 -.264569328841840D+02 0.295803640783542D+01 -.214971928923972D+02
 0.501943893890174D+02 0.900844884110879D+01 0.169921677972366D+02 -.463636798492525D+02
 0.700634077246575D+02 0.169286449517535D+02 -.414777444308216D+01 0.678608727416497D+02
 0.490136261205401D+02 0.519839091321699D+00 -.158024297619898D+02 0.463934103771280D+02
 0.900764185099830D+02 0.000000000000000D+00 0.000000000000000D+00 0.900764185099830D+02
 0.900764185099830D+02 0.000000000000000D+00 0.000000000000000D+00 -.900764185099830D+02
 0.604846081180567D+02 -.262825884250934D+02 -.234180755381578D+01 -.214971928923972D+02
 0.489228270392622D+02 0.915117810981861D+01 0.126533843517044D+02 -.463636798492525D+02
 0.000000000000000D+00 0.000000000000000D+00 -.000000000000000D+00 0.000000000000000D+00
 0.707454018626471D+02 0.171314103152748D+02 -.103115767978886D+02 0.678608727416497D+02
 0.138126180929998D+03 0.000000000000000D+00 0.000000000000000D+00 0.138126180929998D+03
 0.917327705528696D+02 0.000000000000000D+00 0.000000000000000D+00 -.917327705528696D+02
 0.605875282486522D+02 -.264569328841840D+02 0.295803640783542D+01 -.214971928923972D+02
 0.501943893890174D+02 0.900844884110879D+01 0.169921677972366D+02 -.463636798492525D+02
 0.490136261205401D+02 0.519839091321699D+00 -.158024297619898D+02 0.463934103771280D+02
 0.700634077246575D+02 0.169286449517535D+02 -.414777444308216D+01 0.678608727416497D+02
0.916681821226D-07 0.000000000000D+00 0.000000000000D+00 0.121039872248D-06 0.000000000000D+00  6 -1 22 9900012 -13 -2 21 0 0.77280089D-02 0.24850086D-01 0.21227478D+04 0.21227478D+04 0.21227478D+04 0.12860528D+01  1  2  2  1  6  1       -1 0.805160056857D-05 0.100000000000D+01
0.758246277357D-08 0.000000000000D+00 -.176014978069D-09 0.121039872248D-06 0.000000000000D+00  6 -1 22 9900012 -13 -2 21 2 0.77280089D-02 0.24850086D-01 0.21227478D+04 0.21227478D+04 0.21227478D+04 0.12860528D+01  1  2  3  1  6  1       -1 0.110151778409D-05 0.100000000000D+01
-.136466105492D-07 0.000000000000D+00 0.000000000000D+00 0.121039872248D-06 0.000000000000D+00  6 -1 22 9900012 -13 -2 21 2 0.77280089D-02 0.24850086D-01 0.21227478D+04 0.21227478D+04 0.21227478D+04 0.12860528D+01  1  2 15  1  6  1       -1 -.198246726181D-05 0.100000000000D+01
0.402941278298D-06 0.000000000000D+00 0.000000000000D+00 0.121039872248D-06 0.000000000000D+00  6 -1 22 9900012 -13 -2 21 2 0.12068295D-01 0.24850086D-01 0.29767024D+04 0.29767024D+04 0.29767024D+04 0.12680301D+01  1  2 12  1  6  1       -1 0.308684118756D-04 0.100000000000D+01
-.811094707888D-07 0.000000000000D+00 0.000000000000D+00 0.121039872248D-06 0.000000000000D+00  6 -1 22 9900012 -13 -2 21 2 0.77280089D-02 0.24850086D-01 0.21227478D+04 0.21227478D+04 0.21227478D+04 0.12860528D+01  1  2  4  1  6  1       -1 -.117829163426D-04 0.100000000000D+01
-.402304352614D-06 0.000000000000D+00 -.332966229255D-07 0.121039872248D-06 0.000000000000D+00  6 -1 22 9900012 -13 -2 21 2 0.12025477D-01 0.24850086D-01 0.21227478D+04 0.21227478D+04 0.21227478D+04 0.12860528D+01  1  2  5  1  6  1       -1 -.307979519833D-04 0.100000000000D+01
0.382072801471D-06 0.000000000000D+00 0.302871921759D-07 0.121039872248D-06 0.000000000000D+00  6 -1 22 9900012 -13 -2 21 2 0.77280089D-02 0.24850086D-01 0.21227478D+04 0.21227478D+04 0.21227478D+04 0.12860528D+01  1  2  6  1  6  1       -1 0.555043919376D-04 0.100000000000D+01
0.207883394282D-07 0.000000000000D+00 0.000000000000D+00 0.121039872248D-06 0.000000000000D+00  6 21 22 9900012 -13 1 -2 2 0.12068295D-01 0.24850086D-01 0.29767024D+04 0.29767024D+04 0.29767024D+04 0.12680301D+01  3  4 12  3  5  1       -1 0.222834516602D-04 0.100000000000D+01
-.193342841181D-07 0.000000000000D+00 -.170747305294D-08 0.121039872248D-06 0.000000000000D+00  6 21 22 9900012 -13 1 -2 2 0.12025477D-01 0.24850086D-01 0.21227478D+04 0.21227478D+04 0.21227478D+04 0.12860528D+01  3  4  5  3  5  1       -1 -.207996406199D-04 0.100000000000D+01
  </mgrwgt>
  </event>
  <event>
  6     66 0.11438559E-05 0.49231046E+02 0.78161638E-02 0.11643876E+00
       -3 -1    0    0    0  501 0.00000000E+00 0.00000000E+00 0.46815542E+02 0.46815542E+02 0.00000000E+00 0.0000E+00 0.9000E+01
       22 -1    0    0    0    0 -.00000000E+00 -.00000000E+00 -.30498393E+03 0.30498393E+03 0.00000000E+00 0.0000E+00 0.9000E+01
       24  2    1    2    0    0 0.61618575E+02 -.69618507E+02 -.22225985E+03 0.25213499E+03 0.74357431E+02 0.0000E+00 0.0000E+00
  9900012  1    3    3    0    0 0.59338369E+02 -.53905438E+02 -.21465827E+03 0.23453147E+03 0.50000000E+02 0.0000E+00 0.9000E+01
      -13  1    3    3    0    0 0.22802063E+01 -.15713069E+02 -.76015789E+01 0.17603519E+02 0.00000000E+00 0.0000E+00 0.9000E+01
       -4  1    1    2    0  501 -.61618575E+02 0.69618507E+02 -.35908537E+02 0.99664479E+02 0.00000000E+00 0.0000E+00 0.9000E+01
#aMCatNLO 1  0  0  5  1 0.39416686D+02 0.00000000D+00  -5  6  0 0.00000000D+00 0.00000000D+00 0.00000000D+00 0.00000000D+00 0.00000000D+00
  <mgrwgt>
 0.5394336581D-04    4    2    0
 0.119490534244474D+03 0.000000000000000D+00 0.000000000000000D+00 0.119490534244474D+03
 0.119490534244474D+03 -.000000000000000D+00 -.000000000000000D+00 -.119490534244474D+03
 0.113356544477470D+03 0.593383690722346D+02 -.539054384206665D+02 -.626328016329757D+02
 0.177019094297849D+02 0.228020632726876D+01 -.157130688812135D+02 0.782673130365618D+01
 0.107922614581692D+03 -.616185753995034D+02 0.696185073018800D+02 0.548060703293196D+02
 0.000000000000000D+00 0.000000000000000D+00 -.000000000000000D+00 0.000000000000000D+00
 0.119490534244474D+03 0.000000000000000D+00 0.000000000000000D+00 0.119490534244474D+03
 0.119490534244474D+03 -.000000000000000D+00 -.000000000000000D+00 -.119490534244474D+03
 0.995214449507582D+02 0.502487757414536D+02 -.436357443297642D+02 -.545481471578949D+02
 0.167784483125905D+02 0.807943127959905D+00 -.140496619357131D+02 0.913622214990577D+01
 0.401815330265234D+02 0.858073954141044D+01 0.383831414752753D+02 -.822562798654674D+01
 0.824996421990755D+02 -.596374584108239D+02 0.193022647902020D+02 0.536375529945359D+02
0.152996689974D-05 0.000000000000D+00 0.000000000000D+00 0.297175717191D-07 0.000000000000D+00  6 -3 22 9900012 -13 -4 21 0 0.72023911D-02 0.46920604D-01 0.10335822D+05 0.10335822D+05 0.10335822D+05 0.12078460D+01  1  2  2  2  6  5       -4 0.553110095257D-04 0.100000000000D+01
-.307759312097D-07 0.000000000000D+00 -.293773787228D-08 0.297175717191D-07 0.000000000000D+00  6 -3 22 9900012 -13 -4 21 2 0.72023911D-02 0.46920604D-01 0.10335822D+05 0.10335822D+05 0.10335822D+05 0.12078460D+01  1  2  3  2  6  5       -4 -.162316960148D-05 0.100000000000D+01
-.205625928231D-06 0.000000000000D+00 0.000000000000D+00 0.297175717191D-07 0.000000000000D+00  6 -3 22 9900012 -13 -4 21 2 0.72023911D-02 0.46920604D-01 0.10335822D+05 0.10335822D+05 0.10335822D+05 0.12078460D+01  1  2 15  2  6  5       -4 -.108450254098D-04 0.100000000000D+01
0.210658618139D-06 0.000000000000D+00 0.000000000000D+00 0.297175717191D-07 0.000000000000D+00  6 -3 22 9900012 -13 -4 21 2 0.72023911D-02 0.46920604D-01 0.99328669D+04 0.99328669D+04 0.99328669D+04 0.12096332D+01  1  2 12  2  6  5       -4 0.111005512953D-04 0.100000000000D+01
  </mgrwgt>
  </event>
  <event>
  6     66 0.11438559E-05 0.29374691E+02 0.78161638E-02 0.12652216E+00
       -3 -1    0    0    0  501 0.00000000E+00 0.00000000E+00 0.66740802E+02 0.66740802E+02 0.00000000E+00 0.0000E+00 0.9000E+01
       22 -1    0    0    0    0 -.00000000E+00 -.00000000E+00 -.40261144E+03 0.40261144E+03 0.00000000E+00 0.0000E+00 0.9000E+01
       24  2    1    2    0    0 -.26129194E+02 -.13421537E+02 -.39451328E+03 0.40376389E+03 0.80756946E+02 0.0000E+00 0.0000E+00
  9900012  1    3    3    0    0 -.26498935E+02 0.10845984E+02 -.32661504E+03 0.33165828E+03 0.50000000E+02 0.0000E+00 0.9000E+01
      -13  1    3    3    0    0 0.36974118E+00 -.24267522E+02 -.67898232E+02 0.72105612E+02 0.00000000E+00 0.0000E+00 0.9000E+01
       -4  1    1    2    0  501 0.26129194E+02 0.13421537E+02 0.58642638E+02 0.65588348E+02 0.00000000E+00 0.0000E+00 0.9000E+01
#aMCatNLO 1  0  0  5  1 0.45032468D+01 0.00000000D+00  -5  6  0 0.00000000D+00 0.00000000D+00 0.00000000D+00 0.00000000D+00 0.00000000D+00
  <mgrwgt>
 0.5785413082D-04    8    2    0
 0.163922574377688D+03 0.000000000000000D+00 0.000000000000000D+00 0.163922574377688D+03
 0.163922574377688D+03 -.000000000000000D+00 -.000000000000000D+00 -.163922574377688D+03
 0.140200808508800D+03 -.264989354990326D+02 0.108459843513488D+02 -.127814074918960D+03
 0.336680534473736D+02 0.369741180763265D+00 -.242675216764266D+02 -.233342774921063D+02
 0.153976286799202D+03 0.261291943182694D+02 0.134215373250779D+02 0.151148352411066D+03
 0.000000000000000D+00 0.000000000000000D+00 0.000000000000000D+00 0.000000000000000D+00
 0.163922574377688D+03 0.000000000000000D+00 0.000000000000000D+00 0.163922574377688D+03
 0.163922574377688D+03 -.000000000000000D+00 -.000000000000000D+00 -.163922574377688D+03
 0.139352881234610D+03 -.263424874469796D+02 0.109263455498032D+02 -.126909077045022D+03
 0.335041659439188D+02 0.407333111263257D+00 -.242482121832910D+02 -.231168211752442D+02
 0.150096187971624D+03 0.264616236178044D+02 0.169359250108933D+02 0.146771327455836D+03
 0.489191360522267D+01 -.526469282088053D+00 -.361405837740554D+01 0.325457076443041D+01
0.249292693420D-05 0.000000000000D+00 0.000000000000D+00 0.119488553633D-04 0.000000000000D+00  6 -3 22 9900012 -13 -4 21 0 0.10267816D-01 0.61940222D-01 0.30948630D+04 0.30948630D+04 0.30948630D+04 0.12660041D+01  1  2  2  2  6  5       -4 0.287489712704D-04 0.100000000000D+01
0.200575029240D-06 0.000000000000D+00 -.478674791502D-08 0.119488553633D-04 0.000000000000D+00  6 -3 22 9900012 -13 -4 21 2 0.10267816D-01 0.61940222D-01 0.30948630D+04 0.30948630D+04 0.30948630D+04 0.12660041D+01  1  2  3  2  6  5       -4 0.370731787316D-05 0.100000000000D+01
-.345572406019D-06 0.000000000000D+00 0.000000000000D+00 0.119488553633D-04 0.000000000000D+00  6 -3 22 9900012 -13 -4 21 2 0.10267816D-01 0.61940222D-01 0.30948630D+04 0.30948630D+04 0.30948630D+04 0.12660041D+01  1  2 15  2  6  5       -4 -.638736916632D-05 0.100000000000D+01
0.890531911860D-06 0.000000000000D+00 0.000000000000D+00 0.119488553633D-04 0.000000000000D+00  6 -3 22 9900012 -13 -4 21 2 0.10267816D-01 0.61940222D-01 0.34153769D+04 0.34153769D+04 0.34153769D+04 0.12609220D+01  1  2 12  2  6  5       -4 0.164899871845D-04 0.100000000000D+01
-.495495544975D-06 0.000000000000D+00 0.000000000000D+00 0.119488553633D-04 0.000000000000D+00  6 -3 22 9900012 -13 -4 21 2 0.10267816D-01 0.61940222D-01 0.30948630D+04 0.30948630D+04 0.30948630D+04 0.12660041D+01  1  2  4  2  6  5       -4 -.915846552242D-05 0.100000000000D+01
-.262876877630D-04 0.000000000000D+00 0.000000000000D+00 0.119488553633D-04 0.000000000000D+00  6 -3 22 9900012 -13 -4 21 2 0.10267816D-01 0.61940222D-01 0.30948630D+04 0.30948630D+04 0.30948630D+04 0.12660041D+01  1  2  5  2  6  5       -4 -.485887077054D-03 0.100000000000D+01
0.271361225259D-04 0.000000000000D+00 -.000000000000D+00 0.119488553633D-04 0.000000000000D+00  6 -3 22 9900012 -13 -4 21 2 0.10267816D-01 0.61940222D-01 0.30948630D+04 0.30948630D+04 0.30948630D+04 0.12660041D+01  1  2  6  2  6  5       -4 0.501569075819D-03 0.100000000000D+01
0.473709903475D-06 0.000000000000D+00 0.000000000000D+00 0.119488553633D-04 0.253540692043D-06  6 -3 22 9900012 -13 -4 21 2 0.10267816D-01 0.61940222D-01 0.34153769D+04 0.34153769D+04 0.34153769D+04 0.12609220D+01  1  2 11  2  6  5       -4 0.877169041719D-05 0.100000000000D+01
  </mgrwgt>
  </event>
  <event>
  5     66 0.11438559E-05 0.76167486E+02 0.78161638E-02 0.10657301E+00
       -3 -1    0    0    0  501 0.00000000E+00 0.00000000E+00 0.15643266E+03 0.15643266E+03 0.00000000E+00 0.0000E+00 0.9000E+01
       22 -1    0    0    0    0 0.00000000E+00 0.00000000E+00 -.30527462E+03 0.30527462E+03 0.00000000E+00 0.0000E+00 0.9000E+01
  9900012  1    1    2    0    0 0.13087484E+03 -.12436250E+02 -.11249464E+03 0.18010533E+03 0.50000000E+02 0.0000E+00 0.9000E+01
      -13  1    1    2    0    0 -.13972290E+03 -.63215570E+02 -.99373336E+02 0.18273959E+03 0.00000000E+00 0.0000E+00 0.9000E+01
       -4  1    1    2    0  501 0.88480570E+01 0.75651820E+02 0.63026027E+02 0.98862359E+02 0.00000000E+00 0.0000E+00 0.9000E+01
#aMCatNLO 1  0  0  1  5 0.34019378D+01 0.00000000D+00  -5  6  0 0.00000000D+00 0.00000000D+00 0.00000000D+00 0.00000000D+00 0.00000000D+00
  <mgrwgt>
 0.5419517971D-04    7    4    0
 0.218528993070365D+03 0.000000000000000D+00 0.000000000000000D+00 0.218528993070365D+03
 0.218528993070365D+03 0.000000000000000D+00 0.000000000000000D+00 -.218528993070365D+03
 0.151952420740490D+03 0.130874843211413D+03 -.124362495451315D+02 -.575035066803245D+02
 0.159203763842065D+03 -.139722900194372D+03 -.632155704645988D+02 -.427450726235050D+02
 0.125901801558177D+03 0.884805698295946D+01 0.756518200097302D+02 0.100248579303830D+03
 0.000000000000000D+00 -.000000000000000D+00 0.000000000000000D+00 -.000000000000000D+00
 0.218833872417502D+03 0.000000000000000D+00 0.000000000000000D+00 0.218833872417502D+03
 0.220089978680167D+03 0.000000000000000D+00 0.000000000000000D+00 -.220089978680167D+03
 0.152303123174150D+03 0.131253737652314D+03 -.127296661528780D+02 -.575035066803245D+02
 0.158978481841761D+03 -.139326662602340D+03 -.635224176430348D+02 -.427450726235050D+02
 0.125778549666230D+03 0.916147867032167D+01 0.754091056323927D+02 0.100248579303830D+03
 0.186369641552734D+01 -.108855372029557D+01 0.842978163520033D+00 -.125610626266591D+01
 0.218528993070365D+03 0.000000000000000D+00 0.000000000000000D+00 0.218528993070365D+03
 0.218528993070365D+03 0.000000000000000D+00 0.000000000000000D+00 -.218528993070365D+03
 0.151952420740490D+03 0.130874843211413D+03 -.124362495451315D+02 -.575035066803245D+02
 0.159203763842065D+03 -.139722900194372D+03 -.632155704645988D+02 -.427450726235050D+02
 0.000000000000000D+00 -.000000000000000D+00 0.000000000000000D+00 -.000000000000000D+00
 0.125901801558177D+03 0.884805698295946D+01 0.756518200097302D+02 0.100248579303830D+03
 0.218833872417502D+03 0.000000000000000D+00 0.000000000000000D+00 0.218833872417502D+03
 0.220089978680167D+03 0.000000000000000D+00 0.000000000000000D+00 -.220089978680167D+03
 0.152303123174150D+03 0.131253737652314D+03 -.127296661528780D+02 -.575035066803245D+02
 0.158978481841761D+03 -.139326662602340D+03 -.635224176430348D+02 -.427450726235050D+02
 0.186369641552734D+01 -.108855372029557D+01 0.842978163520033D+00 -.125610626266591D+01
 0.125778549666230D+03 0.916147867032167D+01 0.754091056323927D+02 0.100248579303830D+03
0.880795955591D-05 0.000000000000D+00 0.000000000000D+00 0.902106624569D-10 0.000000000000D+00  6 -3 22 9900012 -13 -4 21 0 0.24066563D-01 0.46965325D-01 0.34257790D+05 0.34257790D+05 0.34257790D+05 0.11575329D+01  1  2  2  1  6  1       -3 0.467018756745D-04 0.100000000000D+01
0.458702092132D-06 0.000000000000D+00 -.169124419418D-07 0.902106624569D-10 0.000000000000D+00  6 -3 22 9900012 -13 -4 21 2 0.24066563D-01 0.46965325D-01 0.34257790D+05 0.34257790D+05 0.34257790D+05 0.11575329D+01  1  2  3  1  6  1       -3 0.325879025796D-05 0.100000000000D+01
-.126856798616D-05 0.000000000000D+00 0.000000000000D+00 0.902106624569D-10 0.000000000000D+00  6 -3 22 9900012 -13 -4 21 2 0.24066563D-01 0.46965325D-01 0.34257790D+05 0.34257790D+05 0.34257790D+05 0.11575329D+01  1  2 15  1  6  1       -3 -.901237876554D-05 0.100000000000D+01
-.254955451833D-05 0.000000000000D+00 0.000000000000D+00 0.902106624569D-10 0.000000000000D+00  6 -3 22 9900012 -13 -4 21 2 0.24066563D-01 0.46965325D-01 0.34257790D+05 0.34257790D+05 0.34257790D+05 0.11575329D+01  1  2  4  1  6  1       -3 -.181129835005D-04 0.100000000000D+01
0.248520466583D-05 0.000000000000D+00 0.000000000000D+00 0.902106624569D-10 0.847845474103D-11  6 -3 22 9900012 -13 -4 21 2 0.24100140D-01 0.47300806D-01 0.34502136D+05 0.34502136D+05 0.34502136D+05 0.11572536D+01  1  2 11  1  6  1       -3 0.174035934696D-04 0.100000000000D+01
0.415763602101D-08 0.000000000000D+00 0.000000000000D+00 0.902106624569D-10 0.000000000000D+00  6 21 22 9900012 -13 3 -4 2 0.24272291D-01 0.46965325D-01 0.34502136D+05 0.34502136D+05 0.34502136D+05 0.11572536D+01  3  4 12  3  5  1       -3 0.462054643362D-06 0.100000000000D+01
0.121244880030D-06 0.000000000000D+00 0.000000000000D+00 0.902106624569D-10 0.998272442014D-13  6 21 22 9900012 -13 3 -4 2 0.24100140D-01 0.47300806D-01 0.34502136D+05 0.34502136D+05 0.34502136D+05 0.11572536D+01  3  4 11  3  5  1       -3 0.134942279330D-04 0.100000000000D+01
  </mgrwgt>
  </event>
  <event>
  6     66 0.11438559E-05 0.43899486E+02 0.78161638E-02 0.11736474E+00
       -3 -1    0    0    0  501 0.00000000E+00 0.00000000E+00 0.56181714E+03 0.56181714E+03 0.00000000E+00 0.0000E+00 0.9000E+01
       22 -1    0    0    0    0 0.00000000E+00 0.00000000E+00 -.16064705E+02 0.16064705E+02 0.00000000E+00 0.0000E+00 0.9000E+01
       24  2    1    2    0    0 -.40076306E+01 -.50940129E+02 0.14199130E+03 0.17090025E+03 0.80214779E+02 0.0000E+00 0.0000E+00
  9900012  1    3    3    0    0 -.15184852E+02 -.55695958E+02 0.13866615E+03 0.15830642E+03 0.50000000E+02 0.0000E+00 0.9000E+01
      -13  1    3    3    0    0 0.11177221E+02 0.47558293E+01 0.33251441E+01 0.12593839E+02 0.00000000E+00 0.0000E+00 0.9000E+01
       -4  1    1    2    0  501 0.40076306E+01 0.50940129E+02 0.40376114E+03 0.40698159E+03 0.00000000E+00 0.0000E+00 0.9000E+01
#aMCatNLO 1  0  0  1  5 0.48108142D+02 0.00000000D+00  -5  6  0 0.00000000D+00 0.00000000D+00 0.00000000D+00 0.00000000D+00 0.00000000D+00
  <mgrwgt>
 0.5355175642D-05    7    4    0
 0.950022446812340D+02 0.000000000000000D+00 0.000000000000000D+00 0.950022446812340D+02
 0.950022446812340D+02 0.000000000000000D+00 0.000000000000000D+00 -.950022446812340D+02
 0.831823147408678D+02 -.151848518094405D+02 -.556959578514742D+02 -.329648000173053D+02
 0.287521899420027D+02 0.111772211652494D+02 0.475582930658131D+01 -.260603192822107D+02
 0.780699846795974D+02 0.400763064419108D+01 0.509401285448929D+02 0.590251192995161D+02
 0.000000000000000D+00 -.000000000000000D+00 0.000000000000000D+00 0.000000000000000D+00
 0.198437994385149D+03 0.000000000000000D+00 0.000000000000000D+00 0.198437994385149D+03
 0.102954705292905D+03 0.000000000000000D+00 0.000000000000000D+00 -.102954705292905D+03
 0.940819729974585D+02 -.245622476763166D+01 -.725169398334242D+02 -.329648000173053D+02
 0.302908755828131D+02 0.154168633969654D+02 -.846891658952957D+00 -.260603192822107D+02
 0.710900923388378D+02 0.147182086975541D+02 0.367860143690182D+02 0.590251192995161D+02
 0.105929758758945D+03 -.276788473268879D+02 0.365778171233589D+02 0.954832890922448D+02
 0.950022446812340D+02 0.000000000000000D+00 0.000000000000000D+00 0.950022446812340D+02
 0.950022446812340D+02 0.000000000000000D+00 0.000000000000000D+00 -.950022446812340D+02
 0.831823147408678D+02 -.151848518094405D+02 -.556959578514742D+02 -.329648000173053D+02
 0.287521899420027D+02 0.111772211652494D+02 0.475582930658131D+01 -.260603192822107D+02
 0.000000000000000D+00 -.000000000000000D+00 0.000000000000000D+00 0.000000000000000D+00
 0.780699846795974D+02 0.400763064419108D+01 0.509401285448929D+02 0.590251192995161D+02
 0.198437994385149D+03 0.000000000000000D+00 0.000000000000000D+00 0.198437994385149D+03
 0.102954705292905D+03 0.000000000000000D+00 0.000000000000000D+00 -.102954705292905D+03
 0.940819729974585D+02 -.245622476763166D+01 -.725169398334242D+02 -.329648000173053D+02
 0.302908755828131D+02 0.154168633969654D+02 -.846891658952957D+00 -.260603192822107D+02
 0.105929758758945D+03 -.276788473268879D+02 0.365778171233589D+02 0.954832890922448D+02
 0.710900923388378D+02 0.147182086975541D+02 0.367860143690182D+02 0.590251192995161D+02
0.496323426630D-06 0.000000000000D+00 0.000000000000D+00 0.672499653070D-06 0.000000000000D+00  6 -3 22 9900012 -13 -4 21 0 0.86433407D-01 0.24714930D-02 0.48731612D+04 0.48731612D+04 0.48731612D+04 0.12431044D+01  1  2  2  1  6  1       -3 0.122666933466D-04 0.100000000000D+01
0.315366769997D-08 0.000000000000D+00 -.953006321609D-09 0.672499653070D-06 0.000000000000D+00  6 -3 22 9900012 -13 -4 21 2 0.86433407D-01 0.24714930D-02 0.48731612D+04 0.48731612D+04 0.48731612D+04 0.12431044D+01  1  2  3  1  6  1       -3 0.120446404208D-06 0.100000000000D+01
-.735996863749D-07 0.000000000000D+00 0.000000000000D+00 0.672499653070D-06 0.000000000000D+00  6 -3 22 9900012 -13 -4 21 2 0.86433407D-01 0.24714930D-02 0.48731612D+04 0.48731612D+04 0.48731612D+04 0.12431044D+01  1  2 15  1  6  1       -3 -.281095486845D-05 0.100000000000D+01
0.183135363829D-06 0.000000000000D+00 0.000000000000D+00 0.672499653070D-06 0.000000000000D+00  6 -3 22 9900012 -13 -4 21 2 0.19565229D+00 0.24714930D-02 0.89348822D+04 0.89348822D+04 0.89348822D+04 0.12144335D+01  1  2 12  1  6  1       -3 0.727711014732D-06 0.100000000000D+01
-.583645877680D-06 0.000000000000D+00 -.131771364140D-06 0.672499653070D-06 0.000000000000D+00  6 -3 22 9900012 -13 -4 21 2 0.18662009D+00 0.24714930D-02 0.48731612D+04 0.48731612D+04 0.48731612D+04 0.12431044D+01  1  2  5  1  6  1       -3 -.274851973019D-05 0.100000000000D+01
0.162558776861D-07 0.000000000000D+00 0.000000000000D+00 0.672499653070D-06 0.000000000000D+00  6 21 22 9900012 -13 3 -4 2 0.19565229D+00 0.24714930D-02 0.89348822D+04 0.89348822D+04 0.89348822D+04 0.12144335D+01  3  4 12  3  5  1       -3 0.110894467459D-05 0.100000000000D+01
-.403793088857D-07 0.000000000000D+00 -.109805821589D-07 0.672499653070D-06 0.000000000000D+00  6 21 22 9900012 -13 3 -4 2 0.18662009D+00 0.24714930D-02 0.48731612D+04 0.48731612D+04 0.48731612D+04 0.12431044D+01  3  4  5  3  5  1       -3 -.330914519988D-05 0.100000000000D+01
  </mgrwgt>
  </event>
  <event>
  6     66 0.11438559E-05 0.76997574E+02 0.78161638E-02 0.11222843E+00
       -1 -1    0    0    0  501 0.00000000E+00 0.00000000E+00 0.54930845E+02 0.54930845E+02 0.00000000E+00 0.0000E+00 0.9000E+01
       22 -1    0    0    0    0 0.00000000E+00 0.00000000E+00 -.36936354E+03 0.36936354E+03 0.00000000E+00 0.0000E+00 0.9000E+01
       24  2    1    2    0    0 -.75460229E+02 -.52775477E+02 -.30886895E+03 0.33204227E+03 0.79828240E+02 0.0000E+00 0.0000E+00
  9900012  1    3    3    0    0 -.59591887E+02 -.14419382E+02 -.22412122E+03 0.23767505E+03 0.50000000E+02 0.0000E+00 0.9000E+01
      -13  1    3    3    0    0 -.15868343E+02 -.38356096E+02 -.84747730E+02 0.94367220E+02 0.00000000E+00 0.0000E+00 0.9000E+01
       -2  1    1    2    0  501 0.75460229E+02 0.52775477E+02 -.55637500E+01 0.92252114E+02 0.00000000E+00 0.0000E+00 0.9000E+01
#aMCatNLO 1  0  0  1  5 0.57506373D+02 0.00000000D+00  -5  6  0 0.00000000D+00 0.00000000D+00 0.00000000D+00 0.00000000D+00 0.00000000D+00
  <mgrwgt>
 0.4735284886D-04    9    4    0
 0.142441046138556D+03 0.000000000000000D+00 0.000000000000000D+00 0.142441046138556D+03
 0.142441046138556D+03 0.000000000000000D+00 0.000000000000000D+00 -.142441046138556D+03
 0.106616574861284D+03 -.595918865338142D+02 -.144193815324421D+02 -.714701513270726D+02
 0.470090071188054D+02 -.158683426399897D+02 -.383560956473514D+02 -.220647315607286D+02
 0.131256510297023D+03 0.754602291738039D+02 0.527754771797935D+02 0.935348828878012D+02
 0.000000000000000D+00 -.000000000000000D+00 0.000000000000000D+00 0.000000000000000D+00
 0.165897806677205D+03 0.000000000000000D+00 0.000000000000000D+00 0.165897806677205D+03
 0.163668646361899D+03 0.000000000000000D+00 0.000000000000000D+00 -.163668646361899D+03
 0.108911135352385D+03 -.579189752793637D+02 -.299840820372973D+02 -.714701513270726D+02
 0.528292674253355D+02 -.150934048236679D+02 -.455660866070313D+02 -.220647315607286D+02
 0.126163421418144D+03 0.774583049686020D+02 0.341854585823949D+02 0.935348828878012D+02
 0.416626288432388D+02 -.444592486557034D+01 0.413647100619337D+02 0.222916031530530D+01
 0.142441046138556D+03 0.000000000000000D+00 0.000000000000000D+00 0.142441046138556D+03
 0.142441046138556D+03 0.000000000000000D+00 0.000000000000000D+00 -.142441046138556D+03
 0.106616574861284D+03 -.595918865338142D+02 -.144193815324421D+02 -.714701513270726D+02
 0.470090071188054D+02 -.158683426399897D+02 -.383560956473514D+02 -.220647315607286D+02
 0.000000000000000D+00 -.000000000000000D+00 0.000000000000000D+00 0.000000000000000D+00
 0.131256510297023D+03 0.754602291738039D+02 0.527754771797935D+02 0.935348828878012D+02
 0.165897806677205D+03 0.000000000000000D+00 0.000000000000000D+00 0.165897806677205D+03
 0.163668646361899D+03 0.000000000000000D+00 0.000000000000000D+00 -.163668646361899D+03
 0.108911135352385D+03 -.579189752793637D+02 -.299840820372973D+02 -.714701513270726D+02
 0.528292674253355D+02 -.150934048236679D+02 -.455660866070313D+02 -.220647315607286D+02
 0.416626288432388D+02 -.444592486557034D+01 0.413647100619337D+02 0.222916031530530D+01
 0.126163421418144D+03 0.774583049686020D+02 0.341854585823949D+02 0.935348828878012D+02
0.138661112473D-05 0.000000000000D+00 0.000000000000D+00 0.175451498543D-05 0.000000000000D+00  6 -1 22 9900012 -13 -2 21 0 0.84508993D-02 0.56825161D-01 0.11311141D+05 0.11311141D+05 0.11311141D+05 0.12038238D+01  1  2  2  1  6  1       -1 0.337647082233D-04 0.100000000000D+01
-.464574367423D-08 0.000000000000D+00 -.266247591103D-08 0.175451498543D-05 0.000000000000D+00  6 -1 22 9900012 -13 -2 21 2 0.84508993D-02 0.56825161D-01 0.11311141D+05 0.11311141D+05 0.11311141D+05 0.12038238D+01  1  2  3  1  6  1       -1 -.163941698767D-06 0.100000000000D+01
-.173884110088D-06 0.000000000000D+00 0.000000000000D+00 0.175451498543D-05 0.000000000000D+00  6 -1 22 9900012 -13 -2 21 2 0.84508993D-02 0.56825161D-01 0.11311141D+05 0.11311141D+05 0.11311141D+05 0.12038238D+01  1  2 15  1  6  1       -1 -.613612338422D-05 0.100000000000D+01
0.370690824761D-06 0.000000000000D+00 0.000000000000D+00 0.175451498543D-05 0.000000000000D+00  6 -1 22 9900012 -13 -2 21 2 0.11309379D-01 0.56825161D-01 0.16441778D+05 0.16441778D+05 0.16441778D+05 0.11875623D+01  1  2 12  1  6  1       -1 0.849309972315D-05 0.100000000000D+01
-.100340011273D-06 0.000000000000D+00 0.000000000000D+00 0.175451498543D-05 0.000000000000D+00  6 -1 22 9900012 -13 -2 21 2 0.84508993D-02 0.56825161D-01 0.11311141D+05 0.11311141D+05 0.11311141D+05 0.12038238D+01  1  2  4  1  6  1       -1 -.354085654654D-05 0.100000000000D+01
-.149464120154D-05 0.000000000000D+00 -.678341244811D-06 0.175451498543D-05 0.000000000000D+00  6 -1 22 9900012 -13 -2 21 2 0.11288283D-01 0.56825161D-01 0.11311141D+05 0.11311141D+05 0.11311141D+05 0.12038238D+01  1  2  5  1  6  1       -1 -.342943231522D-04 0.100000000000D+01
0.164890276537D-05 0.000000000000D+00 0.650876591673D-06 0.175451498543D-05 0.000000000000D+00  6 -1 22 9900012 -13 -2 21 2 0.84508993D-02 0.56825161D-01 0.11311141D+05 0.11311141D+05 0.11311141D+05 0.12038238D+01  1  2  6  1  6  1       -1 0.581874376662D-04 0.100000000000D+01
0.140294290751D-07 0.000000000000D+00 0.000000000000D+00 0.175451498543D-05 0.000000000000D+00  6 21 22 9900012 -13 1 -2 2 0.11309379D-01 0.56825161D-01 0.16441778D+05 0.16441778D+05 0.16441778D+05 0.11875623D+01  3  4 12  3  5  1       -1 0.446335104739D-05 0.100000000000D+01
-.419181523943D-07 0.000000000000D+00 -.255537158711D-07 0.175451498543D-05 0.000000000000D+00  6 21 22 9900012 -13 1 -2 2 0.11288283D-01 0.56825161D-01 0.11311141D+05 0.11311141D+05 0.11311141D+05 0.12038238D+01  3  4  5  3  5  1       -1 -.134205030213D-04 0.100000000000D+01
  </mgrwgt>
  </event>
  <event>
  6     66 0.11438559E-05 0.53749296E+02 0.78161638E-02 0.12055701E+00
       -1 -1    0    0    0  501 0.00000000E+00 0.00000000E+00 0.47747674E+01 0.47747674E+01 0.00000000E+00 0.0000E+00 0.9000E+01
       22 -1    0    0    0    0 -.00000000E+00 -.00000000E+00 -.20284664E+04 0.20284664E+04 0.00000000E+00 0.0000E+00 0.9000E+01
       24  2    1    2    0    0 -.37223300E+02 0.72982038E+02 -.11854355E+04 0.11909910E+04 0.80562738E+02 0.0000E+00 0.0000E+00
  9900012  1    3    3    0    0 -.52098795E+02 0.51183145E+02 -.91484789E+03 0.91911950E+03 0.50000000E+02 0.0000E+00 0.9000E+01
      -13  1    3    3    0    0 0.14875495E+02 0.21798893E+02 -.27058763E+03 0.27187155E+03 0.00000000E+00 0.0000E+00 0.9000E+01
       -2  1    1    2    0  501 0.37223300E+02 -.72982038E+02 -.83825616E+03 0.84225016E+03 0.00000000E+00 0.0000E+00 0.9000E+01
#aMCatNLO 1  0  0  5  1 0.38856626D+02 0.00000000D+00  -5  6  0 0.00000000D+00 0.00000000D+00 0.00000000D+00 0.00000000D+00 0.00000000D+00
  <mgrwgt>
 0.5753784592D-04    4    2    0
 0.984147115618676D+02 0.000000000000000D+00 0.000000000000000D+00 0.984147115618676D+02
 0.984147115618676D+02 -.000000000000000D+00 -.000000000000000D+00 -.984147115618676D+02
 0.885111121958170D+02 -.520987946499661D+02 0.511831453795730D+02 -.467126551018386D+00
 0.263908568839377D+02 0.148754947039332D+02 0.217988929168526D+02 0.724705549242986D-01
 0.819274540439804D+02 0.372232999460329D+02 -.729820382964256D+02 0.394655996094089D+00
 0.000000000000000D+00 0.000000000000000D+00 0.000000000000000D+00 -.000000000000000D+00
 0.984147115618676D+02 0.000000000000000D+00 0.000000000000000D+00 0.984147115618676D+02
 0.984147115618676D+02 -.000000000000000D+00 -.000000000000000D+00 -.984147115618676D+02
 0.749819012395726D+02 -.437324156020554D+02 0.347795649081401D+02 -.378422925556887D+00
 0.241806432956105D+02 0.174633749480684D+02 0.167249533317575D+02 0.999082742292005D-01
 0.410695700871208D+02 0.173518255718062D+01 -.166417851318529D+02 0.375066622916440D+02
 0.565973085014312D+02 0.245338580968063D+02 -.348627331080448D+02 -.372281476403163D+02
0.341481083691D-05 0.000000000000D+00 0.000000000000D+00 0.130250863977D-06 0.000000000000D+00  6 -1 22 9900012 -13 -2 21 0 0.73457960D-03 0.31207176D+00 0.96852308D+04 0.96852308D+04 0.96852308D+04 0.12107723D+01  1  2  2  2  6  5       -2 0.594815839978D-04 0.100000000000D+01
-.137699911204D-06 0.000000000000D+00 -.655688637703D-08 0.130250863977D-06 0.000000000000D+00  6 -1 22 9900012 -13 -2 21 2 0.73457960D-03 0.31207176D+00 0.96852308D+04 0.96852308D+04 0.96852308D+04 0.12107723D+01  1  2  3  2  6  5       -2 -.351620728622D-05 0.100000000000D+01
-.379524754161D-06 0.000000000000D+00 0.000000000000D+00 0.130250863977D-06 0.000000000000D+00  6 -1 22 9900012 -13 -2 21 2 0.73457960D-03 0.31207176D+00 0.96852308D+04 0.96852308D+04 0.96852308D+04 0.12107723D+01  1  2 15  2  6  5       -2 -.969127499219D-05 0.100000000000D+01
0.447717024418D-06 0.000000000000D+00 0.000000000000D+00 0.130250863977D-06 0.000000000000D+00  6 -1 22 9900012 -13 -2 21 2 0.73457960D-03 0.31207176D+00 0.62824191D+04 0.62824191D+04 0.62824191D+04 0.12308388D+01  1  2 12  2  6  5       -2 0.112637442002D-04 0.100000000000D+01
  </mgrwgt>
  </event>
  <event>
  6     66 0.11438559E-05 0.63048903E+02 0.78161638E-02 0.11098408E+00
       -1 -1    0    0    0  501 0.00000000E+00 0.00000000E+00 0.18917151E+02 0.18917151E+02 0.00000000E+00 0.0000E+00 0.9000E+01
       22 -1    0    0    0    0 0.00000000E+00 0.00000000E+00 -.10613503E+04 0.10613503E+04 0.00000000E+00 0.0000E+00 0.9000E+01
       24  2    1    2    0    0 -.43633861E+02 0.99327731E+02 -.83872324E+03 0.84946961E+03 0.79825062E+02 0.0000E+00 0.0000E+00
  9900012  1    3    3    0    0 -.18304324E+02 0.61178408E+02 -.66035935E+03 0.66532122E+03 0.50000000E+02 0.0000E+00 0.9000E+01
      -13  1    3    3    0    0 -.25329536E+02 0.38149323E+02 -.17836389E+03 0.18414840E+03 0.00000000E+00 0.0000E+00 0.9000E+01
       -2  1    1    2    0  501 0.43633861E+02 -.99327731E+02 -.20370986E+03 0.23079779E+03 0.00000000E+00 0.0000E+00 0.9000E+01
#aMCatNLO 1  0  0  1  5 0.44330956D+02 0.00000000D+00  -5  6  0 0.00000000D+00 0.00000000D+00 0.00000000D+00 0.00000000D+00 0.00000000D+00
  <mgrwgt>
 0.3431724578D-04    9    4    0
 0.141695881993230D+03 0.000000000000000D+00 0.000000000000000D+00 0.141695881993230D+03
 0.141695881993230D+03 0.000000000000000D+00 0.000000000000000D+00 -.141695881993230D+03
 0.107075710292084D+03 -.183043241727788D+02 0.611784075717892D+02 -.699096695608857D+02
 0.458626304892430D+02 -.253295363532369D+02 0.381493232241290D+02 -.253467967676825D+01
 0.130453423205132D+03 0.436338605260157D+02 -.993277307959183D+02 0.724443492376539D+02
 0.000000000000000D+00 -.000000000000000D+00 0.000000000000000D+00 0.000000000000000D+00
 0.183523159344781D+03 0.000000000000000D+00 0.000000000000000D+00 0.183523159344781D+03
 0.152512926298913D+03 0.000000000000000D+00 0.000000000000000D+00 -.152512926298913D+03
 0.995282927011827D+02 -.110765275641339D+02 0.489472132712480D+02 -.699096695608857D+02
 0.399793312833111D+02 -.223264568814451D+02 0.330673804816452D+02 -.253467967676825D+01
 0.146576990750011D+03 0.533254417996937D+02 -.115728249523308D+03 0.724443492376539D+02
 0.499514709091896D+02 -.199224573541147D+02 0.337136557704146D+02 0.310102330458686D+02
 0.141695881993230D+03 0.000000000000000D+00 0.000000000000000D+00 0.141695881993230D+03
 0.141695881993230D+03 0.000000000000000D+00 0.000000000000000D+00 -.141695881993230D+03
 0.107075710292084D+03 -.183043241727788D+02 0.611784075717892D+02 -.699096695608857D+02
 0.458626304892430D+02 -.253295363532369D+02 0.381493232241290D+02 -.253467967676825D+01
 0.000000000000000D+00 -.000000000000000D+00 0.000000000000000D+00 0.000000000000000D+00
 0.130453423205132D+03 0.436338605260157D+02 -.993277307959183D+02 0.724443492376539D+02
 0.183523159344781D+03 0.000000000000000D+00 0.000000000000000D+00 0.183523159344781D+03
 0.152512926298913D+03 0.000000000000000D+00 0.000000000000000D+00 -.152512926298913D+03
 0.995282927011827D+02 -.110765275641339D+02 0.489472132712480D+02 -.699096695608857D+02
 0.399793312833111D+02 -.223264568814451D+02 0.330673804816452D+02 -.253467967676825D+01
 0.499514709091896D+02 -.199224573541147D+02 0.337136557704146D+02 0.310102330458686D+02
 0.146576990750011D+03 0.533254417996937D+02 -.115728249523308D+03 0.724443492376539D+02
0.121636058651D-05 0.000000000000D+00 0.000000000000D+00 0.105131012696D-05 0.000000000000D+00  6 -1 22 9900012 -13 -2 21 0 0.29103309D-02 0.16328465D+00 0.13851605D+05 0.13851605D+05 0.13851605D+05 0.11949320D+01  1  2  2  1  6  1       -1 0.182954022221D-04 0.100000000000D+01
-.209946731924D-07 0.000000000000D+00 -.233557246366D-08 0.105131012696D-05 0.000000000000D+00  6 -1 22 9900012 -13 -2 21 2 0.29103309D-02 0.16328465D+00 0.13851605D+05 0.13851605D+05 0.13851605D+05 0.11949320D+01  1  2  3  1  6  1       -1 -.450894685728D-06 0.100000000000D+01
-.158333226398D-06 0.000000000000D+00 0.000000000000D+00 0.105131012696D-05 0.000000000000D+00  6 -1 22 9900012 -13 -2 21 2 0.29103309D-02 0.16328465D+00 0.13851605D+05 0.13851605D+05 0.13851605D+05 0.11949320D+01  1  2 15  1  6  1       -1 -.340046304616D-05 0.100000000000D+01
0.101992847297D-05 0.000000000000D+00 0.000000000000D+00 0.105131012696D-05 0.000000000000D+00  6 -1 22 9900012 -13 -2 21 2 0.40571909D-02 0.16328465D+00 0.19227090D+05 0.19227090D+05 0.19227090D+05 0.11809602D+01  1  2 12  1  6  1       -1 0.136328231824D-04 0.100000000000D+01
-.310949910852D-06 0.000000000000D+00 0.000000000000D+00 0.105131012696D-05 0.000000000000D+00  6 -1 22 9900012 -13 -2 21 2 0.29103309D-02 0.16328465D+00 0.13851605D+05 0.13851605D+05 0.13851605D+05 0.11949320D+01  1  2  4  1  6  1       -1 -.667815407489D-05 0.100000000000D+01
-.179347137343D-05 0.000000000000D+00 -.536719089483D-06 0.105131012696D-05 0.000000000000D+00  6 -1 22 9900012 -13 -2 21 2 0.40649137D-02 0.16328465D+00 0.13851605D+05 0.13851605D+05 0.13851605D+05 0.11949320D+01  1  2  5  1  6  1       -1 -.238201415085D-04 0.100000000000D+01
0.189468090687D-05 0.000000000000D+00 0.508092524485D-06 0.105131012696D-05 0.000000000000D+00  6 -1 22 9900012 -13 -2 21 2 0.29103309D-02 0.16328465D+00 0.13851605D+05 0.13851605D+05 0.13851605D+05 0.11949320D+01  1  2  6  1  6  1       -1 0.406913479543D-04 0.100000000000D+01
0.424349871305D-07 0.000000000000D+00 0.000000000000D+00 0.105131012696D-05 0.000000000000D+00  6 21 22 9900012 -13 1 -2 2 0.40571909D-02 0.16328465D+00 0.19227090D+05 0.19227090D+05 0.19227090D+05 0.11809602D+01  3  4 12  3  5  1       -1 0.931467670067D-05 0.100000000000D+01
-.607505707776D-07 0.000000000000D+00 -.224226526627D-07 0.105131012696D-05 0.000000000000D+00  6 21 22 9900012 -13 1 -2 2 0.40649137D-02 0.16328465D+00 0.13851605D+05 0.13851605D+05 0.13851605D+05 0.11949320D+01  3  4  5  3  5  1       -1 -.132673509640D-04 0.100000000000D+01
  </mgrwgt>
  </event>
  <event>
  6     66 0.11438559E-05 0.97133470E+02 0.78161638E-02 0.92977594E-01
       -3 -1    0    0    0  501 0.00000000E+00 0.00000000E+00 0.11035591E+03 0.11035591E+03 0.00000000E+00 0.0000E+00 0.9000E+01
       22 -1    0    0    0    0 0.00000000E+00 0.00000000E+00 -.16275611E+03 0.16275611E+03 0.00000000E+00 0.0000E+00 0.9000E+01
       24  2    1    2    0    0 0.63916914E+02 0.73140544E+02 -.10401012E+03 0.16311886E+03 0.79716658E+02 0.0000E+00 0.0000E+00
  9900012  1    3    3    0    0 0.54819043E+02 0.49384582E+02 -.10491651E+03 0.13766422E+03 0.50000000E+02 0.0000E+00 0.9000E+01
      -13  1    3    3    0    0 0.90978714E+01 0.23755961E+02 0.90638614E+00 0.25454636E+02 0.00000000E+00 0.0000E+00 0.9000E+01
       -4  1    1    2    0  501 -.63916914E+02 -.73140544E+02 0.51609921E+02 0.10999316E+03 0.00000000E+00 0.0000E+00 0.9000E+01
#aMCatNLO 1  0  0  1  5 0.26304471D+02 0.00000000D+00  -5  6  0 0.00000000D+00 0.00000000D+00 0.00000000D+00 0.00000000D+00 0.00000000D+00
  <mgrwgt>
 0.3976820359D-04    5    4    0
 0.134019022689226D+03 0.000000000000000D+00 0.000000000000000D+00 0.134019022689226D+03
 0.134019022689226D+03 0.000000000000000D+00 0.000000000000000D+00 -.134019022689226D+03
 0.119759520408305D+03 0.548190426641464D+02 0.493845823149584D+02 -.799898638540591D+02
 0.261136880382945D+02 0.909787138153056D+01 0.237559614072567D+02 0.589980820903746D+01
 0.122164836931853D+03 -.639169140456770D+02 -.731405437222151D+02 0.740900556450216D+02
 0.000000000000000D+00 0.000000000000000D+00 -.000000000000000D+00 0.000000000000000D+00
 0.846714501206675D+03 0.000000000000000D+00 0.000000000000000D+00 0.846714501206675D+03
 0.424852956646406D+03 0.000000000000000D+00 0.000000000000000D+00 -.424852956646406D+03
 0.351055810843160D+03 0.241251608943169D+02 0.337282938523698D+03 -.799898638540591D+02
 0.102690009469968D+03 0.700767038460816D+00 0.102517994681893D+03 0.589980820903746D+01
 0.140308793750858D+03 -.810283674184009D+02 0.873591719961164D+02 0.740900556450216D+02
 0.677512843789094D+03 0.562024394856232D+02 -.527160105201708D+03 0.421861544560268D+03
 0.134019022689226D+03 0.000000000000000D+00 0.000000000000000D+00 0.134019022689226D+03
 0.134019022689226D+03 0.000000000000000D+00 0.000000000000000D+00 -.134019022689226D+03
 0.119759520408305D+03 0.548190426641464D+02 0.493845823149584D+02 -.799898638540591D+02
 0.261136880382945D+02 0.909787138153056D+01 0.237559614072567D+02 0.589980820903746D+01
 0.000000000000000D+00 0.000000000000000D+00 -.000000000000000D+00 0.000000000000000D+00
 0.122164836931853D+03 -.639169140456770D+02 -.731405437222151D+02 0.740900556450216D+02
 0.846714501206675D+03 0.000000000000000D+00 0.000000000000000D+00 0.846714501206675D+03
 0.424852956646406D+03 0.000000000000000D+00 0.000000000000000D+00 -.424852956646406D+03
 0.351055810843160D+03 0.241251608943169D+02 0.337282938523698D+03 -.799898638540591D+02
 0.102690009469968D+03 0.700767038460816D+00 0.102517994681893D+03 0.589980820903746D+01
 0.677512843789094D+03 0.562024394856232D+02 -.527160105201708D+03 0.421861544560268D+03
 0.140308793750858D+03 -.810283674184009D+02 0.873591719961164D+02 0.740900556450216D+02
0.198498083596D-05 0.000000000000D+00 0.000000000000D+00 0.117275695683D-05 0.000000000000D+00  6 -3 22 9900012 -13 -4 21 0 0.16977832D-01 0.25039402D-01 0.11204316D+05 0.11204316D+05 0.11204316D+05 0.12042451D+01  1  2  2  1  6  1       -3 0.484142592292D-04 0.100000000000D+01
-.298248880393D-07 0.000000000000D+00 -.381142453376D-08 0.117275695683D-05 0.000000000000D+00  6 -3 22 9900012 -13 -4 21 2 0.16977832D-01 0.25039402D-01 0.11204316D+05 0.11204316D+05 0.11204316D+05 0.12042451D+01  1  2  3  1  6  1       -3 -.105493475467D-05 0.100000000000D+01
-.260412733780D-06 0.000000000000D+00 0.000000000000D+00 0.117275695683D-05 0.000000000000D+00  6 -3 22 9900012 -13 -4 21 2 0.16977832D-01 0.25039402D-01 0.11204316D+05 0.11204316D+05 0.11204316D+05 0.12042451D+01  1  2 15  1  6  1       -3 -.921104693042D-05 0.100000000000D+01
0.580442435211D-05 0.000000000000D+00 -.190535752191D-05 0.117275695683D-05 0.000000000000D+00  6 -3 22 9900012 -13 -4 21 2 0.25928661D+00 0.25039402D-01 0.11204316D+05 0.11204316D+05 0.11204316D+05 0.12042451D+01  1  2  5  1  6  1       -3 0.291935170699D-06 0.100000000000D+01
0.135152244888D-05 0.000000000000D+00 -.583503895079D-06 0.117275695683D-05 0.000000000000D+00  6 21 22 9900012 -13 3 -4 2 0.25928661D+00 0.25039402D-01 0.11204316D+05 0.11204316D+05 0.11204316D+05 0.12042451D+01  3  4  5  3  5  1       -3 0.132799087915D-05 0.100000000000D+01
  </mgrwgt>
  </event>
  <event>
  6     66 0.11438559E-05 0.19926052E+02 0.78161638E-02 0.12223563E+00
       -3 -1    0    0    0  501 0.00000000E+00 0.00000000E+00 0.24805270E+02 0.24805270E+02 0.00000000E+00 0.0000E+00 0.9000E+01
       22 -1    0    0    0    0 -.00000000E+00 -.00000000E+00 -.24386514E+03 0.24386514E+03 0.00000000E+00 0.0000E+00 0.9000E+01
  9900012  1    1    2    0    0 0.19104917E+02 -.37144339E+02 -.12724975E+03 0.14295873E+03 0.50000000E+02 0.0000E+00 0.9000E+01
      -13  1    1    2    0    0 -.12802172E+02 0.55180879E+02 -.63364084E+02 0.84993130E+02 0.00000000E+00 0.0000E+00 0.9000E+01
       -4  1    1    2    0  502 0.17058264E+01 0.14125832E+01 -.16259727E+02 0.16409874E+02 0.00000000E+00 0.0000E+00 0.9000E+01
       21  1    1    2  502  501 -.80085714E+01 -.19449123E+02 -.12186309E+02 0.24308676E+02 0.00000000E+00 0.0000E+00 0.9000E+01
#aMCatNLO 2  0  0  5  1 0.84481439D+01 0.00000000D+00  -5  6  0 0.00000000D+00 0.00000000D+00 0.00000000D+00 0.00000000D+00 0.00000000D+00
  <mgrwgt>
 0.4209908630D-03    2    2    0
 0.777762218086953D+02 0.000000000000000D+00 0.000000000000000D+00 0.777762218086953D+02
 0.777762218086953D+02 -.000000000000000D+00 -.000000000000000D+00 -.777762218086953D+02
 0.666469273779963D+02 0.203839730798364D+02 -.334840696976679D+02 -.201276835947443D+02
 0.601911263906095D+02 -.116811929422193D+02 0.583887803298923D+02 0.879043566636847D+01
 0.287143898487848D+02 -.870278013761706D+01 -.249047106322244D+02 0.113372479283758D+02
 0.000000000000000D+00 0.000000000000000D+00 0.000000000000000D+00 0.000000000000000D+00
 0.777762218086953D+02 0.000000000000000D+00 0.000000000000000D+00 0.777762218086953D+02
 0.777762218086953D+02 -.000000000000000D+00 -.000000000000000D+00 -.777762218086953D+02
 0.677165005417519D+02 0.191049171084522D+02 -.371443389847262D+02 -.184614373570423D+02
 0.575665086838058D+02 -.128021721301570D+02 0.551808787330608D+02 0.102507528035631D+02
 0.544506919873543D+01 0.170582643135273D+01 0.141258320836096D+01 -.497428823497115D+01
 0.248243651930975D+02 -.800857140964793D+01 -.194491229566956D+02 0.131849727884504D+02
-.721381216964D-07 0.000000000000D+00 0.000000000000D+00 0.262310096905D-09 0.000000000000D+00  6 -3 22 9900012 -13 -4 21 2 0.38161954D-02 0.37517714D-01 0.52595905D+04 0.52595905D+04 0.52595905D+04 0.12393781D+01  1  2 13  2  6  5       -4 -.140113999872D-04 0.100000000000D+01
0.223962246560D-05 0.000000000000D+00 0.000000000000D+00 0.262310096905D-09 0.937115107177D-10  6 -3 22 9900012 -13 -4 21 2 0.38161954D-02 0.37517714D-01 0.52595905D+04 0.52595905D+04 0.52595905D+04 0.12393781D+01  1  2  1  2  6  5       -4 0.435002262990D-03 0.100000000000D+01
  </mgrwgt>
  </event>
  <event>
  6     66 0.11438559E-05 0.45331297E+02 0.78161638E-02 0.10832786E+00
       -3 -1    0    0    0  501 0.00000000E+00 0.00000000E+00 0.20955474E+03 0.20955474E+03 0.00000000E+00 0.0000E+00 0.9000E+01
       22 -1    0    0    0    0 0.00000000E+00 0.00000000E+00 -.16919516E+03 0.16919516E+03 0.00000000E+00 0.0000E+00 0.9000E+01
       24  2    1    2    0    0 0.30018049E+02 0.33968268E+02 -.15389235E+03 0.17927874E+03 0.80019285E+02 0.0000E+00 0.0000E+00
  9900012  1    3    3    0    0 0.14128939E+02 0.94539687E+01 -.13373850E+03 0.14378801E+03 0.50000000E+02 0.0000E+00 0.9000E+01
      -13  1    3    3    0    0 0.15889111E+02 0.24514299E+02 -.20153849E+02 0.35490736E+02 0.00000000E+00 0.0000E+00 0.9000E+01
       -4  1    1    2    0  501 -.30018049E+02 -.33968268E+02 0.19425194E+03 0.19947115E+03 0.00000000E+00 0.0000E+00 0.9000E+01
#aMCatNLO 1  0  0  5  1 0.36417914D+01 0.00000000D+00  -5  6  0 0.00000000D+00 0.00000000D+00 0.00000000D+00 0.00000000D+00 0.00000000D+00
  <mgrwgt>
 0.9081880941D-04    3    2    0
 0.188296699701082D+03 0.000000000000000D+00 0.000000000000000D+00 0.188296699701082D+03
 0.188296699701082D+03 -.000000000000000D+00 -.000000000000000D+00 -.188296699701082D+03
 0.158944165762273D+03 0.141289385463213D+02 0.945396874868708D+01 -.149914120083193D+03
 0.378538592192009D+02 0.158891106934936D+02 0.245142993421331D+02 -.240728051319591D+02
 0.179795374420691D+03 -.300180492398149D+02 -.339682680908202D+02 0.173986925215152D+03
 0.000000000000000D+00 0.000000000000000D+00 0.000000000000000D+00 0.000000000000000D+00
 0.188296699701082D+03 0.000000000000000D+00 0.000000000000000D+00 0.188296699701082D+03
 0.188296699701082D+03 -.000000000000000D+00 -.000000000000000D+00 -.188296699701082D+03
 0.779938383645264D+02 -.151011521127793D+01 -.824310298575035D+01 -.592689600722574D+02
 0.232210007102970D+02 0.118578746695584D+02 0.199525736648770D+02 -.707450674123447D+00
 0.150369604026346D+03 -.129023269471499D+03 0.253760940503536D+02 0.729387935235603D+02
 0.125008956300996D+03 0.118675510013219D+03 -.370855647294802D+02 -.129623827771793D+02
0.160418228363D-04 0.000000000000D+00 0.000000000000D+00 0.255108059476D-04 0.000000000000D+00  6 -3 22 9900012 -13 -4 21 0 0.32239191D-01 0.26030024D-01 0.40548613D+04 0.40548613D+04 0.40548613D+04 0.12522231D+01  1  2  2  2  6  5       -4 0.108769456310D-03 0.100000000000D+01
0.589637135580D-06 0.000000000000D+00 -.308024118002D-07 0.255108059476D-04 0.000000000000D+00  6 -3 22 9900012 -13 -4 21 2 0.32239191D-01 0.26030024D-01 0.40548613D+04 0.40548613D+04 0.40548613D+04 0.12522231D+01  1  2  3  2  6  5       -4 0.626904693607D-05 0.100000000000D+01
-.227799074460D-05 0.000000000000D+00 0.000000000000D+00 0.255108059476D-04 0.000000000000D+00  6 -3 22 9900012 -13 -4 21 2 0.32239191D-01 0.26030024D-01 0.40548613D+04 0.40548613D+04 0.40548613D+04 0.12522231D+01  1  2 15  2  6  5       -4 -.242196938356D-04 0.100000000000D+01
  </mgrwgt>
  </event>
  <event>
  6     66 0.11438559E-05 0.53017844E+02 0.78161638E-02 0.12327932E+00
       -1 -1    0    0    0  501 0.00000000E+00 0.00000000E+00 0.75835747E+03 0.75835747E+03 0.00000000E+00 0.0000E+00 0.9000E+01
       22 -1    0    0    0    0 0.00000000E+00 0.00000000E+00 -.16579461E+02 0.16579461E+02 0.00000000E+00 0.0000E+00 0.9000E+01
       24  2    1    2    0    0 -.47031311E+02 -.25436594E+02 0.13580525E+03 0.16660976E+03 0.80354098E+02 0.0000E+00 0.0000E+00
  9900012  1    3    3    0    0 -.14484414E+02 -.30504069E+02 0.65992397E+02 0.89416402E+02 0.50000000E+02 0.0000E+00 0.9000E+01
      -13  1    3    3    0    0 -.32546896E+02 0.50674758E+01 0.69812851E+02 0.77193354E+02 0.00000000E+00 0.0000E+00 0.9000E+01
       -2  1    1    2    0  501 0.47031311E+02 0.25436594E+02 0.60597276E+03 0.60832717E+03 0.00000000E+00 0.0000E+00 0.9000E+01
#aMCatNLO 1  0  0  5  1 0.18617418D+02 0.00000000D+00  -5  6  0 0.00000000D+00 0.00000000D+00 0.00000000D+00 0.00000000D+00 0.00000000D+00
  <mgrwgt>
 0.1127443005D-03    5    2    0
 0.112130094452381D+03 0.000000000000000D+00 0.000000000000000D+00 0.112130094452381D+03
 0.112130094452381D+03 -.000000000000000D+00 -.000000000000000D+00 -.112130094452381D+03
 0.906998404781849D+02 -.144844144557865D+02 -.305040694589394D+02 -.677212267098388D+02
 0.358259901850773D+02 -.325468961783062D+02 0.506747575506634D+01 -.140897768389577D+02
 0.977343582414988D+02 0.470313106340927D+02 0.254365937038730D+02 0.818110035487965D+02
 0.000000000000000D+00 0.000000000000000D+00 0.000000000000000D+00 -.000000000000000D+00
 0.112130094452381D+03 0.000000000000000D+00 0.000000000000000D+00 0.112130094452381D+03
 0.112130094452381D+03 -.000000000000000D+00 -.000000000000000D+00 -.112130094452381D+03
 0.845220043792470D+02 -.106311297702194D+02 -.284200442499741D+02 -.610184348285312D+02
 0.335820528833125D+02 -.310205513916261D+02 0.589298990016146D+01 -.114346988265399D+02
 0.953063357622046D+02 0.407255450280903D+02 0.221985753606069D+02 0.832583381442515D+02
 0.108497958799970D+02 0.926136133755175D+00 0.328478989205750D+00 -.108052044891804D+02
0.236761804349D-05 0.000000000000D+00 0.000000000000D+00 0.189836802607D-05 0.000000000000D+00  6 -1 22 9900012 -13 -2 21 0 0.11667038D+00 0.25506863D-02 0.53833907D+04 0.53833907D+04 0.53833907D+04 0.12382493D+01  1  2  2  2  6  5       -2 0.594121202433D-04 0.100000000000D+01
0.388403440378D-07 0.000000000000D+00 -.454613834757D-08 0.189836802607D-05 0.000000000000D+00  6 -1 22 9900012 -13 -2 21 2 0.11667038D+00 0.25506863D-02 0.53833907D+04 0.53833907D+04 0.53833907D+04 0.12382493D+01  1  2  3  2  6  5       -2 0.149438565477D-05 0.100000000000D+01
-.331426328989D-06 0.000000000000D+00 0.000000000000D+00 0.189836802607D-05 0.000000000000D+00  6 -1 22 9900012 -13 -2 21 2 0.11667038D+00 0.25506863D-02 0.53833907D+04 0.53833907D+04 0.53833907D+04 0.12382493D+01  1  2 15  2  6  5       -2 -.127516571730D-04 0.100000000000D+01
0.176145625363D-05 0.000000000000D+00 0.000000000000D+00 0.189836802607D-05 0.000000000000D+00  6 -1 22 9900012 -13 -2 21 2 0.11667038D+00 0.25506863D-02 0.47215817D+04 0.47215817D+04 0.47215817D+04 0.12446580D+01  1  2 12  2  6  5       -2 0.679294211852D-04 0.100000000000D+01
-.868086239729D-07 0.000000000000D+00 0.000000000000D+00 0.189836802607D-05 0.000000000000D+00  6 -1 22 9900012 -13 -2 21 2 0.11667038D+00 0.25506863D-02 0.53833907D+04 0.53833907D+04 0.53833907D+04 0.12382493D+01  1  2  4  2  6  5       -2 -.333996944643D-05 0.100000000000D+01
  </mgrwgt>
  </event>
  <event>
  6     66 0.11438559E-05 0.29439568E+02 0.78161638E-02 0.12800424E+00
       -1 -1    0    0    0  501 0.00000000E+00 0.00000000E+00 0.13736190E+03 0.13736190E+03 0.00000000E+00 0.0000E+00 0.9000E+01
       22 -1    0    0    0    0 0.00000000E+00 0.00000000E+00 -.23698930E+02 0.23698930E+02 0.00000000E+00 0.0000E+00 0.9000E+01
       24  2    1    2    0    0 -.27308791E+02 0.10996277E+02 0.91523688E+02 0.12422558E+03 0.78668417E+02 0.0000E+00 0.0000E+00
  9900012  1    3    3    0    0 -.14835593E+02 0.30361006E+02 0.59224452E+02 0.84554250E+02 0.50000000E+02 0.0000E+00 0.9000E+01
      -13  1    3    3    0    0 -.12473198E+02 -.19364729E+02 0.32299236E+02 0.39671325E+02 0.00000000E+00 0.0000E+00 0.9000E+01
       -2  1    1    2    0  501 0.27308791E+02 -.10996277E+02 0.22139282E+02 0.36835255E+02 0.00000000E+00 0.0000E+00 0.9000E+01
#aMCatNLO 1  0  0  5  1 0.12014150D+02 0.00000000D+00  -5  6  0 0.00000000D+00 0.00000000D+00 0.00000000D+00 0.00000000D+00 0.00000000D+00
  <mgrwgt>
 0.9243375421D-04    5    2    0
 0.570554996422143D+02 0.000000000000000D+00 0.000000000000000D+00 0.570554996422143D+02
 0.570554996422143D+02 -.000000000000000D+00 -.000000000000000D+00 -.570554996422143D+02
 0.603513298710660D+02 -.148355929030181D+02 0.303610056056551D+02 -.630506967068738D+00
 0.238212747542841D+02 -.124731982422707D+02 -.193647288806818D+02 0.607286850720433D+01
 0.299383946590785D+02 0.273087911452888D+02 -.109962767249733D+02 -.544236154013560D+01
 0.000000000000000D+00 -.000000000000000D+00 0.000000000000000D+00 0.000000000000000D+00
 0.570554996422143D+02 0.000000000000000D+00 0.000000000000000D+00 0.570554996422143D+02
 0.570554996422143D+02 -.000000000000000D+00 -.000000000000000D+00 -.570554996422143D+02
 0.576699956813462D+02 -.788270111479280D+01 0.275613239304262D+02 -.201614687546468D+01
 0.233244185636760D+02 -.969574338496988D+01 -.204831109445203D+02 0.551935028611513D+01
 0.240372181642250D+02 0.224326921371975D+02 -.757023471969886D+01 0.415376056615362D+01
 0.907936687518140D+01 -.485424763743482D+01 0.492021733792972D+00 -.765696397680407D+01
0.309608077432D-06 0.000000000000D+00 0.000000000000D+00 0.598652521457D-07 0.000000000000D+00  6 -1 22 9900012 -13 -2 21 0 0.21132600D-01 0.36459892D-02 0.31821887D+04 0.31821887D+04 0.31821887D+04 0.12645623D+01  1  2  2  2  6  5       -2 0.956749845143D-04 0.100000000000D+01
-.728566725985D-08 0.000000000000D+00 -.594488269509D-09 0.598652521457D-07 0.000000000000D+00  6 -1 22 9900012 -13 -2 21 2 0.21132600D-01 0.36459892D-02 0.31821887D+04 0.31821887D+04 0.31821887D+04 0.12645623D+01  1  2  3  2  6  5       -2 -.360027720122D-05 0.100000000000D+01
-.329280131998D-07 0.000000000000D+00 0.000000000000D+00 0.598652521457D-07 0.000000000000D+00  6 -1 22 9900012 -13 -2 21 2 0.21132600D-01 0.36459892D-02 0.31821887D+04 0.31821887D+04 0.31821887D+04 0.12645623D+01  1  2 15  2  6  5       -2 -.162716702502D-04 0.100000000000D+01
0.842679341948D-07 0.000000000000D+00 0.000000000000D+00 0.598652521457D-07 0.000000000000D+00  6 -1 22 9900012 -13 -2 21 2 0.21132600D-01 0.36459892D-02 0.29621591D+04 0.29621591D+04 0.29621591D+04 0.12682857D+01  1  2 12  2  6  5       -2 0.415473306726D-04 0.100000000000D+01
-.504222717329D-07 0.000000000000D+00 0.000000000000D+00 0.598652521457D-07 0.000000000000D+00  6 -1 22 9900012 -13 -2 21 2 0.21132600D-01 0.36459892D-02 0.31821887D+04 0.31821887D+04 0.31821887D+04 0.12645623D+01  1  2  4  2  6  5       -2 -.249166135207D-04 0.100000000000D+01
  </mgrwgt>
  </event>
  <event>
  6     66 0.11438559E-05 0.68457449E+02 0.78161638E-02 0.11434707E+00
       -1 -1    0    0    0  501 0.00000000E+00 0.00000000E+00 0.99291076E+03 0.99291076E+03 0.00000000E+00 0.0000E+00 0.9000E+01
       22 -1    0    0    0    0 0.00000000E+00 0.00000000E+00 -.37968634E+02 0.37968634E+02 0.00000000E+00 0.0000E+00 0.9000E+01
       24  2    1    2    0    0 0.64384372E+02 -.65990554E+02 0.69451032E+02 0.14060159E+03 0.80282374E+02 0.0000E+00 0.0000E+00
  9900012  1    3    3    0    0 0.15588006E+02 -.23375521E+02 0.35628583E+02 0.67518863E+02 0.50000000E+02 0.0000E+00 0.9000E+01
      -13  1    3    3    0    0 0.48796365E+02 -.42615033E+02 0.33822449E+02 0.73082723E+02 0.00000000E+00 0.0000E+00 0.9000E+01
       -2  1    1    2    0  501 -.64384372E+02 0.65990554E+02 0.88549109E+03 0.89027781E+03 0.00000000E+00 0.0000E+00 0.9000E+01
#aMCatNLO 1  0  0  1  5 0.10369314D+02 0.00000000D+00  -5  6  0 0.00000000D+00 0.00000000D+00 0.00000000D+00 0.00000000D+00 0.00000000D+00
  <mgrwgt>
 0.2182343308D-03    9    4    0
 0.194163502274284D+03 0.000000000000000D+00 0.000000000000000D+00 0.194163502274284D+03
 0.194163502274284D+03 0.000000000000000D+00 0.000000000000000D+00 -.194163502274284D+03
 0.916252776490119D+02 0.155880061709463D+02 -.233755212707261D+02 -.714548149056093D+02
 0.110836977275686D+03 0.487963654970658D+02 -.426150327498129D+02 -.899316920202217D+02
 0.185864749623870D+03 -.643843716680121D+02 0.659905540205390D+02 0.161386506925831D+03
 0.000000000000000D+00 0.000000000000000D+00 -.000000000000000D+00 0.000000000000000D+00
 0.219173942275302D+03 0.000000000000000D+00 0.000000000000000D+00 0.219173942275302D+03
 0.195259544496126D+03 0.000000000000000D+00 0.000000000000000D+00 -.195259544496126D+03
 0.909256157683665D+02 0.141053453183324D+02 -.215108405952053D+02 -.714548149056093D+02
 0.109211224025128D+03 0.470091551052169D+02 -.403673328291634D+02 -.899316920202217D+02
 0.188322453766954D+03 -.674234842553616D+02 0.698127190843646D+02 0.161386506925831D+03
 0.259741932109790D+02 0.630898383181227D+01 -.793454565999590D+01 0.239143977791756D+02
 0.194163502274284D+03 0.000000000000000D+00 0.000000000000000D+00 0.194163502274284D+03
 0.194163502274284D+03 0.000000000000000D+00 0.000000000000000D+00 -.194163502274284D+03
 0.916252776490119D+02 0.155880061709463D+02 -.233755212707261D+02 -.714548149056093D+02
 0.110836977275686D+03 0.487963654970658D+02 -.426150327498129D+02 -.899316920202217D+02
 0.000000000000000D+00 0.000000000000000D+00 -.000000000000000D+00 0.000000000000000D+00
 0.185864749623870D+03 -.643843716680121D+02 0.659905540205390D+02 0.161386506925831D+03
 0.219173942275302D+03 0.000000000000000D+00 0.000000000000000D+00 0.219173942275302D+03
 0.195259544496126D+03 0.000000000000000D+00 0.000000000000000D+00 -.195259544496126D+03
 0.909256157683665D+02 0.141053453183324D+02 -.215108405952053D+02 -.714548149056093D+02
 0.109211224025128D+03 0.470091551052169D+02 -.403673328291634D+02 -.899316920202217D+02
 0.259741932109790D+02 0.630898383181227D+01 -.793454565999590D+01 0.239143977791756D+02
 0.188322453766954D+03 -.674234842553616D+02 0.698127190843646D+02 0.161386506925831D+03
0.450769563830D-05 0.000000000000D+00 0.000000000000D+00 0.911152479378D-05 0.000000000000D+00  6 -1 22 9900012 -13 -2 21 0 0.15275550D+00 0.58413284D-02 0.11484822D+05 0.11484822D+05 0.11484822D+05 0.12031482D+01  1  2  2  1  6  1       -1 0.189342494352D-04 0.100000000000D+01
0.424452274235D-07 0.000000000000D+00 -.865536907729D-08 0.911152479378D-05 0.000000000000D+00  6 -1 22 9900012 -13 -2 21 2 0.15275550D+00 0.58413284D-02 0.11484822D+05 0.11484822D+05 0.11484822D+05 0.12031482D+01  1  2  3  1  6  1       -1 0.258083724356D-06 0.100000000000D+01
-.688429639841D-06 0.000000000000D+00 0.000000000000D+00 0.911152479378D-05 0.000000000000D+00  6 -1 22 9900012 -13 -2 21 2 0.15275550D+00 0.58413284D-02 0.11484822D+05 0.11484822D+05 0.11484822D+05 0.12031482D+01  1  2 15  1  6  1       -1 -.418592374673D-05 0.100000000000D+01
0.445008800168D-04 0.000000000000D+00 0.000000000000D+00 0.911152479378D-05 0.000000000000D+00  6 -1 22 9900012 -13 -2 21 2 0.17340550D+00 0.58413284D-02 0.12699484D+05 0.12699484D+05 0.12699484D+05 0.11987192D+01  1  2 12  1  6  1       -1 0.184257630511D-03 0.100000000000D+01
-.127622645534D-04 0.000000000000D+00 0.000000000000D+00 0.911152479378D-05 0.000000000000D+00  6 -1 22 9900012 -13 -2 21 2 0.15275550D+00 0.58413284D-02 0.11484822D+05 0.11484822D+05 0.11484822D+05 0.12031482D+01  1  2  4  1  6  1       -1 -.775996022899D-04 0.100000000000D+01
-.535137211474D-04 0.000000000000D+00 -.394046172301D-05 0.911152479378D-05 0.000000000000D+00  6 -1 22 9900012 -13 -2 21 2 0.17284131D+00 0.58413284D-02 0.11484822D+05 0.11484822D+05 0.11484822D+05 0.12031482D+01  1  2  5  1  6  1       -1 -.224903154085D-03 0.100000000000D+01
0.536207123372D-04 0.000000000000D+00 0.391058412289D-05 0.911152479378D-05 0.000000000000D+00  6 -1 22 9900012 -13 -2 21 2 0.15275550D+00 0.58413284D-02 0.11484822D+05 0.11484822D+05 0.11484822D+05 0.12031482D+01  1  2  6  1  6  1       -1 0.326035080565D-03 0.100000000000D+01
0.884186993141D-06 0.000000000000D+00 0.000000000000D+00 0.911152479378D-05 0.000000000000D+00  6 21 22 9900012 -13 1 -2 2 0.17340550D+00 0.58413284D-02 0.12699484D+05 0.12699484D+05 0.12699484D+05 0.11987192D+01  3  4 12  3  5  1       -1 0.261681026303D-04 0.100000000000D+01
-.102116765353D-05 0.000000000000D+00 -.766087759912D-07 0.911152479378D-05 0.000000000000D+00  6 21 22 9900012 -13 1 -2 2 0.17284131D+00 0.58413284D-02 0.11484822D+05 0.11484822D+05 0.11484822D+05 0.12031482D+01  3  4  5  3  5  1       -1 -.307301359585D-04 0.100000000000D+01
  </mgrwgt>
  </event>
  <event>
  6     66 0.11438559E-05 0.42018989E+02 0.78161638E-02 0.12219026E+00
       -1 -1    0    0    0  501 0.00000000E+00 0.00000000E+00 0.30051718E+02 0.30051718E+02 0.00000000E+00 0.0000E+00 0.9000E+01
       22 -1    0    0    0    0 0.00000000E+00 0.00000000E+00 -.52341559E+03 0.52341559E+03 0.00000000E+00 0.0000E+00 0.9000E+01
       24  2    1    2    0    0 -.19427307E+02 0.42412278E+02 -.49873688E+03 0.50650892E+03 0.75077220E+02 0.0000E+00 0.0000E+00
  9900012  1    3    3    0    0 -.29442951E+02 0.43547123E+02 -.35048430E+03 0.35791408E+03 0.50000000E+02 0.0000E+00 0.9000E+01
      -13  1    3    3    0    0 0.10015644E+02 -.11348458E+01 -.14825258E+03 0.14859484E+03 0.00000000E+00 0.0000E+00 0.9000E+01
       -2  1    1    2    0  501 0.19427307E+02 -.42412278E+02 0.53730019E+01 0.46958393E+02 0.00000000E+00 0.0000E+00 0.9000E+01
#aMCatNLO 1  0  0  1  5 0.19039502D+02 0.00000000D+00  -5  6  0 0.00000000D+00 0.00000000D+00 0.00000000D+00 0.00000000D+00 0.00000000D+00
  <mgrwgt>
 0.6045702493D-04    9    4    0
 0.125417453439309D+03 0.000000000000000D+00 0.000000000000000D+00 0.125417453439309D+03
 0.125417453439309D+03 0.000000000000000D+00 0.000000000000000D+00 -.125417453439309D+03
 0.100374575272675D+03 -.294429512694242D+02 0.435471233739675D+02 -.693672547212922D+02
 0.362785332717791D+02 0.100156441903133D+02 -.113484577482523D+01 -.348501215617964D+02
 0.114181798334164D+03 0.194273070791109D+02 -.424122775991423D+02 0.104217376283089D+03
 0.000000000000000D+00 -.000000000000000D+00 -.000000000000000D+00 0.000000000000000D+00
 0.137881859686093D+03 0.000000000000000D+00 0.000000000000000D+00 0.137881859686093D+03
 0.130807282113380D+03 0.000000000000000D+00 0.000000000000000D+00 -.130807282113380D+03
 0.101564939377573D+03 -.254683289364118D+02 0.485281887606390D+02 -.693672547212922D+02
 0.366894715852317D+02 0.114518180971504D+02 0.664992181392662D+00 -.348501215617964D+02
 0.113080560888623D+03 0.239003397591410D+02 -.368065957533751D+02 0.104217376283089D+03
 0.173541699480449D+02 -.988382891987960D+01 -.123865851886566D+02 0.707457757271261D+01
 0.125417453439309D+03 0.000000000000000D+00 0.000000000000000D+00 0.125417453439309D+03
 0.125417453439309D+03 0.000000000000000D+00 0.000000000000000D+00 -.125417453439309D+03
 0.100374575272675D+03 -.294429512694242D+02 0.435471233739675D+02 -.693672547212922D+02
 0.362785332717791D+02 0.100156441903133D+02 -.113484577482523D+01 -.348501215617964D+02
 0.000000000000000D+00 -.000000000000000D+00 -.000000000000000D+00 0.000000000000000D+00
 0.114181798334164D+03 0.194273070791109D+02 -.424122775991423D+02 0.104217376283089D+03
 0.137881859686093D+03 0.000000000000000D+00 0.000000000000000D+00 0.137881859686093D+03
 0.130807282113380D+03 0.000000000000000D+00 0.000000000000000D+00 -.130807282113380D+03
 0.101564939377573D+03 -.254683289364118D+02 0.485281887606390D+02 -.693672547212922D+02
 0.366894715852317D+02 0.114518180971504D+02 0.664992181392662D+00 -.348501215617964D+02
 0.173541699480449D+02 -.988382891987960D+01 -.123865851886566D+02 0.707457757271261D+01
 0.113080560888623D+03 0.239003397591410D+02 -.368065957533751D+02 0.104217376283089D+03
0.715723863608D-06 0.000000000000D+00 0.000000000000D+00 0.294335603534D-06 0.000000000000D+00  6 -1 22 9900012 -13 -2 21 0 0.46233412D-02 0.80525476D-01 0.41781944D+04 0.41781944D+04 0.41781944D+04 0.12507233D+01  1  2  2  1  6  1       -1 0.206553060453D-04 0.100000000000D+01
0.186722458923D-07 0.000000000000D+00 -.137428404534D-08 0.294335603534D-06 0.000000000000D+00  6 -1 22 9900012 -13 -2 21 2 0.46233412D-02 0.80525476D-01 0.41781944D+04 0.41781944D+04 0.41781944D+04 0.12507233D+01  1  2  3  1  6  1       -1 0.842956588330D-06 0.100000000000D+01
-.109853808824D-06 0.000000000000D+00 0.000000000000D+00 0.294335603534D-06 0.000000000000D+00  6 -1 22 9900012 -13 -2 21 2 0.46233412D-02 0.80525476D-01 0.41781944D+04 0.41781944D+04 0.41781944D+04 0.12507233D+01  1  2 15  1  6  1       -1 -.495933871240D-05 0.100000000000D+01
0.104948611983D-05 0.000000000000D+00 0.000000000000D+00 0.294335603534D-06 0.000000000000D+00  6 -1 22 9900012 -13 -2 21 2 0.53012592D-02 0.80525476D-01 0.52845527D+04 0.52845527D+04 0.52845527D+04 0.12391481D+01  1  2 12  1  6  1       -1 0.391361499760D-04 0.100000000000D+01
-.736637464874D-07 0.000000000000D+00 0.000000000000D+00 0.294335603534D-06 0.000000000000D+00  6 -1 22 9900012 -13 -2 21 2 0.46233412D-02 0.80525476D-01 0.41781944D+04 0.41781944D+04 0.41781944D+04 0.12507233D+01  1  2  4  1  6  1       -1 -.332554213246D-05 0.100000000000D+01
-.239917832393D-05 0.000000000000D+00 -.670266566748D-06 0.294335603534D-06 0.000000000000D+00  6 -1 22 9900012 -13 -2 21 2 0.52999092D-02 0.80525476D-01 0.41781944D+04 0.41781944D+04 0.41781944D+04 0.12507233D+01  1  2  5  1  6  1       -1 -.890898623034D-04 0.100000000000D+01
0.247381409331D-05 0.000000000000D+00 0.664063899288D-06 0.294335603534D-06 0.000000000000D+00  6 -1 22 9900012 -13 -2 21 2 0.46233412D-02 0.80525476D-01 0.41781944D+04 0.41781944D+04 0.41781944D+04 0.12507233D+01  1  2  6  1  6  1       -1 0.111680078566D-03 0.100000000000D+01
0.222094994158D-07 0.000000000000D+00 0.000000000000D+00 0.294335603534D-06 0.000000000000D+00  6 21 22 9900012 -13 1 -2 2 0.53012592D-02 0.80525476D-01 0.52845527D+04 0.52845527D+04 0.52845527D+04 0.12391481D+01  3  4 12  3  5  1       -1 0.131790547901D-04 0.100000000000D+01
-.467671777804D-07 0.000000000000D+00 -.141626265924D-07 0.294335603534D-06 0.000000000000D+00  6 21 22 9900012 -13 1 -2 2 0.52999092D-02 0.80525476D-01 0.41781944D+04 0.41781944D+04 0.41781944D+04 0.12507233D+01  3  4  5  3  5  1       -1 -.276617778900D-04 0.100000000000D+01
  </mgrwgt>
  </event>
  <event>
  6     66 0.11438559E-05 0.25192479E+02 0.78161638E-02 0.13116700E+00
       -1 -1    0    0    0  501 0.00000000E+00 0.00000000E+00 0.45847818E+02 0.45847818E+02 0.00000000E+00 0.0000E+00 0.9000E+01
       22 -1    0    0    0    0 0.00000000E+00 0.00000000E+00 -.82158414E+02 0.82158414E+02 0.00000000E+00 0.0000E+00 0.9000E+01
       24  2    1    2    0    0 0.46704809E+01 0.24755759E+02 -.50939339E+02 0.98874443E+02 0.80911546E+02 0.0000E+00 0.0000E+00
  9900012  1    3    3    0    0 0.14259205E+02 0.12870470E+02 -.60542094E+02 0.80835135E+02 0.50000000E+02 0.0000E+00 0.9000E+01
      -13  1    3    3    0    0 -.95887240E+01 0.11885289E+02 0.96027550E+01 0.18039308E+02 0.00000000E+00 0.0000E+00 0.9000E+01
       -2  1    1    2    0  501 -.46704809E+01 -.24755759E+02 0.14628744E+02 0.29131789E+02 0.00000000E+00 0.0000E+00 0.9000E+01
#aMCatNLO 1  0  0  1  5 0.24862273D+01 0.00000000D+00  -5  6  0 0.00000000D+00 0.00000000D+00 0.00000000D+00 0.00000000D+00 0.00000000D+00
  <mgrwgt>
 0.1127584479D-03    3    2    0
 0.613741316083100D+02 0.000000000000000D+00 0.000000000000000D+00 0.613741316083100D+02
 0.613741316083100D+02 0.000000000000000D+00 0.000000000000000D+00 -.613741316083100D+02
 0.663885695271207D+02 0.142592049306669D+02 0.128704696461328D+02 -.392233125792628D+02
 0.216526530930260D+02 -.958872400404022D+01 0.118852889632030D+02 0.153503636504949D+02
 0.347070405964733D+02 -.467048092662668D+01 -.247557586093358D+02 0.238729489287679D+02
 0.000000000000000D+00 -.000000000000000D+00 0.000000000000000D+00 -.000000000000000D+00
 0.736544572943420D+02 0.000000000000000D+00 0.000000000000000D+00 0.736544572943420D+02
 0.162482718707578D+03 0.000000000000000D+00 0.000000000000000D+00 -.162482718707578D+03
 0.702829972643236D+02 0.278193458869449D+02 -.112834147840485D+02 -.392233125792628D+02
 0.171425670459724D+02 -.573957918288356D+01 0.502903286195609D+01 0.153503636504949D+02
 0.458390131966536D+02 0.332105578102983D+01 -.389906146243774D+02 0.238729489287679D+02
 0.102872598494971D+03 -.254008224850912D+02 0.452449965464699D+02 -.888282614132365D+02
0.512532600545D-06 0.000000000000D+00 0.000000000000D+00 0.267800319888D-06 0.000000000000D+00  6 -1 22 9900012 -13 -2 21 0 0.70535105D-02 0.12639756D-01 0.22102359D+04 0.22102359D+04 0.22102359D+04 0.12838587D+01  1  2  2  1  6  1       -1 0.137847650594D-03 0.100000000000D+01
0.501945547127D-08 0.000000000000D+00 -.984130069513D-09 0.267800319888D-06 0.000000000000D+00  6 -1 22 9900012 -13 -2 21 2 0.70535105D-02 0.12639756D-01 0.22102359D+04 0.22102359D+04 0.22102359D+04 0.12838587D+01  1  2  3  1  6  1       -1 0.222519933635D-05 0.100000000000D+01
-.616139967234D-07 0.000000000000D+00 0.000000000000D+00 0.267800319888D-06 0.000000000000D+00  6 -1 22 9900012 -13 -2 21 2 0.70535105D-02 0.12639756D-01 0.22102359D+04 0.22102359D+04 0.22102359D+04 0.12838587D+01  1  2 15  1  6  1       -1 -.273144020110D-04 0.100000000000D+01
  </mgrwgt>
  </event>
  <event>
  6     66 0.11438559E-05 0.33757348E+02 0.78161638E-02 0.12466818E+00
       -1 -1    0    0    0  501 0.00000000E+00 0.00000000E+00 0.12447596E+03 0.12447596E+03 0.00000000E+00 0.0000E+00 0.9000E+01
       22 -1    0    0    0    0 0.00000000E+00 0.00000000E+00 -.42908647E+02 0.42908647E+02 0.00000000E+00 0.0000E+00 0.9000E+01
       24  2    1    2    0    0 -.33379744E+02 0.23812236E+02 0.19390084E+02 0.92904827E+02 0.81080834E+02 0.0000E+00 0.0000E+00
  9900012  1    3    3    0    0 -.12827108E+02 0.46118797E+01 -.93844388E+01 0.52667560E+02 0.50000000E+02 0.0000E+00 0.9000E+01
      -13  1    3    3    0    0 -.20552636E+02 0.19200356E+02 0.28774523E+02 0.40237267E+02 0.00000000E+00 0.0000E+00 0.9000E+01
       -2  1    1    2    0  501 0.33379744E+02 -.23812236E+02 0.62177230E+02 0.74479781E+02 0.00000000E+00 0.0000E+00 0.9000E+01
#aMCatNLO 1  0  0  5  1 0.18825335D+02 0.00000000D+00  -5  6  0 0.00000000D+00 0.00000000D+00 0.00000000D+00 0.00000000D+00 0.00000000D+00
  <mgrwgt>
 0.9264875398D-04    5    2    0
 0.730827961597323D+02 0.000000000000000D+00 0.000000000000000D+00 0.730827961597323D+02
 0.730827961597323D+02 -.000000000000000D+00 -.000000000000000D+00 -.730827961597323D+02
 0.655503265566819D+02 -.128271084943060D+02 0.461187965970220D+01 -.401377772848393D+02
 0.300210098789060D+02 -.205526356125988D+02 0.192003563788930D+02 0.104974529505310D+02
 0.505942558838768D+02 0.333797441069048D+02 -.238122360385952D+02 0.296403243343083D+02
 0.000000000000000D+00 -.000000000000000D+00 0.000000000000000D+00 0.000000000000000D+00
 0.730827961597323D+02 0.000000000000000D+00 0.000000000000000D+00 0.730827961597323D+02
 0.730827961597323D+02 -.000000000000000D+00 -.000000000000000D+00 -.730827961597323D+02
 0.610123352088580D+02 -.634683251183774D+01 -.109796646703240D-01 -.343834646909193D+02
 0.278166113397416D+02 -.175912270704757D+02 0.170877650125272D+02 0.131271049153212D+02
 0.438595284869220D+02 0.368443984786801D+02 -.161285410288177D+02 0.174933902980841D+02
 0.134771172839431D+02 -.129063388963666D+02 -.948244319039238D+00 0.376296947751403D+01
0.467834526354D-06 0.000000000000D+00 0.000000000000D+00 0.241316573485D-06 0.000000000000D+00  6 -1 22 9900012 -13 -2 21 0 0.19150148D-01 0.66013303D-02 0.36574323D+04 0.36574323D+04 0.36574323D+04 0.12574289D+01  1  2  2  2  6  5       -2 0.759970467602D-04 0.100000000000D+01
-.249076393863D-08 0.000000000000D+00 -.898303882430D-09 0.241316573485D-06 0.000000000000D+00  6 -1 22 9900012 -13 -2 21 2 0.19150148D-01 0.66013303D-02 0.36574323D+04 0.36574323D+04 0.36574323D+04 0.12574289D+01  1  2  3  2  6  5       -2 -.639740592780D-06 0.100000000000D+01
-.499148689567D-07 0.000000000000D+00 0.000000000000D+00 0.241316573485D-06 0.000000000000D+00  6 -1 22 9900012 -13 -2 21 2 0.19150148D-01 0.66013303D-02 0.36574323D+04 0.36574323D+04 0.36574323D+04 0.12574289D+01  1  2 15  2  6  5       -2 -.128203911096D-04 0.100000000000D+01
0.147515774065D-06 0.000000000000D+00 0.000000000000D+00 0.241316573485D-06 0.000000000000D+00  6 -1 22 9900012 -13 -2 21 2 0.19150148D-01 0.66013303D-02 0.41015420D+04 0.41015420D+04 0.41015420D+04 0.12516495D+01  1  2 12  2  6  5       -2 0.379912264394D-04 0.100000000000D+01
-.306775816810D-07 0.000000000000D+00 0.000000000000D+00 0.241316573485D-06 0.000000000000D+00  6 -1 22 9900012 -13 -2 21 2 0.19150148D-01 0.66013303D-02 0.36574323D+04 0.36574323D+04 0.36574323D+04 0.12574289D+01  1  2  4  2  6  5       -2 -.787938751852D-05 0.100000000000D+01
  </mgrwgt>
  </event>
  <event>
  6     66 0.11438559E-05 0.97191716E+02 0.78161638E-02 0.10221731E+00
       -1 -1    0    0    0  501 0.00000000E+00 0.00000000E+00 0.42835978E+02 0.42835978E+02 0.00000000E+00 0.0000E+00 0.9000E+01
       22 -1    0    0    0    0 0.00000000E+00 0.00000000E+00 -.30709345E+03 0.30709345E+03 0.00000000E+00 0.0000E+00 0.9000E+01
       24  2    1    2    0    0 -.96262121E+02 0.13410210E+02 -.11127696E+03 0.16868576E+03 0.81400826E+02 0.0000E+00 0.0000E+00
  9900012  1    3    3    0    0 -.27393352E+02 0.89354076E+01 -.53141143E+02 0.78448826E+02 0.50000000E+02 0.0000E+00 0.9000E+01
      -13  1    3    3    0    0 -.68868769E+02 0.44748026E+01 -.58135818E+02 0.90236935E+02 0.00000000E+00 0.0000E+00 0.9000E+01
       -2  1    1    2    0  501 0.96262121E+02 -.13410210E+02 -.15298051E+03 0.18124366E+03 0.00000000E+00 0.0000E+00 0.9000E+01
#aMCatNLO 1  0  0  1  5 0.25592296D+03 0.00000000D+00  -5  6  0 0.00000000D+00 0.00000000D+00 0.00000000D+00 0.00000000D+00 0.00000000D+00
  <mgrwgt>
 0.1271504251D-03    5    4    0
 0.114693714092650D+03 0.000000000000000D+00 0.000000000000000D+00 0.114693714092650D+03
 0.114693714092650D+03 0.000000000000000D+00 0.000000000000000D+00 -.114693714092650D+03
 0.584539821090959D+02 -.273933519970283D+02 0.893540759453208D+01 0.930756584166794D+01
 0.706827520306186D+02 -.688687686990392D+02 0.447480262655001D+01 0.152682767185294D+02
 0.100250694045585D+03 0.962621206960674D+02 -.134102102210821D+02 -.245758425601973D+02
 0.000000000000000D+00 0.000000000000000D+00 -.000000000000000D+00 0.000000000000000D+00
 0.329666960910522D+03 0.000000000000000D+00 0.000000000000000D+00 0.329666960910522D+03
 0.215364978103684D+03 0.000000000000000D+00 0.000000000000000D+00 -.215364978103684D+03
 0.103896933411711D+03 -.802905310103696D+02 0.419687100175058D+02 0.930756584166794D+01
 0.149935358694566D+03 -.140750566588375D+03 0.493636457118612D+02 0.152682767185294D+02
 0.549693022464363D+02 0.456883379491699D+02 0.181721745357815D+02 -.245758425601973D+02
 0.236230344661491D+03 0.175352759649575D+03 -.109504530265149D+03 0.114301982806838D+03
 0.114693714092650D+03 0.000000000000000D+00 0.000000000000000D+00 0.114693714092650D+03
 0.114693714092650D+03 0.000000000000000D+00 0.000000000000000D+00 -.114693714092650D+03
 0.584539821090959D+02 -.273933519970283D+02 0.893540759453208D+01 0.930756584166794D+01
 0.706827520306186D+02 -.688687686990392D+02 0.447480262655001D+01 0.152682767185294D+02
 0.000000000000000D+00 0.000000000000000D+00 -.000000000000000D+00 0.000000000000000D+00
 0.100250694045585D+03 0.962621206960674D+02 -.134102102210821D+02 -.245758425601973D+02
 0.329666960910522D+03 0.000000000000000D+00 0.000000000000000D+00 0.329666960910522D+03
 0.215364978103684D+03 0.000000000000000D+00 0.000000000000000D+00 -.215364978103684D+03
 0.103896933411711D+03 -.802905310103696D+02 0.419687100175058D+02 0.930756584166794D+01
 0.149935358694566D+03 -.140750566588375D+03 0.493636457118612D+02 0.152682767185294D+02
 0.236230344661491D+03 0.175352759649575D+03 -.109504530265149D+03 0.114301982806838D+03
 0.549693022464363D+02 0.456883379491699D+02 0.181721745357815D+02 -.245758425601973D+02
0.292667106817D-05 0.000000000000D+00 0.000000000000D+00 0.138742380847D-06 0.000000000000D+00  6 -1 22 9900012 -13 -2 21 0 0.65901505D-02 0.47245145D-01 0.12534360D+05 0.12534360D+05 0.12534360D+05 0.11992930D+01  1  2  2  1  6  1       -1 0.141347068765D-03 0.100000000000D+01
-.155772424640D-06 0.000000000000D+00 -.561959375598D-08 0.138742380847D-06 0.000000000000D+00  6 -1 22 9900012 -13 -2 21 2 0.65901505D-02 0.47245145D-01 0.12534360D+05 0.12534360D+05 0.12534360D+05 0.11992930D+01  1  2  3  1  6  1       -1 -.108206674730D-04 0.100000000000D+01
-.350005054754D-06 0.000000000000D+00 0.000000000000D+00 0.138742380847D-06 0.000000000000D+00  6 -1 22 9900012 -13 -2 21 2 0.65901505D-02 0.47245145D-01 0.12534360D+05 0.12534360D+05 0.12534360D+05 0.11992930D+01  1  2 15  1  6  1       -1 -.243129573165D-04 0.100000000000D+01
0.137333099158D-05 0.000000000000D+00 -.116589017421D-05 0.138742380847D-06 0.000000000000D+00  6 -1 22 9900012 -13 -2 21 2 0.34742671D-01 0.47245145D-01 0.12534360D+05 0.12534360D+05 0.12534360D+05 0.11992930D+01  1  2  5  1  6  1       -1 0.745830592554D-05 0.100000000000D+01
0.233998398233D-06 0.000000000000D+00 -.236847346941D-06 0.138742380847D-06 0.000000000000D+00  6 21 22 9900012 -13 1 -2 2 0.34742671D-01 0.47245145D-01 0.12534360D+05 0.12534360D+05 0.12534360D+05 0.11992930D+01  3  4  5  3  5  1       -1 0.134786751500D-04 0.100000000000D+01
  </mgrwgt>
  </event>
  <event>
  6     66 -.11438559E-05 0.15756715E+02 0.78161638E-02 0.12695020E+00
       -3 -1    0    0    0  501 0.00000000E+00 0.00000000E+00 0.55316765E+02 0.55316765E+02 0.00000000E+00 0.0000E+00 0.9000E+01
       22 -1    0    0    0    0 0.00000000E+00 0.00000000E+00 -.79630459E+02 0.79630459E+02 0.00000000E+00 0.0000E+00 0.9000E+01
       24  2    1    2    0    0 -.97117942E+01 -.12407866E+02 -.56275304E+02 0.99312709E+02 0.80298383E+02 0.0000E+00 0.0000E+00
  9900012  1    3    3    0    0 0.15749203E+02 -.17445738E+02 -.32406265E+02 0.64051208E+02 0.50000000E+02 0.0000E+00 0.9000E+01
      -13  1    3    3    0    0 -.25460997E+02 0.50378723E+01 -.23869038E+02 0.35261502E+02 0.00000000E+00 0.0000E+00 0.9000E+01
       -4  1    1    2    0  501 0.97117942E+01 0.12407866E+02 0.31961610E+02 0.35634514E+02 0.00000000E+00 0.0000E+00 0.9000E+01
#aMCatNLO 1  0  0  1  1 0.17706383D+02 0.00000000D+00  -5  6  0 0.00000000D+00 0.00000000D+00 0.00000000D+00 0.00000000D+00 0.00000000D+00
  <mgrwgt>
 -.4925755413D-04    5    4    0
 0.663694157622648D+02 0.000000000000000D+00 0.000000000000000D+00 0.663694157622648D+02
 0.663694157622648D+02 0.000000000000000D+00 0.000000000000000D+00 -.663694157622648D+02
 0.591809987062481D+02 0.157492028221963D+02 -.174457381250986D+02 -.212131902269494D+02
 0.314760739429384D+02 -.254609969734905D+02 0.503787234585158D+01 -.178073217021578D+02
 0.420817588753431D+02 0.971179415129418D+01 0.124078657792470D+02 0.390205119291072D+02
 0.000000000000000D+00 -.000000000000000D+00 0.000000000000000D+00 0.000000000000000D+00
 0.222552442179362D+03 0.000000000000000D+00 0.000000000000000D+00 0.222552442179362D+03
 0.674496141369274D+02 0.000000000000000D+00 0.000000000000000D+00 -.674496141369274D+02
 0.626672065525724D+02 0.190433557606229D+02 -.247897143765794D+02 -.212131902269494D+02
 0.297593261562082D+02 -.238055046111380D+02 0.134712184917571D+01 -.178073217021578D+02
 0.414757985055693D+02 0.119707636009419D+02 0.737172498641630D+01 0.390205119291072D+02
 0.156099725101939D+03 -.720861475042675D+01 0.160708675409873D+02 0.155102828042434D+03
 0.663694157622648D+02 0.000000000000000D+00 0.000000000000000D+00 0.663694157622648D+02
 0.663694157622648D+02 0.000000000000000D+00 0.000000000000000D+00 -.663694157622648D+02
 0.591809987062481D+02 0.157492028221963D+02 -.174457381250986D+02 -.212131902269494D+02
 0.314760739429384D+02 -.254609969734905D+02 0.503787234585158D+01 -.178073217021578D+02
 0.000000000000000D+00 -.000000000000000D+00 0.000000000000000D+00 0.000000000000000D+00
 0.420817588753431D+02 0.971179415129418D+01 0.124078657792470D+02 0.390205119291072D+02
 0.222552442179362D+03 0.000000000000000D+00 0.000000000000000D+00 0.222552442179362D+03
 0.674496141369274D+02 0.000000000000000D+00 0.000000000000000D+00 -.674496141369274D+02
 0.626672065525724D+02 0.190433557606229D+02 -.247897143765794D+02 -.212131902269494D+02
 0.297593261562082D+02 -.238055046111380D+02 0.134712184917571D+01 -.178073217021578D+02
 0.156099725101939D+03 -.720861475042675D+01 0.160708675409873D+02 0.155102828042434D+03
 0.414757985055693D+02 0.119707636009419D+02 0.737172498641630D+01 0.390205119291072D+02
0.290226988991D-07 0.000000000000D+00 0.000000000000D+00 0.399407164249D-06 0.000000000000D+00  6 -3 22 9900012 -13 -4 21 0 0.85102715D-02 0.12250840D-01 0.23503002D+04 0.23503002D+04 0.23503002D+04 0.12805430D+01  1  2  2  1  6  1       -3 0.523518178174D-05 0.100000000000D+01
0.307856181176D-08 0.000000000000D+00 -.557274028124D-10 0.399407164249D-06 0.000000000000D+00  6 -3 22 9900012 -13 -4 21 2 0.85102715D-02 0.12250840D-01 0.23503002D+04 0.23503002D+04 0.23503002D+04 0.12805430D+01  1  2  3  1  6  1       -3 0.910605329786D-06 0.100000000000D+01
-.401759644993D-08 0.000000000000D+00 0.000000000000D+00 0.399407164249D-06 0.000000000000D+00  6 -3 22 9900012 -13 -4 21 2 0.85102715D-02 0.12250840D-01 0.23503002D+04 0.23503002D+04 0.23503002D+04 0.12805430D+01  1  2 15  1  6  1       -3 -.118836163245D-05 0.100000000000D+01
-.406624979660D-06 0.000000000000D+00 -.893409706691D-08 0.399407164249D-06 0.000000000000D+00  6 -3 22 9900012 -13 -4 21 2 0.28738802D-01 0.12250840D-01 0.23503002D+04 0.23503002D+04 0.23503002D+04 0.12805430D+01  1  2  5  1  6  1       -3 -.159506902586D-04 0.100000000000D+01
-.572136034221D-07 0.000000000000D+00 -.126426482310D-08 0.399407164249D-06 0.000000000000D+00  6 21 22 9900012 -13 3 -4 2 0.28738802D-01 0.12250840D-01 0.23503002D+04 0.23503002D+04 0.23503002D+04 0.12805430D+01  3  4  5  3  5  1       -3 -.382642893460D-04 0.100000000000D+01
  </mgrwgt>
  </event>
  <event>
  6     66 0.11438559E-05 0.61148553E+02 0.78161638E-02 0.11642935E+00
       -1 -1    0    0    0  501 0.00000000E+00 0.00000000E+00 0.69411336E+03 0.69411336E+03 0.00000000E+00 0.0000E+00 0.9000E+01
       22 -1    0    0    0    0 0.00000000E+00 0.00000000E+00 -.18320557E+03 0.18320557E+03 0.00000000E+00 0.0000E+00 0.9000E+01
       24  2    1    2    0    0 0.61593508E+02 -.14929435E+02 -.16293290E+03 0.20050438E+03 0.98174481E+02 0.0000E+00 0.0000E+00
  9900012  1    3    3    0    0 0.12114340E+02 -.34055164E+02 -.68473976E+02 0.92169392E+02 0.50000000E+02 0.0000E+00 0.9000E+01
      -13  1    3    3    0    0 0.49479168E+02 0.19125729E+02 -.94458924E+02 0.10833499E+03 0.00000000E+00 0.0000E+00 0.9000E+01
       -2  1    1    2    0  501 -.61593508E+02 0.14929435E+02 0.67384070E+03 0.67681455E+03 0.00000000E+00 0.0000E+00 0.9000E+01
#aMCatNLO 1  0  0  1  5 0.22016612D+02 0.00000000D+00  -5  6  0 0.00000000D+00 0.00000000D+00 0.00000000D+00 0.00000000D+00 0.00000000D+00
  <mgrwgt>
 0.4510208397D-03    9    4    0
 0.356602624400106D+03 0.000000000000000D+00 0.000000000000000D+00 0.356602624400106D+03
 0.356602624400106D+03 0.000000000000000D+00 0.000000000000000D+00 -.356602624400106D+03
 0.162429875957598D+03 0.121143398611730D+02 -.340551635257352D+02 -.150256291750343D+03
 0.200929729488164D+03 0.494791681203995D+02 0.191257288763093D+02 -.193800863283036D+03
 0.349845643354451D+03 -.615935079815725D+02 0.149294346494260D+02 0.344057155033378D+03
 0.000000000000000D+00 0.000000000000000D+00 0.000000000000000D+00 0.000000000000000D+00
 0.389563825154365D+03 0.000000000000000D+00 0.000000000000000D+00 0.389563825154365D+03
 0.360084075759227D+03 0.000000000000000D+00 0.000000000000000D+00 -.360084075759227D+03
 0.163345397910675D+03 0.106849655013640D+02 -.386082545612623D+02 -.150256291750343D+03
 0.200046973499267D+03 0.477198393311843D+02 0.135216097847987D+02 -.193800863283036D+03
 0.350119028630138D+03 -.646646789241266D+02 0.514660848414934D+01 0.344057155033378D+03
 0.361365008735127D+02 0.625987409157828D+01 0.199400362923143D+02 0.294797493951383D+02
 0.356602624400106D+03 0.000000000000000D+00 0.000000000000000D+00 0.356602624400106D+03
 0.356602624400106D+03 0.000000000000000D+00 0.000000000000000D+00 -.356602624400106D+03
 0.162429875957598D+03 0.121143398611730D+02 -.340551635257352D+02 -.150256291750343D+03
 0.200929729488164D+03 0.494791681203995D+02 0.191257288763093D+02 -.193800863283036D+03
 0.000000000000000D+00 0.000000000000000D+00 0.000000000000000D+00 0.000000000000000D+00
 0.349845643354451D+03 -.615935079815725D+02 0.149294346494260D+02 0.344057155033378D+03
 0.389563825154365D+03 0.000000000000000D+00 0.000000000000000D+00 0.389563825154365D+03
 0.360084075759227D+03 0.000000000000000D+00 0.000000000000000D+00 -.360084075759227D+03
 0.163345397910675D+03 0.106849655013640D+02 -.386082545612623D+02 -.150256291750343D+03
 0.200046973499267D+03 0.477198393311843D+02 0.135216097847987D+02 -.193800863283036D+03
 0.361365008735127D+02 0.625987409157828D+01 0.199400362923143D+02 0.294797493951383D+02
 0.350119028630138D+03 -.646646789241266D+02 0.514660848414934D+01 0.344057155033378D+03
0.457814929714D-04 0.000000000000D+00 0.000000000000D+00 0.801871587550D-06 0.000000000000D+00  6 -1 22 9900012 -13 -2 21 0 0.10678667D+00 0.28185472D-01 0.79317673D+04 0.79317673D+04 0.79317673D+04 0.12199068D+01  1  2  2  1  6  1       -1 0.478335560991D-04 0.100000000000D+01
0.191365498381D-05 0.000000000000D+00 -.879064937770D-07 0.801871587550D-06 0.000000000000D+00  6 -1 22 9900012 -13 -2 21 2 0.10678667D+00 0.28185472D-01 0.79317673D+04 0.79317673D+04 0.79317673D+04 0.12199068D+01  1  2  3  1  6  1       -1 0.297549786897D-05 0.100000000000D+01
-.685014690998D-05 0.000000000000D+00 0.000000000000D+00 0.801871587550D-06 0.000000000000D+00  6 -1 22 9900012 -13 -2 21 2 0.10678667D+00 0.28185472D-01 0.79317673D+04 0.79317673D+04 0.79317673D+04 0.12199068D+01  1  2 15  1  6  1       -1 -.106511349774D-04 0.100000000000D+01
0.266779838658D-03 0.000000000000D+00 0.000000000000D+00 0.801871587550D-06 0.000000000000D+00  6 -1 22 9900012 -13 -2 21 2 0.11779599D+00 0.28185472D-01 0.99436511D+04 0.99436511D+04 0.99436511D+04 0.12095844D+01  1  2 12  1  6  1       -1 0.327163683860D-03 0.100000000000D+01
-.110039695156D-04 0.000000000000D+00 0.000000000000D+00 0.801871587550D-06 0.000000000000D+00  6 -1 22 9900012 -13 -2 21 2 0.10678667D+00 0.28185472D-01 0.79317673D+04 0.79317673D+04 0.79317673D+04 0.12199068D+01  1  2  4  1  6  1       -1 -.171098176635D-04 0.100000000000D+01
-.345785051587D-03 0.000000000000D+00 -.547074022463D-04 0.801871587550D-06 0.000000000000D+00  6 -1 22 9900012 -13 -2 21 2 0.11726220D+00 0.28185472D-01 0.79317673D+04 0.79317673D+04 0.79317673D+04 0.12199068D+01  1  2  5  1  6  1       -1 -.433759447131D-03 0.100000000000D+01
0.349611294911D-03 0.000000000000D+00 0.544687343692D-04 0.801871587550D-06 0.000000000000D+00  6 -1 22 9900012 -13 -2 21 2 0.10678667D+00 0.28185472D-01 0.79317673D+04 0.79317673D+04 0.79317673D+04 0.12199068D+01  1  2  6  1  6  1       -1 0.543602515489D-03 0.100000000000D+01
0.428347302016D-05 0.000000000000D+00 0.000000000000D+00 0.801871587550D-06 0.000000000000D+00  6 21 22 9900012 -13 1 -2 2 0.11779599D+00 0.28185472D-01 0.99436511D+04 0.99436511D+04 0.99436511D+04 0.12095844D+01  3  4 12  3  5  1       -1 0.382712525444D-04 0.100000000000D+01
-.514271216365D-05 0.000000000000D+00 -.838850808078D-06 0.801871587550D-06 0.000000000000D+00  6 21 22 9900012 -13 1 -2 2 0.11726220D+00 0.28185472D-01 0.79317673D+04 0.79317673D+04 0.79317673D+04 0.12199068D+01  3  4  5  3  5  1       -1 -.473052663578D-04 0.100000000000D+01
  </mgrwgt>
  </event>
  <event>
  6     66 0.11438559E-05 0.33069355E+02 0.78161638E-02 0.12638802E+00
       -3 -1    0    0    0  501 0.00000000E+00 0.00000000E+00 0.32605364E+01 0.32605364E+01 0.00000000E+00 0.0000E+00 0.9000E+01
       22 -1    0    0    0    0 -.00000000E+00 -.00000000E+00 -.18679504E+04 0.18679504E+04 0.00000000E+00 0.0000E+00 0.9000E+01
       24  2    1    2    0    0 0.13839094E+02 0.30034343E+02 -.17361182E+04 0.17384546E+04 0.83810974E+02 0.0000E+00 0.0000E+00
  9900012  1    3    3    0    0 0.26382710E+02 0.39413493E+02 -.11080467E+04 0.11101878E+04 0.50000000E+02 0.0000E+00 0.9000E+01
      -13  1    3    3    0    0 -.12543616E+02 -.93791501E+01 -.62807148E+03 0.62826674E+03 0.00000000E+00 0.0000E+00 0.9000E+01
       -4  1    1    2    0  501 -.13839094E+02 -.30034343E+02 -.12857168E+03 0.13275639E+03 0.00000000E+00 0.0000E+00 0.9000E+01
#aMCatNLO 1  0  0  5  1 0.12037505D+01 0.00000000D+00  -5  6  0 0.00000000D+00 0.00000000D+00 0.00000000D+00 0.00000000D+00 0.00000000D+00
  <mgrwgt>
 0.1896960987D-05    1    2    0
 0.780417858991948D+02 0.000000000000000D+00 0.000000000000000D+00 0.780417858991948D+02
 0.780417858991948D+02 -.000000000000000D+00 -.000000000000000D+00 -.780417858991948D+02
 0.719621572982137D+02 0.263827098579607D+02 0.394134928133425D+02 -.207142773906335D+02
 0.285812897946347D+02 -.125436161050339D+02 -.937915006425732D+01 -.239077260609738D+02
 0.555401247055413D+02 -.138390937529268D+02 -.300343427490851D+02 0.446220034516073D+02
 0.000000000000000D+00 0.000000000000000D+00 0.000000000000000D+00 0.000000000000000D+00
 0.780417858991948D+02 0.000000000000000D+00 0.000000000000000D+00 0.780417858991948D+02
 0.780417858991948D+02 -.000000000000000D+00 -.000000000000000D+00 -.780417858991948D+02
 0.713530472263913D+02 0.261357251496525D+02 0.388774733661485D+02 -.199179136472136D+02
 0.284317128040504D+02 -.126418704379451D+02 -.959238688192220D+01 -.235909202599165D+02
 0.548833384320244D+02 -.148522820487468D+02 -.295714902679197D+02 0.437849005791144D+02
 0.141547333592347D+01 0.135842733703938D+01 0.286403783693460D+00 -.276066671984315D+00
0.372142271490D-07 0.000000000000D+00 0.000000000000D+00 0.238135331748D-07 0.000000000000D+00  6 -3 22 9900012 -13 -4 21 2 0.50162099D-03 0.28737699D+00 0.34602723D+04 0.34602723D+04 0.34602723D+04 0.12602534D+01  1  2 14  2  6  5       -4 0.189696098696D-05 0.100000000000D+01
  </mgrwgt>
  </event>
  <event>
  6     66 0.11438559E-05 0.49084083E+02 0.78161638E-02 0.11704623E+00
       -3 -1    0    0    0  501 0.00000000E+00 0.00000000E+00 0.96759741E+02 0.96759741E+02 0.00000000E+00 0.0000E+00 0.9000E+01
       22 -1    0    0    0    0 -.00000000E+00 -.00000000E+00 -.12410784E+03 0.12410784E+03 0.00000000E+00 0.0000E+00 0.9000E+01
       24  2    1    2    0    0 -.22774311E+02 0.43480777E+02 -.96927198E+02 0.13571772E+03 0.81333691E+02 0.0000E+00 0.0000E+00
  9900012  1    3    3    0    0 0.93143387E+01 0.33084211E+02 -.69377667E+02 0.92166060E+02 0.50000000E+02 0.0000E+00 0.9000E+01
      -13  1    3    3    0    0 -.32088650E+02 0.10396566E+02 -.27549532E+02 0.43551656E+02 0.00000000E+00 0.0000E+00 0.9000E+01
       -4  1    1    2    0  501 0.22774311E+02 -.43480777E+02 0.69579103E+02 0.85149861E+02 0.00000000E+00 0.0000E+00 0.9000E+01
#aMCatNLO 1  0  0  5  1 0.51819025D+02 0.00000000D+00  -5  6  0 0.00000000D+00 0.00000000D+00 0.00000000D+00 0.00000000D+00 0.00000000D+00
  <mgrwgt>
 0.9037553474D-04    3    2    0
 0.109583949673344D+03 0.000000000000000D+00 0.000000000000000D+00 0.109583949673344D+03
 0.109583949673344D+03 -.000000000000000D+00 -.000000000000000D+00 -.109583949673344D+03
 0.842237720661706D+02 0.931433872889963D+01 0.330842108074891D+02 -.584150825587297D+02
 0.404517338618479D+02 -.320886501878234D+02 0.103965663291727D+02 -.223287417942972D+02
 0.944923934186692D+02 0.227743114589237D+02 -.434807771366618D+02 0.807438243530268D+02
 0.000000000000000D+00 0.000000000000000D+00 0.000000000000000D+00 -.000000000000000D+00
 0.109583949673344D+03 0.000000000000000D+00 0.000000000000000D+00 0.109583949673344D+03
 0.109583949673344D+03 -.000000000000000D+00 -.000000000000000D+00 -.109583949673344D+03
 0.677339576849151D+02 0.152954463678391D+02 0.216650638994401D+02 -.372097211801380D+02
 0.320653231009583D+02 -.292343542986697D+02 0.494713688485230D+01 -.122091486579221D+02
 0.523804821672738D+02 -.409450957941730D+02 0.751223655475462D+01 0.317927718896527D+02
 0.669881363935405D+02 0.548840037250035D+02 -.341244373390470D+02 0.176260979484073D+02
0.256107155943D-05 0.000000000000D+00 0.000000000000D+00 0.732032352647D-06 0.000000000000D+00  6 -3 22 9900012 -13 -4 21 0 0.14886114D-01 0.19093513D-01 0.51472610D+04 0.51472610D+04 0.51472610D+04 0.12404286D+01  1  2  2  2  6  5       -4 0.108713604867D-03 0.100000000000D+01
0.613090054149D-07 0.000000000000D+00 -.491759456693D-08 0.732032352647D-06 0.000000000000D+00  6 -3 22 9900012 -13 -4 21 2 0.14886114D-01 0.19093513D-01 0.51472610D+04 0.51472610D+04 0.51472610D+04 0.12404286D+01  1  2  3  2  6  5       -4 0.400433115416D-05 0.100000000000D+01
-.342077202969D-06 0.000000000000D+00 0.000000000000D+00 0.732032352647D-06 0.000000000000D+00  6 -3 22 9900012 -13 -4 21 2 0.14886114D-01 0.19093513D-01 0.51472610D+04 0.51472610D+04 0.51472610D+04 0.12404286D+01  1  2 15  2  6  5       -4 -.223424012787D-04 0.100000000000D+01
  </mgrwgt>
  </event>
  <event>
  6     66 0.11438559E-05 0.13099557E+02 0.78161638E-02 0.12334719E+00
       -1 -1    0    0    0  501 0.00000000E+00 0.00000000E+00 0.35386155E+02 0.35386155E+02 0.00000000E+00 0.0000E+00 0.9000E+01
       22 -1    0    0    0    0 -.00000000E+00 -.00000000E+00 -.54669619E+03 0.54669619E+03 0.00000000E+00 0.0000E+00 0.9000E+01
       24  2    1    2    0    0 -.43975020E+01 0.12339383E+02 -.54237867E+03 0.54836500E+03 0.79736740E+02 0.0000E+00 0.0000E+00
  9900012  1    3    3    0    0 -.18063287E+02 0.25286042E+02 -.33496647E+03 0.34010028E+03 0.50000000E+02 0.0000E+00 0.9000E+01
      -13  1    3    3    0    0 0.13665786E+02 -.12946659E+02 -.20741220E+03 0.20826472E+03 0.00000000E+00 0.0000E+00 0.9000E+01
       -2  1    1    2    0  501 0.43975020E+01 -.12339383E+02 0.31068644E+02 0.33717340E+02 0.00000000E+00 0.0000E+00 0.9000E+01
#aMCatNLO 1  0  0  5  1 0.16713131D+00 0.00000000D+00  -5  6  0 0.00000000D+00 0.00000000D+00 0.00000000D+00 0.00000000D+00 0.00000000D+00
  <mgrwgt>
 0.3034792257D-04    4    2    0
 0.139088014215109D+03 0.000000000000000D+00 0.000000000000000D+00 0.139088014215109D+03
 0.139088014215109D+03 -.000000000000000D+00 -.000000000000000D+00 -.139088014215109D+03
 0.959631658559501D+02 -.180632874811212D+02 0.252860420248359D+02 -.757843184648987D+02
 0.545527700016093D+02 0.136657855268897D+02 -.129466592980143D+02 -.512019045915548D+02
 0.127660092572659D+03 0.439750195423154D+01 -.123393827268216D+02 0.126986223056454D+03
 0.000000000000000D+00 0.000000000000000D+00 0.000000000000000D+00 -.000000000000000D+00
 0.139088014215109D+03 0.000000000000000D+00 0.000000000000000D+00 0.139088014215109D+03
 0.139088014215109D+03 -.000000000000000D+00 -.000000000000000D+00 -.139088014215109D+03
 0.850742939374234D+02 -.175888525003027D+02 0.239547783055149D+02 -.620841070887498D+02
 0.476568517724143D+02 0.139336406989693D+02 -.136982604384002D+02 -.434670776414938D+02
 0.110368465960334D+03 -.412252188165512D+01 0.238807214821244D+02 0.107675039973366D+03
 0.350764167600464D+02 0.777773368298849D+01 -.341372393492390D+02 -.212385524312214D+01
0.140588550116D-05 0.000000000000D+00 0.000000000000D+00 0.107955343171D-04 0.000000000000D+00  6 -1 22 9900012 -13 -2 21 0 0.54440238D-02 0.84107105D-01 0.20608956D+04 0.20608956D+04 0.20608956D+04 0.12876669D+01  1  2  2  2  6  5       -2 0.275647085158D-04 0.100000000000D+01
0.285673921636D-06 0.000000000000D+00 -.269948525130D-08 0.107955343171D-04 0.000000000000D+00  6 -1 22 9900012 -13 -2 21 2 0.54440238D-02 0.84107105D-01 0.20608956D+04 0.20608956D+04 0.20608956D+04 0.12876669D+01  1  2  3  2  6  5       -2 0.928712139695D-05 0.100000000000D+01
-.198718201081D-06 0.000000000000D+00 0.000000000000D+00 0.107955343171D-04 0.000000000000D+00  6 -1 22 9900012 -13 -2 21 2 0.54440238D-02 0.84107105D-01 0.20608956D+04 0.20608956D+04 0.20608956D+04 0.12876669D+01  1  2 15  2  6  5       -2 -.646023286499D-05 0.100000000000D+01
-.134343651340D-08 0.000000000000D+00 0.000000000000D+00 0.107955343171D-04 0.000000000000D+00  6 -1 22 9900012 -13 -2 21 2 0.54440238D-02 0.84107105D-01 0.20608956D+04 0.20608956D+04 0.20608956D+04 0.12876669D+01  1  2  4  2  6  5       -2 -.436744730411D-07 0.100000000000D+01
  </mgrwgt>
  </event>
  <event>
  7     66 -.11438559E-05 0.47280817E+02 0.78161638E-02 0.12194735E+00
       -3 -1    0    0    0  501 0.00000000E+00 0.00000000E+00 0.40339355E+03 0.40339355E+03 0.00000000E+00 0.0000E+00 0.9000E+01
       22 -1    0    0    0    0 0.00000000E+00 0.00000000E+00 -.46414634E+02 0.46414634E+02 0.00000000E+00 0.0000E+00 0.9000E+01
       24  2    1    2    0    0 -.46899773E+02 -.75282789E+01 0.20549640E+02 0.10918936E+03 0.96144497E+02 0.0000E+00 0.0000E+00
  9900012  1    3    3    0    0 -.29735878E+02 0.21817345E+02 0.36043484E+02 0.71828627E+02 0.50000000E+02 0.0000E+00 0.9000E+01
      -13  1    3    3    0    0 -.17163896E+02 -.29345624E+02 -.15493844E+02 0.37360730E+02 0.00000000E+00 0.0000E+00 0.9000E+01
       -4  1    1    2    0  502 0.48264420E+02 0.53612501E+01 0.28360443E+03 0.28773194E+03 0.00000000E+00 0.0000E+00 0.9000E+01
       21  1    1    2  502  501 -.13646468E+01 0.21670288E+01 0.52824846E+02 0.52886885E+02 0.00000000E+00 0.0000E+00 0.9000E+01
#aMCatNLO 2  0  0  5  1 0.85758759D+01 0.00000000D+00  -5  6  0 0.00000000D+00 0.00000000D+00 0.00000000D+00 0.00000000D+00 0.00000000D+00
  <mgrwgt>
 -.6206488524D-04    2    2    0
 0.136833344056997D+03 0.000000000000000D+00 0.000000000000000D+00 0.136833344056997D+03
 0.136833344056997D+03 -.000000000000000D+00 -.000000000000000D+00 -.136833344056997D+03
 0.714195322422191D+02 -.299863078862615D+02 0.217771461361092D+02 -.350332246762163D+02
 0.823025395937612D+02 -.174520449045939D+02 -.293918769313182D+02 -.748682290606965D+02
 0.119944616278014D+03 0.474383527908554D+02 0.761473079520898D+01 0.109901453736913D+03
 0.000000000000000D+00 0.000000000000000D+00 0.000000000000000D+00 0.000000000000000D+00
 0.136833344056997D+03 0.000000000000000D+00 0.000000000000000D+00 0.136833344056997D+03
 0.136833344056997D+03 -.000000000000000D+00 -.000000000000000D+00 -.136833344056997D+03
 0.710438696093430D+02 -.297358775048079D+02 0.218173448324282D+02 -.344530472172100D+02
 0.816180377018411D+02 -.171638958630386D+02 -.293456236941956D+02 -.742006679693694D+02
 0.102984328478781D+03 0.482644202101134D+02 0.536125006933110D+01 0.908161585385615D+02
 0.180204523240290D+02 -.136464684226698D+01 0.216702879243633D+01 0.178375566480178D+02
-.412317759585D-05 0.000000000000D+00 0.000000000000D+00 0.284645802957D-07 0.000000000000D+00  6 -3 22 9900012 -13 -4 21 2 0.62060546D-01 0.71407129D-02 0.54205957D+04 0.54205957D+04 0.54205957D+04 0.12379158D+01  1  2 13  2  6  5       -4 -.775146698921D-04 0.100000000000D+01
0.821808388288D-06 0.000000000000D+00 0.000000000000D+00 0.284645802957D-07 0.185596529547D-07  6 -3 22 9900012 -13 -4 21 2 0.62060546D-01 0.71407129D-02 0.54205957D+04 0.54205957D+04 0.54205957D+04 0.12379158D+01  1  2  1  2  6  5       -4 0.154497846508D-04 0.100000000000D+01
  </mgrwgt>
  </event>
  <event>
  6     66 0.11438559E-05 0.69552526E+02 0.78161638E-02 0.11072958E+00
       -1 -1    0    0    0  501 0.00000000E+00 0.00000000E+00 0.31464507E+02 0.31464507E+02 0.00000000E+00 0.0000E+00 0.9000E+01
       22 -1    0    0    0    0 0.00000000E+00 0.00000000E+00 -.21114981E+04 0.21114981E+04 0.00000000E+00 0.0000E+00 0.9000E+01
       24  2    1    2    0    0 0.41129419E+02 0.95529974E+02 -.20169653E+04 0.20213270E+04 0.82439778E+02 0.0000E+00 0.0000E+00
  9900012  1    3    3    0    0 -.49775617E+00 0.55619319E+02 -.12007183E+04 0.12030453E+04 0.50000000E+02 0.0000E+00 0.9000E+01
      -13  1    3    3    0    0 0.41627175E+02 0.39910656E+02 -.81624705E+03 0.81828169E+03 0.00000000E+00 0.0000E+00 0.9000E+01
       -2  1    1    2    0  501 -.41129419E+02 -.95529974E+02 -.63068294E+02 0.12163558E+03 0.00000000E+00 0.0000E+00 0.9000E+01
#aMCatNLO 1  0  0  1  5 0.41029888D+02 0.00000000D+00  -5  6  0 0.00000000D+00 0.00000000D+00 0.00000000D+00 0.00000000D+00 0.00000000D+00
  <mgrwgt>
 0.1344135873D-03    9    4    0
 0.257754237130499D+03 0.000000000000000D+00 0.000000000000000D+00 0.257754237130499D+03
 0.257754237130499D+03 0.000000000000000D+00 0.000000000000000D+00 -.257754237130499D+03
 0.156247415319001D+03 -.497756166213769D+00 0.556193186170987D+02 -.137184177036701D+03
 0.108098679573998D+03 0.416271751832498D+02 0.399106557816384D+02 -.914310798743215D+02
 0.251162379368000D+03 -.411294190170361D+02 -.955299743987370D+02 0.228615256911022D+03
 0.000000000000000D+00 0.000000000000000D+00 0.000000000000000D+00 0.000000000000000D+00
 0.398432176560355D+03 0.000000000000000D+00 0.000000000000000D+00 0.398432176560355D+03
 0.261460243309192D+03 0.000000000000000D+00 0.000000000000000D+00 -.261460243309192D+03
 0.154318073629614D+03 -.105628691856026D+02 0.488159319698577D+02 -.137184177036701D+03
 0.103976413705571D+03 0.347540361564938D+02 0.352648438380282D+02 -.914310798743215D+02
 0.258794103008481D+03 -.576565922308586D+02 -.106701309419314D+03 0.228615256911022D+03
 0.142803829525882D+03 0.334654252599674D+02 0.226205336114277D+02 0.136971933251163D+03
 0.257754237130499D+03 0.000000000000000D+00 0.000000000000000D+00 0.257754237130499D+03
 0.257754237130499D+03 0.000000000000000D+00 0.000000000000000D+00 -.257754237130499D+03
 0.156247415319001D+03 -.497756166213769D+00 0.556193186170987D+02 -.137184177036701D+03
 0.108098679573998D+03 0.416271751832498D+02 0.399106557816384D+02 -.914310798743215D+02
 0.000000000000000D+00 0.000000000000000D+00 0.000000000000000D+00 0.000000000000000D+00
 0.251162379368000D+03 -.411294190170361D+02 -.955299743987370D+02 0.228615256911022D+03
 0.398432176560355D+03 0.000000000000000D+00 0.000000000000000D+00 0.398432176560355D+03
 0.261460243309192D+03 0.000000000000000D+00 0.000000000000000D+00 -.261460243309192D+03
 0.154318073629614D+03 -.105628691856026D+02 0.488159319698577D+02 -.137184177036701D+03
 0.103976413705571D+03 0.347540361564938D+02 0.352648438380282D+02 -.914310798743215D+02
 0.142803829525882D+03 0.334654252599674D+02 0.226205336114277D+02 0.136971933251163D+03
 0.258794103008481D+03 -.576565922308586D+02 -.106701309419314D+03 0.228615256911022D+03
0.222652708588D-04 0.000000000000D+00 0.000000000000D+00 0.292184424549D-05 0.000000000000D+00  6 -1 22 9900012 -13 -2 21 0 0.48406934D-02 0.32484586D+00 0.13979263D+05 0.13979263D+05 0.13979263D+05 0.11945339D+01  1  2  2  1  6  1       -1 0.243241677289D-04 0.100000000000D+01
0.254442995691D-06 0.000000000000D+00 -.427522513391D-07 0.292184424549D-05 0.000000000000D+00  6 -1 22 9900012 -13 -2 21 2 0.48406934D-02 0.32484586D+00 0.13979263D+05 0.13979263D+05 0.13979263D+05 0.11945339D+01  1  2  3  1  6  1       -1 0.396640885025D-06 0.100000000000D+01
-.307453524623D-05 0.000000000000D+00 0.000000000000D+00 0.292184424549D-05 0.000000000000D+00  6 -1 22 9900012 -13 -2 21 2 0.48406934D-02 0.32484586D+00 0.13979263D+05 0.13979263D+05 0.13979263D+05 0.11945339D+01  1  2 15  1  6  1       -1 -.479276852480D-05 0.100000000000D+01
0.114170179288D-03 0.000000000000D+00 0.000000000000D+00 0.292184424549D-05 0.000000000000D+00  6 -1 22 9900012 -13 -2 21 2 0.75902488D-02 0.32484586D+00 0.19861307D+05 0.19861307D+05 0.19861307D+05 0.11796054D+01  1  2 12  1  6  1       -1 0.917356409245D-04 0.100000000000D+01
-.357608376388D-04 0.000000000000D+00 0.000000000000D+00 0.292184424549D-05 0.000000000000D+00  6 -1 22 9900012 -13 -2 21 2 0.48406934D-02 0.32484586D+00 0.13979263D+05 0.13979263D+05 0.13979263D+05 0.11945339D+01  1  2  4  1  6  1       -1 -.557461220412D-04 0.100000000000D+01
-.124361248327D-03 0.000000000000D+00 -.803388031777D-05 0.292184424549D-05 0.000000000000D+00  6 -1 22 9900012 -13 -2 21 2 0.75855185D-02 0.32484586D+00 0.13979263D+05 0.13979263D+05 0.13979263D+05 0.11945339D+01  1  2  5  1  6  1       -1 -.100429686811D-03 0.100000000000D+01
0.116740947078D-03 0.000000000000D+00 0.728636914046D-05 0.292184424549D-05 0.000000000000D+00  6 -1 22 9900012 -13 -2 21 2 0.48406934D-02 0.32484586D+00 0.13979263D+05 0.13979263D+05 0.13979263D+05 0.11945339D+01  1  2  6  1  6  1       -1 0.181982736219D-03 0.100000000000D+01
0.593093669029D-05 0.000000000000D+00 0.000000000000D+00 0.292184424549D-05 0.000000000000D+00  6 21 22 9900012 -13 1 -2 2 0.75902488D-02 0.32484586D+00 0.19861307D+05 0.19861307D+05 0.19861307D+05 0.11796054D+01  3  4 12  3  5  1       -1 0.710423076222D-04 0.100000000000D+01
-.613457983965D-05 0.000000000000D+00 -.416907210667D-06 0.292184424549D-05 0.000000000000D+00  6 21 22 9900012 -13 1 -2 2 0.75855185D-02 0.32484586D+00 0.13979263D+05 0.13979263D+05 0.13979263D+05 0.11945339D+01  3  4  5  3  5  1       -1 -.740993286749D-04 0.100000000000D+01
  </mgrwgt>
  </event>
  <event>
  7     66 -.11438559E-05 0.37776607E+02 0.78161638E-02 0.12457052E+00
       -1 -1    0    0    0  502 0.00000000E+00 0.00000000E+00 0.64951476E+03 0.64951476E+03 0.00000000E+00 0.0000E+00 0.9000E+01
       22 -1    0    0    0    0 0.00000000E+00 0.00000000E+00 -.75747422E+01 0.75747422E+01 0.00000000E+00 0.0000E+00 0.9000E+01
       24  2    1    2    0    0 0.31949242E+02 -.25131231E+02 0.30105602E+03 0.31363630E+03 0.77978646E+02 0.0000E+00 0.0000E+00
  9900012  1    3    3    0    0 -.15286494E+01 -.99682076E+01 0.18474611E+03 0.19165810E+03 0.50000000E+02 0.0000E+00 0.9000E+01
      -13  1    3    3    0    0 0.33477891E+02 -.15163024E+02 0.11630991E+03 0.12197820E+03 0.00000000E+00 0.0000E+00 0.9000E+01
       -2  1    1    2    0  501 -.23077246E+02 0.20870703E+02 0.28661429E+03 0.28829828E+03 0.00000000E+00 0.0000E+00 0.9000E+01
       21  1    1    2  501  502 -.88719962E+01 0.42605286E+01 0.54269708E+02 0.55154924E+02 0.00000000E+00 0.0000E+00 0.9000E+01
#aMCatNLO 2  0  0  1  5 0.12808463D+02 0.00000000D+00  -5  6  0 0.00000000D+00 0.00000000D+00 0.00000000D+00 0.00000000D+00 0.00000000D+00
  <mgrwgt>
 -.4473453147D-04    2    2    0
 0.649460913518049D+02 0.000000000000000D+00 0.000000000000000D+00 0.649460913518049D+02
 0.649460913518049D+02 0.000000000000000D+00 0.000000000000000D+00 -.649460913518049D+02
 0.520964833196452D+02 -.508438086484127D+01 -.826066681525993D+01 -.109523526816193D+02
 0.362562102748563D+02 0.309139001602672D+02 -.139317387223104D+02 -.128355060885383D+02
 0.415394891091083D+02 -.258295192954259D+02 0.221924055375703D+02 0.237878587701576D+02
 0.000000000000000D+00 -.000000000000000D+00 0.000000000000000D+00 0.000000000000000D+00
 0.711233832508582D+02 0.000000000000000D+00 0.000000000000000D+00 0.711233832508582D+02
 0.691742522444581D+02 0.000000000000000D+00 0.000000000000000D+00 -.691742522444581D+02
 0.521694926279320D+02 -.152864944162775D+01 -.996820759604704D+01 -.109523526816193D+02
 0.389286104234591D+02 0.334778912136870D+02 -.151630238685127D+02 -.128355060885383D+02
 0.391664107173556D+02 -.230772455892270D+02 0.208707029020616D+02 0.237878587701576D+02
 0.100331217265696D+02 -.887199618283220D+01 0.426052856249819D+01 0.194913100640014D+01
-.344601654696D-06 0.000000000000D+00 0.000000000000D+00 0.653460327672D-07 0.000000000000D+00  6 -1 22 9900012 -13 -2 21 2 0.10643075D+00 0.10941152D-02 0.41419249D+04 0.41419249D+04 0.41419249D+04 0.12511592D+01  1  2 13  1  6  1       -1 -.505360777146D-04 0.100000000000D+01
0.374906498370D-07 0.000000000000D+00 0.000000000000D+00 0.653460327672D-07 0.134222540167D-07  6 -1 22 9900012 -13 -2 21 2 0.99925347D-01 0.11653450D-02 0.41419249D+04 0.41419249D+04 0.41419249D+04 0.12511592D+01  1  2  1  1  6  1       -1 0.580154624358D-05 0.100000000000D+01
  </mgrwgt>
  </event>
  <event>
  6     66 0.11438559E-05 0.29809063E+02 0.78161638E-02 0.12006653E+00
       -3 -1    0    0    0  501 0.00000000E+00 0.00000000E+00 0.27622913E+02 0.27622913E+02 0.00000000E+00 0.0000E+00 0.9000E+01
       22 -1    0    0    0    0 0.00000000E+00 0.00000000E+00 -.16852398E+03 0.16852398E+03 0.00000000E+00 0.0000E+00 0.9000E+01
       24  2    1    2    0    0 -.18908547E+02 -.35328727E+02 -.11308199E+03 0.14736623E+03 0.85578128E+02 0.0000E+00 0.0000E+00
  9900012  1    3    3    0    0 -.45774686E+01 -.38573854E+01 -.33188927E+02 0.60310343E+02 0.50000000E+02 0.0000E+00 0.9000E+01
      -13  1    3    3    0    0 -.14331078E+02 -.31471342E+02 -.79893064E+02 0.87055883E+02 0.00000000E+00 0.0000E+00 0.9000E+01
       -4  1    1    2    0  501 0.18908547E+02 0.35328727E+02 -.27819072E+02 0.48780661E+02 0.00000000E+00 0.0000E+00 0.9000E+01
#aMCatNLO 1  0  0  1  5 0.38961357D+02 0.00000000D+00  -5  6  0 0.00000000D+00 0.00000000D+00 0.00000000D+00 0.00000000D+00 0.00000000D+00
  <mgrwgt>
 0.7025161981D-04    9    4    0
 0.682284620120369D+02 0.000000000000000D+00 0.000000000000000D+00 0.682284620120369D+02
 0.682284620120369D+02 0.000000000000000D+00 0.000000000000000D+00 -.682284620120369D+02
 0.524218989032437D+02 -.457746855235956D+01 -.385738542064981D+01 0.145678702626918D+02
 0.426414638043075D+02 -.143310783826679D+02 -.314713420789090D+02 -.249493337689846D+02
 0.413935613165225D+02 0.189085469350275D+02 0.353287274995588D+02 0.103814635062928D+02
 0.000000000000000D+00 0.000000000000000D+00 -.000000000000000D+00 0.000000000000000D+00
 0.995406494921261D+02 0.000000000000000D+00 0.000000000000000D+00 0.995406494921261D+02
 0.794590994822980D+02 0.000000000000000D+00 0.000000000000000D+00 -.794590994822980D+02
 0.549679706895710D+02 -.173381695933180D+02 -.293986953660483D+01 0.145678702626918D+02
 0.467786055677423D+02 -.249565012148681D+02 -.307073562922389D+02 -.249493337689846D+02
 0.386394686510582D+02 0.939854778249385D+01 0.360125124461457D+02 0.103814635062928D+02
 0.386137040660527D+02 0.328961230256922D+02 -.236528661730198D+01 0.200815500098281D+02
 0.682284620120369D+02 0.000000000000000D+00 0.000000000000000D+00 0.682284620120369D+02
 0.682284620120369D+02 0.000000000000000D+00 0.000000000000000D+00 -.682284620120369D+02
 0.524218989032437D+02 -.457746855235956D+01 -.385738542064981D+01 0.145678702626918D+02
 0.426414638043075D+02 -.143310783826679D+02 -.314713420789090D+02 -.249493337689846D+02
 0.000000000000000D+00 0.000000000000000D+00 -.000000000000000D+00 0.000000000000000D+00
 0.413935613165225D+02 0.189085469350275D+02 0.353287274995588D+02 0.103814635062928D+02
 0.995406494921261D+02 0.000000000000000D+00 0.000000000000000D+00 0.995406494921261D+02
 0.794590994822980D+02 0.000000000000000D+00 0.000000000000000D+00 -.794590994822980D+02
 0.549679706895710D+02 -.173381695933180D+02 -.293986953660483D+01 0.145678702626918D+02
 0.467786055677423D+02 -.249565012148681D+02 -.307073562922389D+02 -.249493337689846D+02
 0.386137040660527D+02 0.328961230256922D+02 -.236528661730198D+01 0.200815500098281D+02
 0.386394686510582D+02 0.939854778249385D+01 0.360125124461457D+02 0.103814635062928D+02
0.313215731222D-06 0.000000000000D+00 0.000000000000D+00 0.744755684608D-08 0.000000000000D+00  6 -3 22 9900012 -13 -4 21 0 0.42496788D-02 0.25926765D-01 0.39067717D+04 0.39067717D+04 0.39067717D+04 0.12540931D+01  1  2  2  1  6  1       -3 0.577172545198D-04 0.100000000000D+01
-.589234646196D-08 0.000000000000D+00 -.601415439745D-09 0.744755684608D-08 0.000000000000D+00  6 -3 22 9900012 -13 -4 21 2 0.42496788D-02 0.25926765D-01 0.39067717D+04 0.39067717D+04 0.39067717D+04 0.12540931D+01  1  2  3  1  6  1       -3 -.170769342670D-05 0.100000000000D+01
-.396514099188D-07 0.000000000000D+00 0.000000000000D+00 0.744755684608D-08 0.000000000000D+00  6 -3 22 9900012 -13 -4 21 2 0.42496788D-02 0.25926765D-01 0.39067717D+04 0.39067717D+04 0.39067717D+04 0.12540931D+01  1  2 15  1  6  1       -3 -.114915938013D-04 0.100000000000D+01
0.727076174519D-07 0.000000000000D+00 0.000000000000D+00 0.744755684608D-08 0.000000000000D+00  6 -3 22 9900012 -13 -4 21 2 0.72205297D-02 0.25926765D-01 0.66236791D+04 0.66236791D+04 0.66236791D+04 0.12283324D+01  1  2 12  1  6  1       -3 0.963439323801D-05 0.100000000000D+01
-.676371905331D-07 0.000000000000D+00 0.000000000000D+00 0.744755684608D-08 0.000000000000D+00  6 -3 22 9900012 -13 -4 21 2 0.42496788D-02 0.25926765D-01 0.39067717D+04 0.39067717D+04 0.39067717D+04 0.12540931D+01  1  2  4  1  6  1       -3 -.196023072335D-04 0.100000000000D+01
-.209786245155D-06 0.000000000000D+00 -.103444431767D-06 0.744755684608D-08 0.000000000000D+00  6 -3 22 9900012 -13 -4 21 2 0.72004719D-02 0.25926765D-01 0.39067717D+04 0.39067717D+04 0.39067717D+04 0.12540931D+01  1  2  5  1  6  1       -3 -.274323915874D-04 0.100000000000D+01
0.242688622461D-06 0.000000000000D+00 0.905599589644D-07 0.744755684608D-08 0.000000000000D+00  6 -3 22 9900012 -13 -4 21 2 0.42496788D-02 0.25926765D-01 0.39067717D+04 0.39067717D+04 0.39067717D+04 0.12540931D+01  1  2  6  1  6  1       -3 0.703349281963D-04 0.100000000000D+01
0.429668459142D-08 0.000000000000D+00 0.000000000000D+00 0.744755684608D-08 0.000000000000D+00  6 21 22 9900012 -13 3 -4 2 0.72205297D-02 0.25926765D-01 0.66236791D+04 0.66236791D+04 0.66236791D+04 0.12283324D+01  3  4 12  3  5  1       -3 0.101028372957D-04 0.100000000000D+01
-.739920873156D-08 0.000000000000D+00 -.608691302594D-08 0.744755684608D-08 0.000000000000D+00  6 21 22 9900012 -13 3 -4 2 0.72004719D-02 0.25926765D-01 0.39067717D+04 0.39067717D+04 0.39067717D+04 0.12540931D+01  3  4  5  3  5  1       -3 -.173038073899D-04 0.100000000000D+01
  </mgrwgt>
  </event>
  <event>
  6     66 0.11438559E-05 0.16975696E+02 0.78161638E-02 0.13132944E+00
       -3 -1    0    0    0  501 0.00000000E+00 0.00000000E+00 0.16525291E+03 0.16525291E+03 0.00000000E+00 0.0000E+00 0.9000E+01
       22 -1    0    0    0    0 0.00000000E+00 0.00000000E+00 -.29823046E+02 0.29823046E+02 0.00000000E+00 0.0000E+00 0.9000E+01
       24  2    1    2    0    0 0.13312964E+02 0.10532771E+02 0.27779994E+02 0.86095825E+02 0.79703129E+02 0.0000E+00 0.0000E+00
  9900012  1    3    3    0    0 0.20289348E+01 -.91732557E+01 0.86661041E+00 0.50882376E+02 0.50000000E+02 0.0000E+00 0.9000E+01
      -13  1    3    3    0    0 0.11284029E+02 0.19706027E+02 0.26913383E+02 0.35213449E+02 0.00000000E+00 0.0000E+00 0.9000E+01
       -4  1    1    2    0  501 -.13312964E+02 -.10532771E+02 0.10764987E+03 0.10898013E+03 0.00000000E+00 0.0000E+00 0.9000E+01
#aMCatNLO 1  0  0  5  1 0.18083251D+02 0.00000000D+00  -5  6  0 0.00000000D+00 0.00000000D+00 0.00000000D+00 0.00000000D+00 0.00000000D+00
  <mgrwgt>
 0.1551812080D-04    4    2    0
 0.702021737308931D+02 0.000000000000000D+00 0.000000000000000D+00 0.702021737308931D+02
 0.702021737308931D+02 -.000000000000000D+00 -.000000000000000D+00 -.702021737308931D+02
 0.698593992600869D+02 0.202893476003524D+01 -.917325574232770D+01 -.478755727673895D+02
 0.229652535356943D+02 0.112840290607370D+02 0.197060267589322D+02 0.342725363686619D+01
 0.475796946660050D+02 -.133129638207722D+02 -.105327710166044D+02 0.444483191305233D+02
 0.000000000000000D+00 0.000000000000000D+00 0.000000000000000D+00 -.000000000000000D+00
 0.702021737308931D+02 0.000000000000000D+00 0.000000000000000D+00 0.702021737308931D+02
 0.702021737308931D+02 -.000000000000000D+00 -.000000000000000D+00 -.702021737308931D+02
 0.634018330983801D+02 -.117900282480355D+01 -.117112684997834D+02 -.371651528007075D+02
 0.225592361762401D+02 0.101881385380929D+02 0.188389948876168D+02 0.708613022801257D+01
 0.426527582262684D+02 -.663892152510258D+01 -.127938407791609D+02 0.401434944095493D+02
 0.117905199608976D+02 -.237021418818674D+01 0.566611439132747D+01 -.100644718368544D+02
0.150214625218D-06 0.000000000000D+00 0.000000000000D+00 0.837558490525D-06 0.000000000000D+00  6 -3 22 9900012 -13 -4 21 0 0.25423525D-01 0.45881609D-02 0.20502227D+04 0.20502227D+04 0.20502227D+04 0.12879510D+01  1  2  2  2  6  5       -4 0.170409241283D-04 0.100000000000D+01
0.131156936622D-07 0.000000000000D+00 -.288431856628D-09 0.837558490525D-06 0.000000000000D+00  6 -3 22 9900012 -13 -4 21 2 0.25423525D-01 0.45881609D-02 0.20502227D+04 0.20502227D+04 0.20502227D+04 0.12879510D+01  1  2  3  2  6  5       -4 0.246814610881D-05 0.100000000000D+01
-.201147296706D-07 0.000000000000D+00 0.000000000000D+00 0.837558490525D-06 0.000000000000D+00  6 -3 22 9900012 -13 -4 21 2 0.25423525D-01 0.45881609D-02 0.20502227D+04 0.20502227D+04 0.20502227D+04 0.12879510D+01  1  2 15  2  6  5       -4 -.378524331573D-05 0.100000000000D+01
-.109311940813D-08 0.000000000000D+00 0.000000000000D+00 0.837558490525D-06 0.000000000000D+00  6 -3 22 9900012 -13 -4 21 2 0.25423525D-01 0.45881609D-02 0.20502227D+04 0.20502227D+04 0.20502227D+04 0.12879510D+01  1  2  4  2  6  5       -4 -.205706116895D-06 0.100000000000D+01
  </mgrwgt>
  </event>
  <event>
  7     66 -.11438559E-05 0.37720495E+02 0.78161638E-02 0.12334925E+00
       -3 -1    0    0    0  501 0.00000000E+00 0.00000000E+00 0.64361933E+01 0.64361933E+01 0.00000000E+00 0.0000E+00 0.9000E+01
       22 -1    0    0    0    0 -.00000000E+00 -.00000000E+00 -.18786223E+04 0.18786223E+04 0.00000000E+00 0.0000E+00 0.9000E+01
       24  2    1    2    0    0 -.35657936E+02 0.14373537E+02 -.17350512E+04 0.17373012E+04 0.79589382E+02 0.0000E+00 0.0000E+00
  9900012  1    3    3    0    0 -.46156256E+02 -.28928236E+01 -.13076814E+04 0.13094539E+04 0.50000000E+02 0.0000E+00 0.9000E+01
      -13  1    3    3    0    0 0.10498321E+02 0.17266361E+02 -.42736984E+03 0.42784731E+03 0.00000000E+00 0.0000E+00 0.9000E+01
       -4  1    1    2    0  502 0.40393115E+02 -.88616893E+01 -.13324588E+03 0.13951558E+03 0.00000000E+00 0.0000E+00 0.9000E+01
       21  1    1    2  502  501 -.47351788E+01 -.55118479E+01 -.38890270E+01 0.82417787E+01 0.00000000E+00 0.0000E+00 0.9000E+01
#aMCatNLO 2  0  0  5  1 0.19087331D+02 0.00000000D+00  -5  6  0 0.00000000D+00 0.00000000D+00 0.00000000D+00 0.00000000D+00 0.00000000D+00
  <mgrwgt>
 -.3061084730D-04    2    2    0
 0.109959885714491D+03 0.000000000000000D+00 0.000000000000000D+00 0.109959885714491D+03
 0.109959885714491D+03 -.000000000000000D+00 -.000000000000000D+00 -.109959885714491D+03
 0.945688010469996D+02 -.475351835112677D+02 -.233698496066852D+01 -.646390204235081D+02
 0.297928589148003D+02 0.100623673086260D+02 0.174420913613493D+02 -.219576104211236D+02
 0.955581114671815D+02 0.374728162026418D+02 -.151051064006807D+02 0.865966308446317D+02
 0.000000000000000D+00 0.000000000000000D+00 0.000000000000000D+00 0.000000000000000D+00
 0.109959885714491D+03 0.000000000000000D+00 0.000000000000000D+00 0.109959885714491D+03
 0.109959885714491D+03 -.000000000000000D+00 -.000000000000000D+00 -.109959885714491D+03
 0.917342349150917D+02 -.461562564596299D+02 -.289282361771341D+01 -.614524321455783D+02
 0.291075775285223D+02 0.104983205111358D+02 0.172663607871107D+02 -.209501580231207D+02
 0.615403932254332D+02 0.403931147929551D+02 -.886168928638427D+01 0.455750670724211D+02
 0.375375657599342D+02 -.473517884446100D+01 -.551184788301297D+01 0.368275230962779D+02
-.183397226935D-05 0.000000000000D+00 0.000000000000D+00 0.242894899984D-05 0.000000000000D+00  6 -3 22 9900012 -13 -4 21 2 0.99018358D-03 0.28901882D+00 0.46878848D+04 0.46878848D+04 0.46878848D+04 0.12450110D+01  1  2 13  2  6  5       -4 -.363417958734D-04 0.100000000000D+01
0.289209724355D-06 0.000000000000D+00 0.000000000000D+00 0.242894899984D-05 0.111813119717D-06  6 -3 22 9900012 -13 -4 21 2 0.99018358D-03 0.28901882D+00 0.46878848D+04 0.46878848D+04 0.46878848D+04 0.12450110D+01  1  2  1  2  6  5       -4 0.573094857692D-05 0.100000000000D+01
  </mgrwgt>
  </event>
  <event>
  6     66 0.11438559E-05 0.29802021E+02 0.78161638E-02 0.12684824E+00
       -3 -1    0    0    0  501 0.00000000E+00 0.00000000E+00 0.40747148E+03 0.40747148E+03 0.00000000E+00 0.0000E+00 0.9000E+01
       22 -1    0    0    0    0 0.00000000E+00 0.00000000E+00 -.16577171E+02 0.16577171E+02 0.00000000E+00 0.0000E+00 0.9000E+01
       24  2    1    2    0    0 0.11670664E+02 -.27421817E+02 0.97986519E+02 0.12962865E+03 0.79461121E+02 0.0000E+00 0.0000E+00
  9900012  1    3    3    0    0 -.48956769E+01 -.90587730E+01 0.90298695E+02 0.10372986E+03 0.50000000E+02 0.0000E+00 0.9000E+01
      -13  1    3    3    0    0 0.16566341E+02 -.18363044E+02 0.76878232E+01 0.25898797E+02 0.00000000E+00 0.0000E+00 0.9000E+01
       -4  1    1    2    0  501 -.11670664E+02 0.27421817E+02 0.29290779E+03 0.29442000E+03 0.00000000E+00 0.0000E+00 0.9000E+01
#aMCatNLO 1  0  0  5  1 0.10615970D+02 0.00000000D+00  -5  6  0 0.00000000D+00 0.00000000D+00 0.00000000D+00 0.00000000D+00 0.00000000D+00
  <mgrwgt>
 0.3594518050D-04    5    2    0
 0.821871304133670D+02 0.000000000000000D+00 0.000000000000000D+00 0.821871304133670D+02
 0.821871304133670D+02 -.000000000000000D+00 -.000000000000000D+00 -.821871304133670D+02
 0.528626570375512D+02 -.489567685774038D+01 -.905877300117959D+01 -.137270349634377D+02
 0.485308556896092D+02 0.165663408931335D+02 -.183630442678199D+02 -.417564235608876D+02
 0.629807480995736D+02 -.116706640353931D+02 0.274218172689995D+02 0.554834585243253D+02
 0.000000000000000D+00 0.000000000000000D+00 -.000000000000000D+00 0.000000000000000D+00
 0.821871304133670D+02 0.000000000000000D+00 0.000000000000000D+00 0.821871304133670D+02
 0.821871304133670D+02 -.000000000000000D+00 -.000000000000000D+00 -.821871304133670D+02
 0.521206258653987D+02 -.542215754252433D+01 -.782173480952051D+01 -.112240951864480D+02
 0.460101336790395D+02 0.160922272681198D+02 -.172490496270316D+02 -.395024418191897D+02
 0.583405909151442D+02 -.825870589325075D+01 0.320917750012203D+02 0.480160004849221D+02
 0.790291036715165D+01 -.241136383234469D+01 -.702099056466822D+01 0.271053652071554D+01
0.334431732300D-06 0.000000000000D+00 0.000000000000D+00 0.835408510764D-06 0.000000000000D+00  6 -3 22 9900012 -13 -4 21 0 0.62687921D-01 0.25503340D-02 0.27869298D+04 0.27869298D+04 0.27869298D+04 0.12714825D+01  1  2  2  2  6  5       -4 0.152895427577D-04 0.100000000000D+01
0.122058576719D-07 0.000000000000D+00 -.642152954964D-09 0.835408510764D-06 0.000000000000D+00  6 -3 22 9900012 -13 -4 21 2 0.62687921D-01 0.25503340D-02 0.27869298D+04 0.27869298D+04 0.27869298D+04 0.12714825D+01  1  2  3  2  6  5       -4 0.902144433530D-06 0.100000000000D+01
-.454588456044D-07 0.000000000000D+00 0.000000000000D+00 0.835408510764D-06 0.000000000000D+00  6 -3 22 9900012 -13 -4 21 2 0.62687921D-01 0.25503340D-02 0.27869298D+04 0.27869298D+04 0.27869298D+04 0.12714825D+01  1  2 15  2  6  5       -4 -.335989863384D-05 0.100000000000D+01
0.336034344198D-06 0.000000000000D+00 0.000000000000D+00 0.835408510764D-06 0.000000000000D+00  6 -3 22 9900012 -13 -4 21 2 0.62687921D-01 0.25503340D-02 0.33090520D+04 0.33090520D+04 0.33090520D+04 0.12625458D+01  1  2 12  2  6  5       -4 0.249276926244D-04 0.100000000000D+01
-.245471734948D-07 0.000000000000D+00 0.000000000000D+00 0.835408510764D-06 0.000000000000D+00  6 -3 22 9900012 -13 -4 21 2 0.62687921D-01 0.25503340D-02 0.27869298D+04 0.27869298D+04 0.27869298D+04 0.12714825D+01  1  2  4  2  6  5       -4 -.181430068435D-05 0.100000000000D+01
  </mgrwgt>
  </event>
  <event>
  6     66 0.11438559E-05 0.31642270E+02 0.78161638E-02 0.12440827E+00
       -3 -1    0    0    0  501 0.00000000E+00 0.00000000E+00 0.32992308E+02 0.32992308E+02 0.00000000E+00 0.0000E+00 0.9000E+01
       22 -1    0    0    0    0 0.00000000E+00 0.00000000E+00 -.16081414E+03 0.16081414E+03 0.00000000E+00 0.0000E+00 0.9000E+01
       24  2    1    2    0    0 -.30171720E+02 -.95341784E+01 -.13665208E+03 0.16095516E+03 0.78940109E+02 0.0000E+00 0.0000E+00
  9900012  1    3    3    0    0 -.10548510E+02 0.54859346E+01 -.53405893E+02 0.74118526E+02 0.50000000E+02 0.0000E+00 0.9000E+01
      -13  1    3    3    0    0 -.19623211E+02 -.15020113E+02 -.83246186E+02 0.86836637E+02 0.00000000E+00 0.0000E+00 0.9000E+01
       -4  1    1    2    0  501 0.30171720E+02 0.95341784E+01 0.88302511E+01 0.32851280E+02 0.00000000E+00 0.0000E+00 0.9000E+01
#aMCatNLO 1  0  0  1  5 0.23916436D+02 0.00000000D+00  -5  6  0 0.00000000D+00 0.00000000D+00 0.00000000D+00 0.00000000D+00 0.00000000D+00
  <mgrwgt>
 0.4063569763D-04    9    4    0
 0.728397523969738D+02 0.000000000000000D+00 0.000000000000000D+00 0.728397523969738D+02
 0.728397523969738D+02 0.000000000000000D+00 0.000000000000000D+00 -.728397523969738D+02
 0.517451592344298D+02 -.105485097226593D+02 0.548593459790226D+01 -.601622542920355D+01
 0.424824366115230D+02 -.196232106538000D+02 -.150201130333519D+02 -.345555093806183D+02
 0.514519089479948D+02 0.301717203764593D+02 0.953417843544959D+01 0.405717348098218D+02
 0.000000000000000D+00 -.000000000000000D+00 -.000000000000000D+00 0.000000000000000D+00
 0.916816410166360D+02 0.000000000000000D+00 0.000000000000000D+00 0.916816410166360D+02
 0.793214337396463D+02 0.000000000000000D+00 0.000000000000000D+00 -.793214337396463D+02
 0.510624211061208D+02 -.368302991280820D+01 0.759020233361244D+01 -.601622542920355D+01
 0.396473704187283D+02 -.141385904527859D+02 -.133390784004835D+02 -.345555093806183D+02
 0.563980749298562D+02 0.373739313841831D+02 0.117416541937474D+02 0.405717348098218D+02
 0.238952083015769D+02 -.195523110185889D+02 -.599277812687638D+01 0.123602072769897D+02
 0.728397523969738D+02 0.000000000000000D+00 0.000000000000000D+00 0.728397523969738D+02
 0.728397523969738D+02 0.000000000000000D+00 0.000000000000000D+00 -.728397523969738D+02
 0.517451592344298D+02 -.105485097226593D+02 0.548593459790226D+01 -.601622542920355D+01
 0.424824366115230D+02 -.196232106538000D+02 -.150201130333519D+02 -.345555093806183D+02
 0.000000000000000D+00 -.000000000000000D+00 -.000000000000000D+00 0.000000000000000D+00
 0.514519089479948D+02 0.301717203764593D+02 0.953417843544959D+01 0.405717348098218D+02
 0.916816410166360D+02 0.000000000000000D+00 0.000000000000000D+00 0.916816410166360D+02
 0.793214337396463D+02 0.000000000000000D+00 0.000000000000000D+00 -.793214337396463D+02
 0.510624211061208D+02 -.368302991280820D+01 0.759020233361244D+01 -.601622542920355D+01
 0.396473704187283D+02 -.141385904527859D+02 -.133390784004835D+02 -.345555093806183D+02
 0.238952083015769D+02 -.195523110185889D+02 -.599277812687638D+01 0.123602072769897D+02
 0.563980749298562D+02 0.373739313841831D+02 0.117416541937474D+02 0.405717348098218D+02
0.132489646829D-06 0.000000000000D+00 0.000000000000D+00 0.264112162979D-06 0.000000000000D+00  6 -3 22 9900012 -13 -4 21 0 0.50757397D-02 0.24740636D-01 0.29024251D+04 0.29024251D+04 0.29024251D+04 0.12693510D+01  1  2  2  1  6  1       -3 0.193703499137D-04 0.100000000000D+01
0.263382763591D-08 0.000000000000D+00 -.254397564575D-09 0.264112162979D-06 0.000000000000D+00  6 -3 22 9900012 -13 -4 21 2 0.50757397D-02 0.24740636D-01 0.29024251D+04 0.29024251D+04 0.29024251D+04 0.12693510D+01  1  2  3  1  6  1       -3 0.620449335713D-06 0.100000000000D+01
-.179896825419D-07 0.000000000000D+00 0.000000000000D+00 0.264112162979D-06 0.000000000000D+00  6 -3 22 9900012 -13 -4 21 2 0.50757397D-02 0.24740636D-01 0.29024251D+04 0.29024251D+04 0.29024251D+04 0.12693510D+01  1  2 15  1  6  1       -3 -.423781967759D-05 0.100000000000D+01
0.936175183511D-07 0.000000000000D+00 0.000000000000D+00 0.264112162979D-06 0.000000000000D+00  6 -3 22 9900012 -13 -4 21 2 0.69572139D-02 0.24740636D-01 0.42100425D+04 0.42100425D+04 0.42100425D+04 0.12503441D+01  1  2 12  1  6  1       -3 0.138882896112D-04 0.100000000000D+01
-.127898526433D-07 0.000000000000D+00 0.000000000000D+00 0.264112162979D-06 0.000000000000D+00  6 -3 22 9900012 -13 -4 21 2 0.50757397D-02 0.24740636D-01 0.29024251D+04 0.29024251D+04 0.29024251D+04 0.12693510D+01  1  2  4  1  6  1       -3 -.301289859223D-05 0.100000000000D+01
-.172975830081D-06 0.000000000000D+00 -.611707154248D-07 0.264112162979D-06 0.000000000000D+00  6 -3 22 9900012 -13 -4 21 2 0.69447245D-02 0.24740636D-01 0.29024251D+04 0.29024251D+04 0.29024251D+04 0.12693510D+01  1  2  5  1  6  1       -3 -.253803075601D-04 0.100000000000D+01
0.185833567963D-06 0.000000000000D+00 0.582829069975D-07 0.264112162979D-06 0.000000000000D+00  6 -3 22 9900012 -13 -4 21 2 0.50757397D-02 0.24740636D-01 0.29024251D+04 0.29024251D+04 0.29024251D+04 0.12693510D+01  1  2  6  1  6  1       -3 0.437767119700D-04 0.100000000000D+01
0.375111116556D-08 0.000000000000D+00 0.000000000000D+00 0.264112162979D-06 0.000000000000D+00  6 21 22 9900012 -13 3 -4 2 0.69572139D-02 0.24740636D-01 0.42100425D+04 0.42100425D+04 0.42100425D+04 0.12503441D+01  3  4 12  3  5  1       -3 0.996330379749D-05 0.100000000000D+01
-.543464503350D-08 0.000000000000D+00 -.244094129462D-08 0.264112162979D-06 0.000000000000D+00  6 21 22 9900012 -13 3 -4 2 0.69447245D-02 0.24740636D-01 0.29024251D+04 0.29024251D+04 0.29024251D+04 0.12693510D+01  3  4  5  3  5  1       -3 -.143523811677D-04 0.100000000000D+01
  </mgrwgt>
  </event>
  <event>
  6     66 0.11438559E-05 0.24627053E+02 0.78161638E-02 0.12943019E+00
       -1 -1    0    0    0  501 0.00000000E+00 0.00000000E+00 0.75365841E+01 0.75365841E+01 0.00000000E+00 0.0000E+00 0.9000E+01
       22 -1    0    0    0    0 0.00000000E+00 0.00000000E+00 -.43432593E+03 0.43432593E+03 0.00000000E+00 0.0000E+00 0.9000E+01
       24  2    1    2    0    0 0.21049149E+02 -.13888608E+02 -.37320493E+03 0.38264048E+03 0.80596864E+02 0.0000E+00 0.0000E+00
  9900012  1    3    3    0    0 -.13639203E+01 -.14759016E+02 -.16058800E+03 0.16884370E+03 0.50000000E+02 0.0000E+00 0.9000E+01
      -13  1    3    3    0    0 0.22413069E+02 0.87040729E+00 -.21261693E+03 0.21379678E+03 0.00000000E+00 0.0000E+00 0.9000E+01
       -2  1    1    2    0  501 -.21049149E+02 0.13888608E+02 -.53584417E+02 0.59222039E+02 0.00000000E+00 0.0000E+00 0.9000E+01
#aMCatNLO 1  0  0  1  5 0.43807592D+01 0.00000000D+00  -5  6  0 0.00000000D+00 0.00000000D+00 0.00000000D+00 0.00000000D+00 0.00000000D+00
  <mgrwgt>
 0.1107963608D-03    8    4    0
 0.572130570469189D+02 0.000000000000000D+00 0.000000000000000D+00 0.572130570469189D+02
 0.572130570469189D+02 0.000000000000000D+00 0.000000000000000D+00 -.572130570469189D+02
 0.530338179823276D+02 -.136392032787534D+01 -.147590157029240D+02 0.963831036036436D+01
 0.325637318215045D+02 0.224130692006953D+02 0.870407286349074D+00 -.236070614499895D+02
 0.288285642900058D+02 -.210491488728199D+02 0.138886084165749D+02 0.139687510896251D+02
 0.000000000000000D+00 0.000000000000000D+00 0.000000000000000D+00 -.000000000000000D+00
 0.578031168327773D+02 0.000000000000000D+00 0.000000000000000D+00 0.578031168327773D+02
 0.591617313834057D+02 0.000000000000000D+00 0.000000000000000D+00 -.591617313834057D+02
 0.532137399487719D+02 -.218834671921542D+01 -.152975890704815D+02 0.963831036036436D+01
 0.322126443872596D+02 0.219104378450032D+02 0.542053094005680D+00 -.236070614499895D+02
 0.290193909531010D+02 -.214980192460892D+02 0.135953746833178D+02 0.139687510896251D+02
 0.251907292705041D+01 0.177592812030137D+01 0.116016129315805D+01 -.135861455062833D+01
 0.572130570469189D+02 0.000000000000000D+00 0.000000000000000D+00 0.572130570469189D+02
 0.572130570469189D+02 0.000000000000000D+00 0.000000000000000D+00 -.572130570469189D+02
 0.530338179823276D+02 -.136392032787534D+01 -.147590157029240D+02 0.963831036036436D+01
 0.325637318215045D+02 0.224130692006953D+02 0.870407286349074D+00 -.236070614499895D+02
 0.000000000000000D+00 0.000000000000000D+00 0.000000000000000D+00 -.000000000000000D+00
 0.288285642900058D+02 -.210491488728199D+02 0.138886084165749D+02 0.139687510896251D+02
 0.578031168327773D+02 0.000000000000000D+00 0.000000000000000D+00 0.578031168327773D+02
 0.591617313834057D+02 0.000000000000000D+00 0.000000000000000D+00 -.591617313834057D+02
 0.532137399487719D+02 -.218834671921542D+01 -.152975890704815D+02 0.963831036036436D+01
 0.322126443872596D+02 0.219104378450032D+02 0.542053094005680D+00 -.236070614499895D+02
 0.251907292705041D+01 0.177592812030137D+01 0.116016129315805D+01 -.135861455062833D+01
 0.290193909531010D+02 -.214980192460892D+02 0.135953746833178D+02 0.139687510896251D+02
0.269630332739D-06 0.000000000000D+00 0.000000000000D+00 0.879578217924D-07 0.000000000000D+00  6 -1 22 9900012 -13 -2 21 0 0.11594745D-02 0.66819374D-01 0.24899526D+04 0.24899526D+04 0.24899526D+04 0.12774522D+01  1  2  2  1  6  1       -1 0.703180980605D-04 0.100000000000D+01
0.150331985050D-08 0.000000000000D+00 -.517725736507D-09 0.879578217924D-07 0.000000000000D+00  6 -1 22 9900012 -13 -2 21 2 0.11594745D-02 0.66819374D-01 0.24899526D+04 0.24899526D+04 0.24899526D+04 0.12774522D+01  1  2  3  1  6  1       -1 0.639792385497D-06 0.100000000000D+01
-.287100074528D-07 0.000000000000D+00 0.000000000000D+00 0.879578217924D-07 0.000000000000D+00  6 -1 22 9900012 -13 -2 21 2 0.11594745D-02 0.66819374D-01 0.24899526D+04 0.24899526D+04 0.24899526D+04 0.12774522D+01  1  2 15  1  6  1       -1 -.122185868495D-04 0.100000000000D+01
0.321528403672D-07 0.000000000000D+00 0.000000000000D+00 0.879578217924D-07 0.000000000000D+00  6 -1 22 9900012 -13 -2 21 2 0.12113315D-02 0.66819374D-01 0.25912278D+04 0.25912278D+04 0.25912278D+04 0.12753305D+01  1  2 12  1  6  1       -1 0.129163293462D-04 0.100000000000D+01
-.377764640036D-07 0.000000000000D+00 0.000000000000D+00 0.879578217924D-07 0.000000000000D+00  6 -1 22 9900012 -13 -2 21 2 0.11594745D-02 0.66819374D-01 0.24899526D+04 0.24899526D+04 0.24899526D+04 0.12774522D+01  1  2  4  1  6  1       -1 -.160771468644D-04 0.100000000000D+01
0.334864218338D-07 0.000000000000D+00 0.000000000000D+00 0.879578217924D-07 0.126611740396D-07  6 -1 22 9900012 -13 -2 21 2 0.11714326D-02 0.69095239D-01 0.25912278D+04 0.25912278D+04 0.25912278D+04 0.12753305D+01  1  2 11  1  6  1       -1 0.132828351719D-04 0.100000000000D+01
0.688629191390D-09 0.000000000000D+00 0.000000000000D+00 0.879578217924D-07 0.000000000000D+00  6 21 22 9900012 -13 1 -2 2 0.12113315D-02 0.66819374D-01 0.25912278D+04 0.25912278D+04 0.25912278D+04 0.12753305D+01  3  4 12  3  5  1       -1 0.518025465060D-05 0.100000000000D+01
0.493370781373D-08 0.000000000000D+00 0.000000000000D+00 0.879578217924D-07 0.564095419152D-09  6 21 22 9900012 -13 1 -2 2 0.11714326D-02 0.69095239D-01 0.25912278D+04 0.25912278D+04 0.25912278D+04 0.12753305D+01  3  4 11  3  5  1       -1 0.367547848753D-04 0.100000000000D+01
  </mgrwgt>
  </event>
  <event>
  6     66 0.11438559E-05 0.29806667E+02 0.78161638E-02 0.11654558E+00
       -1 -1    0    0    0  501 0.00000000E+00 0.00000000E+00 0.71356845E+02 0.71356845E+02 0.00000000E+00 0.0000E+00 0.9000E+01
       22 -1    0    0    0    0 -.00000000E+00 -.00000000E+00 -.62330910E+03 0.62330910E+03 0.00000000E+00 0.0000E+00 0.9000E+01
       24  2    1    2    0    0 -.17569605E+02 -.81354186E+02 -.59131330E+03 0.60259810E+03 0.80906484E+02 0.0000E+00 0.0000E+00
  9900012  1    3    3    0    0 -.28634560E+02 -.68798602E+02 -.55950368E+03 0.56665471E+03 0.50000000E+02 0.0000E+00 0.9000E+01
      -13  1    3    3    0    0 0.11064955E+02 -.12555583E+02 -.31809617E+02 0.35943395E+02 0.00000000E+00 0.0000E+00 0.9000E+01
       -2  1    1    2    0  501 0.17569605E+02 0.81354186E+02 0.39361051E+02 0.92067838E+02 0.00000000E+00 0.0000E+00 0.9000E+01
#aMCatNLO 1  0  0  5  1 0.26225225D+02 0.00000000D+00  -5  6  0 0.00000000D+00 0.00000000D+00 0.00000000D+00 0.00000000D+00 0.00000000D+00
  <mgrwgt>
 0.1147320672D-03    7    2    0
 0.210896587997769D+03 0.000000000000000D+00 0.000000000000000D+00 0.210896587997769D+03
 0.210896587997769D+03 -.000000000000000D+00 -.000000000000000D+00 -.210896587997769D+03
 0.201085303148208D+03 -.286345596789435D+02 -.687986024811358D+02 -.179950308226583D+03
 0.175708450559814D+02 0.110649549535997D+02 -.125555833037897D+02 -.535338171231184D+01
 0.203137027791348D+03 0.175696047253438D+02 0.813541857849255D+02 0.185303689938895D+03
 0.000000000000000D+00 0.000000000000000D+00 0.000000000000000D+00 0.000000000000000D+00
 0.210896587997769D+03 0.000000000000000D+00 0.000000000000000D+00 0.210896587997769D+03
 0.210896587997769D+03 -.000000000000000D+00 -.000000000000000D+00 -.210896587997769D+03
 0.197883490092580D+03 -.283476176897893D+02 -.674699481226533D+02 -.176923978936888D+03
 0.174243402582415D+02 0.110901238095478D+02 -.124390415935573D+02 -.508792998749280D+01
 0.119902080801983D+03 -.487274442351765D+01 0.670202784675188D+02 0.993028076972879D+02
 0.865832648427327D+02 0.221302383037591D+02 0.128887112486917D+02 0.827091012270927D+02
0.544521257122D-05 0.000000000000D+00 0.000000000000D+00 0.897839496990D-05 0.000000000000D+00  6 -1 22 9900012 -13 -2 21 0 0.10977976D-01 0.95893707D-01 0.89969761D+04 0.89969761D+04 0.89969761D+04 0.12141177D+01  1  2  2  2  6  5       -2 0.344593951523D-04 0.100000000000D+01
0.558418572217D-07 0.000000000000D+00 -.104555250155D-07 0.897839496990D-05 0.000000000000D+00  6 -1 22 9900012 -13 -2 21 2 0.10977976D-01 0.95893707D-01 0.89969761D+04 0.89969761D+04 0.89969761D+04 0.12141177D+01  1  2  3  2  6  5       -2 0.520923845362D-06 0.100000000000D+01
-.767072519871D-06 0.000000000000D+00 0.000000000000D+00 0.897839496990D-05 0.000000000000D+00  6 -1 22 9900012 -13 -2 21 2 0.10977976D-01 0.95893707D-01 0.89969761D+04 0.89969761D+04 0.89969761D+04 0.12141177D+01  1  2 15  2  6  5       -2 -.715567831378D-05 0.100000000000D+01
0.955720627268D-05 0.000000000000D+00 0.000000000000D+00 0.897839496990D-05 0.000000000000D+00  6 -1 22 9900012 -13 -2 21 2 0.10977976D-01 0.95893707D-01 0.98113846D+04 0.98113846D+04 0.98113846D+04 0.12101880D+01  1  2 12  2  6  5       -2 0.891524253405D-04 0.100000000000D+01
-.516156221508D-05 0.000000000000D+00 0.000000000000D+00 0.897839496990D-05 0.000000000000D+00  6 -1 22 9900012 -13 -2 21 2 0.10977976D-01 0.95893707D-01 0.89969761D+04 0.89969761D+04 0.89969761D+04 0.12141177D+01  1  2  4  2  6  5       -2 -.481499178381D-04 0.100000000000D+01
-.975108383321D-05 0.000000000000D+00 0.000000000000D+00 0.897839496990D-05 0.000000000000D+00  6 -1 22 9900012 -13 -2 21 2 0.10977976D-01 0.95893707D-01 0.89969761D+04 0.89969761D+04 0.89969761D+04 0.12141177D+01  1  2  5  2  6  5       -2 -.909635234135D-04 0.100000000000D+01
0.146719872562D-04 0.000000000000D+00 -.000000000000D+00 0.897839496990D-05 0.000000000000D+00  6 -1 22 9900012 -13 -2 21 2 0.10977976D-01 0.95893707D-01 0.89969761D+04 0.89969761D+04 0.89969761D+04 0.12141177D+01  1  2  6  2  6  5       -2 0.136868442435D-03 0.100000000000D+01
  </mgrwgt>
  </event>
  <event>
  6     66 0.11438559E-05 0.35880346E+02 0.78161638E-02 0.12766278E+00
       -1 -1    0    0    0  501 0.00000000E+00 0.00000000E+00 0.11268132E+02 0.11268132E+02 0.00000000E+00 0.0000E+00 0.9000E+01
       22 -1    0    0    0    0 -.00000000E+00 -.00000000E+00 -.64259477E+03 0.64259477E+03 0.00000000E+00 0.0000E+00 0.9000E+01
       24  2    1    2    0    0 -.43536168E+02 -.56391972E+01 -.19080381E+03 0.21115808E+03 0.79085029E+02 0.0000E+00 0.0000E+00
  9900012  1    3    3    0    0 -.31163072E+02 -.38297327E+01 -.18961826E+03 0.19859730E+03 0.50000000E+02 0.0000E+00 0.9000E+01
      -13  1    3    3    0    0 -.12373097E+02 -.18094644E+01 -.11855551E+01 0.12560781E+02 0.00000000E+00 0.0000E+00 0.9000E+01
       -2  1    1    2    0  501 0.43536168E+02 0.56391972E+01 -.44052283E+03 0.44270482E+03 0.00000000E+00 0.0000E+00 0.9000E+01
#aMCatNLO 1  0  0  5  1 0.14036440D+02 0.00000000D+00  -5  6  0 0.00000000D+00 0.00000000D+00 0.00000000D+00 0.00000000D+00 0.00000000D+00
  <mgrwgt>
 0.1922501794D-04    5    2    0
 0.850931402010016D+02 0.000000000000000D+00 0.000000000000000D+00 0.850931402010016D+02
 0.850931402010016D+02 -.000000000000000D+00 -.000000000000000D+00 -.850931402010016D+02
 0.596073289600126D+02 -.311630715354186D+02 -.382973274646573D+01 0.819937712976968D+01
 0.438610931339507D+02 -.123730965829060D+02 -.180946441461261D+01 0.420407874615525D+02
 0.667178583080398D+02 0.435361681183246D+02 0.563919716107834D+01 -.502401645913221D+02
 0.000000000000000D+00 0.000000000000000D+00 0.000000000000000D+00 -.000000000000000D+00
 0.850931402010016D+02 0.000000000000000D+00 0.000000000000000D+00 0.850931402010016D+02
 0.850931402010016D+02 -.000000000000000D+00 -.000000000000000D+00 -.850931402010016D+02
 0.584653138394368D+02 -.294385965729529D+02 -.360636319574512D+01 0.620935573623725D+01
 0.421187670206900D+02 -.111173432382060D+02 -.164680791537270D+01 0.405916646413638D+02
 0.193443968301945D+02 0.185729061530073D+02 0.516463370184867D+01 -.160605245286345D+01
 0.502578027116818D+02 0.219830336581516D+02 0.885374092691418D-01 -.451949679247376D+02
0.307192190831D-06 0.000000000000D+00 0.000000000000D+00 0.237166279204D-06 0.000000000000D+00  6 -1 22 9900012 -13 -2 21 0 0.17335587D-02 0.98860734D-01 0.33319027D+04 0.33319027D+04 0.33319027D+04 0.12621919D+01  1  2  2  2  6  5       -2 0.234122273085D-04 0.100000000000D+01
-.191627426117D-07 0.000000000000D+00 -.589849449177D-09 0.237166279204D-06 0.000000000000D+00  6 -1 22 9900012 -13 -2 21 2 0.17335587D-02 0.98860734D-01 0.33319027D+04 0.33319027D+04 0.33319027D+04 0.12621919D+01  1  2  3  2  6  5       -2 -.232670333620D-05 0.100000000000D+01
-.273063667274D-07 0.000000000000D+00 0.000000000000D+00 0.237166279204D-06 0.000000000000D+00  6 -1 22 9900012 -13 -2 21 2 0.17335587D-02 0.98860734D-01 0.33319027D+04 0.33319027D+04 0.33319027D+04 0.12621919D+01  1  2 15  2  6  5       -2 -.331548650689D-05 0.100000000000D+01
0.792021353768D-07 0.000000000000D+00 0.000000000000D+00 0.237166279204D-06 0.000000000000D+00  6 -1 22 9900012 -13 -2 21 2 0.17335587D-02 0.98860734D-01 0.30599771D+04 0.30599771D+04 0.30599771D+04 0.12665930D+01  1  2 12  2  6  5       -2 0.958206698305D-05 0.100000000000D+01
-.669347331397D-07 0.000000000000D+00 0.000000000000D+00 0.237166279204D-06 0.000000000000D+00  6 -1 22 9900012 -13 -2 21 2 0.17335587D-02 0.98860734D-01 0.33319027D+04 0.33319027D+04 0.33319027D+04 0.12621919D+01  1  2  5  2  6  5       -2 -.812708650635D-05 0.100000000000D+01
  </mgrwgt>
  </event>
  <event>
  6     66 0.11438559E-05 0.71571152E+02 0.78161638E-02 0.11706134E+00
       -1 -1    0    0    0  501 0.00000000E+00 0.00000000E+00 0.10070110E+03 0.10070110E+03 0.00000000E+00 0.0000E+00 0.9000E+01
       22 -1    0    0    0    0 -.00000000E+00 -.00000000E+00 -.51457572E+03 0.51457572E+03 0.00000000E+00 0.0000E+00 0.9000E+01
       24  2    1    2    0    0 -.67712267E+02 -.23183587E+02 -.49525357E+03 0.50690263E+03 0.80942901E+02 0.0000E+00 0.0000E+00
  9900012  1    3    3    0    0 -.19032833E+02 -.18102084E+02 -.20909834E+03 0.21659190E+03 0.50000000E+02 0.0000E+00 0.9000E+01
      -13  1    3    3    0    0 -.48679433E+02 -.50815030E+01 -.28615523E+03 0.29031073E+03 0.00000000E+00 0.0000E+00 0.9000E+01
       -2  1    1    2    0  501 0.67712267E+02 0.23183587E+02 0.81378952E+02 0.10837418E+03 0.00000000E+00 0.0000E+00 0.9000E+01
#aMCatNLO 1  0  0  5  1 0.10659091D+03 0.00000000D+00  -5  6  0 0.00000000D+00 0.00000000D+00 0.00000000D+00 0.00000000D+00 0.00000000D+00
  <mgrwgt>
 0.2113565907D-03    3    2    0
 0.227636421986636D+03 0.000000000000000D+00 0.000000000000000D+00 0.227636421986636D+03
 0.227636421986636D+03 -.000000000000000D+00 -.000000000000000D+00 -.227636421986636D+03
 0.102627421831395D+03 -.190328334305001D+02 -.181020836359357D+02 -.856881177958975D+02
 0.132204414129342D+03 -.486794334107253D+02 -.508150297891411D+01 -.122810822835647D+03
 0.220441008012534D+03 0.677122668412254D+02 0.231835866148498D+02 0.208498940631545D+03
 0.000000000000000D+00 0.000000000000000D+00 -.000000000000000D+00 0.000000000000000D+00
 0.227636421986636D+03 0.000000000000000D+00 0.000000000000000D+00 0.227636421986636D+03
 0.227636421986636D+03 -.000000000000000D+00 -.000000000000000D+00 -.227636421986636D+03
 0.795752137189935D+02 -.104028487046232D+02 -.151473162398546D+02 -.591147544017739D+02
 0.970566943225093D+02 -.378205352493433D+02 -.136359161941783D+01 -.893742112925292D+02
 0.867434499968655D+02 0.708967556568145D+02 0.274799939645084D+02 -.417483662723134D+02
 0.191897485934903D+03 -.226733717028481D+02 -.109690861052360D+02 0.190237331966616D+03
0.481732463244D-04 0.000000000000D+00 0.000000000000D+00 0.182600542530D-04 0.000000000000D+00  6 -1 22 9900012 -13 -2 21 0 0.15492477D-01 0.79165495D-01 0.78317713D+04 0.78317713D+04 0.78317713D+04 0.12204944D+01  1  2  2  2  6  5       -2 0.257214860744D-03 0.100000000000D+01
0.105832120193D-05 0.000000000000D+00 -.924989750963D-07 0.182600542530D-04 0.000000000000D+00  6 -1 22 9900012 -13 -2 21 2 0.15492477D-01 0.79165495D-01 0.78317713D+04 0.78317713D+04 0.78317713D+04 0.12204944D+01  1  2  3  2  6  5       -2 0.841742382039D-05 0.100000000000D+01
-.682407335148D-05 0.000000000000D+00 0.000000000000D+00 0.182600542530D-04 0.000000000000D+00  6 -1 22 9900012 -13 -2 21 2 0.15492477D-01 0.79165495D-01 0.78317713D+04 0.78317713D+04 0.78317713D+04 0.12204944D+01  1  2 15  2  6  5       -2 -.542756938784D-04 0.100000000000D+01
  </mgrwgt>
  </event>
  <event>
  7     66 0.11438559E-05 0.48768101E+02 0.78161638E-02 0.11898996E+00
       -1 -1    0    0    0  501 0.00000000E+00 0.00000000E+00 0.24791349E+03 0.24791349E+03 0.00000000E+00 0.0000E+00 0.9000E+01
       22 -1    0    0    0    0 0.00000000E+00 0.00000000E+00 -.52886789E+02 0.52886789E+02 0.00000000E+00 0.0000E+00 0.9000E+01
       24  2    1    2    0    0 0.26932552E+02 0.24409999E+02 0.15950012E+03 0.18143330E+03 0.78463649E+02 0.0000E+00 0.0000E+00
  9900012  1    3    3    0    0 0.34622866E+02 -.73888042E-02 0.10920210E+03 0.12499536E+03 0.50000000E+02 0.0000E+00 0.9000E+01
      -13  1    3    3    0    0 -.76903133E+01 0.24417388E+02 0.50298022E+02 0.56437937E+02 0.00000000E+00 0.0000E+00 0.9000E+01
       -2  1    1    2    0  502 0.19966632E+02 0.14987243E+02 -.23512566E+02 0.34294673E+02 0.00000000E+00 0.0000E+00 0.9000E+01
       21  1    1    2  502  501 -.46899184E+02 -.39397242E+02 0.59039152E+02 0.85072308E+02 0.00000000E+00 0.0000E+00 0.9000E+01
#aMCatNLO 2  0  0  5  1 0.53980673D+02 0.00000000D+00  -5  6  0 0.00000000D+00 0.00000000D+00 0.00000000D+00 0.00000000D+00 0.00000000D+00
  <mgrwgt>
 0.2377159251D-04    2    2    0
 0.114504796983061D+03 0.000000000000000D+00 0.000000000000000D+00 0.114504796983061D+03
 0.114504796983061D+03 -.000000000000000D+00 -.000000000000000D+00 -.114504796983061D+03
 0.886266249063027D+02 0.445818061053239D+02 0.901877880242047D+01 0.573219228182621D+02
 0.393198452414236D+02 -.328967393625840D+01 0.284058553995942D+02 0.269876944961949D+02
 0.101063123818396D+03 -.412921321690655D+02 -.374246342020147D+02 -.843096173144569D+02
 0.000000000000000D+00 0.000000000000000D+00 0.000000000000000D+00 0.000000000000000D+00
 0.114504796983061D+03 0.000000000000000D+00 0.000000000000000D+00 0.114504796983061D+03
 0.114504796983061D+03 -.000000000000000D+00 -.000000000000000D+00 -.114504796983061D+03
 0.711818015102933D+02 0.346228655909141D+02 -.738880416855103D-02 0.369879168098159D+02
 0.312960249655553D+02 -.769031329260434D+01 0.244173881174514D+02 0.180025391994573D+02
 0.650690018737517D+02 0.199666316228411D+02 0.149872426858951D+02 -.600890271443810D+02
 0.614627656165216D+02 -.468991839211508D+02 -.393972419991779D+02 0.509857113510778D+01
-.363577855692D-07 0.000000000000D+00 0.000000000000D+00 0.903897867787D-07 0.000000000000D+00  6 -1 22 9900012 -13 -2 21 2 0.38140537D-01 0.81364290D-02 0.74505961D+04 0.74505961D+04 0.74505961D+04 0.12228131D+01  1  2 13  2  6  5       -2 -.237712466618D-05 0.100000000000D+01
0.399940930966D-06 0.000000000000D+00 0.000000000000D+00 0.903897867787D-07 0.262511134957D-09  6 -1 22 9900012 -13 -2 21 2 0.38140537D-01 0.81364290D-02 0.74505961D+04 0.74505961D+04 0.74505961D+04 0.12228131D+01  1  2  1  2  6  5       -2 0.261487171766D-04 0.100000000000D+01
  </mgrwgt>
  </event>
  <event>
  6     66 0.11438559E-05 0.89001019E+02 0.78161638E-02 0.94291248E-01
       -3 -1    0    0    0  501 0.00000000E+00 0.00000000E+00 0.14039346E+03 0.14039346E+03 0.00000000E+00 0.0000E+00 0.9000E+01
       22 -1    0    0    0    0 0.00000000E+00 0.00000000E+00 -.24431658E+03 0.24431658E+03 0.00000000E+00 0.0000E+00 0.9000E+01
       24  2    1    2    0    0 0.82475987E+01 0.88618049E+02 -.21319583E+03 0.24377848E+03 0.77809396E+02 0.0000E+00 0.0000E+00
  9900012  1    3    3    0    0 0.24944525E+02 0.50060248E+02 -.15254637E+03 0.16999603E+03 0.50000000E+02 0.0000E+00 0.9000E+01
      -13  1    3    3    0    0 -.16696926E+02 0.38557801E+02 -.60649465E+02 0.73782443E+02 0.00000000E+00 0.0000E+00 0.9000E+01
       -4  1    1    2    0  501 -.82475987E+01 -.88618049E+02 0.10927271E+03 0.14093157E+03 0.00000000E+00 0.0000E+00 0.9000E+01
#aMCatNLO 1  0  0  1  5 0.11440453D+01 0.00000000D+00  -5  6  0 0.00000000D+00 0.00000000D+00 0.00000000D+00 0.00000000D+00 0.00000000D+00
  <mgrwgt>
 0.9295823596D-04    3    2    0
 0.185203807976428D+03 0.000000000000000D+00 0.000000000000000D+00 0.185203807976428D+03
 0.185203807976428D+03 0.000000000000000D+00 0.000000000000000D+00 -.185203807976428D+03
 0.133760983170682D+03 0.249445246558980D+02 0.500602475127200D+02 -.110741784920797D+03
 0.596153108979655D+02 -.166969259372635D+02 0.385578012496622D+02 -.422905890299268D+02
 0.177031321884207D+03 -.824759871863449D+01 -.886180487623822D+02 0.153032373950724D+03
 0.000000000000000D+00 0.000000000000000D+00 -.000000000000000D+00 -.000000000000000D+00
 0.401698481777618D+03 0.000000000000000D+00 0.000000000000000D+00 0.401698481777618D+03
 0.870490451219117D+03 0.000000000000000D+00 0.000000000000000D+00 -.870490451219117D+03
 0.263552118180778D+03 -.548595424049177D+02 0.227346446370410D+03 -.110741784920797D+03
 0.151216507800411D+03 -.590444763722429D+02 0.132633661341235D+03 -.422905890299268D+02
 0.188876215105615D+03 -.817435632883071D+02 0.746545846988565D+02 0.153032373950724D+03
 0.668544091909931D+03 0.195647582065468D+03 -.434634692410501D+03 -.468791969441499D+03
0.137556214120D-04 0.000000000000D+00 0.000000000000D+00 0.128852397543D-05 0.000000000000D+00  6 -3 22 9900012 -13 -4 21 0 0.21598994D-01 0.37587167D-01 0.10613170D+05 0.10613170D+05 0.10613170D+05 0.12066605D+01  1  2  2  1  6  1       -3 0.117047289840D-03 0.100000000000D+01
0.117995939645D-06 0.000000000000D+00 -.264126040802D-07 0.128852397543D-05 0.000000000000D+00  6 -3 22 9900012 -13 -4 21 2 0.21598994D-01 0.37587167D-01 0.10613170D+05 0.10613170D+05 0.10613170D+05 0.12066605D+01  1  2  3  1  6  1       -3 0.146190256591D-05 0.100000000000D+01
-.206231877882D-05 0.000000000000D+00 0.000000000000D+00 0.128852397543D-05 0.000000000000D+00  6 -3 22 9900012 -13 -4 21 2 0.21598994D-01 0.37587167D-01 0.10613170D+05 0.10613170D+05 0.10613170D+05 0.12066605D+01  1  2 15  1  6  1       -3 -.255509564443D-04 0.100000000000D+01
  </mgrwgt>
  </event>
  <event>
  7     66 0.11438559E-05 0.14930474E+02 0.78161638E-02 0.12732221E+00
       -3 -1    0    0    0  502 0.00000000E+00 0.00000000E+00 0.38568771E+03 0.38568771E+03 0.00000000E+00 0.0000E+00 0.9000E+01
       22 -1    0    0    0    0 0.00000000E+00 0.00000000E+00 -.17507421E+02 0.17507421E+02 0.00000000E+00 0.0000E+00 0.9000E+01
       24  2    1    2    0    0 -.18711627E+02 0.20410470E+02 0.96724637E+02 0.12801774E+03 0.79159169E+02 0.0000E+00 0.0000E+00
  9900012  1    3    3    0    0 -.59030809E+01 0.36869079E+02 0.78809299E+02 0.10052403E+03 0.50000000E+02 0.0000E+00 0.9000E+01
      -13  1    3    3    0    0 -.12808546E+02 -.16458608E+02 0.17915338E+02 0.27493708E+02 0.00000000E+00 0.0000E+00 0.9000E+01
       -4  1    1    2    0  501 0.98111255E+01 -.17065376E+02 0.53368395E+02 0.56882957E+02 0.00000000E+00 0.0000E+00 0.9000E+01
       21  1    1    2  501  502 0.89005016E+01 -.33450942E+01 0.21808725E+03 0.21829443E+03 0.00000000E+00 0.0000E+00 0.9000E+01
#aMCatNLO 2  0  0  1  5 0.95579374D+01 0.00000000D+00  -5  6  0 0.00000000D+00 0.00000000D+00 0.00000000D+00 0.00000000D+00 0.00000000D+00
  <mgrwgt>
 0.2360429487D-04    2    2    0
 0.537818299322740D+02 0.000000000000000D+00 0.000000000000000D+00 0.537818299322740D+02
 0.537818299322740D+02 0.000000000000000D+00 0.000000000000000D+00 -.537818299322740D+02
 0.611950725937281D+02 -.791827128834373D+00 0.349481056663823D+02 -.477910345996795D+01
 0.217145036677309D+02 -.109961880047813D+02 -.171397508578903D+02 -.753873062450526D+01
 0.246540836030890D+02 0.117880151336157D+02 -.178083548084920D+02 0.123178340844732D+02
 0.000000000000000D+00 0.000000000000000D+00 -.000000000000000D+00 0.000000000000000D+00
 0.124323979360156D+03 0.000000000000000D+00 0.000000000000000D+00 0.124323979360156D+03
 0.543129107761312D+02 0.000000000000000D+00 0.000000000000000D+00 -.543129107761312D+02
 0.625860621394311D+02 -.590308093328229D+01 0.368690789108539D+02 -.477910345996795D+01
 0.221760480609665D+02 -.128085461640940D+02 -.164586084872239D+02 -.753873062450526D+01
 0.232209880479812D+02 0.981112549980949D+01 -.170653762284594D+02 0.123178340844732D+02
 0.706537918879083D+02 0.890050159756677D+01 -.334509419517063D+01 0.700110685840246D+02
-.472906393842D-06 0.000000000000D+00 0.000000000000D+00 0.950142233057D-07 0.000000000000D+00  6 -3 22 9900012 -13 -4 21 2 0.59922503D-01 0.26671124D-02 0.31613430D+04 0.31613430D+04 0.31613430D+04 0.12649024D+01  1  2 13  1  6  1       -3 -.362891344887D-04 0.100000000000D+01
0.774799790297D-06 0.000000000000D+00 0.000000000000D+00 0.950142233057D-07 0.209858750670D-07  6 -3 22 9900012 -13 -4 21 2 0.59336570D-01 0.26934494D-02 0.31613430D+04 0.31613430D+04 0.31613430D+04 0.12649024D+01  1  2  1  1  6  1       -3 0.598934293582D-04 0.100000000000D+01
  </mgrwgt>
  </event>
  <event>
  7     66 -.11438559E-05 0.30287146E+02 0.78161638E-02 0.12598388E+00
       -1 -1    0    0    0  501 0.00000000E+00 0.00000000E+00 0.21926676E+03 0.21926676E+03 0.00000000E+00 0.0000E+00 0.9000E+01
       22 -1    0    0    0    0 0.00000000E+00 0.00000000E+00 -.19992201E+02 0.19992201E+02 0.00000000E+00 0.0000E+00 0.9000E+01
       24  2    1    2    0    0 -.18429437E+02 -.18499439E+02 0.97658677E+02 0.12889117E+03 0.79961511E+02 0.0000E+00 0.0000E+00
  9900012  1    3    3    0    0 -.33141845E+02 -.15366172E+02 0.52139044E+02 0.80950485E+02 0.50000000E+02 0.0000E+00 0.9000E+01
      -13  1    3    3    0    0 0.14712408E+02 -.31332666E+01 0.45519633E+02 0.47940685E+02 0.00000000E+00 0.0000E+00 0.9000E+01
       -2  1    1    2    0  502 0.25264064E+02 0.23545434E+02 0.83440950E+02 0.90305329E+02 0.00000000E+00 0.0000E+00 0.9000E+01
       21  1    1    2  502  501 -.68346261E+01 -.50459953E+01 0.18174932E+02 0.20062461E+02 0.00000000E+00 0.0000E+00 0.9000E+01
#aMCatNLO 2  0  0  5  1 0.13475352D+02 0.00000000D+00  -5  6  0 0.00000000D+00 0.00000000D+00 0.00000000D+00 0.00000000D+00 0.00000000D+00
  <mgrwgt>
 -.2554262985D-04    2    2    0
 0.662089501088416D+02 0.000000000000000D+00 0.000000000000000D+00 0.662089501088416D+02
 0.662089501088416D+02 -.000000000000000D+00 -.000000000000000D+00 -.662089501088416D+02
 0.736011303075969D+02 -.381375454160221D+02 -.203808483300341D+02 -.323616290310741D+02
 0.167504891749066D+02 0.134804684304596D+02 -.436988518068921D+01 0.893084329733978D+01
 0.420662807351798D+02 0.246570769855625D+02 0.247507335107233D+02 0.234307857337343D+02
 0.000000000000000D+00 -.000000000000000D+00 0.000000000000000D+00 0.000000000000000D+00
 0.662089501088416D+02 0.000000000000000D+00 0.000000000000000D+00 0.662089501088416D+02
 0.662089501088416D+02 -.000000000000000D+00 -.000000000000000D+00 -.662089501088416D+02
 0.678015880729693D+02 -.331418449730281D+02 -.153661724040780D+02 -.276143839809714D+02
 0.181194059255403D+02 0.147124076208479D+02 -.313326663824925D+01 0.101015134146403D+02
 0.375983964685089D+02 0.252640635018154D+02 0.235454343046559D+02 0.148653636277272D+02
 0.889850975066474D+01 -.683462614963516D+01 -.504599526232865D+01 0.264750693860386D+01
-.113653552536D-06 0.000000000000D+00 0.000000000000D+00 0.419764788099D-06 0.000000000000D+00  6 -1 22 9900012 -13 -2 21 2 0.33733348D-01 0.30757232D-02 0.35997692D+04 0.35997692D+04 0.35997692D+04 0.12582369D+01  1  2 13  2  6  5       -2 -.341313643650D-04 0.100000000000D+01
0.285995068669D-07 0.000000000000D+00 0.000000000000D+00 0.419764788099D-06 0.793708905732D-08  6 -1 22 9900012 -13 -2 21 2 0.33733348D-01 0.30757232D-02 0.35997692D+04 0.35997692D+04 0.35997692D+04 0.12582369D+01  1  2  1  2  6  5       -2 0.858873451602D-05 0.100000000000D+01
  </mgrwgt>
  </event>
  <event>
  7     66 -.11438559E-05 0.35659678E+02 0.78161638E-02 0.12053279E+00
       -1 -1    0    0    0  502 0.00000000E+00 0.00000000E+00 0.10415833E+04 0.10415833E+04 0.00000000E+00 0.0000E+00 0.9000E+01
       22 -1    0    0    0    0 0.00000000E+00 0.00000000E+00 -.99135719E+02 0.99135719E+02 0.00000000E+00 0.0000E+00 0.9000E+01
       24  2    1    2    0    0 0.42840526E+02 -.28027819E+02 -.74392670E+02 0.12047700E+03 0.79746900E+02 0.0000E+00 0.0000E+00
  9900012  1    3    3    0    0 0.55705783E+02 -.19531599E+02 -.70287001E+02 0.10452215E+03 0.50000000E+02 0.0000E+00 0.9000E+01
      -13  1    3    3    0    0 -.12865256E+02 -.84962201E+01 -.41056690E+01 0.15954846E+02 0.00000000E+00 0.0000E+00 0.9000E+01
       -2  1    1    2    0  501 -.25337569E+02 0.38101432E+02 0.92833606E+03 0.92946305E+03 0.00000000E+00 0.0000E+00 0.9000E+01
       21  1    1    2  501  502 -.17502957E+02 -.10073613E+02 0.88504230E+02 0.90779017E+02 0.00000000E+00 0.0000E+00 0.9000E+01
#aMCatNLO 2  0  0  1  5 0.21498824D+02 0.00000000D+00  -5  6  0 0.00000000D+00 0.00000000D+00 0.00000000D+00 0.00000000D+00 0.00000000D+00
  <mgrwgt>
 -.1853119732D-03    3    2    0
 0.305265027265947D+03 0.000000000000000D+00 0.000000000000000D+00 0.305265027265947D+03
 0.305265027265947D+03 0.000000000000000D+00 0.000000000000000D+00 -.305265027265947D+03
 0.276783835100139D+03 0.477568962452928D+02 -.241064835007560D+02 -.266922175337653D+03
 0.336894272182296D+02 -.138232621828648D+02 -.904758857902507D+01 -.293604507768676D+02
 0.300056792213526D+03 -.339336340624280D+02 0.331540720797810D+02 0.296282626114521D+03
 0.000000000000000D+00 -.000000000000000D+00 -.000000000000000D+00 0.000000000000000D+00
 0.334193634697577D+03 0.000000000000000D+00 0.000000000000000D+00 0.334193634697577D+03
 0.308976901464536D+03 0.000000000000000D+00 0.000000000000000D+00 -.308976901464536D+03
 0.277906576538494D+03 0.557057827384317D+02 -.195315991628808D+02 -.266922175337653D+03
 0.331622774886327D+02 -.128652564170578D+02 -.849622008516524D+01 -.293604507768676D+02
 0.299795106818845D+03 -.253375693783165D+02 0.381014319049148D+02 0.296282626114521D+03
 0.323065753161411D+02 -.175029569430573D+02 -.100736126568688D+02 0.252167332330409D+02
-.138655789614D-03 0.000000000000D+00 0.000000000000D+00 0.186362633985D-03 0.000000000000D+00  6 -1 22 9900012 -13 -2 21 2 0.16219208D+00 0.15068424D-01 0.62987853D+04 0.62987853D+04 0.62987853D+04 0.12307151D+01  1  2 13  1  6  1       -1 -.191164278824D-03 0.100000000000D+01
-.250450475686D-08 0.000000000000D+00 0.000000000000D+00 0.186362633985D-03 0.000000000000D+00  6 -1 22 9900012 -13 -2 21 2 0.14637252D+00 0.15068424D-01 0.47050631D+04 0.47050631D+04 0.47050631D+04 0.12448307D+01  1  2  8  1  6  1       -1 -.469428742415D-08 0.100000000000D+01
0.417242686894D-05 0.000000000000D+00 0.000000000000D+00 0.186362633985D-03 0.200108327518D-06  6 -1 22 9900012 -13 -2 21 2 0.16024359D+00 0.15251649D-01 0.62987853D+04 0.62987853D+04 0.62987853D+04 0.12307151D+01  1  2  1  1  6  1       -1 0.585699990739D-05 0.100000000000D+01
  </mgrwgt>
  </event>
  <event>
  6     66 0.11438559E-05 0.34515584E+02 0.78161638E-02 0.12260974E+00
       -3 -1    0    0    0  501 0.00000000E+00 0.00000000E+00 0.61104319E+01 0.61104319E+01 0.00000000E+00 0.0000E+00 0.9000E+01
       22 -1    0    0    0    0 0.00000000E+00 0.00000000E+00 -.78856330E+03 0.78856330E+03 0.00000000E+00 0.0000E+00 0.9000E+01
       24  2    1    2    0    0 0.22842232E+02 -.39833085E+02 -.49235349E+03 0.50096283E+03 0.80270543E+02 0.0000E+00 0.0000E+00
  9900012  1    3    3    0    0 -.88469493E+01 -.18766366E+02 -.26934381E+03 0.27472993E+03 0.50000000E+02 0.0000E+00 0.9000E+01
      -13  1    3    3    0    0 0.31689181E+02 -.21066719E+02 -.22300968E+03 0.22623290E+03 0.00000000E+00 0.0000E+00 0.9000E+01
       -4  1    1    2    0  501 -.22842232E+02 0.39833085E+02 -.29009938E+03 0.29371090E+03 0.00000000E+00 0.0000E+00 0.9000E+01
#aMCatNLO 1  0  0  1  5 0.41426840D+01 0.00000000D+00  -5  6  0 0.00000000D+00 0.00000000D+00 0.00000000D+00 0.00000000D+00 0.00000000D+00
  <mgrwgt>
 0.1890291876D-04   11    4    0
 0.694151450751085D+02 0.000000000000000D+00 0.000000000000000D+00 0.694151450751085D+02
 0.694151450751085D+02 0.000000000000000D+00 0.000000000000000D+00 -.694151450751085D+02
 0.545401151276558D+02 -.884694931912195D+01 -.187663659886567D+02 0.664674006281518D+01
 0.380809171707963D+02 0.316891812784443D+02 -.210667186394356D+02 -.146472121504544D+01
 0.462092578517648D+02 -.228422319593223D+02 0.398330846280923D+02 -.518201884776975D+01
 0.000000000000000D+00 -.000000000000000D+00 -.000000000000000D+00 0.000000000000000D+00
 0.832465876679532D+02 0.000000000000000D+00 0.000000000000000D+00 0.832465876679532D+02
 0.697481903554478D+02 0.000000000000000D+00 0.000000000000000D+00 -.697481903554478D+02
 0.540028988180452D+02 -.764728180885243D+01 -.177102515009074D+02 0.664674006281518D+01
 0.383880298859470D+02 0.325343513911370D+02 -.203226821518367D+02 -.146472121504544D+01
 0.464995791443102D+02 -.218175710841904D+02 0.407351338925703D+02 -.518201884776975D+01
 0.141042701750985D+02 -.306949849809418D+01 -.270220023982622D+01 0.134983973125054D+02
 0.694151450751085D+02 0.000000000000000D+00 0.000000000000000D+00 0.694151450751085D+02
 0.694151450751085D+02 0.000000000000000D+00 0.000000000000000D+00 -.694151450751085D+02
 0.545401151276558D+02 -.884694931912195D+01 -.187663659886567D+02 0.664674006281518D+01
 0.380809171707963D+02 0.316891812784443D+02 -.210667186394356D+02 -.146472121504544D+01
 0.000000000000000D+00 -.000000000000000D+00 -.000000000000000D+00 0.000000000000000D+00
 0.462092578517648D+02 -.228422319593223D+02 0.398330846280923D+02 -.518201884776975D+01
 0.832465876679532D+02 0.000000000000000D+00 0.000000000000000D+00 0.832465876679532D+02
 0.697481903554478D+02 0.000000000000000D+00 0.000000000000000D+00 -.697481903554478D+02
 0.540028988180452D+02 -.764728180885243D+01 -.177102515009074D+02 0.664674006281518D+01
 0.383880298859470D+02 0.325343513911370D+02 -.203226821518367D+02 -.146472121504544D+01
 0.141042701750985D+02 -.306949849809418D+01 -.270220023982622D+01 0.134983973125054D+02
 0.464995791443102D+02 -.218175710841904D+02 0.407351338925703D+02 -.518201884776975D+01
0.154849911104D-06 0.000000000000D+00 0.000000000000D+00 0.181908378035D-06 0.000000000000D+00  6 -3 22 9900012 -13 -4 21 0 0.94006645D-03 0.12131743D+00 0.47681855D+04 0.47681855D+04 0.47681855D+04 0.12441745D+01  1  2  2  1  6  1       -3 0.180351864761D-04 0.100000000000D+01
-.545556106106D-08 0.000000000000D+00 -.297332215778D-09 0.181908378035D-06 0.000000000000D+00  6 -3 22 9900012 -13 -4 21 2 0.94006645D-03 0.12131743D+00 0.47681855D+04 0.47681855D+04 0.47681855D+04 0.12441745D+01  1  2  3  1  6  1       -3 -.983584503276D-06 0.100000000000D+01
-.164424077510D-07 0.000000000000D+00 0.000000000000D+00 0.181908378035D-06 0.000000000000D+00  6 -3 22 9900012 -13 -4 21 2 0.94006645D-03 0.12131743D+00 0.47681855D+04 0.47681855D+04 0.47681855D+04 0.12441745D+01  1  2 15  1  6  1       -3 -.296440591158D-05 0.100000000000D+01
0.280718356300D-06 0.000000000000D+00 0.000000000000D+00 0.181908378035D-06 0.000000000000D+00  6 -3 22 9900012 -13 -4 21 2 0.11327902D-02 0.12131743D+00 0.50588909D+04 0.50588909D+04 0.50588909D+04 0.12412733D+01  1  2 12  1  6  1       -3 0.390801675645D-04 0.100000000000D+01
-.198381350588D-05 0.000000000000D+00 0.000000000000D+00 0.181908378035D-06 0.000000000000D+00  6 -3 22 9900012 -13 -4 21 2 0.94006645D-03 0.12131743D+00 0.47681855D+04 0.47681855D+04 0.47681855D+04 0.12441745D+01  1  2  4  1  6  1       -3 -.357662245906D-03 0.100000000000D+01
-.244769220397D-05 0.000000000000D+00 -.110147550441D-06 0.181908378035D-06 0.000000000000D+00  6 -3 22 9900012 -13 -4 21 2 0.11326627D-02 0.12131743D+00 0.47681855D+04 0.47681855D+04 0.47681855D+04 0.12441745D+01  1  2  5  1  6  1       -3 -.339800304937D-03 0.100000000000D+01
0.242781826287D-05 0.000000000000D+00 0.108261810768D-06 0.181908378035D-06 0.000000000000D+00  6 -3 22 9900012 -13 -4 21 2 0.94006645D-03 0.12131743D+00 0.47681855D+04 0.47681855D+04 0.47681855D+04 0.12441745D+01  1  2  6  1  6  1       -3 0.437711977448D-03 0.100000000000D+01
0.177533663265D-05 0.000000000000D+00 0.000000000000D+00 0.181908378035D-06 0.852448591156D-07  6 -3 22 9900012 -13 -4 21 2 0.11273811D-02 0.12189950D+00 0.50588909D+04 0.50588909D+04 0.50588909D+04 0.12412733D+01  1  2 11  1  6  1       -3 0.246405815263D-03 0.100000000000D+01
0.761093921036D-08 0.000000000000D+00 0.000000000000D+00 0.181908378035D-06 0.000000000000D+00  6 21 22 9900012 -13 3 -4 2 0.11327902D-02 0.12131743D+00 0.50588909D+04 0.50588909D+04 0.50588909D+04 0.12412733D+01  3  4 12  3  5  1       -3 0.214617697748D-04 0.100000000000D+01
-.652088869077D-07 0.000000000000D+00 -.298496008856D-08 0.181908378035D-06 0.000000000000D+00  6 21 22 9900012 -13 3 -4 2 0.11326627D-02 0.12131743D+00 0.47681855D+04 0.47681855D+04 0.47681855D+04 0.12441745D+01  3  4  5  3  5  1       -3 -.183339986838D-03 0.100000000000D+01
0.501235615475D-07 0.000000000000D+00 0.000000000000D+00 0.181908378035D-06 0.236997957209D-08  6 21 22 9900012 -13 3 -4 2 0.11273811D-02 0.12189950D+00 0.50588909D+04 0.50588909D+04 0.50588909D+04 0.12412733D+01  3  4 11  3  5  1       -3 0.140958530328D-03 0.100000000000D+01
  </mgrwgt>
  </event>
  <event>
  7     66 -.11438559E-05 0.42900156E+02 0.78161638E-02 0.12374705E+00
       -1 -1    0    0    0  502 0.00000000E+00 0.00000000E+00 0.47082582E+02 0.47082582E+02 0.00000000E+00 0.0000E+00 0.9000E+01
       22 -1    0    0    0    0 0.00000000E+00 0.00000000E+00 -.13981843E+03 0.13981843E+03 0.00000000E+00 0.0000E+00 0.9000E+01
       24  2    1    2    0    0 0.65730349E+01 0.44737886E+02 -.88064534E+02 0.12705096E+03 0.79636047E+02 0.0000E+00 0.0000E+00
  9900012  1    3    3    0    0 0.11907155E+00 0.21193951E+02 -.25704262E+02 0.60082500E+02 0.50000000E+02 0.0000E+00 0.9000E+01
      -13  1    3    3    0    0 0.64539634E+01 0.23543935E+02 -.62360272E+02 0.66968456E+02 0.00000000E+00 0.0000E+00 0.9000E+01
       -2  1    1    2    0  501 0.14741268E+01 -.47065605E+02 -.12138481E+02 0.48628047E+02 0.00000000E+00 0.0000E+00 0.9000E+01
       21  1    1    2  501  502 -.80471618E+01 0.23277191E+01 0.74671623E+01 0.11222014E+02 0.00000000E+00 0.0000E+00 0.9000E+01
#aMCatNLO 2  0  0  1  5 0.86557939D+01 0.00000000D+00  -5  6  0 0.00000000D+00 0.00000000D+00 0.00000000D+00 0.00000000D+00 0.00000000D+00
  <mgrwgt>
 -.1915569941D-04    2    2    0
 0.720282802845509D+02 0.000000000000000D+00 0.000000000000000D+00 0.720282802845509D+02
 0.720282802845509D+02 0.000000000000000D+00 0.000000000000000D+00 -.720282802845509D+02
 0.557278646351976D+02 -.297934404219829D+01 0.220901974120638D+02 0.104279232914887D+02
 0.383122557507491D+02 0.431796159441064D+01 0.241617941727310D+02 -.294175432477729D+02
 0.500164401831550D+02 -.133861755221235D+01 -.462519915847948D+02 0.189896199562841D+02
 0.000000000000000D+00 -.000000000000000D+00 0.000000000000000D+00 0.000000000000000D+00
 0.900155556146678D+02 0.000000000000000D+00 0.000000000000000D+00 0.900155556146678D+02
 0.731319479109924D+02 0.000000000000000D+00 0.000000000000000D+00 -.731319479109924D+02
 0.552986375495048D+02 0.119071547633188D+00 0.211939508498268D+02 0.104279232914887D+02
 0.382277696564505D+02 0.645396338948872D+01 0.235439350733727D+02 -.294175432477729D+02
 0.507735156339839D+02 0.147412683095059D+01 -.470656049980936D+02 0.189896199562841D+02
 0.188475806857209D+02 -.804716176807250D+01 0.232771907489406D+01 0.168836077036754D+02
-.312606334424D-06 0.000000000000D+00 0.000000000000D+00 0.209139877039D-06 0.000000000000D+00  6 -1 22 9900012 -13 -2 21 2 0.73544637D-02 0.21185903D-01 0.45013879D+04 0.45013879D+04 0.45013879D+04 0.12470170D+01  1  2 13  1  6  1       -1 -.632450475429D-04 0.100000000000D+01
0.218043572424D-06 0.000000000000D+00 0.000000000000D+00 0.209139877039D-06 0.184792579152D-07  6 -1 22 9900012 -13 -2 21 2 0.72434742D-02 0.21510528D-01 0.45013879D+04 0.45013879D+04 0.45013879D+04 0.12470170D+01  1  2  1  1  6  1       -1 0.440893481362D-04 0.100000000000D+01
  </mgrwgt>
  </event>
  <event>
  6     66 0.11438559E-05 0.54775199E+02 0.78161638E-02 0.11948177E+00
       -1 -1    0    0    0  501 0.00000000E+00 0.00000000E+00 0.10445914E+03 0.10445914E+03 0.00000000E+00 0.0000E+00 0.9000E+01
       22 -1    0    0    0    0 -.00000000E+00 -.00000000E+00 -.27401185E+03 0.27401185E+03 0.00000000E+00 0.0000E+00 0.9000E+01
       24  2    1    2    0    0 -.37947185E+02 -.39501058E+02 -.25709493E+03 0.27520454E+03 0.81482598E+02 0.0000E+00 0.0000E+00
  9900012  1    3    3    0    0 -.73263713E+01 -.40360227E+02 -.14079935E+03 0.15494218E+03 0.50000000E+02 0.0000E+00 0.9000E+01
      -13  1    3    3    0    0 -.30620814E+02 0.85916851E+00 -.11629558E+03 0.12026235E+03 0.00000000E+00 0.0000E+00 0.9000E+01
       -2  1    1    2    0  501 0.37947185E+02 0.39501058E+02 0.87542207E+02 0.10326645E+03 0.00000000E+00 0.0000E+00 0.9000E+01
#aMCatNLO 1  0  0  5  1 0.58660217D+02 0.00000000D+00  -5  6  0 0.00000000D+00 0.00000000D+00 0.00000000D+00 0.00000000D+00 0.00000000D+00
  <mgrwgt>
 0.5012856013D-04    4    2    0
 0.169183455063099D+03 0.000000000000000D+00 0.000000000000000D+00 0.169183455063099D+03
 0.169183455063099D+03 -.000000000000000D+00 -.000000000000000D+00 -.169183455063099D+03
 0.102752982770436D+03 -.732637125183090D+01 -.403602265191524D+02 -.798470529689397D+02
 0.762414401853192D+02 -.306208139311175D+02 0.859168510615939D+00 -.698167944351347D+02
 0.159372487170442D+03 0.379471851829484D+02 0.395010580085365D+02 0.149663847404074D+03
 0.000000000000000D+00 0.000000000000000D+00 0.000000000000000D+00 -.000000000000000D+00
 0.169183455063099D+03 0.000000000000000D+00 0.000000000000000D+00 0.169183455063099D+03
 0.169183455063099D+03 -.000000000000000D+00 -.000000000000000D+00 -.169183455063099D+03
 0.863309505569593D+02 -.250010062163686D+01 -.353363282982679D+02 -.608122226476461D+02
 0.622587988710829D+02 -.270856662098387D+02 0.453907453088450D+01 -.558741579376569D+02
 0.149485149090913D+03 0.281689735562032D+01 0.476033238868149D+02 0.141674974653068D+03
 0.402920116072425D+02 0.267688694758553D+02 -.168060701194315D+02 -.249885940677649D+02
0.426408857098D-05 0.000000000000D+00 0.000000000000D+00 0.384389366140D-05 0.000000000000D+00  6 -1 22 9900012 -13 -2 21 0 0.16070636D-01 0.42155670D-01 0.56310969D+04 0.56310969D+04 0.56310969D+04 0.12360761D+01  1  2  2  2  6  5       -2 0.616697132702D-04 0.100000000000D+01
0.130155135781D-06 0.000000000000D+00 -.818761143643D-08 0.384389366140D-05 0.000000000000D+00  6 -1 22 9900012 -13 -2 21 2 0.16070636D-01 0.42155670D-01 0.56310969D+04 0.56310969D+04 0.56310969D+04 0.12360761D+01  1  2  3  2  6  5       -2 0.287605654920D-05 0.100000000000D+01
-.623996753355D-06 0.000000000000D+00 0.000000000000D+00 0.384389366140D-05 0.000000000000D+00  6 -1 22 9900012 -13 -2 21 2 0.16070636D-01 0.42155670D-01 0.56310969D+04 0.56310969D+04 0.56310969D+04 0.12360761D+01  1  2 15  2  6  5       -2 -.137885450189D-04 0.100000000000D+01
-.284500439406D-07 0.000000000000D+00 0.000000000000D+00 0.384389366140D-05 0.000000000000D+00  6 -1 22 9900012 -13 -2 21 2 0.16070636D-01 0.42155670D-01 0.56310969D+04 0.56310969D+04 0.56310969D+04 0.12360761D+01  1  2  4  2  6  5       -2 -.628664667815D-06 0.100000000000D+01
  </mgrwgt>
  </event>
  <event>
  6     66 0.11438559E-05 0.48526762E+02 0.78161638E-02 0.10095280E+00
       -3 -1    0    0    0  501 0.00000000E+00 0.00000000E+00 0.19929729E+02 0.19929729E+02 0.00000000E+00 0.0000E+00 0.9000E+01
       22 -1    0    0    0    0 0.00000000E+00 0.00000000E+00 -.15771082E+04 0.15771082E+04 0.00000000E+00 0.0000E+00 0.9000E+01
       24  2    1    2    0    0 -.16420485E+02 -.45664147E+02 -.15438960E+04 0.15467262E+04 0.79951124E+02 0.0000E+00 0.0000E+00
  9900012  1    3    3    0    0 -.11746111E+02 -.58105375E+02 -.14207736E+04 0.14228886E+04 0.50000000E+02 0.0000E+00 0.9000E+01
      -13  1    3    3    0    0 -.46743741E+01 0.12441228E+02 -.12312238E+03 0.12383761E+03 0.00000000E+00 0.0000E+00 0.9000E+01
       -4  1    1    2    0  501 0.16420485E+02 0.45664147E+02 -.13282457E+02 0.50311731E+02 0.00000000E+00 0.0000E+00 0.9000E+01
#aMCatNLO 1  0  0  1  5 0.12685907D+02 0.00000000D+00  -5  6  0 0.00000000D+00 0.00000000D+00 0.00000000D+00 0.00000000D+00 0.00000000D+00
  <mgrwgt>
 0.1470536534D-03    5    4    0
 0.177288855906072D+03 0.000000000000000D+00 0.000000000000000D+00 0.177288855906072D+03
 0.177288855906072D+03 0.000000000000000D+00 0.000000000000000D+00 -.177288855906072D+03
 0.169240537591245D+03 -.117461106390116D+02 -.581053750708460D+02 -.150426572908200D+03
 0.170621141997372D+02 -.467437413343854D+01 0.124412280806620D+02 -.106996173422446D+02
 0.168275060021162D+03 0.164204847724501D+02 0.456641469901839D+02 0.161126190250444D+03
 0.000000000000000D+00 -.000000000000000D+00 -.000000000000000D+00 0.000000000000000D+00
 0.452188534230566D+03 0.000000000000000D+00 0.000000000000000D+00 0.452188534230566D+03
 0.301973618453661D+03 0.000000000000000D+00 0.000000000000000D+00 -.301973618453661D+03
 0.167574014180730D+03 0.150192818740719D+02 0.522237260612899D+02 -.150426572908200D+03
 0.297933187462424D+02 -.950948148510657D+00 0.277894895286614D+02 -.106996173422446D+02
 0.248108075075051D+03 0.495088949615188D+02 0.182057235649984D+03 0.161126190250444D+03
 0.308686744682203D+03 -.635772286870801D+02 -.262070451239936D+03 0.150214915776905D+03
 0.177288855906072D+03 0.000000000000000D+00 0.000000000000000D+00 0.177288855906072D+03
 0.177288855906072D+03 0.000000000000000D+00 0.000000000000000D+00 -.177288855906072D+03
 0.169240537591245D+03 -.117461106390116D+02 -.581053750708460D+02 -.150426572908200D+03
 0.170621141997372D+02 -.467437413343854D+01 0.124412280806620D+02 -.106996173422446D+02
 0.000000000000000D+00 -.000000000000000D+00 -.000000000000000D+00 0.000000000000000D+00
 0.168275060021162D+03 0.164204847724501D+02 0.456641469901839D+02 0.161126190250444D+03
 0.452188534230566D+03 0.000000000000000D+00 0.000000000000000D+00 0.452188534230566D+03
 0.301973618453661D+03 0.000000000000000D+00 0.000000000000000D+00 -.301973618453661D+03
 0.167574014180730D+03 0.150192818740719D+02 0.522237260612899D+02 -.150426572908200D+03
 0.297933187462424D+02 -.950948148510657D+00 0.277894895286614D+02 -.106996173422446D+02
 0.308686744682203D+03 -.635772286870801D+02 -.262070451239936D+03 0.150214915776905D+03
 0.248108075075051D+03 0.495088949615188D+02 0.182057235649984D+03 0.161126190250444D+03
0.239740460903D-04 0.000000000000D+00 0.000000000000D+00 0.209368004305D-04 0.000000000000D+00  6 -3 22 9900012 -13 -4 21 0 0.30661122D-02 0.24263203D+00 0.48558907D+04 0.48558907D+04 0.48558907D+04 0.12432786D+01  1  2  2  1  6  1       -3 0.102089518314D-03 0.100000000000D+01
0.927822207217D-06 0.000000000000D+00 -.460333247491D-07 0.209368004305D-04 0.000000000000D+00  6 -3 22 9900012 -13 -4 21 2 0.30661122D-02 0.24263203D+00 0.48558907D+04 0.48558907D+04 0.48558907D+04 0.12432786D+01  1  2  3  1  6  1       -3 0.610719106871D-05 0.100000000000D+01
-.334275538282D-05 0.000000000000D+00 0.000000000000D+00 0.209368004305D-04 0.000000000000D+00  6 -3 22 9900012 -13 -4 21 2 0.30661122D-02 0.24263203D+00 0.48558907D+04 0.48558907D+04 0.48558907D+04 0.12432786D+01  1  2 15  1  6  1       -3 -.220029717548D-04 0.100000000000D+01
0.253115251969D-04 0.000000000000D+00 -.902405652233D-05 0.209368004305D-04 0.000000000000D+00  6 -3 22 9900012 -13 -4 21 2 0.14787539D-01 0.24263203D+00 0.48558907D+04 0.48558907D+04 0.48558907D+04 0.12432786D+01  1  2  5  1  6  1       -3 0.146899172806D-04 0.100000000000D+01
0.464781709015D-05 0.000000000000D+00 -.172643418615D-05 0.209368004305D-04 0.000000000000D+00  6 21 22 9900012 -13 3 -4 2 0.14787539D-01 0.24263203D+00 0.48558907D+04 0.48558907D+04 0.48558907D+04 0.12432786D+01  3  4  5  3  5  1       -3 0.461699984530D-04 0.100000000000D+01
  </mgrwgt>
  </event>
  <event>
  6     66 0.11438559E-05 0.93933366E+02 0.78161638E-02 0.10688936E+00
       -1 -1    0    0    0  501 0.00000000E+00 0.00000000E+00 0.59379376E+02 0.59379376E+02 0.00000000E+00 0.0000E+00 0.9000E+01
       22 -1    0    0    0    0 0.00000000E+00 0.00000000E+00 -.63930755E+03 0.63930755E+03 0.00000000E+00 0.0000E+00 0.9000E+01
       24  2    1    2    0    0 -.12676870E+03 0.61367774E+02 -.52181283E+03 0.54632649E+03 0.79672467E+02 0.0000E+00 0.0000E+00
  9900012  1    3    3    0    0 -.54247869E+02 0.15186261E+02 -.26552491E+03 0.27600169E+03 0.50000000E+02 0.0000E+00 0.9000E+01
      -13  1    3    3    0    0 -.72520833E+02 0.46181513E+02 -.25628792E+03 0.27032481E+03 0.00000000E+00 0.0000E+00 0.9000E+01
       -2  1    1    2    0  501 0.12676870E+03 -.61367774E+02 -.58115342E+02 0.15236043E+03 0.00000000E+00 0.0000E+00 0.9000E+01
#aMCatNLO 1  0  0  1  5 0.58634771D+02 0.00000000D+00  -5  6  0 0.00000000D+00 0.00000000D+00 0.00000000D+00 0.00000000D+00 0.00000000D+00
  <mgrwgt>
 0.3688241999D-04    9    4    0
 0.194837582330155D+03 0.000000000000000D+00 0.000000000000000D+00 0.194837582330155D+03
 0.194837582330155D+03 0.000000000000000D+00 0.000000000000000D+00 -.194837582330155D+03
 0.997071362256800D+02 -.542478694019518D+02 0.151862605708915D+02 -.653303847344257D+02
 0.103275309437793D+03 -.725208333122781D+02 0.461815134531848D+02 -.572170087503533D+02
 0.186692718996837D+03 0.126768702714230D+03 -.613677740240762D+02 0.122547393484779D+03
 0.000000000000000D+00 -.000000000000000D+00 0.000000000000000D+00 0.000000000000000D+00
 0.307962700531727D+03 0.000000000000000D+00 0.000000000000000D+00 0.307962700531727D+03
 0.203897662410796D+03 0.000000000000000D+00 0.000000000000000D+00 -.203897662410796D+03
 0.949609109570121D+02 -.473269741283131D+02 0.311013827594483D+01 -.653303847344257D+02
 0.933944800562506D+02 -.655287715113013D+02 0.339812142051907D+02 -.572170087503533D+02
 0.205324469865939D+03 0.140705812316194D+03 -.856863387959583D+02 0.122547393484779D+03
 0.118180502063320D+03 -.278500666765795D+02 0.485949863148228D+02 0.104065038120931D+03
 0.194837582330155D+03 0.000000000000000D+00 0.000000000000000D+00 0.194837582330155D+03
 0.194837582330155D+03 0.000000000000000D+00 0.000000000000000D+00 -.194837582330155D+03
 0.997071362256800D+02 -.542478694019518D+02 0.151862605708915D+02 -.653303847344257D+02
 0.103275309437793D+03 -.725208333122781D+02 0.461815134531848D+02 -.572170087503533D+02
 0.000000000000000D+00 -.000000000000000D+00 0.000000000000000D+00 0.000000000000000D+00
 0.186692718996837D+03 0.126768702714230D+03 -.613677740240762D+02 0.122547393484779D+03
 0.307962700531727D+03 0.000000000000000D+00 0.000000000000000D+00 0.307962700531727D+03
 0.203897662410796D+03 0.000000000000000D+00 0.000000000000000D+00 -.203897662410796D+03
 0.949609109570121D+02 -.473269741283131D+02 0.311013827594483D+01 -.653303847344257D+02
 0.933944800562506D+02 -.655287715113013D+02 0.339812142051907D+02 -.572170087503533D+02
 0.118180502063320D+03 -.278500666765795D+02 0.485949863148228D+02 0.104065038120931D+03
 0.205324469865939D+03 0.140705812316194D+03 -.856863387959583D+02 0.122547393484779D+03
0.193594934463D-05 0.000000000000D+00 0.000000000000D+00 0.234729884388D-05 0.000000000000D+00  6 -1 22 9900012 -13 -2 21 0 0.91352887D-02 0.98355007D-01 0.22822224D+05 0.22822224D+05 0.22822224D+05 0.11738572D+01  1  2  2  1  6  1       -1 0.164289248259D-04 0.100000000000D+01
-.197070119969D-07 0.000000000000D+00 -.371727761527D-08 0.234729884388D-05 0.000000000000D+00  6 -1 22 9900012 -13 -2 21 2 0.91352887D-02 0.98355007D-01 0.22822224D+05 0.22822224D+05 0.22822224D+05 0.11738572D+01  1  2  3  1  6  1       -1 -.230444582873D-06 0.100000000000D+01
-.246068322425D-06 0.000000000000D+00 0.000000000000D+00 0.234729884388D-05 0.000000000000D+00  6 -1 22 9900012 -13 -2 21 2 0.91352887D-02 0.98355007D-01 0.22822224D+05 0.22822224D+05 0.22822224D+05 0.11738572D+01  1  2 15  1  6  1       -1 -.287740789564D-05 0.100000000000D+01
0.307301880214D-05 0.000000000000D+00 0.000000000000D+00 0.234729884388D-05 0.000000000000D+00  6 -1 22 9900012 -13 -2 21 2 0.15110790D-01 0.98355007D-01 0.33030372D+05 0.33030372D+05 0.33030372D+05 0.11589699D+01  1  2 12  1  6  1       -1 0.167079592585D-04 0.100000000000D+01
-.127301369852D-05 0.000000000000D+00 0.000000000000D+00 0.234729884388D-05 0.000000000000D+00  6 -1 22 9900012 -13 -2 21 2 0.91352887D-02 0.98355007D-01 0.22822224D+05 0.22822224D+05 0.22822224D+05 0.11738572D+01  1  2  4  1  6  1       -1 -.148860269021D-04 0.100000000000D+01
-.378432592091D-05 0.000000000000D+00 -.655641202350D-06 0.234729884388D-05 0.000000000000D+00  6 -1 22 9900012 -13 -2 21 2 0.15030114D-01 0.98355007D-01 0.22822224D+05 0.22822224D+05 0.22822224D+05 0.11738572D+01  1  2  5  1  6  1       -1 -.208187431502D-04 0.100000000000D+01
0.371440256550D-05 0.000000000000D+00 0.581995569596D-06 0.234729884388D-05 0.000000000000D+00  6 -1 22 9900012 -13 -2 21 2 0.91352887D-02 0.98355007D-01 0.22822224D+05 0.22822224D+05 0.22822224D+05 0.11738572D+01  1  2  6  1  6  1       -1 0.434344866670D-04 0.100000000000D+01
0.174161894548D-06 0.000000000000D+00 0.000000000000D+00 0.234729884388D-05 0.000000000000D+00  6 21 22 9900012 -13 1 -2 2 0.15110790D-01 0.98355007D-01 0.33030372D+05 0.33030372D+05 0.33030372D+05 0.11589699D+01  3  4 12  3  5  1       -1 0.122573877371D-04 0.100000000000D+01
-.183231235787D-06 0.000000000000D+00 -.368444086985D-07 0.234729884388D-05 0.000000000000D+00  6 21 22 9900012 -13 1 -2 2 0.15030114D-01 0.98355007D-01 0.22822224D+05 0.22822224D+05 0.22822224D+05 0.11738572D+01  3  4  5  3  5  1       -1 -.131337159629D-04 0.100000000000D+01
  </mgrwgt>
  </event>
  <event>
  6     66 0.11438559E-05 0.25052676E+02 0.78161638E-02 0.12791316E+00
       -1 -1    0    0    0  501 0.00000000E+00 0.00000000E+00 0.39935947E+03 0.39935947E+03 0.00000000E+00 0.0000E+00 0.9000E+01
       22 -1    0    0    0    0 0.00000000E+00 0.00000000E+00 -.13456446E+03 0.13456446E+03 0.00000000E+00 0.0000E+00 0.9000E+01
       24  2    1    2    0    0 -.15925392E+02 0.19339557E+02 -.12153007E+03 0.14678739E+03 0.78417758E+02 0.0000E+00 0.0000E+00
  9900012  1    3    3    0    0 -.16658772E+02 -.29151176E+01 -.10931308E+03 0.12138930E+03 0.50000000E+02 0.0000E+00 0.9000E+01
      -13  1    3    3    0    0 0.73338017E+00 0.22254675E+02 -.12216989E+02 0.25398095E+02 0.00000000E+00 0.0000E+00 0.9000E+01
       -2  1    1    2    0  501 0.15925392E+02 -.19339557E+02 0.38632507E+03 0.38713654E+03 0.00000000E+00 0.0000E+00 0.9000E+01
#aMCatNLO 1  0  0  1  5 0.76258465D+01 0.00000000D+00  -5  6  0 0.00000000D+00 0.00000000D+00 0.00000000D+00 0.00000000D+00 0.00000000D+00
  <mgrwgt>
 0.6328683995D-03   11    4    0
 0.231818016508747D+03 0.000000000000000D+00 0.000000000000000D+00 0.231818016508747D+03
 0.231818016508747D+03 0.000000000000000D+00 0.000000000000000D+00 -.231818016508747D+03
 0.202223733396968D+03 -.166587717691716D+02 -.291511764143150D+01 -.195213795007646D+03
 0.362259342307992D+02 0.733380166080468D+00 0.222546747366291D+02 -.285746376493742D+02
 0.225186365389727D+03 0.159253916030912D+02 -.193395570951976D+02 0.223788432657020D+03
 0.000000000000000D+00 0.000000000000000D+00 0.000000000000000D+00 0.000000000000000D+00
 0.245820907332086D+03 0.000000000000000D+00 0.000000000000000D+00 0.245820907332086D+03
 0.232816636631926D+03 0.000000000000000D+00 0.000000000000000D+00 -.232816636631926D+03
 0.202406669871404D+03 -.180655682443158D+02 -.580254178394292D+01 -.195213795007646D+03
 0.359077631031705D+02 0.482589740227968D+00 0.217399319553444D+02 -.285746376493742D+02
 0.225380030764601D+03 0.143588874234537D+02 -.225547783923415D+02 0.223788432657020D+03
 0.149430802248364D+02 0.322409108063414D+01 0.661738822093998D+01 0.130042707001598D+02
 0.231818016508747D+03 0.000000000000000D+00 0.000000000000000D+00 0.231818016508747D+03
 0.231818016508747D+03 0.000000000000000D+00 0.000000000000000D+00 -.231818016508747D+03
 0.202223733396968D+03 -.166587717691716D+02 -.291511764143150D+01 -.195213795007646D+03
 0.362259342307992D+02 0.733380166080468D+00 0.222546747366291D+02 -.285746376493742D+02
 0.000000000000000D+00 0.000000000000000D+00 0.000000000000000D+00 0.000000000000000D+00
 0.225186365389727D+03 0.159253916030912D+02 -.193395570951976D+02 0.223788432657020D+03
 0.245820907332086D+03 0.000000000000000D+00 0.000000000000000D+00 0.245820907332086D+03
 0.232816636631926D+03 0.000000000000000D+00 0.000000000000000D+00 -.232816636631926D+03
 0.202406669871404D+03 -.180655682443158D+02 -.580254178394292D+01 -.195213795007646D+03
 0.359077631031705D+02 0.482589740227968D+00 0.217399319553444D+02 -.285746376493742D+02
 0.149430802248364D+02 0.322409108063414D+01 0.661738822093998D+01 0.130042707001598D+02
 0.225380030764601D+03 0.143588874234537D+02 -.225547783923415D+02 0.223788432657020D+03
0.775013226455D-05 0.000000000000D+00 0.000000000000D+00 0.307649924433D-04 0.000000000000D+00  6 -1 22 9900012 -13 -2 21 0 0.61439918D-01 0.20702225D-01 0.25051088D+04 0.25051088D+04 0.25051088D+04 0.12771285D+01  1  2  2  1  6  1       -1 0.366506417062D-04 0.100000000000D+01
0.746053343763D-06 0.000000000000D+00 -.148812742763D-07 0.307649924433D-04 0.000000000000D+00  6 -1 22 9900012 -13 -2 21 2 0.61439918D-01 0.20702225D-01 0.25051088D+04 0.25051088D+04 0.25051088D+04 0.12771285D+01  1  2  3  1  6  1       -1 0.575455272476D-05 0.100000000000D+01
-.110357773379D-05 0.000000000000D+00 0.000000000000D+00 0.307649924433D-04 0.000000000000D+00  6 -1 22 9900012 -13 -2 21 2 0.61439918D-01 0.20702225D-01 0.25051088D+04 0.25051088D+04 0.25051088D+04 0.12771285D+01  1  2 15  1  6  1       -1 -.851225493197D-05 0.100000000000D+01
0.751008558576D-04 0.000000000000D+00 0.000000000000D+00 0.307649924433D-04 0.000000000000D+00  6 -1 22 9900012 -13 -2 21 2 0.65431833D-01 0.20702225D-01 0.29878865D+04 0.29878865D+04 0.29878865D+04 0.12678344D+01  1  2 12  1  6  1       -1 0.514639757618D-03 0.100000000000D+01
-.160583149580D-05 0.000000000000D+00 0.000000000000D+00 0.307649924433D-04 0.000000000000D+00  6 -1 22 9900012 -13 -2 21 2 0.61439918D-01 0.20702225D-01 0.25051088D+04 0.25051088D+04 0.25051088D+04 0.12771285D+01  1  2  4  1  6  1       -1 -.123863019808D-04 0.100000000000D+01
-.133770601012D-03 0.000000000000D+00 -.146146802886D-04 0.307649924433D-04 0.000000000000D+00  6 -1 22 9900012 -13 -2 21 2 0.65315436D-01 0.20702225D-01 0.25051088D+04 0.25051088D+04 0.25051088D+04 0.12771285D+01  1  2  5  1  6  1       -1 -.924523109639D-03 0.100000000000D+01
0.134440270174D-03 0.000000000000D+00 0.145873816986D-04 0.307649924433D-04 0.000000000000D+00  6 -1 22 9900012 -13 -2 21 2 0.61439918D-01 0.20702225D-01 0.25051088D+04 0.25051088D+04 0.25051088D+04 0.12771285D+01  1  2  6  1  6  1       -1 0.103698164416D-02 0.100000000000D+01
0.250805349030D-07 0.000000000000D+00 0.000000000000D+00 0.307649924433D-04 0.155982390419D-06  6 -1 22 9900012 -13 -2 21 2 0.65151176D-01 0.20791406D-01 0.29878865D+04 0.29878865D+04 0.29878865D+04 0.12678344D+01  1  2 11  1  6  1       -1 0.172118848987D-06 0.100000000000D+01
0.113871246523D-05 0.000000000000D+00 0.000000000000D+00 0.307649924433D-04 0.000000000000D+00  6 21 22 9900012 -13 1 -2 2 0.65431833D-01 0.20702225D-01 0.29878865D+04 0.29878865D+04 0.29878865D+04 0.12678344D+01  3  4 12  3  5  1       -1 0.698620257267D-04 0.100000000000D+01
-.138391575790D-05 0.000000000000D+00 -.153268116979D-06 0.307649924433D-04 0.000000000000D+00  6 21 22 9900012 -13 1 -2 2 0.65315436D-01 0.20702225D-01 0.25051088D+04 0.25051088D+04 0.25051088D+04 0.12771285D+01  3  4  5  3  5  1       -1 -.860781190178D-04 0.100000000000D+01
0.499668454345D-08 0.000000000000D+00 0.000000000000D+00 0.307649924433D-04 0.408425701568D-07  6 21 22 9900012 -13 1 -2 2 0.65151176D-01 0.20791406D-01 0.29878865D+04 0.29878865D+04 0.29878865D+04 0.12678344D+01  3  4 11  3  5  1       -1 0.307444249996D-06 0.100000000000D+01
  </mgrwgt>
  </event>
  <event>
  7     66 -.11438559E-05 0.41843226E+02 0.78161638E-02 0.12333001E+00
       -1 -1    0    0    0  502 0.00000000E+00 0.00000000E+00 0.15631468E+02 0.15631468E+02 0.00000000E+00 0.0000E+00 0.9000E+01
       22 -1    0    0    0    0 0.00000000E+00 0.00000000E+00 -.16068136E+04 0.16068136E+04 0.00000000E+00 0.0000E+00 0.9000E+01
       24  2    1    2    0    0 0.14454818E+02 -.36541469E+02 -.15381274E+04 0.15407297E+04 0.80422012E+02 0.0000E+00 0.0000E+00
  9900012  1    3    3    0    0 -.10829675E+02 -.13597085E+02 -.75180425E+03 0.75366557E+03 0.50000000E+02 0.0000E+00 0.9000E+01
      -13  1    3    3    0    0 0.25284493E+02 -.22944384E+02 -.78632316E+03 0.78706408E+03 0.00000000E+00 0.0000E+00 0.9000E+01
       -2  1    1    2    0  501 -.15047927E+02 0.41941944E+02 -.58820592E+02 0.73793149E+02 0.00000000E+00 0.0000E+00 0.9000E+01
       21  1    1    2  501  502 0.59310920E+00 -.54004753E+01 0.57658769E+01 0.79222629E+01 0.00000000E+00 0.0000E+00 0.9000E+01
#aMCatNLO 2  0  0  1  5 0.54371085D+01 0.00000000D+00  -5  6  0 0.00000000D+00 0.00000000D+00 0.00000000D+00 0.00000000D+00 0.00000000D+00
  <mgrwgt>
 -.9024868562D-04    2    2    0
 0.118755447959522D+03 0.000000000000000D+00 0.000000000000000D+00 0.118755447959522D+03
 0.118755447959522D+03 0.000000000000000D+00 0.000000000000000D+00 -.118755447959522D+03
 0.685651015794778D+02 -.106588524297033D+02 -.151524905198337D+02 -.431041071190701D+02
 0.638059323764473D+02 0.254430567402893D+02 -.243881647395417D+02 -.531889583539212D+02
 0.105139861963119D+03 -.147842043105860D+02 0.395406552593754D+02 0.962930654729913D+02
 0.000000000000000D+00 0.000000000000000D+00 -.000000000000000D+00 0.000000000000000D+00
 0.211303458232652D+03 0.000000000000000D+00 0.000000000000000D+00 0.211303458232652D+03
 0.118866273731680D+03 0.000000000000000D+00 0.000000000000000D+00 -.118866273731680D+03
 0.682651202037297D+02 -.108296754361644D+02 -.135970848289158D+02 -.431041071190701D+02
 0.632045539147164D+02 0.252844929899892D+02 -.229443840410310D+02 -.531889583539212D+02
 0.106103351691422D+03 -.150479267571384D+02 0.419419441881228D+02 0.962930654729913D+02
 0.925967061544632D+02 0.593109203313658D+00 -.540047531817600D+01 0.924371845009719D+02
-.265144069004D-04 0.000000000000D+00 0.000000000000D+00 0.336811024732D-05 0.000000000000D+00  6 -1 22 9900012 -13 -2 21 2 0.24070854D-02 0.24697161D+00 0.46971277D+04 0.46971277D+04 0.46971277D+04 0.12449139D+01  1  2 13  1  6  1       -1 -.258490712773D-03 0.100000000000D+01
0.172795731783D-04 0.000000000000D+00 0.000000000000D+00 0.336811024732D-05 0.722387539376D-06  6 -1 22 9900012 -13 -2 21 2 0.24048412D-02 0.24720209D+00 0.46971277D+04 0.46971277D+04 0.46971277D+04 0.12449139D+01  1  2  1  1  6  1       -1 0.168242027149D-03 0.100000000000D+01
  </mgrwgt>
  </event>
  <event>
  6     66 0.11438559E-05 0.53979323E+02 0.78161638E-02 0.11960321E+00
       -3 -1    0    0    0  501 0.00000000E+00 0.00000000E+00 0.13799510E+02 0.13799510E+02 0.00000000E+00 0.0000E+00 0.9000E+01
       22 -1    0    0    0    0 -.00000000E+00 -.00000000E+00 -.70921991E+03 0.70921991E+03 0.00000000E+00 0.0000E+00 0.9000E+01
       24  2    1    2    0    0 0.62931223E+02 -.54977999E+01 -.60086531E+03 0.60930386E+03 0.78876503E+02 0.0000E+00 0.0000E+00
  9900012  1    3    3    0    0 0.17911379E+02 0.76263490E+01 -.35078242E+03 0.35486234E+03 0.50000000E+02 0.0000E+00 0.9000E+01
      -13  1    3    3    0    0 0.45019844E+02 -.13124149E+02 -.25008290E+03 0.25444152E+03 0.00000000E+00 0.0000E+00 0.9000E+01
       -4  1    1    2    0  501 -.62931223E+02 0.54977999E+01 -.94555090E+02 0.11371556E+03 0.00000000E+00 0.0000E+00 0.9000E+01
#aMCatNLO 1  0  0  5  1 0.10730084D+02 0.00000000D+00  -5  6  0 0.00000000D+00 0.00000000D+00 0.00000000D+00 0.00000000D+00 0.00000000D+00
  <mgrwgt>
 0.3980646144D-04    7    2    0
 0.989286984102730D+02 0.000000000000000D+00 0.000000000000000D+00 0.989286984102730D+02
 0.989286984102730D+02 -.000000000000000D+00 -.000000000000000D+00 -.989286984102730D+02
 0.638394988523918D+02 0.179113788052415D+02 0.762634897696968D+01 -.345905033831708D+02
 0.508113886125616D+02 0.450198442347470D+02 -.131241488669029D+02 -.195644461801311D+02
 0.832065093555925D+02 -.629312230399886D+02 0.549779988993326D+01 0.541549495633018D+02
 0.000000000000000D+00 0.000000000000000D+00 0.000000000000000D+00 0.000000000000000D+00
 0.989286984102730D+02 0.000000000000000D+00 0.000000000000000D+00 0.989286984102730D+02
 0.989286984102730D+02 -.000000000000000D+00 -.000000000000000D+00 -.989286984102730D+02
 0.626655723060784D+02 0.162825764525669D+02 0.776864446977406D+01 -.331888508330267D+02
 0.492180157507860D+02 0.437319264645608D+02 -.130116337459005D+02 -.184561390709272D+02
 0.757089520406804D+02 -.620403520887063D+02 -.510012964341378D+00 0.433887084226254D+02
 0.102648567230011D+02 0.202584917157865D+01 0.575300224046786D+01 0.825628148132846D+01
0.298382967118D-06 0.000000000000D+00 0.000000000000D+00 0.471243931882D-06 0.000000000000D+00  6 -3 22 9900012 -13 -4 21 0 0.21230016D-02 0.10911076D+00 0.67011287D+04 0.67011287D+04 0.67011287D+04 0.12277837D+01  1  2  2  2  6  5       -4 0.141004972003D-04 0.100000000000D+01
-.615660690851D-09 0.000000000000D+00 -.572934579885D-09 0.471243931882D-06 0.000000000000D+00  6 -3 22 9900012 -13 -4 21 2 0.21230016D-02 0.10911076D+00 0.67011287D+04 0.67011287D+04 0.67011287D+04 0.12277837D+01  1  2  3  2  6  5       -4 -.438576664340D-07 0.100000000000D+01
-.349386789064D-07 0.000000000000D+00 0.000000000000D+00 0.471243931882D-06 0.000000000000D+00  6 -3 22 9900012 -13 -4 21 2 0.21230016D-02 0.10911076D+00 0.67011287D+04 0.67011287D+04 0.67011287D+04 0.12277837D+01  1  2 15  2  6  5       -4 -.248891791842D-05 0.100000000000D+01
0.494154344517D-06 0.000000000000D+00 0.000000000000D+00 0.471243931882D-06 0.000000000000D+00  6 -3 22 9900012 -13 -4 21 2 0.21230016D-02 0.10911076D+00 0.69658620D+04 0.69658620D+04 0.69658620D+04 0.12259601D+01  1  2 12  2  6  5       -4 0.352534640853D-04 0.100000000000D+01
-.160557459001D-06 0.000000000000D+00 0.000000000000D+00 0.471243931882D-06 0.000000000000D+00  6 -3 22 9900012 -13 -4 21 2 0.21230016D-02 0.10911076D+00 0.67011287D+04 0.67011287D+04 0.67011287D+04 0.12277837D+01  1  2  4  2  6  5       -4 -.114375914932D-04 0.100000000000D+01
-.474270974482D-06 0.000000000000D+00 0.000000000000D+00 0.471243931882D-06 0.000000000000D+00  6 -3 22 9900012 -13 -4 21 2 0.21230016D-02 0.10911076D+00 0.67011287D+04 0.67011287D+04 0.67011287D+04 0.12277837D+01  1  2  5  2  6  5       -4 -.337855226219D-04 0.100000000000D+01
0.536357850494D-06 0.000000000000D+00 -.000000000000D+00 0.471243931882D-06 0.000000000000D+00  6 -3 22 9900012 -13 -4 21 2 0.21230016D-02 0.10911076D+00 0.67011287D+04 0.67011287D+04 0.67011287D+04 0.12277837D+01  1  2  6  2  6  5       -4 0.382083898579D-04 0.100000000000D+01
  </mgrwgt>
  </event>
  <event>
  6     66 0.11438559E-05 0.48715953E+02 0.78161638E-02 0.10680067E+00
       -3 -1    0    0    0  501 0.00000000E+00 0.00000000E+00 0.25812369E+03 0.25812369E+03 0.00000000E+00 0.0000E+00 0.9000E+01
       22 -1    0    0    0    0 -.00000000E+00 -.00000000E+00 -.67278161E+03 0.67278161E+03 0.00000000E+00 0.0000E+00 0.9000E+01
       24  2    1    2    0    0 0.20484218E+02 -.44200010E+02 -.66693742E+03 0.67396525E+03 0.83966536E+02 0.0000E+00 0.0000E+00
  9900012  1    3    3    0    0 0.10873285E+02 -.30921410E+02 -.26360028E+03 0.27029515E+03 0.50000000E+02 0.0000E+00 0.9000E+01
      -13  1    3    3    0    0 0.96109329E+01 -.13278600E+02 -.40333715E+03 0.40367010E+03 0.00000000E+00 0.0000E+00 0.9000E+01
       -4  1    1    2    0  501 -.20484218E+02 0.44200010E+02 0.25227951E+03 0.25694006E+03 0.00000000E+00 0.0000E+00 0.9000E+01
#aMCatNLO 1  0  0  5  1 0.10730084D+02 0.00000000D+00  -5  6  0 0.00000000D+00 0.00000000D+00 0.00000000D+00 0.00000000D+00 0.00000000D+00
  <mgrwgt>
 0.2977561405D-03    4    2    0
 0.416726377863895D+03 0.000000000000000D+00 0.000000000000000D+00 0.416726377863895D+03
 0.416726377863895D+03 -.000000000000000D+00 -.000000000000000D+00 -.416726377863895D+03
 0.170753825064603D+03 0.108732853692667D+02 -.309214099019085D+02 -.159945324561707D+03
 0.250202174184349D+03 0.961093293817486D+01 -.132785997554302D+02 -.249664648525113D+03
 0.412496756478837D+03 -.204842183074416D+02 0.442000096573388D+02 0.409609973086820D+03
 0.000000000000000D+00 0.000000000000000D+00 0.000000000000000D+00 0.000000000000000D+00
 0.416726377863895D+03 0.000000000000000D+00 0.000000000000000D+00 0.416726377863895D+03
 0.416726377863895D+03 -.000000000000000D+00 -.000000000000000D+00 -.416726377863895D+03
 0.149747761131832D+03 0.977043640471729D+01 -.285417274482235D+02 -.137892350515643D+03
 0.217828385483799D+03 0.800043539202184D+01 -.980353392549698D+01 -.217460546487376D+03
 0.205722129965878D+03 -.153783932934811D+03 0.169203996591794D+01 0.136635404378049D+03
 0.260154479146280D+03 0.136013061138072D+03 0.366532214078027D+02 0.218717492624970D+03
0.122767935208D-02 0.000000000000D+00 0.000000000000D+00 0.578991517279D-04 0.000000000000D+00  6 -3 22 9900012 -13 -4 21 0 0.39711337D-01 0.10350486D+00 0.38996106D+04 0.38996106D+04 0.38996106D+04 0.12541855D+01  1  2  2  2  6  5       -4 0.546713367498D-03 0.100000000000D+01
0.372621400552D-04 0.000000000000D+00 -.235730598370D-05 0.578991517279D-04 0.000000000000D+00  6 -3 22 9900012 -13 -4 21 2 0.39711337D-01 0.10350486D+00 0.38996106D+04 0.38996106D+04 0.38996106D+04 0.12541855D+01  1  2  3  2  6  5       -4 0.261015371573D-04 0.100000000000D+01
-.184789795433D-03 0.000000000000D+00 0.000000000000D+00 0.578991517279D-04 0.000000000000D+00  6 -3 22 9900012 -13 -4 21 2 0.39711337D-01 0.10350486D+00 0.38996106D+04 0.38996106D+04 0.38996106D+04 0.12541855D+01  1  2 15  2  6  5       -4 -.129442316105D-03 0.100000000000D+01
-.207879729457D-03 0.000000000000D+00 0.000000000000D+00 0.578991517279D-04 0.000000000000D+00  6 -3 22 9900012 -13 -4 21 2 0.39711337D-01 0.10350486D+00 0.38996106D+04 0.38996106D+04 0.38996106D+04 0.12541855D+01  1  2  5  2  6  5       -4 -.145616448079D-03 0.100000000000D+01
  </mgrwgt>
  </event>
</LesHouchesEvents>
