<LesHouchesEvents version="3.0">
  <!--
  <scalesfunctionalform>
    muR  H_T/2 := sum_i mT(i)/2, i=final state
    muF1 H_T/2 := sum_i mT(i)/2, i=final state
    muF2 H_T/2 := sum_i mT(i)/2, i=final state
    QES  H_T/2 := sum_i mT(i)/2, i=final state
  </scalesfunctionalform>
PYTHIA8   
  -->
  <header>
        6
  </header>
  <init>
   2212   2212 0.65000000D+04 0.65000000D+04 -1 -1  82200  82200 -4   1
 0.71870369D-05 0.11448500D-06 0.23750429D-05     66
  </init>
  <event>
  5     66 0.23750429E-05 0.10227936E+02 0.78161638E-02 0.13404940E+00
       22 -1    0    0    0    0 0.00000000E+00 0.00000000E+00 0.13055618E+03 0.13055618E+03 0.00000000E+00 0.0000E+00 0.9000E+01
        4 -1    0    0  501    0 0.00000000E+00 0.00000000E+00 -.18376793E+03 0.18376793E+03 0.00000000E+00 0.0000E+00 0.9000E+01
  9900012  1    1    2    0    0 0.79977196E+00 -.66442966E+01 0.98566846E+02 0.11072583E+03 0.50000000E+02 0.0000E+00 0.9000E+01
      -11  1    1    2    0    0 -.17993403E+01 0.16823272E+02 0.22982213E+02 0.28538434E+02 0.00000000E+00 0.0000E+00 0.9000E+01
        3  1    1    2  501    0 0.99956835E+00 -.10178975E+02 -.17476080E+03 0.17505984E+03 0.00000000E+00 0.0000E+00 0.9000E+01
#aMCatNLO 1  0  0  2  5 0.46837583D+01 0.00000000D+00  -5  6  0 0.00000000D+00 0.00000000D+00 0.00000000D+00 0.00000000D+00 0.00000000D+00
  <mgrwgt>
 0.5943660585D-05   11    2    0
 0.154893637331108D+03 0.000000000000000D+00 0.000000000000000D+00 0.154893637331108D+03
 0.154893637331108D+03 0.000000000000000D+00 0.000000000000000D+00 -.154893637331108D+03
 0.129278104348951D+03 0.799771955733487D+00 -.664429664358780D+01 0.119029584351912D+03
 0.329040034280034D+02 -.179934030755803D+01 0.168232716296475D+02 0.282207963693931D+02
 0.147605166885263D+03 0.999568351824545D+00 -.101789749860597D+02 -.147250380721306D+03
 0.000000000000000D+00 -.000000000000000D+00 0.000000000000000D+00 -.000000000000000D+00
 0.155008997442142D+03 0.000000000000000D+00 0.000000000000000D+00 0.155008997442142D+03
 0.210913859808572D+03 0.000000000000000D+00 0.000000000000000D+00 -.210913859808572D+03
 0.129307448169226D+03 0.275153675904033D+01 -.669352272810588D+01 0.119029584351912D+03
 0.328741857157216D+02 -.130285644314353D+01 0.168107496512667D+02 0.282207963693931D+02
 0.147640962424753D+03 0.322804166708977D+01 -.102351800244833D+02 -.147250380721306D+03
 0.561002609410130D+02 -.467672198298657D+01 0.117953101322459D+00 -.559048623664301D+02
0.135461539660D-07 0.000000000000D+00 0.000000000000D+00 0.257485890829D-06 0.000000000000D+00  6 22 4 9900012 -11 3 21 0 0.20085567D-01 0.28271989D-01 0.15051697D+04 0.15051697D+04 0.15051697D+04 0.13052248D+01  1  2  2  1  6  2        4 0.110892461555D-06 0.100000000000D+01
0.320380237636D-08 0.000000000000D+00 -.260103990068D-10 0.257485890829D-06 0.000000000000D+00  6 22 4 9900012 -11 3 21 2 0.20085567D-01 0.28271989D-01 0.15051697D+04 0.15051697D+04 0.15051697D+04 0.13052248D+01  1  2  3  1  6  2        4 0.446809449753D-07 0.100000000000D+01
-.223922798523D-08 0.000000000000D+00 0.000000000000D+00 0.257485890829D-06 0.000000000000D+00  6 22 4 9900012 -11 3 21 2 0.20085567D-01 0.28271989D-01 0.15051697D+04 0.15051697D+04 0.15051697D+04 0.13052248D+01  1  2 15  1  6  2        4 -.312287746377D-07 0.100000000000D+01
0.366954908940D-06 0.000000000000D+00 0.000000000000D+00 0.257485890829D-06 0.000000000000D+00  6 22 4 9900012 -11 3 21 2 0.20085567D-01 0.38525761D-01 0.17136517D+04 0.17136517D+04 0.17136517D+04 0.12978884D+01  1  2 12  1  6  2        4 0.285089710977D-05 0.100000000000D+01
-.255388524296D-06 0.000000000000D+00 0.000000000000D+00 0.257485890829D-06 0.000000000000D+00  6 22 4 9900012 -11 3 21 2 0.20085567D-01 0.28271989D-01 0.15051697D+04 0.15051697D+04 0.15051697D+04 0.13052248D+01  1  2  4  1  6  2        4 -.356170551765D-05 0.100000000000D+01
-.131614398934D-05 0.000000000000D+00 -.626819985338D-08 0.257485890829D-06 0.000000000000D+00  6 22 4 9900012 -11 3 21 2 0.20085567D-01 0.38509093D-01 0.15051697D+04 0.15051697D+04 0.15051697D+04 0.13052248D+01  1  2  5  1  6  2        4 -.101950233740D-04 0.100000000000D+01
0.125783099315D-05 0.000000000000D+00 0.598037198765D-08 0.257485890829D-06 0.000000000000D+00  6 22 4 9900012 -11 3 21 2 0.20085567D-01 0.28271989D-01 0.15051697D+04 0.15051697D+04 0.15051697D+04 0.13052248D+01  1  2  6  1  6  2        4 0.175419925423D-04 0.100000000000D+01
0.191658840683D-06 0.000000000000D+00 0.000000000000D+00 0.257485890829D-06 0.328308394445D-07  6 22 4 9900012 -11 3 21 2 0.20100526D-01 0.38497090D-01 0.17136517D+04 0.17136517D+04 0.17136517D+04 0.12978884D+01  1  2 11  1  6  2        4 0.148956836125D-05 0.100000000000D+01
0.145060818838D-07 0.000000000000D+00 0.000000000000D+00 0.257485890829D-06 0.000000000000D+00  6 22 21 9900012 -11 3 -4 2 0.20085567D-01 0.38525761D-01 0.17136517D+04 0.17136517D+04 0.17136517D+04 0.12978884D+01  1  2 12  3  6  2        4 0.278168243703D-05 0.100000000000D+01
-.518288352744D-07 0.000000000000D+00 -.247538009016D-09 0.257485890829D-06 0.000000000000D+00  6 22 21 9900012 -11 3 -4 2 0.20085567D-01 0.38509093D-01 0.15051697D+04 0.15051697D+04 0.15051697D+04 0.13052248D+01  1  2  5  3  6  2        4 -.999197028725D-05 0.100000000000D+01
0.255646617059D-07 0.000000000000D+00 0.000000000000D+00 0.257485890829D-06 0.399901479057D-08  6 22 21 9900012 -11 3 -4 2 0.20100526D-01 0.38497090D-01 0.17136517D+04 0.17136517D+04 0.17136517D+04 0.12978884D+01  1  2 11  3  6  2        4 0.490387468143D-05 0.100000000000D+01
  </mgrwgt>
  </event>
  <event>
  6     66 0.23750429E-05 0.65169877E+02 0.78161638E-02 0.11890900E+00
       22 -1    0    0    0    0 0.00000000E+00 0.00000000E+00 0.14268591E+03 0.14268591E+03 0.00000000E+00 0.0000E+00 0.9000E+01
        4 -1    0    0  502    0 0.00000000E+00 0.00000000E+00 -.26037087E+03 0.26037087E+03 0.00000000E+00 0.0000E+00 0.9000E+01
  9900012  1    1    2    0    0 0.74649592E+01 0.57697974E+02 -.78928272E+02 0.11006568E+03 0.50000000E+02 0.0000E+00 0.9000E+01
      -11  1    1    2    0    0 0.51390067E+01 0.20600535E+01 0.11371585E+03 0.11385055E+03 0.00000000E+00 0.0000E+00 0.9000E+01
        3  1    1    2  501    0 -.27565600E+02 -.68493552E+02 -.10305217E+03 0.12677136E+03 0.00000000E+00 0.0000E+00 0.9000E+01
       21  1    1    2  502  501 0.14961635E+02 0.87355239E+01 -.49420369E+02 0.52369197E+02 0.00000000E+00 0.0000E+00 0.9000E+01
#aMCatNLO 2  0  0  2  5 0.17777161D+02 0.00000000D+00  -5  6  0 0.00000000D+00 0.00000000D+00 0.00000000D+00 0.00000000D+00 0.00000000D+00
  <mgrwgt>
 0.5758659173D-05    2    2    0
 0.171771338779090D+03 0.000000000000000D+00 0.000000000000000D+00 0.171771338779090D+03
 0.171771338779090D+03 0.000000000000000D+00 0.000000000000000D+00 -.171771338779090D+03
 0.984633757736260D+02 0.117087445629986D+02 0.601757577184452D+02 -.586243963935468D+02
 0.139090793637873D+03 0.111828617869573D+02 0.558882842695711D+01 0.138527822020998D+03
 0.105988508146680D+03 -.228916063499560D+02 -.657645861454023D+02 -.799034256274507D+02
 0.000000000000000D+00 0.000000000000000D+00 0.000000000000000D+00 -.000000000000000D+00
 0.173785403578635D+03 0.000000000000000D+00 0.000000000000000D+00 0.173785403578635D+03
 0.213776617496474D+03 0.000000000000000D+00 0.000000000000000D+00 -.213776617496474D+03
 0.965484423312765D+02 0.746495915482705D+01 0.576979743916966D+02 -.586243963935468D+02
 0.138638417057296D+03 0.513900668512365D+01 0.206005353372798D+01 0.138527822020998D+03
 0.108792400438556D+03 -.275656004425476D+02 -.684935518017819D+02 -.799034256274507D+02
 0.435827612479796D+02 0.149616346025969D+02 0.873552387635732D+01 -.399912139178390D+02
-.117784111653D-05 0.000000000000D+00 0.000000000000D+00 0.377940887871D-07 0.000000000000D+00  6 22 4 9900012 -11 3 21 2 0.21697273D-01 0.40526737D-01 0.75174473D+04 0.75174473D+04 0.75174473D+04 0.12223971D+01  1  2 13  1  6  2        4 -.761247386454D-05 0.100000000000D+01
0.205610040425D-05 0.000000000000D+00 0.000000000000D+00 0.377940887871D-07 0.195915908571D-08  6 22 4 9900012 -11 3 21 2 0.21951679D-01 0.40057058D-01 0.75174473D+04 0.75174473D+04 0.75174473D+04 0.12223971D+01  1  2  1  1  6  2        4 0.133711330378D-04 0.100000000000D+01
  </mgrwgt>
  </event>
  <event>
  5     66 0.23750429E-05 0.22545211E+02 0.78161638E-02 0.12981576E+00
       22 -1    0    0    0    0 0.00000000E+00 0.00000000E+00 0.16181515E+02 0.16181515E+02 0.00000000E+00 0.0000E+00 0.9000E+01
        2 -1    0    0  501    0 0.00000000E+00 0.00000000E+00 -.50600336E+03 0.50600336E+03 0.00000000E+00 0.0000E+00 0.9000E+01
  9900012  1    1    2    0    0 0.16669034E+02 -.10067622E+02 -.76859389E+02 0.93736755E+02 0.50000000E+02 0.0000E+00 0.9000E+01
      -11  1    1    2    0    0 -.67504854E+01 -.12021096E+02 0.95801040E+00 0.13820043E+02 0.00000000E+00 0.0000E+00 0.9000E+01
        1  1    1    2  501    0 -.99185482E+01 0.22088717E+02 -.41392046E+03 0.41462807E+03 0.00000000E+00 0.0000E+00 0.9000E+01
#aMCatNLO 1  0  0  2  5 0.14286824D+02 0.00000000D+00  -5  6  0 0.00000000D+00 0.00000000D+00 0.00000000D+00 0.00000000D+00 0.00000000D+00
  <mgrwgt>
 0.9793069176D-05    6    2    0
 0.904870200434905D+02 0.000000000000000D+00 0.000000000000000D+00 0.904870200434905D+02
 0.904870200434905D+02 0.000000000000000D+00 0.000000000000000D+00 -.904870200434905D+02
 0.624427030470815D+02 0.166690336416666D+02 -.100676216258491D+02 0.319355206013261D+02
 0.424694703426867D+02 -.675048541063303D+01 -.120210957413233D+02 0.401693927647297D+02
 0.760618666972128D+02 -.991854823103361D+01 0.220887173671724D+02 -.721049133660557D+02
 0.000000000000000D+00 0.000000000000000D+00 0.000000000000000D+00 0.000000000000000D+00
 0.969720333620411D+02 0.000000000000000D+00 0.000000000000000D+00 0.969720333620411D+02
 0.923839730551167D+02 0.000000000000000D+00 0.000000000000000D+00 -.923839730551167D+02
 0.618576782296255D+02 0.143143900335503D+02 -.100793411416403D+02 0.319355206013261D+02
 0.427580724892412D+02 -.836496548626466D+01 -.120291313203279D+02 0.401693927647297D+02
 0.764882220359796D+02 -.128083309305216D+02 0.220743343608173D+02 -.721049133660557D+02
 0.825203366231139D+01 0.685890638323593D+01 0.341381011509472D-01 0.458806030692444D+01
0.205419152918D-07 0.000000000000D+00 0.000000000000D+00 0.450719362957D-07 0.000000000000D+00  6 22 2 9900012 -11 1 21 0 0.24894638D-02 0.77846670D-01 0.21003206D+04 0.21003206D+04 0.21003206D+04 0.12866318D+01  1  2  2  1  6  2        2 0.457660629195D-05 0.100000000000D+01
0.124430551098D-08 0.000000000000D+00 -.394431817654D-10 0.450719362957D-07 0.000000000000D+00  6 22 2 9900012 -11 1 21 2 0.24894638D-02 0.77846670D-01 0.21003206D+04 0.21003206D+04 0.21003206D+04 0.12866318D+01  1  2  3  1  6  2        2 0.458921324456D-06 0.100000000000D+01
-.369070816312D-08 0.000000000000D+00 0.000000000000D+00 0.450719362957D-07 0.000000000000D+00  6 22 2 9900012 -11 1 21 2 0.24894638D-02 0.77846670D-01 0.21003206D+04 0.21003206D+04 0.21003206D+04 0.12866318D+01  1  2 15  1  6  2        2 -.136119679891D-05 0.100000000000D+01
0.179647023066D-07 0.000000000000D+00 0.000000000000D+00 0.450719362957D-07 0.000000000000D+00  6 22 2 9900012 -11 1 21 2 0.24894638D-02 0.85174699D-01 0.25004112D+04 0.25004112D+04 0.25004112D+04 0.12772286D+01  1  2 12  1  6  2        2 0.603979795121D-05 0.100000000000D+01
-.265823257819D-09 0.000000000000D+00 0.000000000000D+00 0.450719362957D-07 0.000000000000D+00  6 22 2 9900012 -11 1 21 2 0.24894638D-02 0.77846670D-01 0.21003206D+04 0.21003206D+04 0.21003206D+04 0.12866318D+01  1  2  4  1  6  2        2 -.980402003152D-07 0.100000000000D+01
0.273147568926D-09 0.000000000000D+00 0.000000000000D+00 0.450719362957D-07 0.000000000000D+00  6 22 21 9900012 -11 1 -2 2 0.24894638D-02 0.85174699D-01 0.25004112D+04 0.25004112D+04 0.25004112D+04 0.12772286D+01  1  2 12  3  6  2        2 0.176980607233D-06 0.100000000000D+01
  </mgrwgt>
  </event>
  <event>
  6     66 -.23750429E-05 0.35637061E+02 0.78161638E-02 0.12524764E+00
       22 -1    0    0    0    0 0.00000000E+00 0.00000000E+00 0.49514886E+02 0.49514886E+02 0.00000000E+00 0.0000E+00 0.9000E+01
        4 -1    0    0  502    0 0.00000000E+00 0.00000000E+00 -.11977739E+03 0.11977739E+03 0.00000000E+00 0.0000E+00 0.9000E+01
  9900012  1    1    2    0    0 0.40514094E+02 -.14311527E+02 0.12576964E+02 0.67114765E+02 0.50000000E+02 0.0000E+00 0.9000E+01
      -11  1    1    2    0    0 -.84766337E+01 0.98038019E+01 -.13741078E+02 0.18888755E+02 0.00000000E+00 0.0000E+00 0.9000E+01
        3  1    1    2  501    0 -.38637240E+02 0.48594795E+01 -.52056988E+02 0.65010621E+02 0.00000000E+00 0.0000E+00 0.9000E+01
       21  1    1    2  502  501 0.65997795E+01 -.35175411E+00 -.17041401E+02 0.18278134E+02 0.00000000E+00 0.0000E+00 0.9000E+01
#aMCatNLO 2  0  0  2  5 0.68833659D+01 0.00000000D+00  -5  6  0 0.00000000D+00 0.00000000D+00 0.00000000D+00 0.00000000D+00 0.00000000D+00
  <mgrwgt>
 -.1068872705D-04    2    2    0
 0.705852401117879D+02 0.000000000000000D+00 0.000000000000000D+00 0.705852401117879D+02
 0.705852401117879D+02 0.000000000000000D+00 0.000000000000000D+00 -.705852401117879D+02
 0.784658148848776D+02 0.441333572454410D+02 -.145044262566049D+02 0.387137249920602D+02
 0.146047631132691D+02 -.778478371818642D+01 0.976692782190595D+01 -.756989887498135D+01
 0.480999022254292D+02 -.363485735272546D+02 0.473749843469896D+01 -.311438261170788D+02
 0.000000000000000D+00 0.000000000000000D+00 -.000000000000000D+00 -.000000000000000D+00
 0.715561813737453D+02 0.000000000000000D+00 0.000000000000000D+00 0.715561813737453D+02
 0.828826201272598D+02 0.000000000000000D+00 0.000000000000000D+00 -.828826201272598D+02
 0.764523652010048D+02 0.405140941978720D+02 -.143115272907157D+02 0.387137249920602D+02
 0.150090379411982D+02 -.847663367275649D+01 0.980380194214342D+01 -.756989887498135D+01
 0.498637018719688D+02 -.386372400486392D+02 0.485947945664676D+01 -.311438261170788D+02
 0.131136964868333D+02 0.659977952352375D+01 -.351754108074484D+00 -.113264387535145D+02
-.125522239926D-06 0.000000000000D+00 0.000000000000D+00 0.259548490583D-06 0.000000000000D+00  6 22 4 9900012 -11 3 21 2 0.75143111D-02 0.18680769D-01 0.38711309D+04 0.38711309D+04 0.38711309D+04 0.12545550D+01  1  2 13  1  6  2        4 -.154905233701D-04 0.100000000000D+01
0.387213114778D-07 0.000000000000D+00 0.000000000000D+00 0.259548490583D-06 0.163712810179D-07  6 22 4 9900012 -11 3 21 2 0.76176748D-02 0.18427291D-01 0.38711309D+04 0.38711309D+04 0.38711309D+04 0.12545550D+01  1  2  1  1  6  2        4 0.480179632348D-05 0.100000000000D+01
  </mgrwgt>
  </event>
  <event>
  6     66 -.23750429E-05 0.26164480E+02 0.78161638E-02 0.13043799E+00
       22 -1    0    0    0    0 0.00000000E+00 0.00000000E+00 0.64031004E+01 0.64031004E+01 0.00000000E+00 0.0000E+00 0.9000E+01
        2 -1    0    0  502    0 0.00000000E+00 0.00000000E+00 -.57937358E+03 0.57937358E+03 0.00000000E+00 0.0000E+00 0.9000E+01
  9900012  1    1    2    0    0 0.37788576E+02 0.32722636E+01 -.33396725E+03 0.33981290E+03 0.50000000E+02 0.0000E+00 0.9000E+01
      -11  1    1    2    0    0 -.44840132E+01 0.18364774E+01 -.18798644E+01 0.51973950E+01 0.00000000E+00 0.0000E+00 0.9000E+01
        1  1    1    2  501    0 -.28068292E+02 -.73096981E+01 -.22914107E+03 0.23096946E+03 0.00000000E+00 0.0000E+00 0.9000E+01
       21  1    1    2  502  501 -.52362701E+01 0.22009571E+01 -.79823029E+01 0.97969330E+01 0.00000000E+00 0.0000E+00 0.9000E+01
#aMCatNLO 2  0  0  2  5 0.18171779D+02 0.00000000D+00  -5  6  0 0.00000000D+00 0.00000000D+00 0.00000000D+00 0.00000000D+00 0.00000000D+00
  <mgrwgt>
 -.1944131752D-04    1    2    0
 0.559212995514417D+02 0.000000000000000D+00 0.000000000000000D+00 0.559212995514417D+02
 0.559212995514417D+02 0.000000000000000D+00 0.000000000000000D+00 -.559212995514417D+02
 0.612211509292022D+02 0.348861695305835D+02 0.449222953332837D+01 -.328700021287373D+01
 0.175158178065925D+02 -.529726769156178D+01 0.217831199819515D+01 0.165528784589327D+02
 0.331056303670887D+02 -.295889018390217D+02 -.667054153152352D+01 -.132658782460590D+02
 0.000000000000000D+00 -.000000000000000D+00 0.000000000000000D+00 0.000000000000000D+00
 0.652374762800039D+02 0.000000000000000D+00 0.000000000000000D+00 0.652374762800039D+02
 0.568658912337510D+02 0.000000000000000D+00 0.000000000000000D+00 -.568658912337510D+02
 0.628449562825189D+02 0.377885756678730D+02 0.327226355077253D+01 -.328700021287373D+01
 0.172475160351424D+02 -.448401324389289D+01 0.183647742564121D+01 0.165528784589327D+02
 0.318942666763308D+02 -.280682923483083D+02 -.730969806705728D+01 -.132658782460590D+02
 0.101166285197627D+02 -.523627007567181D+01 0.220095709064354D+01 0.837158504625298D+01
-.172086612476D-07 0.000000000000D+00 0.000000000000D+00 0.102677432074D-07 0.000000000000D+00  6 22 2 9900012 -11 1 21 2 0.84441718D-03 0.10398369D+00 0.26157587D+04 0.26157587D+04 0.26157587D+04 0.12748305D+01  1  2 13  1  6  2        2 -.194413175178D-04 0.100000000000D+01
  </mgrwgt>
  </event>
  <event>
  5     66 0.23750429E-05 0.73683781E+02 0.78161638E-02 0.10958551E+00
       22 -1    0    0    0    0 0.00000000E+00 0.00000000E+00 0.69831595E+02 0.69831595E+02 0.00000000E+00 0.0000E+00 0.9000E+01
        2 -1    0    0  501    0 0.00000000E+00 0.00000000E+00 -.85762036E+03 0.85762036E+03 0.00000000E+00 0.0000E+00 0.9000E+01
  9900012  1    1    2    0    0 -.54561402E+02 -.56645393E+02 -.68567991E+02 0.11570314E+03 0.50000000E+02 0.0000E+00 0.9000E+01
      -11  1    1    2    0    0 0.81434633E+02 -.11963128E+02 0.62501063E+01 0.82545622E+02 0.00000000E+00 0.0000E+00 0.9000E+01
        1  1    1    2  501    0 -.26873231E+02 0.68608520E+02 -.72547088E+03 0.72920319E+03 0.00000000E+00 0.0000E+00 0.9000E+01
#aMCatNLO 1  0  0  2  5 0.11495244D+03 0.00000000D+00  -5  6  0 0.00000000D+00 0.00000000D+00 0.00000000D+00 0.00000000D+00 0.00000000D+00
  <mgrwgt>
 0.5326996093D-05    4    2    0
 0.244722286204528D+03 0.000000000000000D+00 0.000000000000000D+00 0.244722286204528D+03
 0.244722286204528D+03 0.000000000000000D+00 0.000000000000000D+00 -.244722286204528D+03
 0.108882624573038D+03 -.545614015941340D+02 -.566453926247663D+02 0.563007893761973D+02
 0.166476177561107D+03 0.814346327550817D+02 -.119631276816253D+02 0.144705224022754D+03
 0.214085770274910D+03 -.268732311609477D+02 0.686085203063916D+02 -.201006013398951D+03
 0.000000000000000D+00 -.000000000000000D+00 0.000000000000000D+00 0.000000000000000D+00
 0.299271171969148D+03 0.000000000000000D+00 0.000000000000000D+00 0.299271171969148D+03
 0.262675458241872D+03 0.000000000000000D+00 0.000000000000000D+00 -.262675458241872D+03
 0.110122557738746D+03 -.456245058819703D+02 -.661483431505782D+02 0.563007893761973D+02
 0.175373428030039D+03 0.953844134961742D+02 -.267964747965633D+02 0.144705224022754D+03
 0.207434061872001D+03 -.967236522370822D+01 0.503181672277234D+02 -.201006013398951D+03
 0.690165825702331D+02 -.400875423904956D+02 0.426266507194182D+02 0.365957137272761D+02
0.336575745576D-06 0.000000000000D+00 0.000000000000D+00 0.475749976132D-08 0.000000000000D+00  6 22 2 9900012 -11 1 21 0 0.10743322D-01 0.13194159D+00 0.15523822D+05 0.15523822D+05 0.15523822D+05 0.11900156D+01  1  2  2  1  6  2        2 0.642002016587D-05 0.100000000000D+01
0.165507533493D-07 0.000000000000D+00 -.646269742720D-09 0.475749976132D-08 0.000000000000D+00  6 22 2 9900012 -11 1 21 2 0.10743322D-01 0.13194159D+00 0.15523822D+05 0.15523822D+05 0.15523822D+05 0.11900156D+01  1  2  3  1  6  2        2 0.447071166709D-06 0.100000000000D+01
-.548349337808D-07 0.000000000000D+00 0.000000000000D+00 0.475749976132D-08 0.000000000000D+00  6 22 2 9900012 -11 1 21 2 0.10743322D-01 0.13194159D+00 0.15523822D+05 0.15523822D+05 0.15523822D+05 0.11900156D+01  1  2 15  1  6  2        2 -.148120857730D-05 0.100000000000D+01
-.218000778146D-08 0.000000000000D+00 0.000000000000D+00 0.475749976132D-08 0.000000000000D+00  6 22 2 9900012 -11 1 21 2 0.10743322D-01 0.13194159D+00 0.15523822D+05 0.15523822D+05 0.15523822D+05 0.11900156D+01  1  2  4  1  6  2        2 -.588866622394D-07 0.100000000000D+01
  </mgrwgt>
  </event>
</LesHouchesEvents>
