<LesHouchesEvents version="3.0">
  <!--
  <scalesfunctionalform>
    muR  H_T/2 := sum_i mT(i)/2, i=final state
    muF1 H_T/2 := sum_i mT(i)/2, i=final state
    muF2 H_T/2 := sum_i mT(i)/2, i=final state
    QES  H_T/2 := sum_i mT(i)/2, i=final state
  </scalesfunctionalform>
PYTHIA8   
  -->
  <header>
        5
  </header>
  <init>
   2212   2212 0.65000000D+04 0.65000000D+04 -1 -1  82200  82200 -4   1
 0.46613226D-05 0.95563742D-07 0.12056947D-05     66
  </init>
  <event>
  7     66 0.12056947E-05 0.48780745E+02 0.78161638E-02 0.12275074E+00
       22 -1    0    0    0    0 0.00000000E+00 0.00000000E+00 0.72589350E+02 0.72589350E+02 0.00000000E+00 0.0000E+00 0.9000E+01
       21 -1    0    0  502  501 0.00000000E+00 0.00000000E+00 -.88286793E+02 0.88286793E+02 0.00000000E+00 0.0000E+00 0.9000E+01
      -24  2    1    2    0    0 -.35513736E+01 0.48719838E+02 -.33608283E+02 0.99347349E+02 0.79712886E+02 0.0000E+00 0.0000E+00
  9900012  1    3    3    0    0 -.24639544E+02 0.39330288E+02 -.34078969E+02 0.76258474E+02 0.50000000E+02 0.0000E+00 0.9000E+01
       11  1    3    3    0    0 0.21088171E+02 0.93895503E+01 0.47068593E+00 0.23088875E+02 0.00000000E+00 0.0000E+00 0.9000E+01
        4  1    1    2  502    0 0.66696723E+00 0.35368182E+00 0.11991767E+02 0.12015507E+02 0.00000000E+00 0.0000E+00 0.9000E+01
       -3  1    1    2    0  501 0.28844063E+01 -.49073520E+02 0.59190734E+01 0.49513287E+02 0.00000000E+00 0.0000E+00 0.9000E+01
#aMCatNLO 2  0  0  2  5 0.26486876D+02 0.00000000D+00  -5  6  0 0.00000000D+00 0.00000000D+00 0.00000000D+00 0.00000000D+00 0.00000000D+00
  <mgrwgt>
 0.2141607662D-04    2    2    0
 0.731304086011507D+02 0.000000000000000D+00 0.000000000000000D+00 0.731304086011507D+02
 0.731304086011507D+02 0.000000000000000D+00 0.000000000000000D+00 -.731304086011507D+02
 0.711451093005482D+02 -.243150789542388D+02 0.395023466284573D+02 -.202476695864313D+02
 0.237072623393455D+02 0.211960063490767D+02 0.944673369329770D+01 0.485003350548874D+01
 0.000000000000000D+00 0.000000000000000D+00 0.000000000000000D+00 0.000000000000000D+00
 0.514084455624077D+02 0.311907260516212D+01 -.489490803217550D+02 0.153976360809425D+02
 0.876206496839731D+02 0.000000000000000D+00 0.000000000000000D+00 0.876206496839731D+02
 0.731412165362815D+02 0.000000000000000D+00 0.000000000000000D+00 -.731412165362815D+02
 0.711614138324634D+02 -.246395443772206D+02 0.393302879195766D+02 -.202476695864313D+02
 0.235880780620055D+02 0.210881707960005D+02 0.938955026258511D+01 0.485003350548874D+01
 0.144991006754845D+02 0.666967233255217D+00 0.353681819051639D+00 0.144794331476916D+02
 0.515132736503012D+02 0.288440634796492D+01 -.490735200012134D+02 0.153976360809425D+02
-.152205993998D-10 0.000000000000D+00 0.000000000000D+00 0.858871723885D-07 0.000000000000D+00  6 22 21 9900012 11 4 -3 2 0.93207548D-02 0.16273870D-01 0.49855821D+04 0.49855821D+04 0.49855821D+04 0.12419868D+01  1  2 13  3  5  2       -4 -.408130952824D-07 0.100000000000D+01
0.758383304452D-08 0.000000000000D+00 0.000000000000D+00 0.858871723885D-07 0.151967196320D-07  6 22 21 9900012 11 4 -3 2 0.11167592D-01 0.13582584D-01 0.49855821D+04 0.49855821D+04 0.49855821D+04 0.12419868D+01  1  2  1  3  5  2       -4 0.214568897180D-04 0.100000000000D+01
  </mgrwgt>
  </event>
  <event>
  7     66 0.12056947E-05 0.16391801E+02 0.78161638E-02 0.12998645E+00
       22 -1    0    0    0    0 0.00000000E+00 0.00000000E+00 0.20669515E+03 0.20669515E+03 0.00000000E+00 0.0000E+00 0.9000E+01
       21 -1    0    0  502  501 0.00000000E+00 0.00000000E+00 -.43985412E+02 0.43985412E+02 0.00000000E+00 0.0000E+00 0.9000E+01
      -24  2    1    2    0    0 -.93760138E+01 -.13677932E+02 0.20577753E+02 0.84922049E+02 0.80705111E+02 0.0000E+00 0.0000E+00
  9900012  1    3    3    0    0 0.18478977E+02 -.77831074E+01 0.12071217E+02 0.55206554E+02 0.50000000E+02 0.0000E+00 0.9000E+01
       11  1    3    3    0    0 -.27854991E+02 -.58948245E+01 0.85065356E+01 0.29715495E+02 0.00000000E+00 0.0000E+00 0.9000E+01
        4  1    1    2  502    0 0.96270926E+01 0.13468391E+02 -.60127674E+01 0.17613400E+02 0.00000000E+00 0.0000E+00 0.9000E+01
       -3  1    1    2    0  501 -.25107878E+00 0.20954042E+00 0.14814475E+03 0.14814511E+03 0.00000000E+00 0.0000E+00 0.9000E+01
#aMCatNLO 2  0  0  2  5 0.47849191D+01 0.00000000D+00  -5  6  0 0.00000000D+00 0.00000000D+00 0.00000000D+00 0.00000000D+00 0.00000000D+00
  <mgrwgt>
 0.2569995538D-02    1    2    0
 0.799670866389887D+02 0.000000000000000D+00 0.000000000000000D+00 0.799670866389887D+02
 0.799670866389887D+02 0.000000000000000D+00 0.000000000000000D+00 -.799670866389887D+02
 0.681731838999593D+02 0.225471483579474D+02 -.209169811909744D+01 -.404330793158392D+02
 0.321563896430024D+02 -.258647700282516D+02 -.311048721970803D+01 -.188513112412448D+02
 0.000000000000000D+00 0.000000000000000D+00 0.000000000000000D+00 -.000000000000000D+00
 0.596045997350156D+02 0.331762167030424D+01 0.520218533880547D+01 0.592843905570840D+02
 0.827155474691678D+02 0.000000000000000D+00 0.000000000000000D+00 0.827155474691678D+02
 0.109913693279088D+03 0.000000000000000D+00 0.000000000000000D+00 -.109913693279088D+03
 0.673563898681732D+02 0.184789770298927D+02 -.778310741549312D+01 -.404330793158392D+02
 0.341470555776223D+02 -.278549908140062D+02 -.589482449769079D+01 -.188513112412448D+02
 0.318405027632034D+02 0.962709256418603D+01 0.134683914955151D+02 -.271981458099204D+02
 0.592852925392572D+02 -.251078780072551D+00 0.209540417668844D+00 0.592843905570840D+02
0.137426063547D-05 0.000000000000D+00 0.000000000000D+00 0.941345110137D-06 0.560255746231D-06  6 22 21 9900012 11 4 -3 2 0.31799254D-01 0.67669865D-02 0.24613964D+04 0.24613964D+04 0.24613964D+04 0.12780680D+01  1  2  1  3  5  2       -4 0.256999553763D-02 0.100000000000D+01
  </mgrwgt>
  </event>
  <event>
  6     66 0.12056947E-05 0.35998175E+02 0.78161638E-02 0.12086346E+00
       22 -1    0    0    0    0 0.00000000E+00 0.00000000E+00 0.81588692E+03 0.81588692E+03 0.00000000E+00 0.0000E+00 0.9000E+01
       -2 -1    0    0    0  501 0.00000000E+00 0.00000000E+00 -.14243641E+02 0.14243641E+02 0.00000000E+00 0.0000E+00 0.9000E+01
      -24  2    1    2    0    0 -.35387243E+02 0.39222171E+02 0.74990541E+03 0.75618840E+03 0.81683168E+02 0.0000E+00 0.0000E+00
  9900012  1    3    3    0    0 -.33896171E+01 0.31985107E+02 0.35706692E+03 0.36198249E+03 0.50000000E+02 0.0000E+00 0.9000E+01
       11  1    3    3    0    0 -.31997625E+02 0.72370635E+01 0.39283849E+03 0.39420591E+03 0.00000000E+00 0.0000E+00 0.9000E+01
       -1  1    1    2    0  501 0.35387243E+02 -.39222171E+02 0.51737865E+02 0.73942155E+02 0.00000000E+00 0.0000E+00 0.9000E+01
#aMCatNLO 1  0  0  5  2 0.21993969D+02 0.00000000D+00  -5  6  0 0.00000000D+00 0.00000000D+00 0.00000000D+00 0.00000000D+00 0.00000000D+00
  <mgrwgt>
 0.2752859931D-05    7    2    0
 0.107801671576552D+03 0.000000000000000D+00 0.000000000000000D+00 0.107801671576552D+03
 0.107801671576552D+03 -.000000000000000D+00 -.000000000000000D+00 -.107801671576552D+03
 0.661048642295766D+02 -.338961713782179D+01 0.319851074348145D+02 0.289018420321806D+02
 0.571699901284375D+02 -.319976253897206D+02 0.723706354274491D+01 0.468207715867970D+02
 0.923284887950896D+02 0.353872425275424D+02 -.392221709775594D+02 -.757226136189776D+02
 0.000000000000000D+00 0.000000000000000D+00 -.000000000000000D+00 0.000000000000000D+00
 0.107801671576552D+03 0.000000000000000D+00 0.000000000000000D+00 0.107801671576552D+03
 0.107801671576552D+03 -.000000000000000D+00 -.000000000000000D+00 -.107801671576552D+03
 0.642424098561270D+02 -.213046044391425D+01 0.305894954682268D+02 0.262074632389106D+02
 0.545321363226733D+02 -.309185811118008D+02 0.604108284071684D+01 0.445118023905931D+02
 0.458079854408523D+02 0.286109122147255D+02 0.277246178476297D+00 -.357730396660268D+02
 0.510208115334511D+02 0.443812934098963D+01 -.369078244874199D+02 -.349462259634770D+02
0.263032077168D-07 0.000000000000D+00 0.000000000000D+00 0.491462032951D-06 0.000000000000D+00  6 22 -2 9900012 11 -1 21 0 0.12552106D+00 0.21913294D-02 0.52623618D+04 0.52623618D+04 0.52623618D+04 0.12393525D+01  1  2  2  2  6  5       -1 0.955469305945D-06 0.100000000000D+01
0.363344288449D-09 0.000000000000D+00 -.505056217131D-10 0.491462032951D-06 0.000000000000D+00  6 22 -2 9900012 11 -1 21 2 0.12552106D+00 0.21913294D-02 0.52623618D+04 0.52623618D+04 0.52623618D+04 0.12393525D+01  1  2  3  2  6  5       -1 0.202729099015D-07 0.100000000000D+01
-.135452999328D-08 0.000000000000D+00 0.000000000000D+00 0.491462032951D-06 0.000000000000D+00  6 22 -2 9900012 11 -1 21 2 0.12552106D+00 0.21913294D-02 0.52623618D+04 0.52623618D+04 0.52623618D+04 0.12393525D+01  1  2 15  2  6  5       -1 -.755764309106D-07 0.100000000000D+01
0.252870063446D-07 0.000000000000D+00 0.000000000000D+00 0.491462032951D-06 0.000000000000D+00  6 22 -2 9900012 11 -1 21 2 0.12552106D+00 0.21913294D-02 0.60795460D+04 0.60795460D+04 0.60795460D+04 0.12324021D+01  1  2 12  2  6  5       -1 0.141694366665D-05 0.100000000000D+01
-.793226043528D-08 0.000000000000D+00 0.000000000000D+00 0.491462032951D-06 0.000000000000D+00  6 22 -2 9900012 11 -1 21 2 0.12552106D+00 0.21913294D-02 0.52623618D+04 0.52623618D+04 0.52623618D+04 0.12393525D+01  1  2  4  2  6  5       -1 -.442582988730D-06 0.100000000000D+01
-.236212593079D-07 0.000000000000D+00 0.000000000000D+00 0.491462032951D-06 0.000000000000D+00  6 22 -2 9900012 11 -1 21 2 0.12552106D+00 0.21913294D-02 0.52623618D+04 0.52623618D+04 0.52623618D+04 0.12393525D+01  1  2  5  2  6  5       -1 -.131795566060D-05 0.100000000000D+01
0.393633234979D-07 0.000000000000D+00 -.000000000000D+00 0.491462032951D-06 0.000000000000D+00  6 22 -2 9900012 11 -1 21 2 0.12552106D+00 0.21913294D-02 0.52623618D+04 0.52623618D+04 0.52623618D+04 0.12393525D+01  1  2  6  2  6  5       -1 0.219628912871D-05 0.100000000000D+01
  </mgrwgt>
  </event>
  <event>
  6     66 0.12056947E-05 0.48741531E+02 0.78161638E-02 0.11974004E+00
       22 -1    0    0    0    0 0.00000000E+00 0.00000000E+00 0.27526359E+03 0.27526359E+03 0.00000000E+00 0.0000E+00 0.9000E+01
       -2 -1    0    0    0  501 0.00000000E+00 0.00000000E+00 -.44369064E+02 0.44369064E+02 0.00000000E+00 0.0000E+00 0.9000E+01
      -24  2    1    2    0    0 0.48280687E+02 0.66867123E+01 0.11065580E+02 0.94464933E+02 0.80158840E+02 0.0000E+00 0.0000E+00
  9900012  1    3    3    0    0 0.59581875E+01 0.65606225E+01 0.24103059E+00 0.50779916E+02 0.50000000E+02 0.0000E+00 0.9000E+01
       11  1    3    3    0    0 0.42322499E+02 0.12608985E+00 0.10824550E+02 0.43685017E+02 0.00000000E+00 0.0000E+00 0.9000E+01
       -1  1    1    2    0  501 -.48280687E+02 -.66867123E+01 0.21982894E+03 0.22516772E+03 0.00000000E+00 0.0000E+00 0.9000E+01
#aMCatNLO 1  0  0  2  2 0.13733614D+03 0.00000000D+00  -5  6  0 0.00000000D+00 0.00000000D+00 0.00000000D+00 0.00000000D+00 0.00000000D+00
  <mgrwgt>
 0.3098157289D-06    4    2    0
 0.110513291599834D+03 0.000000000000000D+00 0.000000000000000D+00 0.110513291599834D+03
 0.110513291599834D+03 0.000000000000000D+00 0.000000000000000D+00 -.110513291599834D+03
 0.731824482426399D+02 0.595818745399545D+01 0.656062247001147D+01 -.526984721396712D+02
 0.518662888057426D+02 0.423224994065807D+02 0.126089849877405D+00 -.299816954125419D+02
 0.959778461512863D+02 -.482806868605761D+02 -.668671231988888D+01 0.826801675522130D+02
 0.000000000000000D+00 0.000000000000000D+00 0.000000000000000D+00 0.000000000000000D+00
 0.202241447406033D+03 0.000000000000000D+00 0.000000000000000D+00 0.202241447406033D+03
 0.112046311417018D+03 0.000000000000000D+00 0.000000000000000D+00 -.112046311417018D+03
 0.729022819359956D+02 -.592002466682716D+00 0.610436554435664D+01 -.526984721396712D+02
 0.482724669684440D+02 0.378324485440487D+02 -.186667005630769D+00 -.299816954125419D+02
 0.100746689896168D+03 -.571014792294460D+02 -.730112925387046D+01 0.826801675522130D+02
 0.923663200224437D+02 0.198610331520800D+02 0.138343071514458D+01 0.901951359890147D+02
0.673977133704D-08 0.000000000000D+00 0.000000000000D+00 0.445495737980D-07 0.000000000000D+00  6 22 -2 9900012 11 -1 21 0 0.42348244D-01 0.68260098D-02 0.50298990D+04 0.50298990D+04 0.50298990D+04 0.12415541D+01  1  2  2  1  6  2       -2 0.333803568648D-06 0.100000000000D+01
-.419662510949D-09 0.000000000000D+00 -.129412482784D-10 0.445495737980D-07 0.000000000000D+00  6 22 -2 9900012 11 -1 21 2 0.42348244D-01 0.68260098D-02 0.50298990D+04 0.50298990D+04 0.50298990D+04 0.12415541D+01  1  2  3  1  6  2       -2 -.320388763989D-07 0.100000000000D+01
0.284761142953D-09 0.000000000000D+00 0.000000000000D+00 0.445495737980D-07 0.000000000000D+00  6 22 -2 9900012 11 -1 21 2 0.42348244D-01 0.68260098D-02 0.50298990D+04 0.50298990D+04 0.50298990D+04 0.12415541D+01  1  2 15  1  6  2       -2 0.217399143937D-07 0.100000000000D+01
-.179304315835D-09 0.000000000000D+00 0.000000000000D+00 0.445495737980D-07 0.000000000000D+00  6 22 -2 9900012 11 -1 21 2 0.42348244D-01 0.68260098D-02 0.50298990D+04 0.50298990D+04 0.50298990D+04 0.12415541D+01  1  2  4  1  6  2       -2 -.136888777600D-07 0.100000000000D+01
  </mgrwgt>
  </event>
  <event>
  7     66 0.12056947E-05 0.13008693E+02 0.78161638E-02 0.12726843E+00
       22 -1    0    0    0    0 0.00000000E+00 0.00000000E+00 0.33744360E+02 0.33744360E+02 0.00000000E+00 0.0000E+00 0.9000E+01
       -2 -1    0    0    0  501 -.00000000E+00 -.00000000E+00 -.14754530E+03 0.14754530E+03 0.00000000E+00 0.0000E+00 0.9000E+01
      -24  2    1    2    0    0 -.12699755E+02 0.74723312E+01 -.10568843E+03 0.13271810E+03 0.78910894E+02 0.0000E+00 0.0000E+00
  9900012  1    3    3    0    0 -.10115571E+01 -.40302331E+01 -.10492253E+03 0.11630135E+03 0.50000000E+02 0.0000E+00 0.9000E+01
       11  1    3    3    0    0 -.11688198E+02 0.11502564E+02 -.76589697E+00 0.16416746E+02 0.00000000E+00 0.0000E+00 0.9000E+01
       -1  1    1    2    0  502 0.14707394E+02 0.16506592E+02 -.10338230E+02 0.24406024E+02 0.00000000E+00 0.0000E+00 0.9000E+01
       21  1    1    2  502  501 -.20076387E+01 -.23978923E+02 0.22257217E+01 0.24165537E+02 0.00000000E+00 0.0000E+00 0.9000E+01
#aMCatNLO 2  0  0  5  5 0.22427948D+02 0.00000000D+00  -5  6  0 0.00000000D+00 0.00000000D+00 0.00000000D+00 0.00000000D+00 0.00000000D+00
  <mgrwgt>
 0.4258637584D-05    1    2    0
 0.705607650209847D+02 0.000000000000000D+00 0.000000000000000D+00 0.705607650209847D+02
 0.705607650209847D+02 -.000000000000000D+00 -.000000000000000D+00 -.705607650209847D+02
 0.724790265212236D+02 -.592491480019081D+01 -.113929265455463D+01 -.521229957151543D+02
 0.201440320969099D+02 -.131419388488995D+02 0.123579218528480D+02 0.896399687037118D+01
 0.484984714238358D+02 0.190668536490903D+02 -.112186291982934D+02 0.431589988447831D+02
 0.000000000000000D+00 -.000000000000000D+00 0.000000000000000D+00 0.000000000000000D+00
 0.705607650209847D+02 0.000000000000000D+00 0.000000000000000D+00 0.705607650209847D+02
 0.705607650209847D+02 -.000000000000000D+00 -.000000000000000D+00 -.705607650209847D+02
 0.647948551250938D+02 -.101155708852548D+01 -.403023309497589D+01 -.410013075905964D+02
 0.204719046986841D+02 -.116881981672940D+02 0.115025642800907D+02 0.122546285368610D+02
 0.230160446480822D+02 0.147073939663420D+02 0.165065917859203D+02 0.640025793029532D+01
 0.328387255701094D+02 -.200763871052250D+01 -.239789229710351D+02 0.223464211234401D+02
0.166227730360D-07 0.000000000000D+00 0.000000000000D+00 0.895659145526D-07 0.166895517197D-09  6 22 -2 9900012 11 -1 21 2 0.51914399D-02 0.22699277D-01 0.31777072D+04 0.31777072D+04 0.31777072D+04 0.12646352D+01  1  2  1  2  6  5       -1 0.425863758370D-05 0.100000000000D+01
  </mgrwgt>
  </event>
</LesHouchesEvents>
