<LesHouchesEvents version="3.0">
  <!--
  <scalesfunctionalform>
    muR  H_T/2 := sum_i mT(i)/2, i=final state
    muF1 H_T/2 := sum_i mT(i)/2, i=final state
    muF2 H_T/2 := sum_i mT(i)/2, i=final state
    QES  H_T/2 := sum_i mT(i)/2, i=final state
  </scalesfunctionalform>
PYTHIA8   
  -->
  <header>
        5
  </header>
  <init>
   2212   2212 0.65000000D+04 0.65000000D+04 -1 -1  82200  82200 -4   1
 0.44429951D-05 0.69289076D-07 0.11630110D-05     66
  </init>
  <event>
  7     66 -.11630110E-05 0.89021893E+01 0.78161638E-02 0.13006960E+00
       -2 -1    0    0    0  501 0.00000000E+00 0.00000000E+00 0.29722558E+02 0.29722558E+02 0.00000000E+00 0.0000E+00 0.9000E+01
       22 -1    0    0    0    0 -.00000000E+00 -.00000000E+00 -.88095968E+02 0.88095968E+02 0.00000000E+00 0.0000E+00 0.9000E+01
      -24  2    1    2    0    0 -.39747129E+00 0.77793085E+01 -.41341481E+02 0.92249135E+02 0.82098168E+02 0.0000E+00 0.0000E+00
  9900012  1    3    3    0    0 0.17698739E+02 0.23951537E+02 -.29173105E+02 0.65099858E+02 0.50000000E+02 0.0000E+00 0.9000E+01
       13  1    3    3    0    0 -.18096211E+02 -.16172229E+02 -.12168376E+02 0.27149276E+02 0.00000000E+00 0.0000E+00 0.9000E+01
       -1  1    1    2    0  502 -.16425284E+01 -.10457169E+02 -.18941856E+02 0.21698945E+02 0.00000000E+00 0.0000E+00 0.9000E+01
       21  1    1    2  502  501 0.20399997E+01 0.26778610E+01 0.19099273E+01 0.38704471E+01 0.00000000E+00 0.0000E+00 0.9000E+01
#aMCatNLO 2  0  0  5  1 0.78260460D+01 0.00000000D+00  -5  6  0 0.00000000D+00 0.00000000D+00 0.00000000D+00 0.00000000D+00 0.00000000D+00
  <mgrwgt>
 -.1404400766D-05    1    2    0
 0.511706707381563D+02 0.000000000000000D+00 0.000000000000000D+00 0.511706707381563D+02
 0.511706707381563D+02 -.000000000000000D+00 -.000000000000000D+00 -.511706707381563D+02
 0.609395060459820D+02 0.174235450195581D+02 0.293376436784124D+02 0.702468073852604D+01
 0.231607172182183D+02 -.182057746747655D+02 -.140278442265948D+02 0.286149906663110D+01
 0.182411182121124D+02 0.782229655207389D+00 -.153097994518176D+02 -.988617980515714D+01
 0.000000000000000D+00 0.000000000000000D+00 0.000000000000000D+00 0.000000000000000D+00
 0.511706707381563D+02 0.000000000000000D+00 0.000000000000000D+00 0.511706707381563D+02
 0.511706707381563D+02 -.000000000000000D+00 -.000000000000000D+00 -.511706707381563D+02
 0.583052330893968D+02 0.176987394988911D+02 0.239515371037158D+02 0.354664575741677D+01
 0.243144957342625D+02 -.180962107929171D+02 -.161722286117891D+02 0.147678010475826D+01
 0.141764504586582D+02 -.164252838038370D+01 -.104571694845839D+02 -.942981730984826D+01
 0.554516219399521D+01 0.203999967440966D+01 0.267786099265710D+01 0.440639144767323D+01
-.189285756927D-08 0.000000000000D+00 0.000000000000D+00 0.123931068037D-07 0.000000000000D+00  6 -2 22 9900012 13 -1 21 2 0.45727013D-02 0.13553226D-01 0.23241383D+04 0.23241383D+04 0.23241383D+04 0.12811451D+01  1  2 13  2  6  5       -1 -.140440076559D-05 0.100000000000D+01
  </mgrwgt>
  </event>
  <event>
  7     66 0.11630110E-05 0.36498308E+02 0.78161638E-02 0.12575059E+00
       21 -1    0    0  502  501 0.00000000E+00 0.00000000E+00 0.12871158E+03 0.12871158E+03 0.00000000E+00 0.0000E+00 0.9000E+01
       22 -1    0    0    0    0 0.00000000E+00 0.00000000E+00 -.57536195E+02 0.57536195E+02 0.00000000E+00 0.0000E+00 0.9000E+01
      -24  2    1    2    0    0 0.54397111E+01 -.36338239E+02 0.12976992E+02 0.89070389E+02 0.80094156E+02 0.0000E+00 0.0000E+00
  9900012  1    3    3    0    0 -.14894661E+02 -.23032442E+02 0.24629156E+02 0.62120364E+02 0.50000000E+02 0.0000E+00 0.9000E+01
       13  1    3    3    0    0 0.20334372E+02 -.13305797E+02 -.11652164E+02 0.26950025E+02 0.00000000E+00 0.0000E+00 0.9000E+01
        2  1    1    2  502    0 -.33932550E+01 0.37529073E+02 0.73018998E+02 0.82168849E+02 0.00000000E+00 0.0000E+00 0.9000E+01
       -1  1    1    2    0  501 -.20464561E+01 -.11908347E+01 -.14820602E+02 0.15008541E+02 0.00000000E+00 0.0000E+00 0.9000E+01
#aMCatNLO 2  0  0  1  5 0.37613229D+02 0.00000000D+00  -5  6  0 0.00000000D+00 0.00000000D+00 0.00000000D+00 0.00000000D+00 0.00000000D+00
  <mgrwgt>
 0.1831033429D-04    1    2    0
 0.485002041216926D+02 0.000000000000000D+00 0.000000000000000D+00 0.485002041216926D+02
 0.485002041216926D+02 0.000000000000000D+00 0.000000000000000D+00 -.485002041216926D+02
 0.587315335260888D+02 -.169417555658030D+02 -.391773070950719D+00 0.257335668444069D+02
 0.228359221224263D+02 0.194975683556159D+02 -.405082796639085D+01 -.111765361443656D+02
 0.000000000000000D+00 -.000000000000000D+00 0.000000000000000D+00 0.000000000000000D+00
 0.154329525948700D+02 -.255581278981294D+01 0.444260103734157D+01 -.145570307000413D+02
 0.131012080917615D+03 0.000000000000000D+00 0.000000000000000D+00 0.131012080917615D+03
 0.565258920195610D+02 0.000000000000000D+00 0.000000000000000D+00 -.565258920195610D+02
 0.625664507957490D+02 -.148946610125379D+02 -.230324418150335D+02 0.257335668444069D+02
 0.267478201348750D+02 0.203343721102118D+02 -.133057969571446D+02 -.111765361443656D+02
 0.834753728543467D+02 -.339325497871098D+01 0.375290734932932D+02 0.744861888980545D+02
 0.147483291522057D+02 -.204645611896285D+01 -.119083472111523D+01 -.145570307000413D+02
0.894484249687D-08 0.000000000000D+00 0.000000000000D+00 0.661555404648D-06 0.320579741931D-08  6 21 22 9900012 13 2 -1 2 0.19801782D-01 0.88517223D-02 0.36832791D+04 0.36832791D+04 0.36832791D+04 0.12570714D+01  1  2  1  3  5  1       -2 0.183103342943D-04 0.100000000000D+01
  </mgrwgt>
  </event>
  <event>
  7     66 0.11630110E-05 0.40298318E+02 0.78161638E-02 0.12478906E+00
       21 -1    0    0  502  501 0.00000000E+00 0.00000000E+00 0.10397649E+03 0.10397649E+03 0.00000000E+00 0.0000E+00 0.9000E+01
       22 -1    0    0    0    0 0.00000000E+00 0.00000000E+00 -.10120639E+03 0.10120639E+03 0.00000000E+00 0.0000E+00 0.9000E+01
      -24  2    1    2    0    0 -.43316194E+02 -.77083500E+01 -.25204333E+02 0.94015241E+02 0.79170044E+02 0.0000E+00 0.0000E+00
  9900012  1    3    3    0    0 -.24672479E+02 0.10728386E+02 0.12169086E+01 0.56791816E+02 0.50000000E+02 0.0000E+00 0.9000E+01
       13  1    3    3    0    0 -.18643715E+02 -.18436736E+02 -.26421242E+02 0.37223425E+02 0.00000000E+00 0.0000E+00 0.9000E+01
        2  1    1    2  502    0 0.42525308E+02 0.82989300E+01 0.62817483E+02 0.76310617E+02 0.00000000E+00 0.0000E+00 0.9000E+01
       -1  1    1    2    0  501 0.79088651E+00 -.59058001E+00 -.34843048E+02 0.34857027E+02 0.00000000E+00 0.0000E+00 0.9000E+01
#aMCatNLO 2  0  0  1  5 0.18404184D+02 0.00000000D+00  -5  6  0 0.00000000D+00 0.00000000D+00 0.00000000D+00 0.00000000D+00 0.00000000D+00
  <mgrwgt>
 0.3946282991D-03    1    2    0
 0.527377932226129D+02 0.000000000000000D+00 0.000000000000000D+00 0.527377932226129D+02
 0.527377932226129D+02 0.000000000000000D+00 0.000000000000000D+00 -.527377932226129D+02
 0.609789608204683D+02 -.299798195975160D+00 0.154847815245476D+02 0.312820287852775D+02
 0.214713754590845D+02 -.902925442756832D+01 -.165604479520810D+02 -.102588543324112D+02
 0.000000000000000D+00 0.000000000000000D+00 0.000000000000000D+00 0.000000000000000D+00
 0.230252501656728D+02 0.932905262354348D+01 0.107566642753343D+01 -.210231744528663D+02
 0.172266559127000D+03 0.000000000000000D+00 0.000000000000000D+00 0.172266559127000D+03
 0.610860616525892D+02 0.000000000000000D+00 0.000000000000000D+00 -.610860616525892D+02
 0.648258807349368D+02 -.246724789090319D+02 0.107283863008699D+02 0.312820287852775D+02
 0.281557358325445D+02 -.186437153916125D+02 -.184367362744861D+02 -.102588543324112D+02
 0.119324670795098D+03 0.425253077913713D+02 0.829892998827759D+01 0.111180497474411D+03
 0.210463334170092D+02 0.790886509273172D+00 -.590580014661418D+00 -.210231744528663D+02
0.296893832406D-06 0.000000000000D+00 0.000000000000D+00 0.193433103421D-06 0.213725123611D-07  6 21 22 9900012 13 2 -1 2 0.15996384D-01 0.15570214D-01 0.40521884D+04 0.40521884D+04 0.40521884D+04 0.12522562D+01  1  2  1  3  5  1       -2 0.394628299104D-03 0.100000000000D+01
  </mgrwgt>
  </event>
  <event>
  7     66 0.11630110E-05 0.10925371E+02 0.78161638E-02 0.13137437E+00
       -4 -1    0    0    0  501 0.00000000E+00 0.00000000E+00 0.92466775E+01 0.92466775E+01 0.00000000E+00 0.0000E+00 0.9000E+01
       22 -1    0    0    0    0 -.00000000E+00 -.00000000E+00 -.41163718E+03 0.41163718E+03 0.00000000E+00 0.0000E+00 0.9000E+01
      -24  2    1    2    0    0 -.84663957E+00 -.19614914E+02 -.19445970E+03 0.21104330E+03 0.79619327E+02 0.0000E+00 0.0000E+00
  9900012  1    3    3    0    0 -.16869567E+01 -.19588991E+01 -.74325267E+02 0.89615447E+02 0.50000000E+02 0.0000E+00 0.9000E+01
       13  1    3    3    0    0 0.84031715E+00 -.17656015E+02 -.12013443E+03 0.12142785E+03 0.00000000E+00 0.0000E+00 0.9000E+01
       -3  1    1    2    0  502 0.82517735E+01 0.13418913E+02 -.16890720E+03 0.16964021E+03 0.00000000E+00 0.0000E+00 0.9000E+01
       21  1    1    2  502  501 -.74051340E+01 0.61960005E+01 -.39023606E+02 0.40200351E+02 0.00000000E+00 0.0000E+00 0.9000E+01
#aMCatNLO 2  0  0  5  1 0.89268601D+01 0.00000000D+00  -5  6  0 0.00000000D+00 0.00000000D+00 0.00000000D+00 0.00000000D+00 0.00000000D+00
  <mgrwgt>
 0.4779663244D-05    2    2    0
 0.616950259958850D+02 0.000000000000000D+00 0.000000000000000D+00 0.616950259958850D+02
 0.616950259958850D+02 -.000000000000000D+00 -.000000000000000D+00 -.616950259958850D+02
 0.649354549897253D+02 -.177133414795741D+01 -.391375201355110D+01 0.412087155251816D+02
 0.224473680352494D+02 0.810795486949153D+00 -.183399714341133D+02 -.129179096677515D+02
 0.360072289667953D+02 0.960538661008262D+00 0.222537234476644D+02 -.282908058574301D+02
 0.000000000000000D+00 0.000000000000000D+00 0.000000000000000D+00 0.000000000000000D+00
 0.616950259958850D+02 0.000000000000000D+00 0.000000000000000D+00 0.616950259958850D+02
 0.616950259958850D+02 -.000000000000000D+00 -.000000000000000D+00 -.616950259958850D+02
 0.632945164316057D+02 -.168695672503854D+01 -.195889906375706D+01 0.387235419580475D+02
 0.224172644589521D+02 0.840317150473702D+00 -.176560146477194D+02 -.137874130883475D+02
 0.278156400479404D+02 0.825177353337055D+01 0.134189131690139D+02 -.229248955110599D+02
 0.986263105327177D+01 -.740513395880571D+01 0.619600054246257D+01 -.201123335864010D+01
-.262966092377D-07 0.000000000000D+00 0.000000000000D+00 0.115352996056D-06 0.000000000000D+00  6 -4 22 9900012 13 -3 21 2 0.14225658D-02 0.63328797D-01 0.21692881D+04 0.21692881D+04 0.21692881D+04 0.12848731D+01  1  2 13  2  6  5       -3 -.669269306291D-05 0.100000000000D+01
0.450766332761D-07 0.000000000000D+00 0.000000000000D+00 0.115352996056D-06 0.136848842561D-07  6 -4 22 9900012 13 -3 21 2 0.14225658D-02 0.63328797D-01 0.21692881D+04 0.21692881D+04 0.21692881D+04 0.12848731D+01  1  2  1  2  6  5       -3 0.114723563064D-04 0.100000000000D+01
  </mgrwgt>
  </event>
  <event>
  6     66 0.11630110E-05 0.18517485E+02 0.78161638E-02 0.13094584E+00
       -2 -1    0    0    0  501 0.00000000E+00 0.00000000E+00 0.16968738E+02 0.16968738E+02 0.00000000E+00 0.0000E+00 0.9000E+01
       22 -1    0    0    0    0 -.00000000E+00 -.00000000E+00 -.21448199E+03 0.21448199E+03 0.00000000E+00 0.0000E+00 0.9000E+01
      -24  2    1    2    0    0 -.15286899E+00 -.18516854E+02 -.89640953E+02 0.12200060E+03 0.80658225E+02 0.0000E+00 0.0000E+00
  9900012  1    3    3    0    0 0.14352034E+02 0.14236247E+01 -.36941021E+02 0.63817291E+02 0.50000000E+02 0.0000E+00 0.9000E+01
       13  1    3    3    0    0 -.14504903E+02 -.19940478E+02 -.52699932E+02 0.58183311E+02 0.00000000E+00 0.0000E+00 0.9000E+01
       -1  1    1    2    0  501 0.15286899E+00 0.18516854E+02 -.10787230E+03 0.10945013E+03 0.00000000E+00 0.0000E+00 0.9000E+01
#aMCatNLO 1  0  0  5  1 0.77559689D+00 0.00000000D+00  -5  6  0 0.00000000D+00 0.00000000D+00 0.00000000D+00 0.00000000D+00 0.00000000D+00
  <mgrwgt>
 0.1466841300D-04    5    2    0
 0.603281754429763D+02 0.000000000000000D+00 0.000000000000000D+00 0.603281754429763D+02
 0.603281754429763D+02 -.000000000000000D+00 -.000000000000000D+00 -.603281754429763D+02
 0.619463230755853D+02 0.143520336806549D+02 0.142362473438354D+01 0.336056448298465D+02
 0.253416816755092D+02 -.145049026753735D+02 -.199404783746569D+02 -.584687529460144D+01
 0.333683461348581D+02 0.152868994718626D+00 0.185168536402733D+02 -.277587695352451D+02
 0.000000000000000D+00 0.000000000000000D+00 -.000000000000000D+00 0.000000000000000D+00
 0.603281754429763D+02 0.000000000000000D+00 0.000000000000000D+00 0.603281754429763D+02
 0.603281754429763D+02 -.000000000000000D+00 -.000000000000000D+00 -.603281754429763D+02
 0.618020306706985D+02 0.143535522186167D+02 0.160756357193565D+01 0.333299005862843D+02
 0.253084670528187D+02 -.145042811384295D+02 -.198651922864231D+02 -.595973729659658D+01
 0.477910856713317D+00 -.197705101298091D+00 0.245340989917513D+00 0.359331711029541D+00
 0.330679423057220D+02 0.348434021110864D+00 0.180122877245699D+02 -.277294950007172D+02
0.416276894489D-07 0.000000000000D+00 0.000000000000D+00 0.880184309629D-07 0.000000000000D+00  6 -2 22 9900012 13 -1 21 0 0.26105751D-02 0.32997229D-01 0.22664247D+04 0.22664247D+04 0.22664247D+04 0.12825008D+01  1  2  2  2  6  5       -1 0.111538677324D-04 0.100000000000D+01
-.214156572643D-08 0.000000000000D+00 -.799306441530D-10 0.880184309629D-07 0.000000000000D+00  6 -2 22 9900012 13 -1 21 2 0.26105751D-02 0.32997229D-01 0.22664247D+04 0.22664247D+04 0.22664247D+04 0.12825008D+01  1  2  3  2  6  5       -1 -.943821467110D-06 0.100000000000D+01
0.364548098062D-09 0.000000000000D+00 0.000000000000D+00 0.880184309629D-07 0.000000000000D+00  6 -2 22 9900012 13 -1 21 2 0.26105751D-02 0.32997229D-01 0.22664247D+04 0.22664247D+04 0.22664247D+04 0.12825008D+01  1  2 15  2  6  5       -1 0.160662041094D-06 0.100000000000D+01
0.592932906426D-14 0.000000000000D+00 0.000000000000D+00 0.880184309629D-07 0.000000000000D+00  6 -2 22 9900012 13 -1 21 2 0.26105751D-02 0.32997229D-01 0.22549101D+04 0.22549101D+04 0.22549101D+04 0.12827759D+01  1  2 12  2  6  5       -1 0.261251500363D-11 0.100000000000D+01
0.975400709071D-08 0.000000000000D+00 0.000000000000D+00 0.880184309629D-07 0.119338140879D-07  6 -2 22 9900012 13 -1 21 2 0.26105751D-02 0.32997229D-01 0.22549101D+04 0.22549101D+04 0.22549101D+04 0.12827759D+01  1  2 11  2  6  5       -1 0.429770208295D-05 0.100000000000D+01
  </mgrwgt>
  </event>
</LesHouchesEvents>
