<LesHouchesEvents version="3.0">
  <!--
  <scalesfunctionalform>
    muR  H_T/2 := sum_i mT(i)/2, i=final state
    muF1 H_T/2 := sum_i mT(i)/2, i=final state
    muF2 H_T/2 := sum_i mT(i)/2, i=final state
    QES  H_T/2 := sum_i mT(i)/2, i=final state
  </scalesfunctionalform>
PYTHIA8   
  -->
  <header>
        3
  </header>
  <init>
   2212   2212 0.65000000D+04 0.65000000D+04 -1 -1  82200  82200 -4   1
 0.91351989D-06 0.21841138D-07 0.62337890D-06     66
  </init>
  <event>
  5     66 0.62337890E-06 0.61822329E+02 0.78161638E-02 0.83754796E-01
        3 -1    0    0  501    0 0.00000000E+00 0.00000000E+00 0.34362242E+03 0.34362242E+03 0.00000000E+00 0.0000E+00 0.9000E+01
       22 -1    0    0    0    0 0.00000000E+00 0.00000000E+00 -.66115603E+03 0.66115603E+03 0.00000000E+00 0.0000E+00 0.9000E+01
  9900012  1    1    2    0    0 0.14616141E+02 -.80063017E+02 -.54770075E+03 0.55596747E+03 0.50000000E+02 0.0000E+00 0.9000E+01
       11  1    1    2    0    0 -.49414370E+02 0.28964253E+02 -.98736639E+02 0.11414741E+03 0.00000000E+00 0.0000E+00 0.9000E+01
        4  1    1    2  501    0 0.34798228E+02 0.51098764E+02 0.32890378E+03 0.33466356E+03 0.00000000E+00 0.0000E+00 0.9000E+01
#aMCatNLO 1  0  0  1  5 0.21120700D+02 0.00000000D+00  -5  6  0 0.00000000D+00 0.00000000D+00 0.00000000D+00 0.00000000D+00 0.00000000D+00
  <mgrwgt>
 0.7065905960D-06    5    2    0
 0.476642458304345D+03 0.000000000000000D+00 0.000000000000000D+00 0.476642458304345D+03
 0.476642458304345D+03 0.000000000000000D+00 0.000000000000000D+00 -.476642458304345D+03
 0.403563227851975D+03 0.146161414095479D+02 -.800630174611322D+02 -.392096366368805D+03
 0.874247109466948D+02 -.494143698294581D+02 0.289642533997333D+02 -.660482563241961D+02
 0.462296977810021D+03 0.347982284199103D+02 0.510987640613989D+02 0.458144622693001D+03
 0.000000000000000D+00 -.000000000000000D+00 0.000000000000000D+00 0.000000000000000D+00
 0.196572848478773D+04 0.000000000000000D+00 0.000000000000000D+00 0.196572848478773D+04
 0.126972406162207D+04 0.000000000000000D+00 0.000000000000000D+00 -.126972406162207D+04
 0.826095325376063D+03 0.308176961962751D+03 -.656674109588594D+03 -.392096366368805D+03
 0.841813303151731D+02 -.844624078869794D+01 -.515051961136438D+02 -.660482563241961D+02
 0.773024675265370D+03 0.329711021220774D+03 -.528167867019732D+03 0.458144622693001D+03
 0.155215121545319D+04 -.629441742394827D+03 0.123634717272197D+04 0.696004423165658D+03
0.274263559966D-05 0.000000000000D+00 0.000000000000D+00 0.194420241422D-07 0.000000000000D+00  6 3 22 9900012 11 4 21 0 0.52864987D-01 0.10171631D+00 0.11515216D+05 0.11515216D+05 0.11515216D+05 0.12030311D+01  1  2  2  1  6  1        3 0.783739588013D-06 0.100000000000D+01
0.195744488225D-06 0.000000000000D+00 -.526622142761D-08 0.194420241422D-07 0.000000000000D+00  6 3 22 9900012 11 4 21 2 0.52864987D-01 0.10171631D+00 0.11515216D+05 0.11515216D+05 0.11515216D+05 0.12030311D+01  1  2  3  1  6  1        3 0.809556084308D-07 0.100000000000D+01
-.458915568410D-06 0.000000000000D+00 0.000000000000D+00 0.194420241422D-07 0.000000000000D+00  6 3 22 9900012 11 4 21 2 0.52864987D-01 0.10171631D+00 0.11515216D+05 0.11515216D+05 0.11515216D+05 0.12030311D+01  1  2 15  1  6  1        3 -.189797370010D-06 0.100000000000D+01
0.665135399109D-05 0.000000000000D+00 -.138890344905D-05 0.194420241422D-07 0.000000000000D+00  6 3 22 9900012 11 4 21 2 0.39523265D+00 0.10171631D+00 0.11515216D+05 0.11515216D+05 0.11515216D+05 0.12030311D+01  1  2  5  1  6  1        3 0.936968116986D-08 0.100000000000D+01
0.148244996598D-05 0.000000000000D+00 -.340529718145D-06 0.194420241422D-07 0.000000000000D+00  6 21 22 9900012 11 4 -3 2 0.39523265D+00 0.10171631D+00 0.11515216D+05 0.11515216D+05 0.11515216D+05 0.12030311D+01  1  2  5  3  6  1        3 0.223230883621D-07 0.100000000000D+01
  </mgrwgt>
  </event>
  <event>
  5     66 0.62337890E-06 0.83930472E+02 0.78161638E-02 0.10914959E+00
        1 -1    0    0  501    0 0.00000000E+00 0.00000000E+00 0.80973424E+03 0.80973424E+03 0.00000000E+00 0.0000E+00 0.9000E+01
       22 -1    0    0    0    0 0.00000000E+00 0.00000000E+00 -.29459624E+02 0.29459624E+02 0.00000000E+00 0.0000E+00 0.9000E+01
  9900012  1    1    2    0    0 -.23148951E+02 0.86853142E+02 0.16181390E+03 0.19173701E+03 0.50000000E+02 0.0000E+00 0.9000E+01
       11  1    1    2    0    0 -.21577759E+02 0.38227291E+02 0.66103169E+02 0.79350831E+02 0.00000000E+00 0.0000E+00 0.9000E+01
        2  1    1    2  501    0 0.44726710E+02 -.12508043E+03 0.55235756E+03 0.56810603E+03 0.00000000E+00 0.0000E+00 0.9000E+01
#aMCatNLO 1  0  0  1  5 0.31377149D+02 0.00000000D+00  -5  6  0 0.00000000D+00 0.00000000D+00 0.00000000D+00 0.00000000D+00 0.00000000D+00
  <mgrwgt>
 0.4034647461D-06    9    2    0
 0.154448910803274D+03 0.000000000000000D+00 0.000000000000000D+00 0.154448910803274D+03
 0.154448910803274D+03 0.000000000000000D+00 0.000000000000000D+00 -.154448910803274D+03
 0.112157614541371D+03 -.231489512595998D+02 0.868531423881350D+02 -.447212277615204D+02
 0.485989373427619D+02 -.215777587733840D+02 0.382272911824276D+02 -.208550052989023D+02
 0.148141269722415D+03 0.447267100329838D+02 -.125080433570563D+03 0.655762330604228D+02
 0.000000000000000D+00 -.000000000000000D+00 0.000000000000000D+00 0.000000000000000D+00
 0.280341882371492D+03 0.000000000000000D+00 0.000000000000000D+00 0.280341882371492D+03
 0.157137489792335D+03 0.000000000000000D+00 0.000000000000000D+00 -.157137489792335D+03
 0.105640216641956D+03 -.144405859892168D+02 0.803202131219143D+02 -.447212277615204D+02
 0.448135187586276D+02 -.178427822398032D+02 0.354253488261667D+02 -.208550052989023D+02
 0.159991465212909D+03 0.570469998770100D+02 -.134322992832988D+03 0.655762330604228D+02
 0.127034171550334D+03 -.247636316479899D+02 0.185774308849070D+02 0.123204392579156D+03
0.349589086607D-08 0.000000000000D+00 0.000000000000D+00 0.211292259588D-08 0.000000000000D+00  6 1 22 9900012 11 2 21 0 0.12457450D+00 0.45322498D-02 0.19542559D+05 0.19542559D+05 0.19542559D+05 0.11802802D+01  1  2  2  1  6  1        1 0.137035309291D-06 0.100000000000D+01
-.803939485300D-10 0.000000000000D+00 -.671257070746D-11 0.211292259588D-08 0.000000000000D+00  6 1 22 9900012 11 2 21 2 0.12457450D+00 0.45322498D-02 0.19542559D+05 0.19542559D+05 0.19542559D+05 0.11802802D+01  1  2  3  1  6  1        1 -.439003770672D-08 0.100000000000D+01
-.475621775154D-09 0.000000000000D+00 0.000000000000D+00 0.211292259588D-08 0.000000000000D+00  6 1 22 9900012 11 2 21 2 0.12457450D+00 0.45322498D-02 0.19542559D+05 0.19542559D+05 0.19542559D+05 0.11802802D+01  1  2 15  1  6  1        1 -.259720733369D-07 0.100000000000D+01
0.180519443852D-07 0.000000000000D+00 0.000000000000D+00 0.211292259588D-08 0.000000000000D+00  6 1 22 9900012 11 2 21 2 0.23005265D+00 0.45322498D-02 0.24377306D+05 0.24377306D+05 0.24377306D+05 0.11711594D+01  1  2 12  1  6  1        1 0.315159254143D-06 0.100000000000D+01
-.103385592330D-07 0.000000000000D+00 0.000000000000D+00 0.211292259588D-08 0.000000000000D+00  6 1 22 9900012 11 2 21 2 0.12457450D+00 0.45322498D-02 0.19542559D+05 0.19542559D+05 0.19542559D+05 0.11802802D+01  1  2  4  1  6  1        1 -.564553249291D-06 0.100000000000D+01
-.183350720732D-07 0.000000000000D+00 -.977881408592D-09 0.211292259588D-08 0.000000000000D+00  6 1 22 9900012 11 2 21 2 0.22729692D+00 0.45322498D-02 0.19542559D+05 0.19542559D+05 0.19542559D+05 0.11802802D+01  1  2  5  1  6  1        1 -.331692419662D-06 0.100000000000D+01
0.160804729301D-07 0.000000000000D+00 0.824292716565D-09 0.211292259588D-08 0.000000000000D+00  6 1 22 9900012 11 2 21 2 0.12457450D+00 0.45322498D-02 0.19542559D+05 0.19542559D+05 0.19542559D+05 0.11802802D+01  1  2  6  1  6  1        1 0.878099456434D-06 0.100000000000D+01
0.120828119072D-08 0.000000000000D+00 0.000000000000D+00 0.211292259588D-08 0.000000000000D+00  6 21 22 9900012 11 2 -1 2 0.23005265D+00 0.45322498D-02 0.24377306D+05 0.24377306D+05 0.24377306D+05 0.11711594D+01  1  2 12  3  6  1        1 0.197054567393D-07 0.100000000000D+01
-.115278340848D-08 0.000000000000D+00 -.643108779019D-10 0.211292259588D-08 0.000000000000D+00  6 21 22 9900012 11 2 -1 2 0.22729692D+00 0.45322498D-02 0.19542559D+05 0.19542559D+05 0.19542559D+05 0.11802802D+01  1  2  5  3  6  1        1 -.199269505437D-07 0.100000000000D+01
  </mgrwgt>
  </event>
  <event>
  5     66 0.62337890E-06 0.27629078E+02 0.78161638E-02 0.12680849E+00
        1 -1    0    0  501    0 0.00000000E+00 0.00000000E+00 0.11183127E+04 0.11183127E+04 0.00000000E+00 0.0000E+00 0.9000E+01
       22 -1    0    0    0    0 0.00000000E+00 0.00000000E+00 -.58920505E+02 0.58920505E+02 0.00000000E+00 0.0000E+00 0.9000E+01
  9900012  1    1    2    0    0 -.24313029E+01 -.55381898E+01 0.45324952E+02 0.67756432E+02 0.50000000E+02 0.0000E+00 0.9000E+01
       11  1    1    2    0    0 0.23937059E+02 -.11807368E+02 -.43776858E+02 0.51271923E+02 0.00000000E+00 0.0000E+00 0.9000E+01
        2  1    1    2  501    0 -.21505756E+02 0.17345558E+02 0.10578441E+04 0.10582048E+04 0.00000000E+00 0.0000E+00 0.9000E+01
#aMCatNLO 1  0  0  1  5 0.97902822D+01 0.00000000D+00  -5  6  0 0.00000000D+00 0.00000000D+00 0.00000000D+00 0.00000000D+00 0.00000000D+00
  <mgrwgt>
 0.4470287475D-05   11    2    0
 0.256693491647585D+03 0.000000000000000D+00 0.000000000000000D+00 0.256693491647585D+03
 0.256693491647585D+03 0.000000000000000D+00 0.000000000000000D+00 -.256693491647585D+03
 0.618407200613421D+02 -.243130289190942D+01 -.553818977607008D+01 -.358844238905588D+02
 0.207905290493194D+03 0.239370593700300D+02 -.118073684146895D+02 -.206184900162196D+03
 0.243640972740635D+03 -.215057564781206D+02 0.173455581907596D+02 0.242069324052755D+03
 0.000000000000000D+00 -.000000000000000D+00 -.000000000000000D+00 0.000000000000000D+00
 0.419790694035724D+03 0.000000000000000D+00 0.000000000000000D+00 0.419790694035724D+03
 0.256886841182745D+03 0.000000000000000D+00 0.000000000000000D+00 -.256886841182745D+03
 0.617675691453717D+02 -.135019519898676D+01 -.507126148957015D+01 -.358844238905588D+02
 0.208272579553458D+03 0.275770506668852D+02 -.102352633318735D+02 -.206184900162196D+03
 0.243440039310925D+03 -.172456293249580D+02 0.191854987303746D+02 0.242069324052755D+03
 0.163197347208714D+03 -.898122614294049D+01 -.387897390893099D+01 0.162903852852979D+03
0.246470246315D-07 0.000000000000D+00 0.000000000000D+00 0.369501775099D-06 0.000000000000D+00  6 1 22 9900012 11 2 21 0 0.17204811D+00 0.90646931D-02 0.27397027D+04 0.27397027D+04 0.27397027D+04 0.12723827D+01  1  2  2  1  6  1        1 0.198364347914D-06 0.100000000000D+01
0.198496745220D-08 0.000000000000D+00 -.473255321478D-10 0.369501775099D-06 0.000000000000D+00  6 1 22 9900012 11 2 21 2 0.17204811D+00 0.90646931D-02 0.27397027D+04 0.27397027D+04 0.27397027D+04 0.12723827D+01  1  2  3  1  6  1        1 0.258635431059D-07 0.100000000000D+01
-.449687758811D-08 0.000000000000D+00 0.000000000000D+00 0.369501775099D-06 0.000000000000D+00  6 1 22 9900012 11 2 21 2 0.17204811D+00 0.90646931D-02 0.27397027D+04 0.27397027D+04 0.27397027D+04 0.12723827D+01  1  2 15  1  6  1        1 -.585929946677D-07 0.100000000000D+01
0.244543208722D-05 0.000000000000D+00 0.000000000000D+00 0.369501775099D-06 0.000000000000D+00  6 1 22 9900012 11 2 21 2 0.28157549D+00 0.90646931D-02 0.33218013D+04 0.33218013D+04 0.33218013D+04 0.12623480D+01  1  2 12  1  6  1        1 0.109886729636D-04 0.100000000000D+01
-.182681114090D-05 0.000000000000D+00 0.000000000000D+00 0.369501775099D-06 0.000000000000D+00  6 1 22 9900012 11 2 21 2 0.17204811D+00 0.90646931D-02 0.27397027D+04 0.27397027D+04 0.27397027D+04 0.12723827D+01  1  2  4  1  6  1        1 -.238028128051D-04 0.100000000000D+01
-.242625903076D-05 0.000000000000D+00 -.718087585373D-08 0.369501775099D-06 0.000000000000D+00  6 1 22 9900012 11 2 21 2 0.28142153D+00 0.90646931D-02 0.27397027D+04 0.27397027D+04 0.27397027D+04 0.12723827D+01  1  2  5  1  6  1        1 -.110619398398D-04 0.100000000000D+01
0.216333658514D-05 0.000000000000D+00 0.639132954954D-08 0.369501775099D-06 0.000000000000D+00  6 1 22 9900012 11 2 21 2 0.17204811D+00 0.90646931D-02 0.27397027D+04 0.27397027D+04 0.27397027D+04 0.12723827D+01  1  2  6  1  6  1        1 0.281876405381D-04 0.100000000000D+01
0.564435579341D-12 0.000000000000D+00 0.000000000000D+00 0.369501775099D-06 0.469965020063D-07  6 1 22 9900012 11 2 21 2 0.28136356D+00 0.90715209D-02 0.33218013D+04 0.33218013D+04 0.33218013D+04 0.12623480D+01  1  2 11  1  6  1        1 0.253871983829D-11 0.100000000000D+01
0.136271602632D-06 0.000000000000D+00 0.000000000000D+00 0.369501775099D-06 0.000000000000D+00  6 21 22 9900012 11 2 -1 2 0.28157549D+00 0.90646931D-02 0.33218013D+04 0.33218013D+04 0.33218013D+04 0.12623480D+01  1  2 12  3  6  1        1 0.497047451534D-06 0.100000000000D+01
-.134767022889D-06 0.000000000000D+00 -.399804471862D-09 0.369501775099D-06 0.000000000000D+00  6 21 22 9900012 11 2 -1 2 0.28142153D+00 0.90646931D-02 0.27397027D+04 0.27397027D+04 0.27397027D+04 0.12723827D+01  1  2  5  3  6  1        1 -.503958413528D-06 0.100000000000D+01
0.396359883882D-13 0.000000000000D+00 0.000000000000D+00 0.369501775099D-06 0.252589121409D-08  6 21 22 9900012 11 2 -1 2 0.28136356D+00 0.90715209D-02 0.33218013D+04 0.33218013D+04 0.33218013D+04 0.12623480D+01  1  2 11  3  6  1        1 0.144827720494D-12 0.100000000000D+01
  </mgrwgt>
  </event>
</LesHouchesEvents>
