<LesHouchesEvents version="3.0">
  <!--
  <scalesfunctionalform>
    muR  H_T/2 := sum_i mT(i)/2, i=final state
    muF1 H_T/2 := sum_i mT(i)/2, i=final state
    muF2 H_T/2 := sum_i mT(i)/2, i=final state
    QES  H_T/2 := sum_i mT(i)/2, i=final state
  </scalesfunctionalform>
PYTHIA8   
  -->
  <header>
       84
  </header>
  <init>
   2212   2212 0.65000000D+04 0.65000000D+04 -1 -1  82200  82200 -4   1
 0.41260322D-04 0.19973429D-06 0.93819742D-06     66
  </init>
  <event>
  6     66 0.93819742E-06 0.82965455E+02 0.78161638E-02 0.11699733E+00
       -1 -1    0    0    0  501 0.00000000E+00 0.00000000E+00 0.25863788E+02 0.25863788E+02 0.00000000E+00 0.0000E+00 0.9000E+01
       22 -1    0    0    0    0 0.00000000E+00 0.00000000E+00 -.37755859E+03 0.37755859E+03 0.00000000E+00 0.0000E+00 0.9000E+01
       24  2    1    2    0    0 -.51075418E+02 0.65380183E+02 -.19196469E+03 0.22343078E+03 0.78661328E+02 0.0000E+00 0.0000E+00
  9900012  1    3    3    0    0 -.20691080E+02 0.25175745E+02 -.73407588E+02 0.94607679E+02 0.50000000E+02 0.0000E+00 0.9000E+01
      -11  1    3    3    0    0 -.30384338E+02 0.40204438E+02 -.11855711E+03 0.12882310E+03 0.00000000E+00 0.0000E+00 0.9000E+01
       -2  1    1    2    0  501 0.51075418E+02 -.65380183E+02 -.15973011E+03 0.17999160E+03 0.00000000E+00 0.0000E+00 0.9000E+01
#aMCatNLO 1  0  0  0  0 0.00000000D+00 0.00000000D+00  -5  6  0 0.00000000D+00 0.00000000D+00 0.00000000D+00 0.00000000D+00 0.00000000D+00
  <mgrwgt>
 0.7646743646D-05    1    2    0
 0.988184969266998D+02 0.000000000000000D+00 0.000000000000000D+00 0.988184969266998D+02
 0.988184969266998D+02 0.000000000000000D+00 0.000000000000000D+00 -.988184969266998D+02
 0.624872270952806D+02 -.206910796921146D+02 0.251757451711977D+02 0.185125532087460D+02
 0.519852332056527D+02 -.303843383700394D+02 0.402044381792853D+02 -.127616458166286D+02
 0.831645335524663D+02 0.510754180621540D+02 -.653801833504829D+02 -.575090739211747D+01
 0.000000000000000D+00 -.000000000000000D+00 -.000000000000000D+00 -.000000000000000D+00
 0.159494778117701D+03 0.000000000000000D+00 0.000000000000000D+00 0.159494778117701D+03
 0.207041731990361D+03 0.000000000000000D+00 0.000000000000000D+00 -.207041731990361D+03
 0.741549635480133D+02 0.932431237316688D+01 0.506882746921626D+02 0.185125532087460D+02
 0.632252162049892D+02 -.507673174577893D+01 0.617154369262663D+02 -.127616458166286D+02
 0.960872607873403D+02 0.904506129429202D+02 -.319119941092949D+02 -.575090739211747D+01
 0.133069069567720D+03 -.946981935703081D+02 -.804917175091340D+02 -.475469538726593D+02
0.753610519393D-07 0.000000000000D+00 0.000000000000D+00 0.113360990571D-06 0.000000000000D+00  6 -1 22 9900012 -11 -2 21 2 0.39790443D-02 0.58085938D-01 0.93162966D+04 0.93162966D+04 0.93162966D+04 0.12125311D+01  1  2 14  1  6  1       -1 0.764674364607D-05 0.100000000000D+01
  </mgrwgt>
  </event>
  <event>
  7     66 -.93819742E-06 0.20887601E+02 0.78161638E-02 0.12812425E+00
       -1 -1    0    0    0  501 0.00000000E+00 0.00000000E+00 0.29826281E+02 0.29826281E+02 0.00000000E+00 0.0000E+00 0.9000E+01
       22 -1    0    0    0    0 -.00000000E+00 -.00000000E+00 -.21360167E+03 0.21360167E+03 0.00000000E+00 0.0000E+00 0.9000E+01
       24  2    1    2    0    0 -.14031609E+02 0.12605614E+02 -.19264604E+03 0.20906624E+03 0.78996267E+02 0.0000E+00 0.0000E+00
  9900012  1    3    3    0    0 -.28529324E+02 -.37241740E+01 -.15700767E+03 0.16726985E+03 0.50000000E+02 0.0000E+00 0.9000E+01
      -11  1    3    3    0    0 0.14497715E+02 0.16329788E+02 -.35638366E+02 0.41796398E+02 0.00000000E+00 0.0000E+00 0.9000E+01
       -2  1    1    2    0  502 0.19148096E+02 -.13615192E+02 0.13747467E+02 0.27221607E+02 0.00000000E+00 0.0000E+00 0.9000E+01
       21  1    1    2  502  501 -.51164879E+01 0.10095784E+01 -.48768147E+01 0.71400993E+01 0.00000000E+00 0.0000E+00 0.9000E+01
#aMCatNLO 2  0  0  5  1 0.75869759D+01 0.00000000D+00  -5  6  0 0.00000000D+00 0.00000000D+00 0.00000000D+00 0.00000000D+00 0.00000000D+00
  <mgrwgt>
 -.2867410084D-04    3    2    0
 0.798181903999357D+02 0.000000000000000D+00 0.000000000000000D+00 0.798181903999357D+02
 0.798181903999357D+02 -.000000000000000D+00 -.000000000000000D+00 -.798181903999357D+02
 0.764009688224823D+02 -.292817874186873D+02 -.304818141874819D+01 -.497030537554698D+02
 0.229629232095859D+02 0.142697071630076D+02 0.165346244434159D+02 -.709066247444769D+01
 0.602724887678032D+02 0.150120802556797D+02 -.134864430246677D+02 0.567937162299175D+02
 0.000000000000000D+00 -.000000000000000D+00 0.000000000000000D+00 0.000000000000000D+00
 0.798181903999357D+02 0.000000000000000D+00 0.000000000000000D+00 0.798181903999357D+02
 0.798181903999357D+02 -.000000000000000D+00 -.000000000000000D+00 -.798181903999357D+02
 0.743189597773051D+02 -.285293239980155D+02 -.372417401126029D+01 -.468563334302931D+02
 0.227075863831577D+02 0.144977154177304D+02 0.163297880527159D+02 -.622806142940565D+01
 0.573362169553748D+02 0.191480964916873D+02 -.136151924195439D+02 0.523012304910471D+02
 0.527361768403377D+01 -.511648791140219D+01 0.100957837808832D+01 0.783164368651652D+00
-.147241142534D-06 0.000000000000D+00 0.000000000000D+00 0.681314297800D-06 0.000000000000D+00  6 -1 22 9900012 -11 -2 21 2 0.45886587D-02 0.32861795D-01 0.29286565D+04 0.29286565D+04 0.29286565D+04 0.12688802D+01  1  2 13  2  6  5       -2 -.297059652473D-04 0.100000000000D+01
-.125178314658D-08 0.000000000000D+00 0.000000000000D+00 0.681314297800D-06 0.000000000000D+00  6 -1 22 9900012 -11 -2 21 2 0.45886587D-02 0.32861795D-01 0.25022255D+04 0.25022255D+04 0.25022255D+04 0.12771899D+01  1  2  8  2  6  5       -2 -.251125490541D-06 0.100000000000D+01
0.635929169927D-08 0.000000000000D+00 0.000000000000D+00 0.681314297800D-06 0.580539160916D-08  6 -1 22 9900012 -11 -2 21 2 0.45886587D-02 0.32861795D-01 0.29286565D+04 0.29286565D+04 0.29286565D+04 0.12688802D+01  1  2  1  2  6  5       -2 0.128298989647D-05 0.100000000000D+01
  </mgrwgt>
  </event>
  <event>
  6     66 0.93819742E-06 0.40670844E+02 0.78161638E-02 0.11734940E+00
       -3 -1    0    0    0  501 0.00000000E+00 0.00000000E+00 0.51594169E+02 0.51594169E+02 0.00000000E+00 0.0000E+00 0.9000E+01
       22 -1    0    0    0    0 -.00000000E+00 -.00000000E+00 -.21808136E+04 0.21808136E+04 0.00000000E+00 0.0000E+00 0.9000E+01
       24  2    1    2    0    0 -.40627148E+02 -.18847796E+01 -.21716785E+04 0.21736125E+04 0.82156482E+02 0.0000E+00 0.0000E+00
  9900012  1    3    3    0    0 -.25223168E+02 -.25917833E+02 -.12950613E+04 0.12965306E+04 0.50000000E+02 0.0000E+00 0.9000E+01
      -11  1    3    3    0    0 -.15403981E+02 0.24033053E+02 -.87661722E+03 0.87708188E+03 0.00000000E+00 0.0000E+00 0.9000E+01
       -4  1    1    2    0  501 0.40627148E+02 0.18847796E+01 0.42459036E+02 0.58795300E+02 0.00000000E+00 0.0000E+00 0.9000E+01
#aMCatNLO 1  0  0  5  1 0.65422633D+02 0.00000000D+00  -5  6  0 0.00000000D+00 0.00000000D+00 0.00000000D+00 0.00000000D+00 0.00000000D+00
  <mgrwgt>
 0.5577115078D-04    4    2    0
 0.335435936369408D+03 0.000000000000000D+00 0.000000000000000D+00 0.335435936369408D+03
 0.335435936369408D+03 -.000000000000000D+00 -.000000000000000D+00 -.335435936369408D+03
 0.204085763175323D+03 -.252231677194992D+02 -.259178325783867D+02 -.194532918796502D+03
 0.136380707165187D+03 -.154039807523806D+02 0.240330530176875D+02 -.133359765396112D+03
 0.330405402398305D+03 0.406271484718798D+02 0.188477956069920D+01 0.327892684192614D+03
 0.000000000000000D+00 0.000000000000000D+00 -.000000000000000D+00 0.000000000000000D+00
 0.335435936369408D+03 0.000000000000000D+00 0.000000000000000D+00 0.335435936369408D+03
 0.335435936369408D+03 -.000000000000000D+00 -.000000000000000D+00 -.335435936369408D+03
 0.184995898040368D+03 -.227725131951037D+02 -.258041415187960D+02 -.174754230893043D+03
 0.123323643397895D+03 -.137682170936051D+02 0.241089395621819D+02 -.120157880524673D+03
 0.322051595085544D+03 0.593590898454541D+02 0.282499867104437D+02 0.315270782979842D+03
 0.405007362150078D+02 -.228183595567453D+02 -.265547847538296D+02 -.203586715621259D+02
0.170952739587D-03 0.000000000000D+00 0.000000000000D+00 0.487710916682D-04 0.000000000000D+00  6 -3 22 9900012 -11 -4 21 0 0.79375645D-02 0.33550979D+00 0.42853588D+04 0.42853588D+04 0.42853588D+04 0.12494599D+01  1  2  2  2  6  5       -4 0.632584106113D-04 0.100000000000D+01
0.106649514504D-04 0.000000000000D+00 -.328251766452D-06 0.487710916682D-04 0.000000000000D+00  6 -3 22 9900012 -11 -4 21 2 0.79375645D-02 0.33550979D+00 0.42853588D+04 0.42853588D+04 0.42853588D+04 0.12494599D+01  1  2  3  2  6  5       -4 0.616092224440D-05 0.100000000000D+01
-.233263790267D-04 0.000000000000D+00 0.000000000000D+00 0.487710916682D-04 0.000000000000D+00  6 -3 22 9900012 -11 -4 21 2 0.79375645D-02 0.33550979D+00 0.42853588D+04 0.42853588D+04 0.42853588D+04 0.12494599D+01  1  2 15  2  6  5       -4 -.134751675238D-04 0.100000000000D+01
-.299499290091D-06 0.000000000000D+00 0.000000000000D+00 0.487710916682D-04 0.000000000000D+00  6 -3 22 9900012 -11 -4 21 2 0.79375645D-02 0.33550979D+00 0.42853588D+04 0.42853588D+04 0.42853588D+04 0.12494599D+01  1  2  4  2  6  5       -4 -.173014555865D-06 0.100000000000D+01
  </mgrwgt>
  </event>
  <event>
  5     66 0.93819742E-06 0.37849343E+02 0.78161638E-02 0.11493307E+00
       -3 -1    0    0    0  501 0.00000000E+00 0.00000000E+00 0.39368341E+02 0.39368341E+02 0.00000000E+00 0.0000E+00 0.9000E+01
       22 -1    0    0    0    0 0.00000000E+00 0.00000000E+00 -.44640415E+03 0.44640415E+03 0.00000000E+00 0.0000E+00 0.9000E+01
  9900012  1    1    2    0    0 -.35419864E+02 -.63737525E+02 -.19211688E+03 0.21148507E+03 0.50000000E+02 0.0000E+00 0.9000E+01
      -11  1    1    2    0    0 -.11621903E+01 0.73449688E+02 -.22368323E+03 0.23543660E+03 0.00000000E+00 0.0000E+00 0.9000E+01
       -4  1    1    2    0  501 0.36582054E+02 -.97121624E+01 0.87643036E+01 0.38850815E+02 0.00000000E+00 0.0000E+00 0.9000E+01
#aMCatNLO 1  0  0  1  5 0.41179771D+02 0.00000000D+00  -5  6  0 0.00000000D+00 0.00000000D+00 0.00000000D+00 0.00000000D+00 0.00000000D+00
  <mgrwgt>
 0.1873683088D-04    4    2    0
 0.132567683503552D+03 0.000000000000000D+00 0.000000000000000D+00 0.132567683503552D+03
 0.132567683503552D+03 0.000000000000000D+00 0.000000000000000D+00 -.132567683503552D+03
 0.925383117520549D+02 -.354198640228678D+02 -.637375252922921D+02 -.273184963740042D+02
 0.879608834996357D+02 -.116219029120850D+01 0.734496877012121D+02 -.483829486116537D+02
 0.846361717554135D+02 0.365820543140763D+02 -.971216240891999D+01 0.757014449856579D+02
 0.000000000000000D+00 0.000000000000000D+00 -.000000000000000D+00 -.000000000000000D+00
 0.136838646401051D+03 0.000000000000000D+00 0.000000000000000D+00 0.136838646401051D+03
 0.152494433429145D+03 0.000000000000000D+00 0.000000000000000D+00 -.152494433429145D+03
 0.889219119993014D+02 -.363746727415866D+02 -.577727390074031D+02 -.273184963740042D+02
 0.930023912298782D+02 -.211438415996726D+01 0.793981387548945D+02 -.483829486116537D+02
 0.837993574472822D+02 0.356957790274046D+02 -.417551138035676D+01 0.757014449856579D+02
 0.236094191537338D+02 0.279327787414917D+01 -.174498883671347D+02 -.156557870280934D+02
0.841997534342D-06 0.000000000000D+00 0.000000000000D+00 0.392240516634D-09 0.000000000000D+00  6 -3 22 9900012 -11 -4 21 0 0.60566678D-02 0.68677561D-01 0.99722438D+04 0.99722438D+04 0.99722438D+04 0.12094551D+01  1  2  2  1  6  1       -3 0.207162736485D-04 0.100000000000D+01
0.660990191714D-07 0.000000000000D+00 -.161674611746D-08 0.392240516634D-09 0.000000000000D+00  6 -3 22 9900012 -11 -4 21 2 0.60566678D-02 0.68677561D-01 0.99722438D+04 0.99722438D+04 0.99722438D+04 0.12094551D+01  1  2  3  1  6  1       -3 0.237889515113D-05 0.100000000000D+01
-.112571720166D-06 0.000000000000D+00 0.000000000000D+00 0.392240516634D-09 0.000000000000D+00  6 -3 22 9900012 -11 -4 21 2 0.60566678D-02 0.68677561D-01 0.99722438D+04 0.99722438D+04 0.99722438D+04 0.12094551D+01  1  2 15  1  6  1       -3 -.405144164944D-05 0.100000000000D+01
-.852729577535D-08 0.000000000000D+00 0.000000000000D+00 0.392240516634D-09 0.000000000000D+00  6 -3 22 9900012 -11 -4 21 2 0.60566678D-02 0.68677561D-01 0.99722438D+04 0.99722438D+04 0.99722438D+04 0.12094551D+01  1  2  4  1  6  1       -3 -.306896272086D-06 0.100000000000D+01
  </mgrwgt>
  </event>
  <event>
  6     66 0.93819742E-06 0.66735714E+02 0.78161638E-02 0.11044864E+00
       -1 -1    0    0    0  501 0.00000000E+00 0.00000000E+00 0.55634437E+02 0.55634437E+02 0.00000000E+00 0.0000E+00 0.9000E+01
       22 -1    0    0    0    0 -.00000000E+00 -.00000000E+00 -.75866757E+03 0.75866757E+03 0.00000000E+00 0.0000E+00 0.9000E+01
       24  2    1    2    0    0 0.31473812E+01 0.66661455E+02 -.73346183E+03 0.74095652E+03 0.81219714E+02 0.0000E+00 0.0000E+00
  9900012  1    3    3    0    0 -.17210822E+02 0.53965137E+02 -.64080332E+03 0.64524208E+03 0.50000000E+02 0.0000E+00 0.9000E+01
      -11  1    3    3    0    0 0.20358203E+02 0.12696318E+02 -.92658517E+02 0.95714438E+02 0.00000000E+00 0.0000E+00 0.9000E+01
       -2  1    1    2    0  501 -.31473812E+01 -.66661455E+02 0.30428700E+02 0.73345493E+02 0.00000000E+00 0.0000E+00 0.9000E+01
#aMCatNLO 1  0  0  5  1 0.60735574D+01 0.00000000D+00  -5  6  0 0.00000000D+00 0.00000000D+00 0.00000000D+00 0.00000000D+00 0.00000000D+00
  <mgrwgt>
 0.7441807964D-04    4    2    0
 0.205445962724060D+03 0.000000000000000D+00 0.000000000000000D+00 0.205445962724060D+03
 0.205445962724060D+03 -.000000000000000D+00 -.000000000000000D+00 -.205445962724060D+03
 0.182325209404467D+03 -.172108220940887D+02 0.539651367754617D+02 -.165933822953713D+03
 0.311479758947190D+02 0.203582032500390D+02 0.126963180966728D+02 -.198631183240747D+02
 0.197418740148934D+03 -.314738115595030D+01 -.666614548721346D+02 0.185796941277788D+03
 0.000000000000000D+00 0.000000000000000D+00 0.000000000000000D+00 0.000000000000000D+00
 0.205445962724060D+03 0.000000000000000D+00 0.000000000000000D+00 0.205445962724060D+03
 0.205445962724060D+03 -.000000000000000D+00 -.000000000000000D+00 -.205445962724060D+03
 0.140454603117156D+03 -.179202188198529D+02 0.389401317068601D+02 -.124056549351088D+03
 0.258047609967062D+02 0.202330340681175D+02 0.100452379260160D+02 -.124741018716881D+02
 0.161704734346583D+03 -.505863341975739D+02 -.109796191358003D+03 0.107397580353689D+03
 0.829278269876750D+02 0.482735189493093D+02 0.608108217251269D+02 0.291330708690873D+02
0.147482556174D-04 0.000000000000D+00 0.000000000000D+00 0.875357943058D-05 0.000000000000D+00  6 -1 22 9900012 -11 -2 21 0 0.85591442D-02 0.11671809D+00 0.69124888D+04 0.69124888D+04 0.69124888D+04 0.12263215D+01  1  2  2  2  6  5       -2 0.898576884334D-04 0.100000000000D+01
0.317252218368D-06 0.000000000000D+00 -.283185924378D-07 0.875357943058D-05 0.000000000000D+00  6 -1 22 9900012 -11 -2 21 2 0.85591442D-02 0.11671809D+00 0.69124888D+04 0.69124888D+04 0.69124888D+04 0.12263215D+01  1  2  3  2  6  5       -2 0.290688543674D-05 0.100000000000D+01
-.192184864753D-05 0.000000000000D+00 0.000000000000D+00 0.875357943058D-05 0.000000000000D+00  6 -1 22 9900012 -11 -2 21 2 0.85591442D-02 0.11671809D+00 0.69124888D+04 0.69124888D+04 0.69124888D+04 0.12263215D+01  1  2 15  2  6  5       -2 -.176093137311D-04 0.100000000000D+01
-.804545460562D-07 0.000000000000D+00 0.000000000000D+00 0.875357943058D-05 0.000000000000D+00  6 -1 22 9900012 -11 -2 21 2 0.85591442D-02 0.11671809D+00 0.69124888D+04 0.69124888D+04 0.69124888D+04 0.12263215D+01  1  2  4  2  6  5       -2 -.737180497756D-06 0.100000000000D+01
  </mgrwgt>
  </event>
  <event>
  6     66 0.93819742E-06 0.19847270E+02 0.78161638E-02 0.12574380E+00
       -1 -1    0    0    0  501 0.00000000E+00 0.00000000E+00 0.60046736E+01 0.60046736E+01 0.00000000E+00 0.0000E+00 0.9000E+01
       22 -1    0    0    0    0 -.00000000E+00 -.00000000E+00 -.82307829E+03 0.82307829E+03 0.00000000E+00 0.0000E+00 0.9000E+01
       24  2    1    2    0    0 0.12867076E+02 -.15111336E+02 -.42995606E+03 0.44145696E+03 0.98122996E+02 0.0000E+00 0.0000E+00
  9900012  1    3    3    0    0 0.24028030E+02 0.21110790E+02 -.31083308E+03 0.31644939E+03 0.50000000E+02 0.0000E+00 0.9000E+01
      -11  1    3    3    0    0 -.11160954E+02 -.36222126E+02 -.11912298E+03 0.12500757E+03 0.00000000E+00 0.0000E+00 0.9000E+01
       -2  1    1    2    0  501 -.12867076E+02 0.15111336E+02 -.38711756E+03 0.38762601E+03 0.00000000E+00 0.0000E+00 0.9000E+01
#aMCatNLO 1  0  0  5  1 0.88909338D+01 0.00000000D+00  -5  6  0 0.00000000D+00 0.00000000D+00 0.00000000D+00 0.00000000D+00 0.00000000D+00
  <mgrwgt>
 0.1274652454D-03    6    2    0
 0.703016110346242D+02 0.000000000000000D+00 0.000000000000000D+00 0.703016110346242D+02
 0.703016110346242D+02 -.000000000000000D+00 -.000000000000000D+00 -.703016110346242D+02
 0.596663983104735D+02 0.240280297261321D+02 0.211107899974912D+02 0.608830193945841D+01
 0.448738386419549D+02 -.111609539240884D+02 -.362221259205816D+02 0.240219086619300D+02
 0.360629851168201D+02 -.128670758020437D+02 0.151113359230904D+02 -.301102106013884D+02
 0.000000000000000D+00 0.000000000000000D+00 0.000000000000000D+00 0.000000000000000D+00
 0.703016110346242D+02 0.000000000000000D+00 0.000000000000000D+00 0.703016110346242D+02
 0.703016110346242D+02 -.000000000000000D+00 -.000000000000000D+00 -.703016110346242D+02
 0.594802894784458D+02 0.226623620256875D+02 0.227146558406889D+02 0.289250650741710D+01
 0.429564966255539D+02 -.121676713932853D+02 -.350398179828090D+02 0.216660917319636D+02
 0.606405415458735D+01 0.552822447520030D+01 0.211537669590333D+01 0.131782714192474D+01
 0.321023818106614D+02 -.160229151076025D+02 0.102097854462168D+02 -.258764253813054D+02
0.160876608585D-05 0.000000000000D+00 0.000000000000D+00 0.204325230490D-08 0.000000000000D+00  6 -1 22 9900012 -11 -2 21 0 0.92379594D-03 0.12662743D+00 0.34283872D+04 0.34283872D+04 0.34283872D+04 0.12607272D+01  1  2  2  2  6  5       -2 0.179204211600D-03 0.100000000000D+01
-.740040108548D-07 0.000000000000D+00 -.308904268375D-08 0.204325230490D-08 0.000000000000D+00  6 -1 22 9900012 -11 -2 21 2 0.92379594D-03 0.12662743D+00 0.34283872D+04 0.34283872D+04 0.34283872D+04 0.12607272D+01  1  2  3  2  6  5       -2 -.131024598824D-04 0.100000000000D+01
-.135845185151D-06 0.000000000000D+00 0.000000000000D+00 0.204325230490D-08 0.000000000000D+00  6 -1 22 9900012 -11 -2 21 2 0.92379594D-03 0.12662743D+00 0.34283872D+04 0.34283872D+04 0.34283872D+04 0.12607272D+01  1  2 15  2  6  5       -2 -.240514813737D-04 0.100000000000D+01
0.141097543873D-06 0.000000000000D+00 0.000000000000D+00 0.204325230490D-08 0.000000000000D+00  6 -1 22 9900012 -11 -2 21 2 0.92379594D-03 0.12662743D+00 0.36857454D+04 0.36857454D+04 0.36857454D+04 0.12570374D+01  1  2 12  2  6  5       -2 0.250728880197D-04 0.100000000000D+01
-.224034241940D-06 0.000000000000D+00 0.000000000000D+00 0.204325230490D-08 0.000000000000D+00  6 -1 22 9900012 -11 -2 21 2 0.92379594D-03 0.12662743D+00 0.34283872D+04 0.34283872D+04 0.34283872D+04 0.12607272D+01  1  2  4  2  6  5       -2 -.396654131767D-04 0.100000000000D+01
0.422074064208D-10 0.000000000000D+00 0.000000000000D+00 0.204325230490D-08 0.167520601608D-10  6 -1 22 9900012 -11 -2 21 2 0.92379594D-03 0.12662743D+00 0.36857454D+04 0.36857454D+04 0.36857454D+04 0.12570374D+01  1  2 11  2  6  5       -2 0.750021258868D-08 0.100000000000D+01
  </mgrwgt>
  </event>
  <event>
  6     66 0.93819742E-06 0.33868839E+02 0.78161638E-02 0.12662071E+00
       -3 -1    0    0    0  501 0.00000000E+00 0.00000000E+00 0.28314155E+01 0.28314155E+01 0.00000000E+00 0.0000E+00 0.9000E+01
       22 -1    0    0    0    0 -.00000000E+00 -.00000000E+00 -.15374820E+04 0.15374820E+04 0.00000000E+00 0.0000E+00 0.9000E+01
       24  2    1    2    0    0 0.10847712E+02 0.32084659E+02 -.13243203E+04 0.13272736E+04 0.81756229E+02 0.0000E+00 0.0000E+00
  9900012  1    3    3    0    0 -.14699416E+01 0.47709221E+01 -.52688102E+03 0.52927170E+03 0.50000000E+02 0.0000E+00 0.9000E+01
      -11  1    3    3    0    0 0.12317654E+02 0.27313737E+02 -.79743924E+03 0.79800195E+03 0.00000000E+00 0.0000E+00 0.9000E+01
       -4  1    1    2    0  501 -.10847712E+02 -.32084659E+02 -.21033034E+03 0.21303979E+03 0.00000000E+00 0.0000E+00 0.9000E+01
#aMCatNLO 1  0  0  5  1 0.11041585D+02 0.00000000D+00  -5  6  0 0.00000000D+00 0.00000000D+00 0.00000000D+00 0.00000000D+00 0.00000000D+00
  <mgrwgt>
 0.5346379949D-04    5    2    0
 0.659791661321812D+02 0.000000000000000D+00 0.000000000000000D+00 0.659791661321812D+02
 0.659791661321812D+02 -.000000000000000D+00 -.000000000000000D+00 -.659791661321812D+02
 0.505162003636519D+02 -.146994163528271D+01 0.477092207613311D+01 0.519269422486544D+01
 0.407894492422810D+02 0.123176536188774D+02 0.273137372832103D+02 -.276769639671287D+02
 0.406526826584296D+02 -.108477119835947D+02 -.320846593593435D+02 0.224842697422633D+02
 0.000000000000000D+00 0.000000000000000D+00 0.000000000000000D+00 0.000000000000000D+00
 0.659791661321812D+02 0.000000000000000D+00 0.000000000000000D+00 0.659791661321812D+02
 0.659791661321812D+02 -.000000000000000D+00 -.000000000000000D+00 -.659791661321812D+02
 0.507125740040499D+02 -.280088010407469D+01 0.834358544208841D+00 0.795135702748505D+01
 0.370216228550671D+02 0.112946070612244D+02 0.242878364885833D+02 -.255564748910958D+02
 0.374734826921661D+02 -.131363180551723D+02 -.299812196434820D+02 0.182435062891627D+02
 0.675065271307939D+01 0.464259109802252D+01 0.485902461068985D+01 -.638388425551876D+00
0.566905386197D-06 0.000000000000D+00 0.000000000000D+00 0.676480654133D-07 0.000000000000D+00  6 -3 22 9900012 -11 -4 21 0 0.43560238D-03 0.23653569D+00 0.32535712D+04 0.32535712D+04 0.32535712D+04 0.12634167D+01  1  2  2  2  6  5       -4 0.383843517573D-04 0.100000000000D+01
0.392064491166D-09 0.000000000000D+00 -.108853297631D-08 0.676480654133D-07 0.000000000000D+00  6 -3 22 9900012 -11 -4 21 2 0.43560238D-03 0.23653569D+00 0.32535712D+04 0.32535712D+04 0.32535712D+04 0.12634167D+01  1  2  3  2  6  5       -4 0.423735053768D-07 0.100000000000D+01
-.708416761506D-07 0.000000000000D+00 0.000000000000D+00 0.676480654133D-07 0.000000000000D+00  6 -3 22 9900012 -11 -4 21 2 0.43560238D-03 0.23653569D+00 0.32535712D+04 0.32535712D+04 0.32535712D+04 0.12634167D+01  1  2 15  2  6  5       -4 -.765641932108D-05 0.100000000000D+01
0.262891161988D-06 0.000000000000D+00 0.000000000000D+00 0.676480654133D-07 0.000000000000D+00  6 -3 22 9900012 -11 -4 21 2 0.43560238D-03 0.23653569D+00 0.33828251D+04 0.33828251D+04 0.33828251D+04 0.12614130D+01  1  2 12  2  6  5       -4 0.284805681732D-04 0.100000000000D+01
-.535454040887D-07 0.000000000000D+00 0.000000000000D+00 0.676480654133D-07 0.000000000000D+00  6 -3 22 9900012 -11 -4 21 2 0.43560238D-03 0.23653569D+00 0.32535712D+04 0.32535712D+04 0.32535712D+04 0.12634167D+01  1  2  4  2  6  5       -4 -.578707462466D-05 0.100000000000D+01
  </mgrwgt>
  </event>
  <event>
  7     66 -.93819742E-06 0.83167552E+02 0.78161638E-02 0.11504804E+00
       -1 -1    0    0    0  501 0.00000000E+00 0.00000000E+00 0.17797217E+03 0.17797217E+03 0.00000000E+00 0.0000E+00 0.9000E+01
       22 -1    0    0    0    0 -.00000000E+00 -.00000000E+00 -.11733010E+04 0.11733010E+04 0.00000000E+00 0.0000E+00 0.9000E+01
       24  2    1    2    0    0 -.58735619E+02 -.60592101E+02 -.11542389E+04 0.11600905E+04 0.80132958E+02 0.0000E+00 0.0000E+00
  9900012  1    3    3    0    0 -.12367950E+02 -.38229721E+02 -.57417701E+03 0.57774883E+03 0.50000000E+02 0.0000E+00 0.9000E+01
      -11  1    3    3    0    0 -.46367669E+02 -.22362380E+02 -.58006184E+03 0.58234164E+03 0.00000000E+00 0.0000E+00 0.9000E+01
       -2  1    1    2    0  502 0.53614185E+02 0.70995484E+02 0.15540549E+03 0.17906900E+03 0.00000000E+00 0.0000E+00 0.9000E+01
       21  1    1    2  502  501 0.51214336E+01 -.10403382E+02 0.35045590E+01 0.12113686E+02 0.00000000E+00 0.0000E+00 0.9000E+01
#aMCatNLO 2  0  0  5  1 0.13771404D+02 0.00000000D+00  -5  6  0 0.00000000D+00 0.00000000D+00 0.00000000D+00 0.00000000D+00 0.00000000D+00
  <mgrwgt>
 -.3584177117D-03    3    2    0
 0.456962717530847D+03 0.000000000000000D+00 0.000000000000000D+00 0.456962717530847D+03
 0.456962717530847D+03 -.000000000000000D+00 -.000000000000000D+00 -.456962717530847D+03
 0.230032074702176D+03 -.125189042294485D+02 -.383854469370051D+02 -.220872338449448D+03
 0.230443670609543D+03 -.465188840800222D+02 -.225183746555322D+02 -.224573376763191D+03
 0.453449689749975D+03 0.590377883094708D+02 0.609038215925374D+02 0.445445715212639D+03
 0.000000000000000D+00 0.000000000000000D+00 0.000000000000000D+00 0.000000000000000D+00
 0.456962717530847D+03 0.000000000000000D+00 0.000000000000000D+00 0.456962717530847D+03
 0.456962717530847D+03 -.000000000000000D+00 -.000000000000000D+00 -.456962717530847D+03
 0.228904419867476D+03 -.123679499397282D+02 -.382297213688053D+02 -.219733374008633D+03
 0.229286052050673D+03 -.463676688801664D+02 -.223623799304958D+02 -.223432443730644D+03
 0.434007713015655D+03 0.536141852600124D+02 0.709954835342229D+02 0.424791543481890D+03
 0.217272501278891D+02 0.512143355988231D+01 -.104033822349218D+02 0.183742742573872D+02
-.625645145496D-03 0.000000000000D+00 0.000000000000D+00 0.366918646990D-03 0.000000000000D+00  6 -1 22 9900012 -11 -2 21 2 0.27380334D-01 0.18050784D+00 0.11683854D+05 0.11683854D+05 0.11683854D+05 0.12023878D+01  1  2 13  2  6  5       -2 -.374906657275D-03 0.100000000000D+01
-.334519015549D-04 0.000000000000D+00 0.000000000000D+00 0.366918646990D-03 0.000000000000D+00  6 -1 22 9900012 -11 -2 21 2 0.27380334D-01 0.18050784D+00 0.10077217D+05 0.10077217D+05 0.10077217D+05 0.12089838D+01  1  2  8  2  6  5       -2 -.201319110024D-04 0.100000000000D+01
0.611129748317D-04 0.000000000000D+00 0.000000000000D+00 0.366918646990D-03 0.153599828872D-05  6 -1 22 9900012 -11 -2 21 2 0.27380334D-01 0.18050784D+00 0.11683854D+05 0.11683854D+05 0.11683854D+05 0.12023878D+01  1  2  1  2  6  5       -2 0.366208565274D-04 0.100000000000D+01
  </mgrwgt>
  </event>
  <event>
  7     66 0.93819742E-06 0.37932897E+02 0.78161638E-02 0.11527895E+00
       -1 -1    0    0    0  502 0.00000000E+00 0.00000000E+00 0.10303131E+03 0.10303131E+03 0.00000000E+00 0.0000E+00 0.9000E+01
       22 -1    0    0    0    0 0.00000000E+00 0.00000000E+00 -.42790341E+03 0.42790341E+03 0.00000000E+00 0.0000E+00 0.9000E+01
       24  2    1    2    0    0 -.11899226E+02 0.60861458E+02 0.54509880E+02 0.11464423E+03 0.79537815E+02 0.0000E+00 0.0000E+00
  9900012  1    3    3    0    0 -.26529682E+02 0.24531061E+02 0.33089132E+02 0.70003483E+02 0.50000000E+02 0.0000E+00 0.9000E+01
      -11  1    3    3    0    0 0.14630455E+02 0.36330397E+02 0.21420748E+02 0.44640749E+02 0.00000000E+00 0.0000E+00 0.9000E+01
       -2  1    1    2    0  501 0.53193785E+02 -.33299291E+02 -.35586192E+03 0.36135319E+03 0.00000000E+00 0.0000E+00 0.9000E+01
       21  1    1    2  501  502 -.41294559E+02 -.27562167E+02 -.23520055E+02 0.54937297E+02 0.00000000E+00 0.0000E+00 0.9000E+01
#aMCatNLO 2  0  0  1  1 0.62825623D+02 0.00000000D+00  -5  6  0 0.00000000D+00 0.00000000D+00 0.00000000D+00 0.00000000D+00 0.00000000D+00
  <mgrwgt>
 0.1158839729D-04    1    2    0
 0.182548335876062D+03 0.000000000000000D+00 0.000000000000000D+00 0.182548335876062D+03
 0.182548335876062D+03 0.000000000000000D+00 0.000000000000000D+00 -.182548335876062D+03
 0.119728171738159D+03 -.398840579194180D+02 0.156176459942901D+02 0.100000930821866D+03
 0.714839846461143D+02 0.637364295617552D+01 0.308193649572958D+02 0.641833582790906D+02
 0.173884515367852D+03 0.335104149632425D+02 -.464370109515859D+02 -.164184289100956D+03
 0.000000000000000D+00 -.000000000000000D+00 -.000000000000000D+00 0.000000000000000D+00
 0.217369611039775D+03 0.000000000000000D+00 0.000000000000000D+00 0.217369611039775D+03
 0.202822506570070D+03 0.000000000000000D+00 0.000000000000000D+00 -.202822506570070D+03
 0.117498013317648D+03 -.265296815016110D+02 0.245310612851888D+02 0.100000930821866D+03
 0.751894370995915D+02 0.146304552638857D+02 0.363303970545706D+02 0.641833582790906D+02
 0.175769457983149D+03 0.531937849715436D+02 -.332992914715161D+02 -.164184289100956D+03
 0.517352092094561D+02 -.412945587338183D+02 -.275621668682433D+02 0.145471044697056D+02
0.108729163880D-05 0.000000000000D+00 0.000000000000D+00 0.851006776009D-06 0.193705091497D-08  6 -1 22 9900012 -11 -2 21 2 0.15850971D-01 0.65831294D-01 0.11369947D+05 0.11369947D+05 0.11369947D+05 0.12035938D+01  1  2  1  1  6  1       -1 0.115883972929D-04 0.100000000000D+01
  </mgrwgt>
  </event>
  <event>
  6     66 0.93819742E-06 0.40543970E+02 0.78161638E-02 0.12314422E+00
       -1 -1    0    0    0  501 0.00000000E+00 0.00000000E+00 0.70634900E+02 0.70634900E+02 0.00000000E+00 0.0000E+00 0.9000E+01
       22 -1    0    0    0    0 -.00000000E+00 -.00000000E+00 -.89306335E+02 0.89306335E+02 0.00000000E+00 0.0000E+00 0.9000E+01
       24  2    1    2    0    0 -.39118473E+02 0.34160352E+02 -.40482125E+02 0.10361282E+03 0.79997678E+02 0.0000E+00 0.0000E+00
  9900012  1    3    3    0    0 -.22701078E+02 0.10274754E+02 -.26145121E+01 0.55926248E+02 0.50000000E+02 0.0000E+00 0.9000E+01
      -11  1    3    3    0    0 -.16417395E+02 0.23885598E+02 -.37867613E+02 0.47686568E+02 0.00000000E+00 0.0000E+00 0.9000E+01
       -2  1    1    2    0  501 0.39118473E+02 -.34160352E+02 0.21810690E+02 0.56328419E+02 0.00000000E+00 0.0000E+00 0.9000E+01
#aMCatNLO 1  0  0  5  1 0.18268304D+02 0.00000000D+00  -5  6  0 0.00000000D+00 0.00000000D+00 0.00000000D+00 0.00000000D+00 0.00000000D+00
  <mgrwgt>
 0.8520215049D-04    7    2    0
 0.794238251286858D+02 0.000000000000000D+00 0.000000000000000D+00 0.794238251286858D+02
 0.794238251286858D+02 -.000000000000000D+00 -.000000000000000D+00 -.794238251286858D+02
 0.560039536238432D+02 -.227010784311006D+02 0.102747540538429D+02 0.394122933862435D+01
 0.435637909578586D+02 -.164173945708510D+02 0.238855978428582D+02 -.325230880116609D+02
 0.592799056756698D+02 0.391184730019517D+02 -.341603518967012D+02 0.285818586730365D+02
 0.000000000000000D+00 0.000000000000000D+00 0.000000000000000D+00 0.000000000000000D+00
 0.794238251286858D+02 0.000000000000000D+00 0.000000000000000D+00 0.794238251286858D+02
 0.794238251286858D+02 -.000000000000000D+00 -.000000000000000D+00 -.794238251286858D+02
 0.547168566342490D+02 -.199174625743930D+02 0.784395116423053D+01 0.597507444838799D+01
 0.406168558027957D+02 -.143010211212291D+02 0.220374668644247D+02 -.309767626519403D+02
 0.345234991281188D+02 0.619567917013194D+01 -.290331436618306D+02 0.176227727892496D+02
 0.289904386922081D+02 0.280228045254901D+02 -.848274366824651D+00 0.737891541430270D+01
0.465542497236D-06 0.000000000000D+00 0.000000000000D+00 0.365797371781D-06 0.000000000000D+00  6 -1 22 9900012 -11 -2 21 0 0.10866908D-01 0.13739436D-01 0.46774102D+04 0.46774102D+04 0.46774102D+04 0.12451213D+01  1  2  2  2  6  5       -2 0.646413138625D-04 0.100000000000D+01
-.742123899807D-08 0.000000000000D+00 -.893902884771D-09 0.365797371781D-06 0.000000000000D+00  6 -1 22 9900012 -11 -2 21 2 0.10866908D-01 0.13739436D-01 0.46774102D+04 0.46774102D+04 0.46774102D+04 0.12451213D+01  1  2  3  2  6  5       -2 -.159753572201D-05 0.100000000000D+01
-.494648103294D-07 0.000000000000D+00 0.000000000000D+00 0.365797371781D-06 0.000000000000D+00  6 -1 22 9900012 -11 -2 21 2 0.10866908D-01 0.13739436D-01 0.46774102D+04 0.46774102D+04 0.46774102D+04 0.12451213D+01  1  2 15  2  6  5       -2 -.106480604525D-04 0.100000000000D+01
0.153909433981D-06 0.000000000000D+00 0.000000000000D+00 0.365797371781D-06 0.000000000000D+00  6 -1 22 9900012 -11 -2 21 2 0.10866908D-01 0.13739436D-01 0.47874785D+04 0.47874785D+04 0.47874785D+04 0.12439758D+01  1  2 12  2  6  5       -2 0.331509878755D-04 0.100000000000D+01
-.807192632443D-07 0.000000000000D+00 0.000000000000D+00 0.365797371781D-06 0.000000000000D+00  6 -1 22 9900012 -11 -2 21 2 0.10866908D-01 0.13739436D-01 0.46774102D+04 0.46774102D+04 0.46774102D+04 0.12451213D+01  1  2  4  2  6  5       -2 -.173760616685D-04 0.100000000000D+01
-.135027157636D-06 0.000000000000D+00 0.000000000000D+00 0.365797371781D-06 0.000000000000D+00  6 -1 22 9900012 -11 -2 21 2 0.10866908D-01 0.13739436D-01 0.46774102D+04 0.46774102D+04 0.46774102D+04 0.12451213D+01  1  2  5  2  6  5       -2 -.290666703797D-04 0.100000000000D+01
0.214145814704D-06 0.000000000000D+00 -.000000000000D+00 0.365797371781D-06 0.000000000000D+00  6 -1 22 9900012 -11 -2 21 2 0.10866908D-01 0.13739436D-01 0.46774102D+04 0.46774102D+04 0.46774102D+04 0.12451213D+01  1  2  6  2  6  5       -2 0.460981769753D-04 0.100000000000D+01
  </mgrwgt>
  </event>
  <event>
  6     66 0.93819742E-06 0.37716290E+02 0.78161638E-02 0.12254432E+00
       -3 -1    0    0    0  501 0.00000000E+00 0.00000000E+00 0.79652368E+02 0.79652368E+02 0.00000000E+00 0.0000E+00 0.9000E+01
       22 -1    0    0    0    0 -.00000000E+00 -.00000000E+00 -.13643091E+03 0.13643091E+03 0.00000000E+00 0.0000E+00 0.9000E+01
       24  2    1    2    0    0 0.28488361E+02 -.24717035E+02 -.11612649E+03 0.14576473E+03 0.79620822E+02 0.0000E+00 0.0000E+00
  9900012  1    3    3    0    0 0.35041594E+02 0.87673003E+00 -.72799375E+02 0.95018056E+02 0.50000000E+02 0.0000E+00 0.9000E+01
      -11  1    3    3    0    0 -.65532333E+01 -.25593765E+02 -.43327118E+02 0.50746673E+02 0.00000000E+00 0.0000E+00 0.9000E+01
       -4  1    1    2    0  501 -.28488361E+02 0.24717035E+02 0.59347953E+02 0.70318547E+02 0.00000000E+00 0.0000E+00 0.9000E+01
#aMCatNLO 1  0  0  5  5 0.29890963D+02 0.00000000D+00  -5  6  0 0.00000000D+00 0.00000000D+00 0.00000000D+00 0.00000000D+00 0.00000000D+00
  <mgrwgt>
 0.2764133750D-04    4    2    0
 0.104245119277260D+03 0.000000000000000D+00 0.000000000000000D+00 0.104245119277260D+03
 0.104245119277260D+03 -.000000000000000D+00 -.000000000000000D+00 -.104245119277260D+03
 0.786529418221014D+02 0.350415940583994D+02 0.876730033026519D+00 -.495742199894906D+02
 0.407954679333455D+02 -.655323329207332D+01 -.255937645953189D+02 -.310851178405307D+02
 0.890418287990729D+02 -.284883607663260D+02 0.247170345622924D+02 0.806593378300213D+02
 0.000000000000000D+00 0.000000000000000D+00 0.000000000000000D+00 0.000000000000000D+00
 0.104245119277260D+03 0.000000000000000D+00 0.000000000000000D+00 0.104245119277260D+03
 0.104245119277260D+03 -.000000000000000D+00 -.000000000000000D+00 -.104245119277260D+03
 0.727344561567233D+02 0.322599653992478D+02 0.329012307700186D+01 -.416985711384912D+02
 0.372433595775999D+02 -.798713758020562D+01 -.243496824194614D+02 -.270252924493453D+02
 0.340741395100567D+02 -.248388722444433D+01 0.327113599436233D+02 0.921109213100001D+01
 0.644382833101399D+02 -.217889405945979D+02 -.116518006011638D+02 0.595127714568365D+02
0.843690155240D-06 0.000000000000D+00 0.000000000000D+00 0.199214798213D-05 0.000000000000D+00  6 -3 22 9900012 -11 -4 21 0 0.12254210D-01 0.20989370D-01 0.39186750D+04 0.39186750D+04 0.39186750D+04 0.12539398D+01  1  2  2  2  6  5       -4 0.416399602826D-04 0.100000000000D+01
0.356597304160D-07 0.000000000000D+00 -.161999617242D-08 0.199214798213D-05 0.000000000000D+00  6 -3 22 9900012 -11 -4 21 2 0.12254210D-01 0.20989370D-01 0.39186750D+04 0.39186750D+04 0.39186750D+04 0.12539398D+01  1  2  3  2  6  5       -4 0.276731620458D-05 0.100000000000D+01
-.110577346107D-06 0.000000000000D+00 0.000000000000D+00 0.199214798213D-05 0.000000000000D+00  6 -3 22 9900012 -11 -4 21 2 0.12254210D-01 0.20989370D-01 0.39186750D+04 0.39186750D+04 0.39186750D+04 0.12539398D+01  1  2 15  2  6  5       -4 -.858117765256D-05 0.100000000000D+01
-.105469112061D-06 0.000000000000D+00 0.000000000000D+00 0.199214798213D-05 0.000000000000D+00  6 -3 22 9900012 -11 -4 21 2 0.12254210D-01 0.20989370D-01 0.39186750D+04 0.39186750D+04 0.39186750D+04 0.12539398D+01  1  2  5  2  6  5       -4 -.818476133956D-05 0.100000000000D+01
  </mgrwgt>
  </event>
  <event>
  6     66 -.93819742E-06 0.27643890E+02 0.78161638E-02 0.12178978E+00
       -3 -1    0    0    0  501 0.00000000E+00 0.00000000E+00 0.28480477E+02 0.28480477E+02 0.00000000E+00 0.0000E+00 0.9000E+01
       22 -1    0    0    0    0 0.00000000E+00 0.00000000E+00 -.35645667E+03 0.35645667E+03 0.00000000E+00 0.0000E+00 0.9000E+01
       24  2    1    2    0    0 0.44599464E+02 -.30171577E+02 -.31462002E+03 0.32945901E+03 0.81596882E+02 0.0000E+00 0.0000E+00
  9900012  1    3    3    0    0 0.41934974E+02 -.45187657E+02 -.28842575E+03 0.29914859E+03 0.50000000E+02 0.0000E+00 0.9000E+01
      -11  1    3    3    0    0 0.26644899E+01 0.15016080E+02 -.26194269E+02 0.30310425E+02 0.00000000E+00 0.0000E+00 0.9000E+01
       -4  1    1    2    0  501 -.44599464E+02 0.30171577E+02 -.13356182E+02 0.55478138E+02 0.00000000E+00 0.0000E+00 0.9000E+01
#aMCatNLO 1  0  0  1  5 0.43078677D+01 0.00000000D+00  -5  6  0 0.00000000D+00 0.00000000D+00 0.00000000D+00 0.00000000D+00 0.00000000D+00
  <mgrwgt>
 -.7677369320D-04    9    4    0
 0.100757412458079D+03 0.000000000000000D+00 0.000000000000000D+00 0.100757412458079D+03
 0.100757412458079D+03 0.000000000000000D+00 0.000000000000000D+00 -.100757412458079D+03
 0.102010488730780D+03 0.419349738386136D+02 -.451876567759619D+02 -.640755293021069D+02
 0.152669271827610D+02 0.266448993369408D+01 0.150160802368771D+02 -.704906601358106D+00
 0.842374090026170D+02 -.445994637723077D+02 0.301715765390847D+02 0.647804359034650D+02
 0.000000000000000D+00 0.000000000000000D+00 0.000000000000000D+00 0.000000000000000D+00
 0.111392856557409D+03 0.000000000000000D+00 0.000000000000000D+00 0.111392856557409D+03
 0.101198402852310D+03 0.000000000000000D+00 0.000000000000000D+00 -.101198402852310D+03
 0.102600279650484D+03 0.411662347290186D+02 -.471856445038918D+02 -.640755293021069D+02
 0.149569556061791D+02 0.255093637574849D+01 0.147209494019732D+02 -.704906601358106D+00
 0.840017130980520D+02 -.452315516821762D+02 0.285287514621148D+02 0.647804359034650D+02
 0.110323110550037D+02 0.151438057740913D+01 0.393594363980377D+01 0.101944537050993D+02
 0.100757412458079D+03 0.000000000000000D+00 0.000000000000000D+00 0.100757412458079D+03
 0.100757412458079D+03 0.000000000000000D+00 0.000000000000000D+00 -.100757412458079D+03
 0.102010488730780D+03 0.419349738386136D+02 -.451876567759619D+02 -.640755293021069D+02
 0.152669271827610D+02 0.266448993369408D+01 0.150160802368771D+02 -.704906601358106D+00
 0.000000000000000D+00 0.000000000000000D+00 0.000000000000000D+00 0.000000000000000D+00
 0.842374090026170D+02 -.445994637723077D+02 0.301715765390847D+02 0.647804359034650D+02
 0.111392856557409D+03 0.000000000000000D+00 0.000000000000000D+00 0.111392856557409D+03
 0.101198402852310D+03 0.000000000000000D+00 0.000000000000000D+00 -.101198402852310D+03
 0.102600279650484D+03 0.411662347290186D+02 -.471856445038918D+02 -.640755293021069D+02
 0.149569556061791D+02 0.255093637574849D+01 0.147209494019732D+02 -.704906601358106D+00
 0.110323110550037D+02 0.151438057740913D+01 0.393594363980377D+01 0.101944537050993D+02
 0.840017130980520D+02 -.452315516821762D+02 0.285287514621148D+02 0.647804359034650D+02
0.892879665201D-07 0.000000000000D+00 0.000000000000D+00 0.374265107603D-06 0.000000000000D+00  6 -3 22 9900012 -11 -4 21 0 0.43816119D-02 0.54839488D-01 0.55110234D+04 0.55110234D+04 0.55110234D+04 0.12371158D+01  1  2  2  1  6  1       -3 0.497158618692D-05 0.100000000000D+01
0.863672574072D-09 0.000000000000D+00 -.171444650749D-09 0.374265107603D-06 0.000000000000D+00  6 -3 22 9900012 -11 -4 21 2 0.43816119D-02 0.54839488D-01 0.55110234D+04 0.55110234D+04 0.55110234D+04 0.12371158D+01  1  2  3  1  6  1       -3 0.735989949303D-07 0.100000000000D+01
-.106444406612D-07 0.000000000000D+00 0.000000000000D+00 0.374265107603D-06 0.000000000000D+00  6 -3 22 9900012 -11 -4 21 2 0.43816119D-02 0.54839488D-01 0.55110234D+04 0.55110234D+04 0.55110234D+04 0.12371158D+01  1  2 15  1  6  1       -3 -.907080018257D-06 0.100000000000D+01
0.220835211226D-06 0.000000000000D+00 0.000000000000D+00 0.374265107603D-06 0.000000000000D+00  6 -3 22 9900012 -11 -4 21 2 0.48653142D-02 0.54839488D-01 0.58344040D+04 0.58344040D+04 0.58344040D+04 0.12343712D+01  1  2 12  1  6  1       -3 0.161153800970D-04 0.100000000000D+01
-.100693656469D-05 0.000000000000D+00 0.000000000000D+00 0.374265107603D-06 0.000000000000D+00  6 -3 22 9900012 -11 -4 21 2 0.43816119D-02 0.54839488D-01 0.55110234D+04 0.55110234D+04 0.55110234D+04 0.12371158D+01  1  2  4  1  6  1       -3 -.858074244155D-04 0.100000000000D+01
-.167738041924D-05 0.000000000000D+00 -.110216358686D-06 0.374265107603D-06 0.000000000000D+00  6 -3 22 9900012 -11 -4 21 2 0.48631958D-02 0.54839488D-01 0.55110234D+04 0.55110234D+04 0.55110234D+04 0.12371158D+01  1  2  5  1  6  1       -3 -.122267375964D-03 0.100000000000D+01
0.168032590699D-05 0.000000000000D+00 0.109619807989D-06 0.374265107603D-06 0.000000000000D+00  6 -3 22 9900012 -11 -4 21 2 0.43816119D-02 0.54839488D-01 0.55110234D+04 0.55110234D+04 0.55110234D+04 0.12371158D+01  1  2  6  1  6  1       -3 0.143191183351D-03 0.100000000000D+01
0.373214657166D-08 0.000000000000D+00 0.000000000000D+00 0.374265107603D-06 0.000000000000D+00  6 21 22 9900012 -11 3 -4 2 0.48653142D-02 0.54839488D-01 0.58344040D+04 0.58344040D+04 0.58344040D+04 0.12343712D+01  3  4 12  3  5  1       -3 0.497640554650D-05 0.100000000000D+01
-.278526957637D-07 0.000000000000D+00 -.185595586159D-08 0.374265107603D-06 0.000000000000D+00  6 21 22 9900012 -11 3 -4 2 0.48631958D-02 0.54839488D-01 0.55110234D+04 0.55110234D+04 0.55110234D+04 0.12371158D+01  3  4  5  3  5  1       -3 -.371199669768D-04 0.100000000000D+01
  </mgrwgt>
  </event>
  <event>
  7     66 -.93819742E-06 0.11631081E+02 0.78161638E-02 0.12692842E+00
       -3 -1    0    0    0  501 0.00000000E+00 0.00000000E+00 0.24278431E+02 0.24278431E+02 0.00000000E+00 0.0000E+00 0.9000E+01
       22 -1    0    0    0    0 -.00000000E+00 -.00000000E+00 -.13906216E+03 0.13906216E+03 0.00000000E+00 0.0000E+00 0.9000E+01
       24  2    1    2    0    0 0.13730733E+01 0.29570200E+02 -.79649939E+02 0.11440774E+03 0.76607678E+02 0.0000E+00 0.0000E+00
  9900012  1    3    3    0    0 -.20022980E+02 0.19519341E+02 -.64793837E+02 0.86487952E+02 0.50000000E+02 0.0000E+00 0.9000E+01
      -11  1    3    3    0    0 0.21396053E+02 0.10050859E+02 -.14856102E+02 0.27919789E+02 0.00000000E+00 0.0000E+00 0.9000E+01
       -4  1    1    2    0  502 -.85089324E+01 -.11983208E+02 -.11753436E+02 0.18818673E+02 0.00000000E+00 0.0000E+00 0.9000E+01
       21  1    1    2  502  501 0.71358590E+01 -.17586993E+02 -.23380359E+02 0.30114182E+02 0.00000000E+00 0.0000E+00 0.9000E+01
#aMCatNLO 2  0  0  5  1 0.83523055D+01 0.00000000D+00  -5  6  0 0.00000000D+00 0.00000000D+00 0.00000000D+00 0.00000000D+00 0.00000000D+00
  <mgrwgt>
 -.1380117082D-04    2    2    0
 0.581051734686594D+02 0.000000000000000D+00 0.000000000000000D+00 0.581051734686594D+02
 0.581051734686594D+02 -.000000000000000D+00 -.000000000000000D+00 -.581051734686594D+02
 0.583273143592658D+02 -.199179965492696D+02 0.217802407546035D+02 -.556508099666178D+01
 0.250283484940910D+02 0.214409820399669D+02 0.110184345480680D+02 0.673027619146674D+01
 0.328546840839619D+02 -.152298549069731D+01 -.327986753026715D+02 -.116519519480496D+01
 0.000000000000000D+00 0.000000000000000D+00 0.000000000000000D+00 -.000000000000000D+00
 0.581051734686594D+02 0.000000000000000D+00 0.000000000000000D+00 0.581051734686594D+02
 0.581051734686594D+02 -.000000000000000D+00 -.000000000000000D+00 -.581051734686594D+02
 0.575655709440215D+02 -.200229799753198D+02 0.195193411437959D+02 -.564540098940962D+01
 0.245692079070537D+02 0.213960532992501D+02 0.100508592247779D+02 0.669590242158409D+01
 0.148416216397876D+02 -.850893235846796D+01 -.119832077298444D+02 0.206749498694110D+01
 0.192339464464559D+02 0.713585903453765D+01 -.175869926387294D+02 -.311799641911558D+01
-.100263704640D-06 0.000000000000D+00 0.000000000000D+00 0.151956484937D-07 0.000000000000D+00  6 -3 22 9900012 -11 -4 21 2 0.37351432D-02 0.21394179D-01 0.32835026D+04 0.32835026D+04 0.32835026D+04 0.12629448D+01  1  2 13  2  6  5       -4 -.464916108355D-04 0.100000000000D+01
0.705001303198D-07 0.000000000000D+00 0.000000000000D+00 0.151956484937D-07 0.337229729691D-09  6 -3 22 9900012 -11 -4 21 2 0.37351432D-02 0.21394179D-01 0.32835026D+04 0.32835026D+04 0.32835026D+04 0.12629448D+01  1  2  1  2  6  5       -4 0.326904400196D-04 0.100000000000D+01
  </mgrwgt>
  </event>
  <event>
  6     66 0.93819742E-06 0.80067001E+02 0.78161638E-02 0.11712237E+00
       -3 -1    0    0    0  501 0.00000000E+00 0.00000000E+00 0.77220116E+03 0.77220116E+03 0.00000000E+00 0.0000E+00 0.9000E+01
       22 -1    0    0    0    0 0.00000000E+00 0.00000000E+00 -.13288349E+02 0.13288349E+02 0.00000000E+00 0.0000E+00 0.9000E+01
       24  2    1    2    0    0 0.79796657E+02 -.65740545E+01 0.34666547E+03 0.36553880E+03 0.83850727E+02 0.0000E+00 0.0000E+00
  9900012  1    3    3    0    0 0.25320054E+02 -.10411110E+02 0.22620591E+03 0.23327797E+03 0.50000000E+02 0.0000E+00 0.9000E+01
      -11  1    3    3    0    0 0.54476602E+02 0.38370553E+01 0.12045955E+03 0.13226083E+03 0.00000000E+00 0.0000E+00 0.9000E+01
       -4  1    1    2    0  501 -.79796657E+02 0.65740545E+01 0.41224734E+03 0.41995071E+03 0.00000000E+00 0.0000E+00 0.9000E+01
#aMCatNLO 1  0  0  5  1 0.49268506D+00 0.00000000D+00  -5  6  0 0.00000000D+00 0.00000000D+00 0.00000000D+00 0.00000000D+00 0.00000000D+00
  <mgrwgt>
 0.1576782833D-04    7    2    0
 0.101297968912151D+03 0.000000000000000D+00 0.000000000000000D+00 0.101297968912151D+03
 0.101297968912151D+03 -.000000000000000D+00 -.000000000000000D+00 -.101297968912151D+03
 0.570931144818407D+02 0.253200544486559D+02 -.104111098072398D+02 0.318235078758862D+01
 0.615569900790516D+02 0.544766021013000D+02 0.383705529076722D+01 -.284049266463529D+02
 0.839458332634104D+02 -.797966565499559D+02 0.657405451647259D+01 0.252225758587643D+02
 0.000000000000000D+00 0.000000000000000D+00 0.000000000000000D+00 0.000000000000000D+00
 0.101297968912151D+03 0.000000000000000D+00 0.000000000000000D+00 0.101297968912151D+03
 0.101297968912151D+03 -.000000000000000D+00 -.000000000000000D+00 -.101297968912151D+03
 0.570915585315682D+02 0.253165251242047D+02 -.104108190435368D+02 0.318346635630478D+01
 0.615530871008720D+02 0.544727969022823D+02 0.383736878242050D+01 -.284037238776527D+02
 0.734163362352000D+02 -.696480739671706D+02 0.565002338951696D+01 0.225206894779308D+02
 0.105349559566625D+02 -.101412480593164D+02 0.923426871599308D+00 0.269956804341714D+01
0.552685338071D-07 0.000000000000D+00 0.000000000000D+00 0.376851411003D-07 0.000000000000D+00  6 -3 22 9900012 -11 -4 21 0 0.11880018D+00 0.20443614D-02 0.91855855D+04 0.91855855D+04 0.91855855D+04 0.12131731D+01  1  2  2  2  6  5       -4 0.850349523443D-06 0.100000000000D+01
-.148741184936D-08 0.000000000000D+00 -.106122861179D-09 0.376851411003D-07 0.000000000000D+00  6 -3 22 9900012 -11 -4 21 2 0.11880018D+00 0.20443614D-02 0.91855855D+04 0.91855855D+04 0.91855855D+04 0.12131731D+01  1  2  3  2  6  5       -4 -.336818786413D-07 0.100000000000D+01
-.623135068941D-08 0.000000000000D+00 0.000000000000D+00 0.376851411003D-07 0.000000000000D+00  6 -3 22 9900012 -11 -4 21 2 0.11880018D+00 0.20443614D-02 0.91855855D+04 0.91855855D+04 0.91855855D+04 0.12131731D+01  1  2 15  2  6  5       -4 -.141106579044D-06 0.100000000000D+01
-.434145070065D-04 0.000000000000D+00 0.000000000000D+00 0.376851411003D-07 0.000000000000D+00  6 -3 22 9900012 -11 -4 21 2 0.11880018D+00 0.20443614D-02 0.91855855D+04 0.91855855D+04 0.91855855D+04 0.12131731D+01  1  2  4  2  6  5       -4 -.983105087469D-03 0.100000000000D+01
-.410817629411D-04 0.000000000000D+00 0.000000000000D+00 0.376851411003D-07 0.000000000000D+00  6 -3 22 9900012 -11 -4 21 2 0.11880018D+00 0.20443614D-02 0.91855855D+04 0.91855855D+04 0.91855855D+04 0.12131731D+01  1  2  5  2  6  5       -4 -.930280980583D-03 0.100000000000D+01
0.465580254996D-04 0.000000000000D+00 -.000000000000D+00 0.376851411003D-07 0.000000000000D+00  6 -3 22 9900012 -11 -4 21 2 0.11880018D+00 0.20443614D-02 0.91855855D+04 0.91855855D+04 0.91855855D+04 0.12131731D+01  1  2  6  2  6  5       -4 0.105428887455D-02 0.100000000000D+01
0.386047459234D-04 0.000000000000D+00 0.000000000000D+00 0.376851411003D-07 0.883595160652D-06  6 -3 22 9900012 -11 -4 21 2 0.11880018D+00 0.20443614D-02 0.91844046D+04 0.91844046D+04 0.91844046D+04 0.12131789D+01  1  2 11  2  6  5       -4 0.874189460767D-03 0.100000000000D+01
  </mgrwgt>
  </event>
  <event>
  6     66 0.93819742E-06 0.38794854E+02 0.78161638E-02 0.12479375E+00
       -1 -1    0    0    0  501 0.00000000E+00 0.00000000E+00 0.30864068E+01 0.30864068E+01 0.00000000E+00 0.0000E+00 0.9000E+01
       22 -1    0    0    0    0 0.00000000E+00 0.00000000E+00 -.14760950E+04 0.14760950E+04 0.00000000E+00 0.0000E+00 0.9000E+01
       24  2    1    2    0    0 -.24024972E+02 -.38380785E+02 -.10969308E+04 0.11003876E+04 0.74466660E+02 0.0000E+00 0.0000E+00
  9900012  1    3    3    0    0 -.34647241E+02 -.27371950E+02 -.70242382E+03 0.70558407E+03 0.50000000E+02 0.0000E+00 0.9000E+01
      -11  1    3    3    0    0 0.10622269E+02 -.11008834E+02 -.39450700E+03 0.39480350E+03 0.00000000E+00 0.0000E+00 0.9000E+01
       -2  1    1    2    0  501 0.24024972E+02 0.38380785E+02 -.37607781E+03 0.37879388E+03 0.00000000E+00 0.0000E+00 0.9000E+01
#aMCatNLO 1  0  0  1  5 0.27515523D+02 0.00000000D+00  -5  6  0 0.00000000D+00 0.00000000D+00 0.00000000D+00 0.00000000D+00 0.00000000D+00
  <mgrwgt>
 0.6320598402D-04    9    4    0
 0.674968871238916D+02 0.000000000000000D+00 0.000000000000000D+00 0.674968871238916D+02
 0.674968871238916D+02 0.000000000000000D+00 0.000000000000000D+00 -.674968871238916D+02
 0.667476146820170D+02 -.346472409953027D+02 -.273719504224869D+02 0.236412504350965D+01
 0.212883066755760D+02 0.106222686110040D+02 -.110088344893918D+02 -.148042214876106D+02
 0.469578528901902D+02 0.240249723842988D+02 0.383807849118786D+02 0.124400964441010D+02
 0.000000000000000D+00 0.000000000000000D+00 -.000000000000000D+00 0.000000000000000D+00
 0.794971579758925D+02 0.000000000000000D+00 0.000000000000000D+00 0.794971579758925D+02
 0.774207862433438D+02 0.000000000000000D+00 0.000000000000000D+00 -.774207862433438D+02
 0.721738943955676D+02 -.449585475347759D+02 -.261191682211455D+02 0.236412504350965D+01
 0.197422816173722D+02 0.757681527413282D+01 -.106388241787834D+02 -.148042214876106D+02
 0.445954549456728D+02 0.172295220032414D+02 0.392064047549991D+02 0.124400964441010D+02
 0.204063132606238D+02 0.201522102574016D+02 -.244841235507016D+01 0.207637173254865D+01
 0.674968871238916D+02 0.000000000000000D+00 0.000000000000000D+00 0.674968871238916D+02
 0.674968871238916D+02 0.000000000000000D+00 0.000000000000000D+00 -.674968871238916D+02
 0.667476146820170D+02 -.346472409953027D+02 -.273719504224869D+02 0.236412504350965D+01
 0.212883066755760D+02 0.106222686110040D+02 -.110088344893918D+02 -.148042214876106D+02
 0.000000000000000D+00 0.000000000000000D+00 -.000000000000000D+00 0.000000000000000D+00
 0.469578528901902D+02 0.240249723842988D+02 0.383807849118786D+02 0.124400964441010D+02
 0.794971579758925D+02 0.000000000000000D+00 0.000000000000000D+00 0.794971579758925D+02
 0.774207862433438D+02 0.000000000000000D+00 0.000000000000000D+00 -.774207862433438D+02
 0.721738943955676D+02 -.449585475347759D+02 -.261191682211455D+02 0.236412504350965D+01
 0.197422816173722D+02 0.757681527413282D+01 -.106388241787834D+02 -.148042214876106D+02
 0.204063132606238D+02 0.201522102574016D+02 -.244841235507016D+01 0.207637173254865D+01
 0.445954549456728D+02 0.172295220032414D+02 0.392064047549991D+02 0.124400964441010D+02
0.605915960048D-06 0.000000000000D+00 0.000000000000D+00 0.479647654673D-08 0.000000000000D+00  6 -1 22 9900012 -11 -2 21 0 0.47483182D-03 0.22709154D+00 0.40502875D+04 0.40502875D+04 0.40502875D+04 0.12522797D+01  1  2  2  1  6  1       -1 0.440853458772D-04 0.100000000000D+01
-.135364128150D-07 0.000000000000D+00 -.116343841396D-08 0.479647654673D-08 0.000000000000D+00  6 -1 22 9900012 -11 -2 21 2 0.47483182D-03 0.22709154D+00 0.40502875D+04 0.40502875D+04 0.40502875D+04 0.12522797D+01  1  2  3  1  6  1       -1 -.154450088457D-05 0.100000000000D+01
-.676740212908D-07 0.000000000000D+00 0.000000000000D+00 0.479647654673D-08 0.000000000000D+00  6 -1 22 9900012 -11 -2 21 2 0.47483182D-03 0.22709154D+00 0.40502875D+04 0.40502875D+04 0.40502875D+04 0.12522797D+01  1  2 15  1  6  1       -1 -.772158674345D-05 0.100000000000D+01
0.252969421488D-06 0.000000000000D+00 0.000000000000D+00 0.479647654673D-08 0.000000000000D+00  6 -1 22 9900012 -11 -2 21 2 0.64147761D-03 0.22709154D+00 0.54998458D+04 0.54998458D+04 0.54998458D+04 0.12372139D+01  1  2 12  1  6  1       -1 0.194570754764D-04 0.100000000000D+01
-.859086321593D-07 0.000000000000D+00 0.000000000000D+00 0.479647654673D-08 0.000000000000D+00  6 -1 22 9900012 -11 -2 21 2 0.47483182D-03 0.22709154D+00 0.40502875D+04 0.40502875D+04 0.40502875D+04 0.12522797D+01  1  2  4  1  6  1       -1 -.980215070091D-05 0.100000000000D+01
-.723458882903D-06 0.000000000000D+00 -.286111794165D-06 0.479647654673D-08 0.000000000000D+00  6 -1 22 9900012 -11 -2 21 2 0.65184941D-03 0.22709154D+00 0.40502875D+04 0.40502875D+04 0.40502875D+04 0.12522797D+01  1  2  5  1  6  1       -1 -.536729071570D-04 0.100000000000D+01
0.788010697645D-06 0.000000000000D+00 0.272326813119D-06 0.479647654673D-08 0.000000000000D+00  6 -1 22 9900012 -11 -2 21 2 0.47483182D-03 0.22709154D+00 0.40502875D+04 0.40502875D+04 0.40502875D+04 0.12522797D+01  1  2  6  1  6  1       -1 0.899117983617D-04 0.100000000000D+01
0.979775096928D-08 0.000000000000D+00 0.000000000000D+00 0.479647654673D-08 0.000000000000D+00  6 21 22 9900012 -11 1 -2 2 0.64147761D-03 0.22709154D+00 0.54998458D+04 0.54998458D+04 0.54998458D+04 0.12372139D+01  3  4 12  3  5  1       -1 0.150113506726D-04 0.100000000000D+01
-.221134309816D-07 0.000000000000D+00 -.115045483528D-07 0.479647654673D-08 0.000000000000D+00  6 21 22 9900012 -11 1 -2 2 0.65184941D-03 0.22709154D+00 0.40502875D+04 0.40502875D+04 0.40502875D+04 0.12522797D+01  3  4  5  3  5  1       -1 -.325184408806D-04 0.100000000000D+01
  </mgrwgt>
  </event>
  <event>
  7     66 -.93819742E-06 0.11993745E+02 0.78161638E-02 0.13016466E+00
       -3 -1    0    0    0  501 0.00000000E+00 0.00000000E+00 0.21897296E+03 0.21897296E+03 0.00000000E+00 0.0000E+00 0.9000E+01
       22 -1    0    0    0    0 0.00000000E+00 0.00000000E+00 -.11539762E+03 0.11539762E+03 0.00000000E+00 0.0000E+00 0.9000E+01
       24  2    1    2    0    0 0.16857361E+02 0.30157364E+01 -.98659654E+02 0.13057224E+03 0.83798068E+02 0.0000E+00 0.0000E+00
  9900012  1    3    3    0    0 -.86576323E+01 0.27938183E+01 -.90482796E+02 0.10377811E+03 0.50000000E+02 0.0000E+00 0.9000E+01
      -11  1    3    3    0    0 0.25514993E+02 0.22191811E+00 -.81768586E+01 0.26794125E+02 0.00000000E+00 0.0000E+00 0.9000E+01
       -4  1    1    2    0  502 -.12846466E+02 -.84118931E+01 0.17759136E+03 0.17825398E+03 0.00000000E+00 0.0000E+00 0.9000E+01
       21  1    1    2  502  501 -.40108954E+01 0.53961567E+01 0.24643632E+02 0.25544361E+02 0.00000000E+00 0.0000E+00 0.9000E+01
#aMCatNLO 2  0  0  5  1 0.61510009D+01 0.00000000D+00  -5  6  0 0.00000000D+00 0.00000000D+00 0.00000000D+00 0.00000000D+00 0.00000000D+00
  <mgrwgt>
 -.9692616507D-04    2    2    0
 0.158962129440361D+03 0.000000000000000D+00 0.000000000000000D+00 0.158962129440361D+03
 0.158962129440361D+03 -.000000000000000D+00 -.000000000000000D+00 -.158962129440361D+03
 0.139088250696470D+03 -.859981160441803D+01 0.280416228274876D+01 -.129474790581273D+03
 0.309175723541915D+02 0.255278522048372D+02 0.224218546327999D+00 -.174406068738487D+02
 0.147918435830061D+03 -.169280406004192D+02 -.302838082907676D+01 0.146915397455122D+03
 0.000000000000000D+00 -.000000000000000D+00 0.000000000000000D+00 0.000000000000000D+00
 0.158962129440361D+03 0.000000000000000D+00 0.000000000000000D+00 0.158962129440361D+03
 0.158962129440361D+03 -.000000000000000D+00 -.000000000000000D+00 -.158962129440361D+03
 0.138624631332935D+03 -.865763227654170D+01 0.279381832037787D+01 -.128972975443498D+03
 0.308441012768658D+02 0.255149932353334D+02 0.221918111348770D+00 -.173290062072324D+02
 0.129618302381758D+03 -.128464655354859D+02 -.841189310124606D+01 0.128705527037605D+03
 0.188372238891631D+02 -.401089542330584D+01 0.539615666951943D+01 0.175964546131248D+02
-.595110110602D-05 0.000000000000D+00 0.000000000000D+00 0.129256810649D-05 0.000000000000D+00  6 -3 22 9900012 -11 -4 21 2 0.33688147D-01 0.17753480D-01 0.24214200D+04 0.24214200D+04 0.24214200D+04 0.12789438D+01  1  2 13  2  6  5       -4 -.102655403854D-03 0.100000000000D+01
0.332133311894D-06 0.000000000000D+00 0.000000000000D+00 0.129256810649D-05 0.230215306716D-07  6 -3 22 9900012 -11 -4 21 2 0.33688147D-01 0.17753480D-01 0.24214200D+04 0.24214200D+04 0.24214200D+04 0.12789438D+01  1  2  1  2  6  5       -4 0.572923878432D-05 0.100000000000D+01
  </mgrwgt>
  </event>
  <event>
  6     66 0.93819742E-06 0.62629468E+02 0.78161638E-02 0.11202059E+00
       -1 -1    0    0    0  501 0.00000000E+00 0.00000000E+00 0.15724177E+04 0.15724177E+04 0.00000000E+00 0.0000E+00 0.9000E+01
       22 -1    0    0    0    0 0.00000000E+00 0.00000000E+00 -.97392607E+02 0.97392607E+02 0.00000000E+00 0.0000E+00 0.9000E+01
       24  2    1    2    0    0 0.10646534E+03 -.36131313E+02 -.46091098E+02 0.14454482E+03 0.78284570E+02 0.0000E+00 0.0000E+00
  9900012  1    3    3    0    0 0.88656021E+02 -.46714441E+02 -.24535076E+02 0.11464772E+03 0.50000000E+02 0.0000E+00 0.9000E+01
      -11  1    3    3    0    0 0.17809323E+02 0.10583128E+02 -.21556022E+02 0.29897101E+02 0.00000000E+00 0.0000E+00 0.9000E+01
       -2  1    1    2    0  501 -.10646534E+03 0.36131313E+02 0.15211162E+04 0.15252655E+04 0.00000000E+00 0.0000E+00 0.9000E+01
#aMCatNLO 1  0  0  1  5 0.13671735D+02 0.00000000D+00  -5  6  0 0.00000000D+00 0.00000000D+00 0.00000000D+00 0.00000000D+00 0.00000000D+00
  <mgrwgt>
 0.9965392427D-04    9    4    0
 0.391333436381984D+03 0.000000000000000D+00 0.000000000000000D+00 0.391333436381984D+03
 0.391333436381984D+03 0.000000000000000D+00 0.000000000000000D+00 -.391333436381984D+03
 0.290838669737462D+03 0.886560209534021D+02 -.467144409463505D+02 -.268412001912053D+03
 0.104409889522756D+03 0.178093229231519D+02 0.105831279891608D+02 -.102334014135761D+03
 0.387418313503749D+03 -.106465343876554D+03 0.361313129571897D+02 0.370746016047814D+03
 0.000000000000000D+00 0.000000000000000D+00 -.000000000000000D+00 0.000000000000000D+00
 0.422977262629855D+03 0.000000000000000D+00 0.000000000000000D+00 0.422977262629855D+03
 0.392801862691581D+03 0.000000000000000D+00 0.000000000000000D+00 -.392801862691581D+03
 0.290055475054798D+03 0.885623096512593D+02 -.417599466961232D+02 -.268412001912053D+03
 0.104599882091069D+03 0.177756049419430D+02 0.123657896341191D+02 -.102334014135761D+03
 0.388125435245501D+03 -.106590456541599D+03 0.427459897936244D+02 0.370746016047814D+03
 0.329983329300683D+02 0.252541948396754D+00 -.133518327316203D+02 0.301753999382736D+02
 0.391333436381984D+03 0.000000000000000D+00 0.000000000000000D+00 0.391333436381984D+03
 0.391333436381984D+03 0.000000000000000D+00 0.000000000000000D+00 -.391333436381984D+03
 0.290838669737462D+03 0.886560209534021D+02 -.467144409463505D+02 -.268412001912053D+03
 0.104409889522756D+03 0.178093229231519D+02 0.105831279891608D+02 -.102334014135761D+03
 0.000000000000000D+00 0.000000000000000D+00 -.000000000000000D+00 0.000000000000000D+00
 0.387418313503749D+03 -.106465343876554D+03 0.361313129571897D+02 0.370746016047814D+03
 0.422977262629855D+03 0.000000000000000D+00 0.000000000000000D+00 0.422977262629855D+03
 0.392801862691581D+03 0.000000000000000D+00 0.000000000000000D+00 -.392801862691581D+03
 0.290055475054798D+03 0.885623096512593D+02 -.417599466961232D+02 -.268412001912053D+03
 0.104599882091069D+03 0.177756049419430D+02 0.123657896341191D+02 -.102334014135761D+03
 0.329983329300683D+02 0.252541948396754D+00 -.133518327316203D+02 0.301753999382736D+02
 0.388125435245501D+03 -.106590456541599D+03 0.427459897936244D+02 0.370746016047814D+03
0.279738325116D-04 0.000000000000D+00 0.000000000000D+00 0.212003593252D-04 0.000000000000D+00  6 -1 22 9900012 -11 -2 21 0 0.24191042D+00 0.14983478D-01 0.15023092D+05 0.15023092D+05 0.15023092D+05 0.11914232D+01  1  2  2  1  6  1       -1 0.612371200100D-05 0.100000000000D+01
0.320129908336D-06 0.000000000000D+00 -.537134412618D-07 0.212003593252D-04 0.000000000000D+00  6 -1 22 9900012 -11 -2 21 2 0.24191042D+00 0.14983478D-01 0.15023092D+05 0.15023092D+05 0.15023092D+05 0.11914232D+01  1  2  3  1  6  1       -1 0.994766449232D-07 0.100000000000D+01
-.362422148346D-05 0.000000000000D+00 0.000000000000D+00 0.212003593252D-04 0.000000000000D+00  6 -1 22 9900012 -11 -2 21 2 0.24191042D+00 0.14983478D-01 0.15023092D+05 0.15023092D+05 0.15023092D+05 0.11914232D+01  1  2 15  1  6  1       -1 -.112618466518D-05 0.100000000000D+01
0.345159290807D-03 0.000000000000D+00 0.000000000000D+00 0.212003593252D-04 0.000000000000D+00  6 -1 22 9900012 -11 -2 21 2 0.26245280D+00 0.14983478D-01 0.16872961D+05 0.16872961D+05 0.16872961D+05 0.11864621D+01  1  2 12  1  6  1       -1 0.729600642159D-04 0.100000000000D+01
-.616470730617D-04 0.000000000000D+00 0.000000000000D+00 0.212003593252D-04 0.000000000000D+00  6 -1 22 9900012 -11 -2 21 2 0.24191042D+00 0.14983478D-01 0.15023092D+05 0.15023092D+05 0.15023092D+05 0.11914232D+01  1  2  4  1  6  1       -1 -.191561108095D-04 0.100000000000D+01
-.441659005789D-03 0.000000000000D+00 -.341336394760D-04 0.212003593252D-04 0.000000000000D+00  6 -1 22 9900012 -11 -2 21 2 0.26183703D+00 0.14983478D-01 0.15023092D+05 0.15023092D+05 0.15023092D+05 0.11914232D+01  1  2  5  1  6  1       -1 -.952919432096D-04 0.100000000000D+01
0.443078724773D-03 0.000000000000D+00 0.340269860337D-04 0.212003593252D-04 0.000000000000D+00  6 -1 22 9900012 -11 -2 21 2 0.24191042D+00 0.14983478D-01 0.15023092D+05 0.15023092D+05 0.15023092D+05 0.11914232D+01  1  2  6  1  6  1       -1 0.137681559359D-03 0.100000000000D+01
0.504832849768D-05 0.000000000000D+00 0.000000000000D+00 0.212003593252D-04 0.000000000000D+00  6 21 22 9900012 -11 1 -2 2 0.26245280D+00 0.14983478D-01 0.16872961D+05 0.16872961D+05 0.16872961D+05 0.11864621D+01  3  4 12  3  5  1       -1 0.974734128153D-05 0.100000000000D+01
-.577403637411D-05 0.000000000000D+00 -.451634898519D-06 0.212003593252D-04 0.000000000000D+00  6 21 22 9900012 -11 1 -2 2 0.26183703D+00 0.14983478D-01 0.15023092D+05 0.15023092D+05 0.15023092D+05 0.11914232D+01  3  4  5  3  5  1       -1 -.113839905506D-04 0.100000000000D+01
  </mgrwgt>
  </event>
  <event>
  6     66 0.93819742E-06 0.49760914E+02 0.78161638E-02 0.11611701E+00
       -3 -1    0    0    0  501 0.00000000E+00 0.00000000E+00 0.73387185E+02 0.73387185E+02 0.00000000E+00 0.0000E+00 0.9000E+01
       22 -1    0    0    0    0 0.00000000E+00 0.00000000E+00 -.13258110E+03 0.13258110E+03 0.00000000E+00 0.0000E+00 0.9000E+01
       24  2    1    2    0    0 -.26851179E+02 -.41894663E+02 -.10332493E+03 0.13945743E+03 0.79348501E+02 0.0000E+00 0.0000E+00
  9900012  1    3    3    0    0 -.25285159E+02 -.14895437E+02 -.39539314E+02 0.70175285E+02 0.50000000E+02 0.0000E+00 0.9000E+01
      -11  1    3    3    0    0 -.15660201E+01 -.26999226E+02 -.63785613E+02 0.69282141E+02 0.00000000E+00 0.0000E+00 0.9000E+01
       -4  1    1    2    0  501 0.26851179E+02 0.41894663E+02 0.44131010E+02 0.66510861E+02 0.00000000E+00 0.0000E+00 0.9000E+01
#aMCatNLO 1  0  0  1  5 0.81241319D+01 0.00000000D+00  -5  6  0 0.00000000D+00 0.00000000D+00 0.00000000D+00 0.00000000D+00 0.00000000D+00
  <mgrwgt>
 0.4564542522D-04    7    4    0
 0.986395146806607D+02 0.000000000000000D+00 0.000000000000000D+00 0.986395146806607D+02
 0.986395146806607D+02 0.000000000000000D+00 0.000000000000000D+00 -.986395146806607D+02
 0.614023519659463D+02 -.252851590211384D+02 -.148954366804067D+02 -.202246267289580D+02
 0.531947244741472D+02 -.156602010849766D+01 -.269992260059876D+02 -.458068563424497D+02
 0.826819529212280D+02 0.268511791296360D+02 0.418946626863943D+02 0.660314830714077D+02
 0.000000000000000D+00 -.000000000000000D+00 -.000000000000000D+00 0.000000000000000D+00
 0.148497471072703D+03 0.000000000000000D+00 0.000000000000000D+00 0.148497471072703D+03
 0.118684615997842D+03 0.000000000000000D+00 0.000000000000000D+00 -.118684615997842D+03
 0.558980942809541D+02 -.977747149964812D+01 -.109527379677558D+02 -.202246267289580D+02
 0.529406136511399D+02 0.124655860046646D+02 -.234318085375788D+02 -.458068563424497D+02
 0.959214201683221D+02 0.504634107005801D+02 0.478978733448864D+02 0.660314830714077D+02
 0.624219589701282D+02 -.531515252055965D+02 -.135133268395518D+02 0.298128550748608D+02
 0.986395146806607D+02 0.000000000000000D+00 0.000000000000000D+00 0.986395146806607D+02
 0.986395146806607D+02 0.000000000000000D+00 0.000000000000000D+00 -.986395146806607D+02
 0.614023519659463D+02 -.252851590211384D+02 -.148954366804067D+02 -.202246267289580D+02
 0.531947244741472D+02 -.156602010849766D+01 -.269992260059876D+02 -.458068563424497D+02
 0.000000000000000D+00 -.000000000000000D+00 -.000000000000000D+00 0.000000000000000D+00
 0.826819529212280D+02 0.268511791296360D+02 0.418946626863943D+02 0.660314830714077D+02
 0.148497471072703D+03 0.000000000000000D+00 0.000000000000000D+00 0.148497471072703D+03
 0.118684615997842D+03 0.000000000000000D+00 0.000000000000000D+00 -.118684615997842D+03
 0.558980942809541D+02 -.977747149964812D+01 -.109527379677558D+02 -.202246267289580D+02
 0.529406136511399D+02 0.124655860046646D+02 -.234318085375788D+02 -.458068563424497D+02
 0.624219589701282D+02 -.531515252055965D+02 -.135133268395518D+02 0.298128550748608D+02
 0.959214201683221D+02 0.504634107005801D+02 0.478978733448864D+02 0.660314830714077D+02
0.615225410973D-06 0.000000000000D+00 0.000000000000D+00 0.996276481263D-06 0.000000000000D+00  6 -3 22 9900012 -11 -4 21 0 0.11290336D-01 0.20397093D-01 0.45415125D+04 0.45415125D+04 0.45415125D+04 0.12465777D+01  1  2  2  1  6  1       -3 0.367310549979D-04 0.100000000000D+01
0.551219287964D-08 0.000000000000D+00 -.118131378535D-08 0.996276481263D-06 0.000000000000D+00  6 -3 22 9900012 -11 -4 21 2 0.11290336D-01 0.20397093D-01 0.45415125D+04 0.45415125D+04 0.45415125D+04 0.12465777D+01  1  2  3  1  6  1       -3 0.511401770068D-06 0.100000000000D+01
-.799381246049D-07 0.000000000000D+00 0.000000000000D+00 0.996276481263D-06 0.000000000000D+00  6 -3 22 9900012 -11 -4 21 2 0.11290336D-01 0.20397093D-01 0.45415125D+04 0.45415125D+04 0.45415125D+04 0.12465777D+01  1  2 15  1  6  1       -3 -.741637662389D-05 0.100000000000D+01
-.324878039986D-07 0.000000000000D+00 0.000000000000D+00 0.996276481263D-06 0.000000000000D+00  6 -3 22 9900012 -11 -4 21 2 0.11290336D-01 0.20397093D-01 0.45415125D+04 0.45415125D+04 0.45415125D+04 0.12465777D+01  1  2  4  1  6  1       -3 -.301410361236D-05 0.100000000000D+01
-.210731157184D-06 0.000000000000D+00 -.197204614622D-06 0.996276481263D-06 0.000000000000D+00  6 -3 22 9900012 -11 -4 21 2 0.20270179D-01 0.20397093D-01 0.45415125D+04 0.45415125D+04 0.45415125D+04 0.12465777D+01  1  2  5  1  6  1       -3 -.738955141840D-05 0.100000000000D+01
0.302399442031D-06 0.000000000000D+00 0.167666120786D-06 0.996276481263D-06 0.000000000000D+00  6 -3 22 9900012 -11 -4 21 2 0.11290336D-01 0.20397093D-01 0.45415125D+04 0.45415125D+04 0.45415125D+04 0.12465777D+01  1  2  6  1  6  1       -3 0.280555512659D-04 0.100000000000D+01
-.309048448700D-08 0.000000000000D+00 -.126644027053D-07 0.996276481263D-06 0.000000000000D+00  6 21 22 9900012 -11 3 -4 2 0.20270179D-01 0.20397093D-01 0.45415125D+04 0.45415125D+04 0.45415125D+04 0.12465777D+01  3  4  5  3  5  1       -3 -.183255116225D-05 0.100000000000D+01
  </mgrwgt>
  </event>
  <event>
  6     66 0.93819742E-06 0.22017769E+02 0.78161638E-02 0.12329365E+00
       -3 -1    0    0    0  501 0.00000000E+00 0.00000000E+00 0.40838952E+02 0.40838952E+02 0.00000000E+00 0.0000E+00 0.9000E+01
       22 -1    0    0    0    0 -.00000000E+00 -.00000000E+00 -.12233589E+03 0.12233589E+03 0.00000000E+00 0.0000E+00 0.9000E+01
       24  2    1    2    0    0 -.35702401E+02 0.29872223E+02 -.70061229E+02 0.11523961E+03 0.78769161E+02 0.0000E+00 0.0000E+00
  9900012  1    3    3    0    0 -.85620034E+00 0.11942187E+02 -.47629824E+02 0.70085298E+02 0.50000000E+02 0.0000E+00 0.9000E+01
      -11  1    3    3    0    0 -.34846200E+02 0.17930037E+02 -.22431405E+02 0.45154311E+02 0.00000000E+00 0.0000E+00 0.9000E+01
       -4  1    1    2    0  501 0.35702401E+02 -.29872223E+02 -.11435711E+02 0.47935234E+02 0.00000000E+00 0.0000E+00 0.9000E+01
#aMCatNLO 1  0  0  5  1 0.20658891D+01 0.00000000D+00  -5  6  0 0.00000000D+00 0.00000000D+00 0.00000000D+00 0.00000000D+00 0.00000000D+00
  <mgrwgt>
 0.1991183263D-03    5    2    0
 0.706828803757573D+02 0.000000000000000D+00 0.000000000000000D+00 0.706828803757573D+02
 0.706828803757573D+02 -.000000000000000D+00 -.000000000000000D+00 -.706828803757573D+02
 0.534391964713284D+02 -.856200343840360D+00 0.119421865345589D+02 -.145739089212963D+02
 0.391888163323978D+02 -.348462004926163D+02 0.179300368783486D+02 0.139335221166785D+00
 0.487377479477884D+02 0.357024008364567D+02 -.298722234129075D+02 0.144345737001295D+02
 0.000000000000000D+00 0.000000000000000D+00 0.000000000000000D+00 -.000000000000000D+00
 0.706828803757573D+02 0.000000000000000D+00 0.000000000000000D+00 0.706828803757573D+02
 0.706828803757573D+02 -.000000000000000D+00 -.000000000000000D+00 -.706828803757573D+02
 0.532754716843538D+02 -.318249915991732D+00 0.114920830404165D+02 -.143564141613958D+02
 0.386905003459216D+02 -.344536095540722D+02 0.176015557691987D+02 0.298060760728571D+00
 0.115329248946713D+01 -.935916450083989D+00 0.401545464356223D+00 0.541207173620132D+00
 0.482464962317721D+02 0.357077759201480D+02 -.294951842739714D+02 0.135171462270471D+02
0.122070368674D-05 0.000000000000D+00 0.000000000000D+00 0.136619359160D-06 0.000000000000D+00  6 -3 22 9900012 -11 -4 21 0 0.62829156D-02 0.18820907D-01 0.47027531D+04 0.47027531D+04 0.47027531D+04 0.12448549D+01  1  2  2  2  6  5       -4 0.206085019036D-03 0.100000000000D+01
-.208392805397D-07 0.000000000000D+00 -.234391178788D-08 0.136619359160D-06 0.000000000000D+00  6 -3 22 9900012 -11 -4 21 2 0.62829156D-02 0.18820907D-01 0.47027531D+04 0.47027531D+04 0.47027531D+04 0.12448549D+01  1  2  3  2  6  5       -4 -.545200646258D-05 0.100000000000D+01
-.139191035322D-06 0.000000000000D+00 0.000000000000D+00 0.136619359160D-06 0.000000000000D+00  6 -3 22 9900012 -11 -4 21 2 0.62829156D-02 0.18820907D-01 0.47027531D+04 0.47027531D+04 0.47027531D+04 0.12448549D+01  1  2 15  2  6  5       -4 -.364153850063D-04 0.100000000000D+01
0.197189463434D-09 0.000000000000D+00 0.000000000000D+00 0.136619359160D-06 0.000000000000D+00  6 -3 22 9900012 -11 -4 21 2 0.62829156D-02 0.18820907D-01 0.47146562D+04 0.47146562D+04 0.47146562D+04 0.12447304D+01  1  2 12  2  6  5       -4 0.515943207798D-07 0.100000000000D+01
0.133190554580D-06 0.000000000000D+00 0.000000000000D+00 0.136619359160D-06 0.314681113639D-08  6 -3 22 9900012 -11 -4 21 2 0.62829156D-02 0.18820907D-01 0.47146562D+04 0.47146562D+04 0.47146562D+04 0.12447304D+01  1  2 11  2  6  5       -4 0.348491044001D-04 0.100000000000D+01
  </mgrwgt>
  </event>
  <event>
  6     66 0.93819742E-06 0.82585251E+02 0.78161638E-02 0.11070243E+00
       -1 -1    0    0    0  501 0.00000000E+00 0.00000000E+00 0.16490502E+03 0.16490502E+03 0.00000000E+00 0.0000E+00 0.9000E+01
       22 -1    0    0    0    0 0.00000000E+00 0.00000000E+00 -.12471828E+03 0.12471828E+03 0.00000000E+00 0.0000E+00 0.9000E+01
       24  2    1    2    0    0 -.98487903E+02 0.87076537E+02 0.10266880E+02 0.15479976E+03 0.81088641E+02 0.0000E+00 0.0000E+00
  9900012  1    3    3    0    0 -.35121550E+02 0.39929526E+02 0.18754189E+02 0.75363187E+02 0.50000000E+02 0.0000E+00 0.9000E+01
      -11  1    3    3    0    0 -.63366353E+02 0.47147011E+02 -.84873087E+01 0.79436577E+02 0.00000000E+00 0.0000E+00 0.9000E+01
       -2  1    1    2    0  501 0.98487903E+02 -.87076537E+02 0.29919859E+02 0.13482355E+03 0.00000000E+00 0.0000E+00 0.9000E+01
#aMCatNLO 1  0  0  5  1 0.60126187D+01 0.00000000D+00  -5  6  0 0.00000000D+00 0.00000000D+00 0.00000000D+00 0.00000000D+00 0.00000000D+00
  <mgrwgt>
 0.5196052027D-04    8    2    0
 0.143410849458429D+03 0.000000000000000D+00 0.000000000000000D+00 0.143410849458429D+03
 0.143410849458429D+03 -.000000000000000D+00 -.000000000000000D+00 -.143410849458429D+03
 0.734716583918537D+02 -.351215503718504D+02 0.399295261153866D+02 0.837819971876291D+01
 0.814016565304956D+02 -.633663526805228D+02 0.471470109321714D+02 -.197001115234939D+02
 0.131948383994509D+03 0.984879030523732D+02 -.870765370475580D+02 0.113219118047310D+02
 0.000000000000000D+00 0.000000000000000D+00 -.000000000000000D+00 0.000000000000000D+00
 0.143410849458429D+03 0.000000000000000D+00 0.000000000000000D+00 0.143410849458429D+03
 0.143410849458429D+03 -.000000000000000D+00 -.000000000000000D+00 -.143410849458429D+03
 0.732758704109081D+02 -.349141794053257D+02 0.397461823230066D+02 0.840203854283256D+01
 0.810989414469983D+02 -.631367208336470D+02 0.469439855310605D+02 -.196737136468277D+02
 0.112783658334921D+03 0.838723060141596D+02 -.737717267724324D+02 0.155987884237506D+02
 0.196632287240314D+02 0.141785942248131D+02 -.129184410816347D+02 -.432711331975537D+01
0.322178437802D-06 0.000000000000D+00 0.000000000000D+00 0.240149193340D-06 0.000000000000D+00  6 -1 22 9900012 -11 -2 21 0 0.25370004D-01 0.19187428D-01 0.20083993D+05 0.20083993D+05 0.20083993D+05 0.11791411D+01  1  2  2  2  6  5       -2 0.850756546290D-05 0.100000000000D+01
-.130881458731D-07 0.000000000000D+00 -.618625016346D-09 0.240149193340D-06 0.000000000000D+00  6 -1 22 9900012 -11 -2 21 2 0.25370004D-01 0.19187428D-01 0.20083993D+05 0.20083993D+05 0.20083993D+05 0.11791411D+01  1  2  3  2  6  5       -2 -.480527780545D-06 0.100000000000D+01
-.383864845111D-07 0.000000000000D+00 0.000000000000D+00 0.240149193340D-06 0.000000000000D+00  6 -1 22 9900012 -11 -2 21 2 0.25370004D-01 0.19187428D-01 0.20083993D+05 0.20083993D+05 0.20083993D+05 0.11791411D+01  1  2 15  2  6  5       -2 -.140934952772D-05 0.100000000000D+01
0.344798838685D-05 0.000000000000D+00 0.000000000000D+00 0.240149193340D-06 0.000000000000D+00  6 -1 22 9900012 -11 -2 21 2 0.25370004D-01 0.19187428D-01 0.19930376D+05 0.19930376D+05 0.19930376D+05 0.11794608D+01  1  2 12  2  6  5       -2 0.126593961682D-03 0.100000000000D+01
-.360889391116D-05 0.000000000000D+00 0.000000000000D+00 0.240149193340D-06 0.000000000000D+00  6 -1 22 9900012 -11 -2 21 2 0.25370004D-01 0.19187428D-01 0.20083993D+05 0.20083993D+05 0.20083993D+05 0.11791411D+01  1  2  4  2  6  5       -2 -.132499576194D-03 0.100000000000D+01
-.436996736304D-05 0.000000000000D+00 0.000000000000D+00 0.240149193340D-06 0.000000000000D+00  6 -1 22 9900012 -11 -2 21 2 0.25370004D-01 0.19187428D-01 0.20083993D+05 0.20083993D+05 0.20083993D+05 0.11791411D+01  1  2  5  2  6  5       -2 -.160442184735D-03 0.100000000000D+01
0.506908743170D-05 0.000000000000D+00 -.000000000000D+00 0.240149193340D-06 0.000000000000D+00  6 -1 22 9900012 -11 -2 21 2 0.25370004D-01 0.19187428D-01 0.20083993D+05 0.20083993D+05 0.20083993D+05 0.11791411D+01  1  2  6  2  6  5       -2 0.186110191356D-03 0.100000000000D+01
0.696724068869D-06 0.000000000000D+00 0.000000000000D+00 0.240149193340D-06 0.268481800105D-07  6 -1 22 9900012 -11 -2 21 2 0.25370004D-01 0.19187428D-01 0.19930376D+05 0.19930376D+05 0.19930376D+05 0.11794608D+01  1  2 11  2  6  5       -2 0.255804400077D-04 0.100000000000D+01
  </mgrwgt>
  </event>
  <event>
  7     66 -.93819742E-06 0.55499443E+02 0.78161638E-02 0.11264913E+00
       -1 -1    0    0    0  502 0.00000000E+00 0.00000000E+00 0.33470705E+03 0.33470705E+03 0.00000000E+00 0.0000E+00 0.9000E+01
       22 -1    0    0    0    0 0.00000000E+00 0.00000000E+00 -.86704721E+03 0.86704721E+03 0.00000000E+00 0.0000E+00 0.9000E+01
       24  2    1    2    0    0 0.10992121E+03 -.22083179E+02 -.83894641E+03 0.85030018E+03 0.81295625E+02 0.0000E+00 0.0000E+00
  9900012  1    3    3    0    0 0.36432622E+02 -.70110526E+01 -.32533963E+03 0.33124366E+03 0.50000000E+02 0.0000E+00 0.9000E+01
      -11  1    3    3    0    0 0.73488592E+02 -.15072126E+02 -.51360679E+03 0.51905652E+03 0.00000000E+00 0.0000E+00 0.9000E+01
       -2  1    1    2    0  501 -.73860998E+02 0.99316547E+01 0.30434231E+03 0.31333421E+03 0.00000000E+00 0.0000E+00 0.9000E+01
       21  1    1    2  501  502 -.36060216E+02 0.12151524E+02 0.22639430E+01 0.38119866E+02 0.00000000E+00 0.0000E+00 0.9000E+01
#aMCatNLO 2  0  0  1  5 0.44094198D+02 0.00000000D+00  -5  6  0 0.00000000D+00 0.00000000D+00 0.00000000D+00 0.00000000D+00 0.00000000D+00
  <mgrwgt>
 -.1500388081D-03    3    2    0
 0.516428951828860D+03 0.000000000000000D+00 0.000000000000000D+00 0.516428951828860D+03
 0.516428951828860D+03 0.000000000000000D+00 0.000000000000000D+00 -.516428951828860D+03
 0.203435200628254D+03 0.293112747500182D+02 -.461131035925424D+01 -.194949905986018D+03
 0.316193116137029D+03 0.624089764570233D+02 -.113385317707224D+02 -.309765466195500D+03
 0.513229586892438D+03 -.917202512070416D+02 0.159498421299766D+02 0.504715372181519D+03
 0.000000000000000D+00 -.000000000000000D+00 0.000000000000000D+00 0.000000000000000D+00
 0.549956601693995D+03 0.000000000000000D+00 0.000000000000000D+00 0.549956601693995D+03
 0.527690386646768D+03 0.000000000000000D+00 0.000000000000000D+00 -.527690386646768D+03
 0.204650816419603D+03 0.364326221825766D+02 -.701105257106118D+01 -.194949905986018D+03
 0.318719918158566D+03 0.734885923169036D+02 -.150721260267757D+02 -.309765466195500D+03
 0.510187898442023D+03 -.738609980663802D+02 0.993165469580532D+01 0.504715372181519D+03
 0.440883553205719D+02 -.360602164330999D+02 0.121515239020316D+02 0.222662150472268D+02
-.373214513263D-03 0.000000000000D+00 0.000000000000D+00 0.232815758641D-03 0.000000000000D+00  6 -1 22 9900012 -11 -2 21 2 0.52616275D-01 0.13054516D+00 0.15607263D+05 0.15607263D+05 0.15607263D+05 0.11897860D+01  1  2 13  1  6  1       -1 -.152971096290D-03 0.100000000000D+01
-.445267006275D-06 0.000000000000D+00 0.000000000000D+00 0.232815758641D-03 0.000000000000D+00  6 -1 22 9900012 -11 -2 21 2 0.48354140D-01 0.13054516D+00 0.11520661D+05 0.11520661D+05 0.11520661D+05 0.12030102D+01  1  2  8  1  6  1       -1 -.214244192728D-06 0.100000000000D+01
0.773355578646D-05 0.000000000000D+00 0.000000000000D+00 0.232815758641D-03 0.374479431407D-07  6 -1 22 9900012 -11 -2 21 2 0.51493392D-01 0.13339188D+00 0.15607263D+05 0.15607263D+05 0.15607263D+05 0.11897860D+01  1  2  1  1  6  1       -1 0.314653235795D-05 0.100000000000D+01
  </mgrwgt>
  </event>
  <event>
  7     66 0.93819742E-06 0.17507681E+02 0.78161638E-02 0.12142934E+00
       -1 -1    0    0    0  501 0.00000000E+00 0.00000000E+00 0.10713357E+04 0.10713357E+04 0.00000000E+00 0.0000E+00 0.9000E+01
       22 -1    0    0    0    0 0.00000000E+00 0.00000000E+00 -.13367354E+02 0.13367354E+02 0.00000000E+00 0.0000E+00 0.9000E+01
       24  2    1    2    0    0 -.30749873E+02 0.28968684E+02 0.94243895E+03 0.94679049E+03 0.80226633E+02 0.0000E+00 0.0000E+00
  9900012  1    3    3    0    0 0.17388975E+01 0.28693919E+02 0.64932815E+03 0.65188451E+03 0.50000000E+02 0.0000E+00 0.9000E+01
      -11  1    3    3    0    0 -.32488771E+02 0.27476436E+00 0.29311079E+03 0.29490597E+03 0.00000000E+00 0.0000E+00 0.9000E+01
       -2  1    1    2    0  502 -.13074635E+01 -.29070246E+02 0.96140138E+02 0.10044757E+03 0.00000000E+00 0.0000E+00 0.9000E+01
       21  1    1    2  502  501 0.32057337E+02 0.10156255E+00 0.19389275E+02 0.37465012E+02 0.00000000E+00 0.0000E+00 0.9000E+01
#aMCatNLO 2  0  0  5  1 0.27507152D+02 0.00000000D+00  -5  6  0 0.00000000D+00 0.00000000D+00 0.00000000D+00 0.00000000D+00 0.00000000D+00
  <mgrwgt>
 0.1316230581D-04    2    2    0
 0.119670064071211D+03 0.000000000000000D+00 0.000000000000000D+00 0.119670064071211D+03
 0.119670064071211D+03 -.000000000000000D+00 -.000000000000000D+00 -.119670064071211D+03
 0.894679899851481D+02 -.499560973069116D+00 0.308027147432988D+02 0.674941807510819D+02
 0.436480280283755D+02 -.335787600768669D+02 0.130161601784174D+01 0.278553947774603D+02
 0.106224110128899D+03 0.340783210499360D+02 -.321043307611406D+02 -.953495755285421D+02
 0.000000000000000D+00 0.000000000000000D+00 0.000000000000000D+00 -.000000000000000D+00
 0.119670064071211D+03 0.000000000000000D+00 0.000000000000000D+00 0.119670064071211D+03
 0.119670064071211D+03 -.000000000000000D+00 -.000000000000000D+00 -.119670064071211D+03
 0.841166424849810D+02 0.173889748565213D+01 0.286939192234563D+02 0.612310768979140D+02
 0.408768420025889D+02 -.324887706716948D+02 0.274764362253849D+00 0.248056545346393D+02
 0.302605584570279D+02 -.130746347603664D+01 -.290702461356803D+02 -.830136898354713D+01
 0.840860851978245D+02 0.320573366620793D+02 0.101562549970119D+00 -.777353624490061D+02
-.101261838845D-05 0.000000000000D+00 0.000000000000D+00 0.415792720906D-06 0.000000000000D+00  6 -1 22 9900012 -11 -2 21 2 0.16482088D+00 0.20565161D-02 0.57245649D+04 0.57245649D+04 0.57245649D+04 0.12352838D+01  1  2 13  2  6  5       -2 -.209629946633D-04 0.100000000000D+01
0.164842415527D-05 0.000000000000D+00 0.000000000000D+00 0.415792720906D-06 0.842157610777D-09  6 -1 22 9900012 -11 -2 21 2 0.16482088D+00 0.20565161D-02 0.57245649D+04 0.57245649D+04 0.57245649D+04 0.12352838D+01  1  2  1  2  6  5       -2 0.341253004724D-04 0.100000000000D+01
  </mgrwgt>
  </event>
  <event>
  7     66 -.93819742E-06 0.90403310E+02 0.78161638E-02 0.11413904E+00
       -3 -1    0    0    0  502 0.00000000E+00 0.00000000E+00 0.14469457E+03 0.14469457E+03 0.00000000E+00 0.0000E+00 0.9000E+01
       22 -1    0    0    0    0 0.00000000E+00 0.00000000E+00 -.68184923E+03 0.68184923E+03 0.00000000E+00 0.0000E+00 0.9000E+01
       24  2    1    2    0    0 0.38124167E+02 0.82589385E+02 -.65601891E+03 0.66738018E+03 0.82225489E+02 0.0000E+00 0.0000E+00
  9900012  1    3    3    0    0 0.52618557E+02 0.54164371E+02 -.49896369E+03 0.50711661E+03 0.50000000E+02 0.0000E+00 0.9000E+01
      -11  1    3    3    0    0 -.14494390E+02 0.28425014E+02 -.15705522E+03 0.16026357E+03 0.00000000E+00 0.0000E+00 0.9000E+01
       -4  1    1    2    0  501 -.48344036E+02 -.82376249E+02 0.10508134E+03 0.14200380E+03 0.00000000E+00 0.0000E+00 0.9000E+01
       21  1    1    2  501  502 0.10219869E+02 -.21313628E+00 0.13782908E+02 0.17159828E+02 0.00000000E+00 0.0000E+00 0.9000E+01
#aMCatNLO 2  0  0  1  5 0.10339782D+02 0.00000000D+00  -5  6  0 0.00000000D+00 0.00000000D+00 0.00000000D+00 0.00000000D+00 0.00000000D+00
  <mgrwgt>
 -.8701817016D-04    2    2    0
 0.296422723060550D+03 0.000000000000000D+00 0.000000000000000D+00 0.296422723060550D+03
 0.296422723060550D+03 0.000000000000000D+00 0.000000000000000D+00 -.296422723060550D+03
 0.229537774386266D+03 0.565672471795374D+02 0.540820208695807D+02 -.209911580041197D+03
 0.725871354920705D+02 -.132410289842277D+02 0.283988749969522D+02 -.654757305365166D+02
 0.290720536242763D+03 -.433262181953097D+02 -.824808958665329D+02 0.275387310577713D+03
 0.000000000000000D+00 0.000000000000000D+00 -.000000000000000D+00 0.000000000000000D+00
 0.331961543837555D+03 0.000000000000000D+00 0.000000000000000D+00 0.331961543837555D+03
 0.297202745026997D+03 0.000000000000000D+00 0.000000000000000D+00 -.297202745026997D+03
 0.228616191686959D+03 0.526185572208892D+02 0.541643711497563D+02 -.209911580041197D+03
 0.728363923859766D+02 -.144943902269665D+02 0.284250139571090D+02 -.654757305365166D+02
 0.291480982309782D+03 -.483440363535197D+02 -.823762488226967D+02 0.275387310577713D+03
 0.362307224818346D+02 0.102198693595969D+02 -.213136284168556D+00 0.347587988105582D+02
-.658019015344D-04 0.000000000000D+00 0.000000000000D+00 0.715029296487D-05 0.000000000000D+00  6 -3 22 9900012 -11 -4 21 2 0.22319281D-01 0.10462457D+00 0.13020093D+05 0.13020093D+05 0.13020093D+05 0.11976283D+01  1  2 13  1  6  1       -3 -.128170588910D-03 0.100000000000D+01
0.211380393064D-04 0.000000000000D+00 0.000000000000D+00 0.715029296487D-05 0.197326173697D-06  6 -3 22 9900012 -11 -4 21 2 0.22260703D-01 0.10489988D+00 0.13020093D+05 0.13020093D+05 0.13020093D+05 0.11976283D+01  1  2  1  1  6  1       -3 0.411524187518D-04 0.100000000000D+01
  </mgrwgt>
  </event>
  <event>
  6     66 0.93819742E-06 0.24471571E+02 0.78161638E-02 0.12968214E+00
       -3 -1    0    0    0  501 0.00000000E+00 0.00000000E+00 0.57904072E+03 0.57904072E+03 0.00000000E+00 0.0000E+00 0.9000E+01
       22 -1    0    0    0    0 0.00000000E+00 0.00000000E+00 -.65528563E+01 0.65528563E+01 0.00000000E+00 0.0000E+00 0.9000E+01
       24  2    1    2    0    0 0.15352903E+02 0.21836639E+02 0.27882297E+03 0.29071798E+03 0.77859759E+02 0.0000E+00 0.0000E+00
  9900012  1    3    3    0    0 0.15183473E+02 0.17115475E+01 0.12370220E+03 0.13429707E+03 0.50000000E+02 0.0000E+00 0.9000E+01
      -11  1    3    3    0    0 0.16942981E+00 0.20125091E+02 0.15512077E+03 0.15642091E+03 0.00000000E+00 0.0000E+00 0.9000E+01
       -4  1    1    2    0  501 -.15352903E+02 -.21836639E+02 0.29366489E+03 0.29487560E+03 0.00000000E+00 0.0000E+00 0.9000E+01
#aMCatNLO 1  0  0  5  1 0.15347218D+02 0.00000000D+00  -5  6  0 0.00000000D+00 0.00000000D+00 0.00000000D+00 0.00000000D+00 0.00000000D+00
  <mgrwgt>
 0.1119143692D-03    5    2    0
 0.615984630986470D+02 0.000000000000000D+00 0.000000000000000D+00 0.615984630986470D+02
 0.615984630986470D+02 -.000000000000000D+00 -.000000000000000D+00 -.615984630986470D+02
 0.635201731226709D+02 0.151834733079817D+02 0.171154750210742D+01 -.360741616255724D+02
 0.226817532827001D+02 0.169429813187942D+00 0.201250913029975D+02 0.104601111639262D+02
 0.369949997919231D+02 -.153529031211696D+02 -.218366388051049D+02 0.256140504616461D+02
 0.000000000000000D+00 0.000000000000000D+00 0.000000000000000D+00 -.000000000000000D+00
 0.615984630986470D+02 0.000000000000000D+00 0.000000000000000D+00 0.615984630986470D+02
 0.615984630986470D+02 -.000000000000000D+00 -.000000000000000D+00 -.615984630986470D+02
 0.600906795099631D+02 0.121056224263847D+02 -.266612084289324D+01 -.309392221830156D+02
 0.222787614629664D+02 -.950065417204700D+00 0.185328183109004D+02 0.123278235500814D+02
 0.213883572773539D+02 0.691462585531565D+01 -.870905783032721D+01 0.182702514490840D+02
 0.194391279470106D+02 -.180701828644957D+02 -.715763963767993D+01 0.341147183850257D+00
0.144772989854D-05 0.000000000000D+00 0.000000000000D+00 0.923946468738D-07 0.000000000000D+00  6 -3 22 9900012 -11 -4 21 0 0.89083188D-01 0.10081317D-02 0.24553024D+04 0.24553024D+04 0.24553024D+04 0.12782005D+01  1  2  2  2  6  5       -4 0.102123858530D-03 0.100000000000D+01
0.207402690479D-07 0.000000000000D+00 -.277983200321D-08 0.923946468738D-07 0.000000000000D+00  6 -3 22 9900012 -11 -4 21 2 0.89083188D-01 0.10081317D-02 0.24553024D+04 0.24553024D+04 0.24553024D+04 0.12782005D+01  1  2  3  2  6  5       -4 0.239029788121D-05 0.100000000000D+01
-.158971958497D-06 0.000000000000D+00 0.000000000000D+00 0.923946468738D-07 0.000000000000D+00  6 -3 22 9900012 -11 -4 21 2 0.89083188D-01 0.10081317D-02 0.24553024D+04 0.24553024D+04 0.24553024D+04 0.12782005D+01  1  2 15  2  6  5       -4 -.183213792786D-04 0.100000000000D+01
0.277938516848D-06 0.000000000000D+00 0.000000000000D+00 0.923946468738D-07 0.000000000000D+00  6 -3 22 9900012 -11 -4 21 2 0.89083188D-01 0.10081317D-02 0.25314564D+04 0.25314564D+04 0.25314564D+04 0.12765711D+01  1  2 12  2  6  5       -4 0.320601853599D-04 0.100000000000D+01
-.549990573836D-07 0.000000000000D+00 0.000000000000D+00 0.923946468738D-07 0.000000000000D+00  6 -3 22 9900012 -11 -4 21 2 0.89083188D-01 0.10081317D-02 0.24553024D+04 0.24553024D+04 0.24553024D+04 0.12782005D+01  1  2  4  2  6  5       -4 -.633859329542D-05 0.100000000000D+01
  </mgrwgt>
  </event>
  <event>
  5     66 0.93819742E-06 0.29660925E+02 0.78161638E-02 0.10800905E+00
       -3 -1    0    0    0  501 0.00000000E+00 0.00000000E+00 0.26710920E+02 0.26710920E+02 0.00000000E+00 0.0000E+00 0.9000E+01
       22 -1    0    0    0    0 0.00000000E+00 0.00000000E+00 -.23250987E+03 0.23250987E+03 0.00000000E+00 0.0000E+00 0.9000E+01
  9900012  1    1    2    0    0 -.25354008E+02 0.15044413E+02 -.69960741E+02 0.90904705E+02 0.50000000E+02 0.0000E+00 0.9000E+01
      -11  1    1    2    0    0 0.48958393E+02 -.33005580E+02 -.12210200E+03 0.13562888E+03 0.00000000E+00 0.0000E+00 0.9000E+01
       -4  1    1    2    0  501 -.23604384E+02 0.17961167E+02 -.13736210E+02 0.32687214E+02 0.00000000E+00 0.0000E+00 0.9000E+01
#aMCatNLO 1  0  0  1  5 0.18886588D+02 0.00000000D+00  -5  6  0 0.00000000D+00 0.00000000D+00 0.00000000D+00 0.00000000D+00 0.00000000D+00
  <mgrwgt>
 0.3483353122D-04    5    4    0
 0.788070595001978D+02 0.000000000000000D+00 0.000000000000000D+00 0.788070595001978D+02
 0.788070595001978D+02 0.000000000000000D+00 0.000000000000000D+00 -.788070595001978D+02
 0.581581303673916D+02 -.253540084205238D+02 0.150444131075330D+02 0.363428384863016D+01
 0.636323712585554D+02 0.489583928647280D+02 -.330055804329525D+02 -.237231132099790D+02
 0.358236173744486D+02 -.236043844442043D+02 0.179611673254195D+02 0.200888293613488D+02
 0.000000000000000D+00 0.000000000000000D+00 -.000000000000000D+00 0.000000000000000D+00
 0.394414718555726D+03 0.000000000000000D+00 0.000000000000000D+00 0.394414718555726D+03
 0.121305390854700D+03 0.000000000000000D+00 0.000000000000000D+00 -.121305390854700D+03
 0.993542551071521D+02 -.528611756187050D+02 0.675555778675091D+02 0.363428384863016D+01
 0.390730225767042D+02 0.310224417846263D+02 0.123413881943079D+01 -.237231132099790D+02
 0.712026484484127D+02 -.422949107778444D+02 0.536413702589060D+02 0.200888293613488D+02
 0.306090183278157D+03 0.641336446119230D+02 -.122431086945846D+03 0.273109327701026D+03
 0.788070595001978D+02 0.000000000000000D+00 0.000000000000000D+00 0.788070595001978D+02
 0.788070595001978D+02 0.000000000000000D+00 0.000000000000000D+00 -.788070595001978D+02
 0.581581303673916D+02 -.253540084205238D+02 0.150444131075330D+02 0.363428384863016D+01
 0.636323712585554D+02 0.489583928647280D+02 -.330055804329525D+02 -.237231132099790D+02
 0.000000000000000D+00 0.000000000000000D+00 -.000000000000000D+00 0.000000000000000D+00
 0.358236173744486D+02 -.236043844442043D+02 0.179611673254195D+02 0.200888293613488D+02
 0.394414718555726D+03 0.000000000000000D+00 0.000000000000000D+00 0.394414718555726D+03
 0.121305390854700D+03 0.000000000000000D+00 0.000000000000000D+00 -.121305390854700D+03
 0.993542551071521D+02 -.528611756187050D+02 0.675555778675091D+02 0.363428384863016D+01
 0.390730225767042D+02 0.310224417846263D+02 0.123413881943079D+01 -.237231132099790D+02
 0.306090183278157D+03 0.641336446119230D+02 -.122431086945846D+03 0.273109327701026D+03
 0.712026484484127D+02 -.422949107778444D+02 0.536413702589060D+02 0.200888293613488D+02
0.343677934211D-06 0.000000000000D+00 0.000000000000D+00 0.391689234019D-09 0.000000000000D+00  6 -3 22 9900012 -11 -4 21 0 0.41093723D-02 0.35770750D-01 0.53839073D+04 0.53839073D+04 0.53839073D+04 0.12382447D+01  1  2  2  1  6  1       -3 0.421070386667D-04 0.100000000000D+01
0.105735891608D-07 0.000000000000D+00 -.659906879924D-09 0.391689234019D-09 0.000000000000D+00  6 -3 22 9900012 -11 -4 21 2 0.41093723D-02 0.35770750D-01 0.53839073D+04 0.53839073D+04 0.53839073D+04 0.12382447D+01  1  2  3  1  6  1       -3 0.198627068054D-05 0.100000000000D+01
-.406064539827D-07 0.000000000000D+00 0.000000000000D+00 0.391689234019D-09 0.000000000000D+00  6 -3 22 9900012 -11 -4 21 2 0.41093723D-02 0.35770750D-01 0.53839073D+04 0.53839073D+04 0.53839073D+04 0.12382447D+01  1  2 15  1  6  1       -3 -.762800670233D-05 0.100000000000D+01
0.191391478104D-07 0.000000000000D+00 -.184230784400D-06 0.391689234019D-09 0.000000000000D+00  6 -3 22 9900012 -11 -4 21 2 0.30856466D-01 0.35770750D-01 0.53839073D+04 0.53839073D+04 0.53839073D+04 0.12382447D+01  1  2  5  1  6  1       -3 0.135013471646D-06 0.100000000000D+01
-.151252319559D-07 0.000000000000D+00 -.452565852507D-07 0.391689234019D-09 0.000000000000D+00  6 21 22 9900012 -11 3 -4 2 0.30856466D-01 0.35770750D-01 0.53839073D+04 0.53839073D+04 0.53839073D+04 0.12382447D+01  3  4  5  3  5  1       -3 -.176678489564D-05 0.100000000000D+01
  </mgrwgt>
  </event>
  <event>
  6     66 0.93819742E-06 0.70646811E+02 0.78161638E-02 0.11141232E+00
       -1 -1    0    0    0  501 0.00000000E+00 0.00000000E+00 0.26110003E+03 0.26110003E+03 0.00000000E+00 0.0000E+00 0.9000E+01
       22 -1    0    0    0    0 -.00000000E+00 -.00000000E+00 -.71383618E+03 0.71383618E+03 0.00000000E+00 0.0000E+00 0.9000E+01
       24  2    1    2    0    0 -.10652113E+03 0.44180414E+02 -.69383318E+03 0.70767896E+03 0.78143287E+02 0.0000E+00 0.0000E+00
  9900012  1    3    3    0    0 -.73031518E+02 0.11507873E+02 -.37769353E+03 0.38809592E+03 0.50000000E+02 0.0000E+00 0.9000E+01
      -11  1    3    3    0    0 -.33489617E+02 0.32672541E+02 -.31613964E+03 0.31958305E+03 0.00000000E+00 0.0000E+00 0.9000E+01
       -2  1    1    2    0  501 0.10652113E+03 -.44180414E+02 0.24109702E+03 0.26725725E+03 0.00000000E+00 0.0000E+00 0.9000E+01
#aMCatNLO 1  0  0  5  1 0.17981386D+02 0.00000000D+00  -5  6  0 0.00000000D+00 0.00000000D+00 0.00000000D+00 0.00000000D+00 0.00000000D+00
  <mgrwgt>
 0.1467868155D-03    7    2    0
 0.431720564030494D+03 0.000000000000000D+00 0.000000000000000D+00 0.431720564030494D+03
 0.431720564030494D+03 -.000000000000000D+00 -.000000000000000D+00 -.431720564030494D+03
 0.240170678369482D+03 -.730315178039605D+02 0.115078728478511D+02 -.222970673000340D+03
 0.195085953795936D+03 -.334896170609483D+02 0.326725407495323D+02 -.189392396886864D+03
 0.428184495895570D+03 0.106521134864909D+03 -.441804135973834D+02 0.412363069887204D+03
 0.000000000000000D+00 0.000000000000000D+00 0.000000000000000D+00 0.000000000000000D+00
 0.431720564030494D+03 0.000000000000000D+00 0.000000000000000D+00 0.431720564030494D+03
 0.431720564030494D+03 -.000000000000000D+00 -.000000000000000D+00 -.431720564030494D+03
 0.238058659110003D+03 -.724923229956967D+02 0.112842378887524D+02 -.220883349891317D+03
 0.193334578418226D+03 -.330516800337120D+02 0.324909031898363D+02 -.187697061428812D+03
 0.409982426070968D+03 0.115570763776764D+03 -.333082810758677D+02 0.391943295208456D+03
 0.220654644617913D+02 -.100267607473557D+02 -.104668600027211D+02 0.166371161116734D+02
0.335607154325D-04 0.000000000000D+00 0.000000000000D+00 0.313355582386D-04 0.000000000000D+00  6 -1 22 9900012 -11 -2 21 0 0.40169235D-01 0.10982095D+00 0.15795430D+05 0.15795430D+05 0.15795430D+05 0.11892732D+01  1  2  2  2  6  5       -2 0.220518269128D-04 0.100000000000D+01
0.400706197660D-06 0.000000000000D+00 -.644409920001D-07 0.313355582386D-04 0.000000000000D+00  6 -1 22 9900012 -11 -2 21 2 0.40169235D-01 0.10982095D+00 0.15795430D+05 0.15795430D+05 0.15795430D+05 0.11892732D+01  1  2  3  2  6  5       -2 0.372393999724D-06 0.100000000000D+01
-.496945279765D-05 0.000000000000D+00 0.000000000000D+00 0.313355582386D-04 0.000000000000D+00  6 -1 22 9900012 -11 -2 21 2 0.40169235D-01 0.10982095D+00 0.15795430D+05 0.15795430D+05 0.15795430D+05 0.11892732D+01  1  2 15  2  6  5       -2 -.461833237061D-05 0.100000000000D+01
0.133404602719D-03 0.000000000000D+00 0.000000000000D+00 0.313355582386D-04 0.000000000000D+00  6 -1 22 9900012 -11 -2 21 2 0.40169235D-01 0.10982095D+00 0.18211498D+05 0.18211498D+05 0.18211498D+05 0.11832365D+01  1  2 12  2  6  5       -2 0.123402867349D-03 0.100000000000D+01
-.740183394059D-05 0.000000000000D+00 0.000000000000D+00 0.313355582386D-04 0.000000000000D+00  6 -1 22 9900012 -11 -2 21 2 0.40169235D-01 0.10982095D+00 0.15795430D+05 0.15795430D+05 0.15795430D+05 0.11892732D+01  1  2  4  2  6  5       -2 -.687885179348D-05 0.100000000000D+01
-.253582014277D-03 0.000000000000D+00 0.000000000000D+00 0.313355582386D-04 0.000000000000D+00  6 -1 22 9900012 -11 -2 21 2 0.40169235D-01 0.10982095D+00 0.15795430D+05 0.15795430D+05 0.15795430D+05 0.11892732D+01  1  2  5  2  6  5       -2 -.235664986232D-03 0.100000000000D+01
0.266985993953D-03 0.000000000000D+00 -.000000000000D+00 0.313355582386D-04 0.000000000000D+00  6 -1 22 9900012 -11 -2 21 2 0.40169235D-01 0.10982095D+00 0.15795430D+05 0.15795430D+05 0.15795430D+05 0.11892732D+01  1  2  6  2  6  5       -2 0.248121897637D-03 0.100000000000D+01
  </mgrwgt>
  </event>
  <event>
  6     66 0.93819742E-06 0.93774728E+02 0.78161638E-02 0.10042529E+00
       -3 -1    0    0    0  501 0.00000000E+00 0.00000000E+00 0.19605235E+03 0.19605235E+03 0.00000000E+00 0.0000E+00 0.9000E+01
       22 -1    0    0    0    0 0.00000000E+00 0.00000000E+00 -.95193728E+02 0.95193728E+02 0.00000000E+00 0.0000E+00 0.9000E+01
       24  2    1    2    0    0 -.85024480E+02 0.39554233E+02 -.32643280E+02 0.12810057E+03 0.80934988E+02 0.0000E+00 0.0000E+00
  9900012  1    3    3    0    0 -.63127115E+02 0.50449635E+02 -.39174383E+02 0.10278536E+03 0.50000000E+02 0.0000E+00 0.9000E+01
      -11  1    3    3    0    0 -.21897365E+02 -.10895402E+02 0.65311027E+01 0.25315207E+02 0.00000000E+00 0.0000E+00 0.9000E+01
       -4  1    1    2    0  501 0.85024480E+02 -.39554233E+02 0.13350190E+03 0.16314551E+03 0.00000000E+00 0.0000E+00 0.9000E+01
#aMCatNLO 1  0  0  1  5 0.45684847D+03 0.00000000D+00  -5  6  0 0.00000000D+00 0.00000000D+00 0.00000000D+00 0.00000000D+00 0.00000000D+00
  <mgrwgt>
 0.7218708181D-04    3    2    0
 0.136612422640277D+03 0.000000000000000D+00 0.000000000000000D+00 0.136612422640277D+03
 0.136612422640277D+03 0.000000000000000D+00 0.000000000000000D+00 -.136612422640277D+03
 0.124025717787950D+03 -.631271152375705D+02 0.504496345412774D+02 -.797005669317990D+02
 0.245740338512413D+02 -.218973652250268D+02 -.108954016708204D+02 -.238301455203827D+01
 0.124625093641364D+03 0.850244804625972D+02 -.395542328704570D+02 0.820835814838372D+02
 0.000000000000000D+00 0.000000000000000D+00 -.000000000000000D+00 -.000000000000000D+00
 0.286047640261196D+03 0.000000000000000D+00 0.000000000000000D+00 0.286047640261196D+03
 0.412305891096893D+03 0.000000000000000D+00 0.000000000000000D+00 -.412305891096893D+03
 0.258661495931130D+03 -.206955990729929D+03 0.123380740024825D+03 -.797005669317990D+02
 0.501501000322875D+02 -.499816276809390D+02 0.334524576932851D+01 -.238301455203827D+01
 0.824002332888852D+02 0.721623680208783D+01 -.100116258138463D+00 0.820835814838372D+02
 0.307141702105787D+03 0.249721381608780D+03 -.126625869536015D+03 -.126258250835697D+03
0.458189344292D-05 0.000000000000D+00 0.000000000000D+00 0.737619640671D-06 0.000000000000D+00  6 -3 22 9900012 -11 -4 21 0 0.30161900D-01 0.14645189D-01 0.11369989D+05 0.11369989D+05 0.11369989D+05 0.12035936D+01  1  2  2  1  6  1       -3 0.896472835045D-04 0.100000000000D+01
-.388116119008D-07 0.000000000000D+00 -.879783863053D-08 0.737619640671D-06 0.000000000000D+00  6 -3 22 9900012 -11 -4 21 2 0.30161900D-01 0.14645189D-01 0.11369989D+05 0.11369989D+05 0.11369989D+05 0.12035936D+01  1  2  3  1  6  1       -3 -.110005292009D-05 0.100000000000D+01
-.577211998818D-06 0.000000000000D+00 0.000000000000D+00 0.737619640671D-06 0.000000000000D+00  6 -3 22 9900012 -11 -4 21 2 0.30161900D-01 0.14645189D-01 0.11369989D+05 0.11369989D+05 0.11369989D+05 0.12035936D+01  1  2 15  1  6  1       -3 -.163601487729D-04 0.100000000000D+01
  </mgrwgt>
  </event>
  <event>
  6     66 0.93819742E-06 0.34482394E+02 0.78161638E-02 0.12371694E+00
       -1 -1    0    0    0  501 0.00000000E+00 0.00000000E+00 0.16064897E+03 0.16064897E+03 0.00000000E+00 0.0000E+00 0.9000E+01
       22 -1    0    0    0    0 0.00000000E+00 0.00000000E+00 -.32195903E+02 0.32195903E+02 0.00000000E+00 0.0000E+00 0.9000E+01
       24  2    1    2    0    0 -.51598842E+01 0.38014827E+02 0.42928083E+02 0.99109744E+02 0.80673227E+02 0.0000E+00 0.0000E+00
  9900012  1    3    3    0    0 0.10568580E+02 0.57987052E+01 0.35508683E+02 0.62499491E+02 0.50000000E+02 0.0000E+00 0.9000E+01
      -11  1    3    3    0    0 -.15728464E+02 0.32216122E+02 0.74194002E+01 0.36610253E+02 0.00000000E+00 0.0000E+00 0.9000E+01
       -2  1    1    2    0  501 0.51598842E+01 -.38014827E+02 0.85524980E+02 0.93735125E+02 0.00000000E+00 0.0000E+00 0.9000E+01
#aMCatNLO 1  0  0  5  1 0.22696370D+02 0.00000000D+00  -5  6  0 0.00000000D+00 0.00000000D+00 0.00000000D+00 0.00000000D+00 0.00000000D+00
  <mgrwgt>
 0.1159373148D-03    5    2    0
 0.719182769215092D+02 0.000000000000000D+00 0.000000000000000D+00 0.719182769215092D+02
 0.719182769215092D+02 -.000000000000000D+00 -.000000000000000D+00 -.719182769215092D+02
 0.520834722919685D+02 0.105685799650577D+02 0.579870516147668D+01 -.820781468849640D+01
 0.424582942996923D+02 -.157284641769234D+02 0.322161221328991D+02 -.227473876344659D+02
 0.492947872513576D+02 0.515988421186566D+01 -.380148272943757D+02 0.309552023229623D+02
 0.000000000000000D+00 0.000000000000000D+00 0.000000000000000D+00 0.000000000000000D+00
 0.719182769215092D+02 0.000000000000000D+00 0.000000000000000D+00 0.719182769215092D+02
 0.719182769215092D+02 -.000000000000000D+00 -.000000000000000D+00 -.719182769215092D+02
 0.513852247601240D+02 0.115213365933031D+02 -.122061488315335D+01 -.249203251569947D+01
 0.358906604835718D+02 -.150070142301026D+02 0.269009262866704D+02 -.184192616237364D+02
 0.316512879901973D+02 -.184213737958635D+02 -.240499726961550D+02 0.916819678157502D+01
 0.249093806091252D+02 0.219070514326630D+02 -.163033870736203D+01 0.117430973578608D+02
0.681403213945D-06 0.000000000000D+00 0.000000000000D+00 0.279635173772D-06 0.000000000000D+00  6 -1 22 9900012 -11 -2 21 0 0.24715226D-01 0.49532159D-02 0.39467704D+04 0.39467704D+04 0.39467704D+04 0.12535803D+01  1  2  2  2  6  5       -2 0.111803121416D-03 0.100000000000D+01
0.517132502795D-08 0.000000000000D+00 -.130838387957D-08 0.279635173772D-06 0.000000000000D+00  6 -1 22 9900012 -11 -2 21 2 0.24715226D-01 0.49532159D-02 0.39467704D+04 0.39467704D+04 0.39467704D+04 0.12535803D+01  1  2  3  2  6  5       -2 0.133338595389D-05 0.100000000000D+01
-.779308709484D-07 0.000000000000D+00 0.000000000000D+00 0.279635173772D-06 0.000000000000D+00  6 -1 22 9900012 -11 -2 21 2 0.24715226D-01 0.49532159D-02 0.39467704D+04 0.39467704D+04 0.39467704D+04 0.12535803D+01  1  2 15  2  6  5       -2 -.200938691989D-04 0.100000000000D+01
0.119127208558D-06 0.000000000000D+00 0.000000000000D+00 0.279635173772D-06 0.000000000000D+00  6 -1 22 9900012 -11 -2 21 2 0.24715226D-01 0.49532159D-02 0.45152011D+04 0.45152011D+04 0.45152011D+04 0.12468653D+01  1  2 12  2  6  5       -2 0.308042930316D-04 0.100000000000D+01
-.306761872358D-07 0.000000000000D+00 0.000000000000D+00 0.279635173772D-06 0.000000000000D+00  6 -1 22 9900012 -11 -2 21 2 0.24715226D-01 0.49532159D-02 0.39467704D+04 0.39467704D+04 0.39467704D+04 0.12535803D+01  1  2  4  2  6  5       -2 -.790961638612D-05 0.100000000000D+01
  </mgrwgt>
  </event>
  <event>
  6     66 0.93819742E-06 0.44716837E+02 0.78161638E-02 0.11642804E+00
       -1 -1    0    0    0  501 0.00000000E+00 0.00000000E+00 0.35275274E+02 0.35275274E+02 0.00000000E+00 0.0000E+00 0.9000E+01
       22 -1    0    0    0    0 0.00000000E+00 0.00000000E+00 -.17185195E+03 0.17185195E+03 0.00000000E+00 0.0000E+00 0.9000E+01
       24  2    1    2    0    0 0.27315866E+02 0.35403941E+02 -.13370748E+03 0.16231844E+03 0.80436245E+02 0.0000E+00 0.0000E+00
  9900012  1    3    3    0    0 0.20367082E+02 0.16225548E+02 -.12984850E+03 0.14155818E+03 0.50000000E+02 0.0000E+00 0.9000E+01
      -11  1    3    3    0    0 0.69487841E+01 0.19178393E+02 -.38589767E+01 0.20760252E+02 0.00000000E+00 0.0000E+00 0.9000E+01
       -2  1    1    2    0  501 -.27315866E+02 -.35403941E+02 -.28692036E+01 0.44808792E+02 0.00000000E+00 0.0000E+00 0.9000E+01
#aMCatNLO 1  0  0  1  5 0.56044849D+02 0.00000000D+00  -5  6  0 0.00000000D+00 0.00000000D+00 0.00000000D+00 0.00000000D+00 0.00000000D+00
  <mgrwgt>
 0.1737140675D-03    5    4    0
 0.778596475932491D+02 0.000000000000000D+00 0.000000000000000D+00 0.778596475932491D+02
 0.778596475932491D+02 0.000000000000000D+00 0.000000000000000D+00 -.778596475932491D+02
 0.744048904995631D+02 0.203670815387690D+02 0.162255483005657D+02 -.485592555769867D+02
 0.242292846252278D+02 0.694878413978559D+01 0.191783925493118D+02 0.130752396403840D+02
 0.570851200617073D+02 -.273158656785546D+02 -.354039408498775D+02 0.354840159366027D+02
 0.000000000000000D+00 0.000000000000000D+00 -.000000000000000D+00 0.000000000000000D+00
 0.131502426559306D+03 0.000000000000000D+00 0.000000000000000D+00 0.131502426559306D+03
 0.104814717448896D+03 0.000000000000000D+00 0.000000000000000D+00 -.104814717448896D+03
 0.776728209436215D+02 -.316420777821478D+01 0.341328815116019D+02 -.485592555769867D+02
 0.285924944411187D+02 -.122443568087407D+01 0.253982204883598D+02 0.130752396403840D+02
 0.616913048621089D+02 -.456943801393242D+02 -.214178741308171D+02 0.354840159366027D+02
 0.683605237613524D+02 0.500830235984130D+02 -.381132278691446D+02 0.266877091104104D+02
 0.778596475932491D+02 0.000000000000000D+00 0.000000000000000D+00 0.778596475932491D+02
 0.778596475932491D+02 0.000000000000000D+00 0.000000000000000D+00 -.778596475932491D+02
 0.744048904995631D+02 0.203670815387690D+02 0.162255483005657D+02 -.485592555769867D+02
 0.242292846252278D+02 0.694878413978559D+01 0.191783925493118D+02 0.130752396403840D+02
 0.000000000000000D+00 0.000000000000000D+00 -.000000000000000D+00 0.000000000000000D+00
 0.570851200617073D+02 -.273158656785546D+02 -.354039408498775D+02 0.354840159366027D+02
 0.131502426559306D+03 0.000000000000000D+00 0.000000000000000D+00 0.131502426559306D+03
 0.104814717448896D+03 0.000000000000000D+00 0.000000000000000D+00 -.104814717448896D+03
 0.776728209436215D+02 -.316420777821478D+01 0.341328815116019D+02 -.485592555769867D+02
 0.285924944411187D+02 -.122443568087407D+01 0.253982204883598D+02 0.130752396403840D+02
 0.683605237613524D+02 0.500830235984130D+02 -.381132278691446D+02 0.266877091104104D+02
 0.616913048621089D+02 -.456943801393242D+02 -.214178741308171D+02 0.354840159366027D+02
0.144003914826D-05 0.000000000000D+00 0.000000000000D+00 0.543566553766D-06 0.000000000000D+00  6 -1 22 9900012 -11 -2 21 0 0.54269652D-02 0.26438762D-01 0.36899427D+04 0.36899427D+04 0.36899427D+04 0.12569797D+01  1  2  2  1  6  1       -1 0.203694310985D-03 0.100000000000D+01
-.126835380890D-07 0.000000000000D+00 -.276506475017D-08 0.543566553766D-06 0.000000000000D+00  6 -1 22 9900012 -11 -2 21 2 0.54269652D-02 0.26438762D-01 0.36899427D+04 0.36899427D+04 0.36899427D+04 0.12569797D+01  1  2  3  1  6  1       -1 -.283466371254D-05 0.100000000000D+01
-.144789386131D-06 0.000000000000D+00 0.000000000000D+00 0.543566553766D-06 0.000000000000D+00  6 -1 22 9900012 -11 -2 21 2 0.54269652D-02 0.26438762D-01 0.36899427D+04 0.36899427D+04 0.36899427D+04 0.12569797D+01  1  2 15  1  6  1       -1 -.323592057632D-04 0.100000000000D+01
-.132975887597D-06 0.000000000000D+00 -.423890532365D-06 0.543566553766D-06 0.000000000000D+00  6 -1 22 9900012 -11 -2 21 2 0.12260463D-01 0.26438762D-01 0.36899427D+04 0.36899427D+04 0.36899427D+04 0.12569797D+01  1  2  5  1  6  1       -1 -.909427959009D-05 0.100000000000D+01
0.150325122521D-07 0.000000000000D+00 -.375287385388D-07 0.543566553766D-06 0.000000000000D+00  6 21 22 9900012 -11 1 -2 2 0.12260463D-01 0.26438762D-01 0.36899427D+04 0.36899427D+04 0.36899427D+04 0.12569797D+01  3  4  5  3  5  1       -1 0.143079055498D-04 0.100000000000D+01
  </mgrwgt>
  </event>
  <event>
  6     66 0.93819742E-06 0.64683477E+02 0.78161638E-02 0.11086111E+00
       -1 -1    0    0    0  501 0.00000000E+00 0.00000000E+00 0.19963247E+02 0.19963247E+02 0.00000000E+00 0.0000E+00 0.9000E+01
       22 -1    0    0    0    0 0.00000000E+00 0.00000000E+00 -.10442333E+04 0.10442333E+04 0.00000000E+00 0.0000E+00 0.9000E+01
       24  2    1    2    0    0 -.43125932E+02 0.10256696E+03 -.82211964E+03 0.83344860E+03 0.79850106E+02 0.0000E+00 0.0000E+00
  9900012  1    3    3    0    0 -.15477052E+02 0.62141309E+02 -.62854276E+03 0.63377211E+03 0.50000000E+02 0.0000E+00 0.9000E+01
      -11  1    3    3    0    0 -.27648879E+02 0.40425650E+02 -.19357688E+03 0.19967649E+03 0.00000000E+00 0.0000E+00 0.9000E+01
       -2  1    1    2    0  501 0.43125932E+02 -.10256696E+03 -.20215044E+03 0.23074797E+03 0.00000000E+00 0.0000E+00 0.9000E+01
#aMCatNLO 1  0  0  1  5 0.40274860D+02 0.00000000D+00  -5  6  0 0.00000000D+00 0.00000000D+00 0.00000000D+00 0.00000000D+00 0.00000000D+00
  <mgrwgt>
 0.4199705921D-04    9    4    0
 0.144382436905830D+03 0.000000000000000D+00 0.000000000000000D+00 0.144382436905830D+03
 0.144382436905830D+03 0.000000000000000D+00 0.000000000000000D+00 -.144382436905830D+03
 0.106178293187453D+03 -.154770524029160D+02 0.621413090290822D+02 -.683575051129740D+02
 0.492443359519969D+02 -.276488794912326D+02 0.404256504657159D+02 -.512941231099592D+01
 0.133342244672211D+03 0.431259318941486D+02 -.102566959494798D+03 0.734869174239699D+02
 0.000000000000000D+00 -.000000000000000D+00 0.000000000000000D+00 0.000000000000000D+00
 0.182334236838888D+03 0.000000000000000D+00 0.000000000000000D+00 0.182334236838888D+03
 0.154096447328901D+03 0.000000000000000D+00 0.000000000000000D+00 -.154096447328901D+03
 0.993235202070807D+02 -.949320502576663D+01 0.510126672444684D+02 -.683575051129740D+02
 0.436068040193145D+02 -.249452194056840D+02 0.353974365586690D+02 -.512941231099592D+01
 0.148026170013919D+03 0.513188797928608D+02 -.117804043026198D+03 0.734869174239699D+02
 0.454741899274751D+02 -.168804553614102D+02 0.313939392230601D+02 0.282377895099870D+02
 0.144382436905830D+03 0.000000000000000D+00 0.000000000000000D+00 0.144382436905830D+03
 0.144382436905830D+03 0.000000000000000D+00 0.000000000000000D+00 -.144382436905830D+03
 0.106178293187453D+03 -.154770524029160D+02 0.621413090290822D+02 -.683575051129740D+02
 0.492443359519969D+02 -.276488794912326D+02 0.404256504657159D+02 -.512941231099592D+01
 0.000000000000000D+00 -.000000000000000D+00 0.000000000000000D+00 0.000000000000000D+00
 0.133342244672211D+03 0.431259318941486D+02 -.102566959494798D+03 0.734869174239699D+02
 0.182334236838888D+03 0.000000000000000D+00 0.000000000000000D+00 0.182334236838888D+03
 0.154096447328901D+03 0.000000000000000D+00 0.000000000000000D+00 -.154096447328901D+03
 0.993235202070807D+02 -.949320502576663D+01 0.510126672444684D+02 -.683575051129740D+02
 0.436068040193145D+02 -.249452194056840D+02 0.353974365586690D+02 -.512941231099592D+01
 0.454741899274751D+02 -.168804553614102D+02 0.313939392230601D+02 0.282377895099870D+02
 0.148026170013919D+03 0.513188797928608D+02 -.117804043026198D+03 0.734869174239699D+02
0.142106599814D-05 0.000000000000D+00 0.000000000000D+00 0.105969226375D-05 0.000000000000D+00  6 -1 22 9900012 -11 -2 21 0 0.30712688D-02 0.16065128D+00 0.14579134D+05 0.14579134D+05 0.14579134D+05 0.11927158D+01  1  2  2  1  6  1       -1 0.206277219286D-04 0.100000000000D+01
-.244948404239D-07 0.000000000000D+00 -.272863380406D-08 0.105969226375D-05 0.000000000000D+00  6 -1 22 9900012 -11 -2 21 2 0.30712688D-02 0.16065128D+00 0.14579134D+05 0.14579134D+05 0.14579134D+05 0.11927158D+01  1  2  3  1  6  1       -1 -.505807831778D-06 0.100000000000D+01
-.179760293720D-06 0.000000000000D+00 0.000000000000D+00 0.105969226375D-05 0.000000000000D+00  6 -1 22 9900012 -11 -2 21 2 0.30712688D-02 0.16065128D+00 0.14579134D+05 0.14579134D+05 0.14579134D+05 0.11927158D+01  1  2 15  1  6  1       -1 -.371197210648D-05 0.100000000000D+01
0.143312198619D-05 0.000000000000D+00 0.000000000000D+00 0.105969226375D-05 0.000000000000D+00  6 -1 22 9900012 -11 -2 21 2 0.41395196D-02 0.16065128D+00 0.19530583D+05 0.19530583D+05 0.19530583D+05 0.11803058D+01  1  2 12  1  6  1       -1 0.193104682887D-04 0.100000000000D+01
-.419802653413D-06 0.000000000000D+00 0.000000000000D+00 0.105969226375D-05 0.000000000000D+00  6 -1 22 9900012 -11 -2 21 2 0.30712688D-02 0.16065128D+00 0.14579134D+05 0.14579134D+05 0.14579134D+05 0.11927158D+01  1  2  4  1  6  1       -1 -.866874273204D-05 0.100000000000D+01
-.252146478225D-05 0.000000000000D+00 -.697766230342D-06 0.105969226375D-05 0.000000000000D+00  6 -1 22 9900012 -11 -2 21 2 0.41456838D-02 0.16065128D+00 0.14579134D+05 0.14579134D+05 0.14579134D+05 0.11927158D+01  1  2  5  1  6  1       -1 -.337955989271D-04 0.100000000000D+01
0.264130343233D-05 0.000000000000D+00 0.667507129608D-06 0.105969226375D-05 0.000000000000D+00  6 -1 22 9900012 -11 -2 21 2 0.30712688D-02 0.16065128D+00 0.14579134D+05 0.14579134D+05 0.14579134D+05 0.11927158D+01  1  2  6  1  6  1       -1 0.545417703913D-04 0.100000000000D+01
0.551959132609D-07 0.000000000000D+00 0.000000000000D+00 0.105969226375D-05 0.000000000000D+00  6 21 22 9900012 -11 1 -2 2 0.41395196D-02 0.16065128D+00 0.19530583D+05 0.19530583D+05 0.19530583D+05 0.11803058D+01  3  4 12  3  5  1       -1 0.121784629656D-04 0.100000000000D+01
-.818193134022D-07 0.000000000000D+00 -.269708366321D-07 0.105969226375D-05 0.000000000000D+00  6 21 22 9900012 -11 1 -2 2 0.41456838D-02 0.16065128D+00 0.14579134D+05 0.14579134D+05 0.14579134D+05 0.11927158D+01  3  4  5  3  5  1       -1 -.179792427680D-04 0.100000000000D+01
  </mgrwgt>
  </event>
  <event>
  6     66 -.93819742E-06 0.36282346E+02 0.78161638E-02 0.12384773E+00
       -3 -1    0    0    0  501 0.00000000E+00 0.00000000E+00 0.26231165E+01 0.26231165E+01 0.00000000E+00 0.0000E+00 0.9000E+01
       22 -1    0    0    0    0 0.00000000E+00 0.00000000E+00 -.16851819E+04 0.16851819E+04 0.00000000E+00 0.0000E+00 0.9000E+01
       24  2    1    2    0    0 0.27281220E+02 -.29063400E+02 -.11370026E+04 0.11407945E+04 0.83953873E+02 0.0000E+00 0.0000E+00
  9900012  1    3    3    0    0 0.30675118E+02 -.46636411E+02 -.89623981E+03 0.89936740E+03 0.50000000E+02 0.0000E+00 0.9000E+01
      -11  1    3    3    0    0 -.33938985E+01 0.17573012E+02 -.24076282E+03 0.24142714E+03 0.00000000E+00 0.0000E+00 0.9000E+01
       -4  1    1    2    0  501 -.27281220E+02 0.29063400E+02 -.54555618E+03 0.54701050E+03 0.00000000E+00 0.0000E+00 0.9000E+01
#aMCatNLO 1  0  0  1  5 0.11149340D+01 0.00000000D+00  -5  6  0 0.00000000D+00 0.00000000D+00 0.00000000D+00 0.00000000D+00 0.00000000D+00
  <mgrwgt>
 -.6358632205D-04   11    4    0
 0.664863027128986D+02 0.000000000000000D+00 0.000000000000000D+00 0.664863027128986D+02
 0.664863027128986D+02 0.000000000000000D+00 0.000000000000000D+00 -.664863027128986D+02
 0.750578650777206D+02 0.306751181633854D+02 -.466364112448216D+02 0.421489998594584D+01
 0.179310876468541D+02 -.339389853534649D+01 0.175730115608843D+02 -.109298747109320D+01
 0.399836527012225D+02 -.272812196280389D+02 0.290633996839374D+02 -.312191251485263D+01
 0.000000000000000D+00 0.000000000000000D+00 -.000000000000000D+00 0.000000000000000D+00
 0.668970965637958D+02 0.000000000000000D+00 0.000000000000000D+00 0.668970965637958D+02
 0.668765595227577D+02 0.000000000000000D+00 0.000000000000000D+00 -.668765595227577D+02
 0.747547872287894D+02 0.302934641188812D+02 -.463984791066270D+02 0.421489998594584D+01
 0.180045225497176D+02 -.348544601656449D+01 0.176300844211518D+02 -.109298747109320D+01
 0.402156924584779D+02 -.274855308392453D+02 0.291907721146492D+02 -.312191251485263D+01
 0.798653849568589D+00 0.677512736928634D+00 -.422377429173954D+00 0.205370410380773D-01
 0.664863027128986D+02 0.000000000000000D+00 0.000000000000000D+00 0.664863027128986D+02
 0.664863027128986D+02 0.000000000000000D+00 0.000000000000000D+00 -.664863027128986D+02
 0.750578650777206D+02 0.306751181633854D+02 -.466364112448216D+02 0.421489998594584D+01
 0.179310876468541D+02 -.339389853534649D+01 0.175730115608843D+02 -.109298747109320D+01
 0.000000000000000D+00 0.000000000000000D+00 -.000000000000000D+00 0.000000000000000D+00
 0.399836527012225D+02 -.272812196280389D+02 0.290633996839374D+02 -.312191251485263D+01
 0.668970965637958D+02 0.000000000000000D+00 0.000000000000000D+00 0.668970965637958D+02
 0.668765595227577D+02 0.000000000000000D+00 0.000000000000000D+00 -.668765595227577D+02
 0.747547872287894D+02 0.302934641188812D+02 -.463984791066270D+02 0.421489998594584D+01
 0.180045225497176D+02 -.348544601656449D+01 0.176300844211518D+02 -.109298747109320D+01
 0.798653849568589D+00 0.677512736928634D+00 -.422377429173954D+00 0.205370410380773D-01
 0.402156924584779D+02 -.274855308392453D+02 0.291907721146492D+02 -.312191251485263D+01
0.387278387904D-06 0.000000000000D+00 0.000000000000D+00 0.704579537213D-08 0.000000000000D+00  6 -3 22 9900012 -11 -4 21 0 0.40355638D-03 0.25925876D+00 0.44022402D+04 0.44022402D+04 0.44022402D+04 0.12481215D+01  1  2  2  1  6  1       -3 0.235053070529D-04 0.100000000000D+01
-.107341436253D-07 0.000000000000D+00 -.743625491147D-09 0.704579537213D-08 0.000000000000D+00  6 -3 22 9900012 -11 -4 21 2 0.40355638D-03 0.25925876D+00 0.44022402D+04 0.44022402D+04 0.44022402D+04 0.12481215D+01  1  2  3  1  6  1       -3 -.101490131691D-05 0.100000000000D+01
-.411135803298D-07 0.000000000000D+00 0.000000000000D+00 0.704579537213D-08 0.000000000000D+00  6 -3 22 9900012 -11 -4 21 2 0.40355638D-03 0.25925876D+00 0.44022402D+04 0.44022402D+04 0.44022402D+04 0.12481215D+01  1  2 15  1  6  1       -3 -.388724320042D-05 0.100000000000D+01
0.157550553132D-11 0.000000000000D+00 0.000000000000D+00 0.704579537213D-08 0.000000000000D+00  6 -3 22 9900012 -11 -4 21 2 0.40843321D-03 0.25925876D+00 0.44555564D+04 0.44555564D+04 0.44555564D+04 0.12475242D+01  1  2 12  1  6  1       -3 0.146637661158D-09 0.100000000000D+01
-.119311430082D-05 0.000000000000D+00 0.000000000000D+00 0.704579537213D-08 0.000000000000D+00  6 -3 22 9900012 -11 -4 21 2 0.40355638D-03 0.25925876D+00 0.44022402D+04 0.44022402D+04 0.44022402D+04 0.12481215D+01  1  2  4  1  6  1       -3 -.112807627455D-03 0.100000000000D+01
-.335045923632D-04 0.000000000000D+00 -.370639119921D-05 0.704579537213D-08 0.000000000000D+00  6 -3 22 9900012 -11 -4 21 2 0.40877031D-03 0.25925876D+00 0.44022402D+04 0.44022402D+04 0.44022402D+04 0.12481215D+01  1  2  5  1  6  1       -3 -.311271338964D-02 0.100000000000D+01
0.335497130127D-04 0.000000000000D+00 0.370608582494D-05 0.704579537213D-08 0.000000000000D+00  6 -3 22 9900012 -11 -4 21 2 0.40355638D-03 0.25925876D+00 0.44022402D+04 0.44022402D+04 0.44022402D+04 0.12481215D+01  1  2  6  1  6  1       -3 0.317208797528D-02 0.100000000000D+01
0.119285685562D-05 0.000000000000D+00 0.000000000000D+00 0.704579537213D-08 0.258030552604D-07  6 -3 22 9900012 -11 -4 21 2 0.40604980D-03 0.26078054D+00 0.44555564D+04 0.44555564D+04 0.44555564D+04 0.12475242D+01  1  2 11  1  6  1       -3 0.110042742565D-03 0.100000000000D+01
0.193057448242D-12 0.000000000000D+00 0.000000000000D+00 0.704579537213D-08 0.000000000000D+00  6 21 22 9900012 -11 3 -4 2 0.40843321D-03 0.25925876D+00 0.44555564D+04 0.44555564D+04 0.44555564D+04 0.12475242D+01  3  4 12  3  5  1       -3 0.387106923339D-09 0.100000000000D+01
-.788885688980D-07 0.000000000000D+00 -.875185322449D-08 0.704579537213D-08 0.000000000000D+00  6 21 22 9900012 -11 3 -4 2 0.40877031D-03 0.25925876D+00 0.44022402D+04 0.44022402D+04 0.44022402D+04 0.12481215D+01  3  4  5  3  5  1       -3 -.157867365875D-03 0.100000000000D+01
0.959095894555D-08 0.000000000000D+00 0.000000000000D+00 0.704579537213D-08 0.118927705928D-09  6 21 22 9900012 -11 3 -4 2 0.40604980D-03 0.26078054D+00 0.44555564D+04 0.44555564D+04 0.44555564D+04 0.12475242D+01  3  4 11  3  5  1       -3 0.190676467883D-04 0.100000000000D+01
  </mgrwgt>
  </event>
  <event>
  7     66 0.93819742E-06 0.26881585E+02 0.78161638E-02 0.12662833E+00
       -1 -1    0    0    0  501 0.00000000E+00 0.00000000E+00 0.31769471E+02 0.31769471E+02 0.00000000E+00 0.0000E+00 0.9000E+01
       22 -1    0    0    0    0 -.00000000E+00 -.00000000E+00 -.31392108E+03 0.31392108E+03 0.00000000E+00 0.0000E+00 0.9000E+01
       24  2    1    2    0    0 0.29792707E+02 -.96319683E+01 -.48847587E+02 0.10072766E+03 0.82338291E+02 0.0000E+00 0.0000E+00
  9900012  1    3    3    0    0 0.10777056E+01 -.20792433E+02 -.17856743E+02 0.57029378E+02 0.50000000E+02 0.0000E+00 0.9000E+01
      -11  1    3    3    0    0 0.28715001E+02 0.11160465E+02 -.30990844E+02 0.43698280E+02 0.00000000E+00 0.0000E+00 0.9000E+01
       -2  1    1    2    0  502 -.28299804E+01 0.84523154E+00 -.20457106E+03 0.20459238E+03 0.00000000E+00 0.0000E+00 0.9000E+01
       21  1    1    2  502  501 -.26962727E+02 0.87867368E+01 -.28732969E+02 0.40370520E+02 0.00000000E+00 0.0000E+00 0.9000E+01
#aMCatNLO 2  0  0  5  1 0.31358719D+02 0.00000000D+00  -5  6  0 0.00000000D+00 0.00000000D+00 0.00000000D+00 0.00000000D+00 0.00000000D+00
  <mgrwgt>
 0.1463293805D-02    2    2    0
 0.998654429640743D+02 0.000000000000000D+00 0.000000000000000D+00 0.998654429640743D+02
 0.998654429640743D+02 -.000000000000000D+00 -.000000000000000D+00 -.998654429640743D+02
 0.817181409365497D+02 0.652757661256525D+01 -.225543736941283D+02 0.602208064456006D+02
 0.351191243560918D+02 0.310667559419101D+02 0.104001434000447D+02 0.126509520607320D+02
 0.828936206355071D+02 -.375943325544753D+02 0.121542302940836D+02 -.728717585063327D+02
 0.000000000000000D+00 0.000000000000000D+00 0.000000000000000D+00 0.000000000000000D+00
 0.998654429640743D+02 0.000000000000000D+00 0.000000000000000D+00 0.998654429640743D+02
 0.998654429640743D+02 -.000000000000000D+00 -.000000000000000D+00 -.998654429640743D+02
 0.734799152548552D+02 0.107770562290461D+01 -.207924329285781D+02 0.496569353601452D+02
 0.318526902121308D+02 0.287150012982169D+02 0.111604645865748D+02 0.809237940319053D+01
 0.651156094602128D+02 -.282998039900921D+01 0.845231544471433D+00 -.650485925286044D+02
 0.292826710009498D+02 -.269627265221123D+02 0.878673679753186D+01 0.729927776526871D+01
-.221349322281D-06 0.000000000000D+00 0.000000000000D+00 0.482463123565D-07 0.000000000000D+00  6 -1 22 9900012 -11 -2 21 2 0.48876109D-02 0.48295551D-01 0.33803237D+04 0.33803237D+04 0.33803237D+04 0.12614510D+01  1  2 13  2  6  5       -2 -.221820604671D-04 0.100000000000D+01
0.148231980812D-04 0.000000000000D+00 0.000000000000D+00 0.482463123565D-07 0.179896049424D-07  6 -1 22 9900012 -11 -2 21 2 0.48876109D-02 0.48295551D-01 0.33803237D+04 0.33803237D+04 0.33803237D+04 0.12614510D+01  1  2  1  2  6  5       -2 0.148547586577D-02 0.100000000000D+01
  </mgrwgt>
  </event>
  <event>
  6     66 0.93819742E-06 0.77546993E+02 0.78161638E-02 0.11800919E+00
       -1 -1    0    0    0  501 0.00000000E+00 0.00000000E+00 0.14079534E+02 0.14079534E+02 0.00000000E+00 0.0000E+00 0.9000E+01
       22 -1    0    0    0    0 -.00000000E+00 -.00000000E+00 -.65296630E+03 0.65296630E+03 0.00000000E+00 0.0000E+00 0.9000E+01
       24  2    1    2    0    0 0.43611824E+02 -.64121330E+02 -.42998644E+03 0.44421657E+03 0.80165352E+02 0.0000E+00 0.0000E+00
  9900012  1    3    3    0    0 0.27053916E+02 -.24464863E+02 -.17471580E+03 0.18535386E+03 0.50000000E+02 0.0000E+00 0.9000E+01
      -11  1    3    3    0    0 0.16557908E+02 -.39656467E+02 -.25527064E+03 0.25886270E+03 0.00000000E+00 0.0000E+00 0.9000E+01
       -2  1    1    2    0  501 -.43611824E+02 0.64121330E+02 -.20890032E+03 0.22282926E+03 0.00000000E+00 0.0000E+00 0.9000E+01
#aMCatNLO 1  0  0  5  1 0.35883164D+00 0.00000000D+00  -5  6  0 0.00000000D+00 0.00000000D+00 0.00000000D+00 0.00000000D+00 0.00000000D+00
  <mgrwgt>
 0.4419234861D-04    7    2    0
 0.958825387776134D+02 0.000000000000000D+00 0.000000000000000D+00 0.958825387776134D+02
 0.958825387776134D+02 -.000000000000000D+00 -.000000000000000D+00 -.958825387776134D+02
 0.626595314437178D+02 0.270539155898918D+02 -.244648629764783D+02 0.978636865969213D+01
 0.499791439865271D+02 0.165579079499535D+02 -.396564665387325D+02 -.255169586669194D+02
 0.791264021249818D+02 -.436118235398453D+02 0.641213295152108D+02 0.157305900072272D+02
 0.000000000000000D+00 0.000000000000000D+00 0.000000000000000D+00 0.000000000000000D+00
 0.958825387776134D+02 0.000000000000000D+00 0.000000000000000D+00 0.958825387776134D+02
 0.958825387776134D+02 -.000000000000000D+00 -.000000000000000D+00 -.958825387776134D+02
 0.626289954341334D+02 0.270217340550579D+02 -.244175473030691D+02 0.979797639560377D+01
 0.499359785646752D+02 0.165322438123270D+02 -.396187332248762D+02 -.255077017270777D+02
 0.788376739027838D+02 -.436103039800365D+02 0.638446125530745D+02 0.154073249176582D+02
 0.362429653634313D+00 0.563261126516574D-01 0.191667974870802D+00 0.302400413815799D+00
0.517170539544D-06 0.000000000000D+00 0.000000000000D+00 0.332727592045D-06 0.000000000000D+00  6 -1 22 9900012 -11 -2 21 0 0.21660822D-02 0.10045635D+00 0.83185325D+04 0.83185325D+04 0.83185325D+04 0.12177091D+01  1  2  2  2  6  5       -2 0.310857201297D-04 0.100000000000D+01
-.171012288310D-07 0.000000000000D+00 -.993035522989D-09 0.332727592045D-06 0.000000000000D+00  6 -1 22 9900012 -11 -2 21 2 0.21660822D-02 0.10045635D+00 0.83185325D+04 0.83185325D+04 0.83185325D+04 0.12177091D+01  1  2  3  2  6  5       -2 -.152419864397D-05 0.100000000000D+01
-.615757930091D-07 0.000000000000D+00 0.000000000000D+00 0.332727592045D-06 0.000000000000D+00  6 -1 22 9900012 -11 -2 21 2 0.21660822D-02 0.10045635D+00 0.83185325D+04 0.83185325D+04 0.83185325D+04 0.12177091D+01  1  2 15  2  6  5       -2 -.548812843414D-05 0.100000000000D+01
-.342409058713D-04 0.000000000000D+00 0.000000000000D+00 0.332727592045D-06 0.000000000000D+00  6 -1 22 9900012 -11 -2 21 2 0.21660822D-02 0.10045635D+00 0.83185325D+04 0.83185325D+04 0.83185325D+04 0.12177091D+01  1  2  4  2  6  5       -2 -.305182410066D-02 0.100000000000D+01
-.343492467882D-04 0.000000000000D+00 0.000000000000D+00 0.332727592045D-06 0.000000000000D+00  6 -1 22 9900012 -11 -2 21 2 0.21660822D-02 0.10045635D+00 0.83185325D+04 0.83185325D+04 0.83185325D+04 0.12177091D+01  1  2  5  2  6  5       -2 -.306148031194D-02 0.100000000000D+01
0.345069399985D-04 0.000000000000D+00 -.000000000000D+00 0.332727592045D-06 0.000000000000D+00  6 -1 22 9900012 -11 -2 21 2 0.21660822D-02 0.10045635D+00 0.83185325D+04 0.83185325D+04 0.83185325D+04 0.12177091D+01  1  2  6  2  6  5       -2 0.307553519534D-02 0.100000000000D+01
0.343102069163D-04 0.000000000000D+00 0.000000000000D+00 0.332727592045D-06 0.978796883883D-04  6 -1 22 9900012 -11 -2 21 2 0.21660822D-02 0.10045635D+00 0.83087584D+04 0.83087584D+04 0.83087584D+04 0.12177632D+01  1  2 11  2  6  5       -2 0.305788817282D-02 0.100000000000D+01
  </mgrwgt>
  </event>
  <event>
  6     66 0.93819742E-06 0.48149998E+02 0.78161638E-02 0.12228098E+00
       -3 -1    0    0    0  501 0.00000000E+00 0.00000000E+00 0.93464316E+03 0.93464316E+03 0.00000000E+00 0.0000E+00 0.9000E+01
       22 -1    0    0    0    0 0.00000000E+00 0.00000000E+00 -.14489206E+03 0.14489206E+03 0.00000000E+00 0.0000E+00 0.9000E+01
       24  2    1    2    0    0 -.46323146E+02 -.19988741E+02 -.12794683E+03 0.16045151E+03 0.82637238E+02 0.0000E+00 0.0000E+00
  9900012  1    3    3    0    0 -.90071535E+01 -.17470367E+02 -.47403215E+02 0.71647801E+02 0.50000000E+02 0.0000E+00 0.9000E+01
      -11  1    3    3    0    0 -.37315993E+02 -.25183735E+01 -.80543611E+02 0.88803710E+02 0.00000000E+00 0.0000E+00 0.9000E+01
       -4  1    1    2    0  501 0.46323146E+02 0.19988741E+02 0.91769793E+03 0.91908371E+03 0.00000000E+00 0.0000E+00 0.9000E+01
#aMCatNLO 1  0  0  5  1 0.10081578D+02 0.00000000D+00  -5  6  0 0.00000000D+00 0.00000000D+00 0.00000000D+00 0.00000000D+00 0.00000000D+00
  <mgrwgt>
 0.8904974943D-05    5    2    0
 0.367997790159026D+03 0.000000000000000D+00 0.000000000000000D+00 0.367997790159026D+03
 0.367997790159026D+03 -.000000000000000D+00 -.000000000000000D+00 -.367997790159026D+03
 0.155956188811859D+03 -.900715353530688D+01 -.174703669918324D+02 -.146410348989005D+03
 0.216680836496219D+03 -.373159927092752D+02 -.251837354926785D+01 -.213428581468108D+03
 0.363358555009973D+03 0.463231462445822D+02 0.199887405411003D+02 0.359838930457114D+03
 0.000000000000000D+00 0.000000000000000D+00 0.000000000000000D+00 0.000000000000000D+00
 0.367997790159026D+03 0.000000000000000D+00 0.000000000000000D+00 0.367997790159026D+03
 0.367997790159026D+03 -.000000000000000D+00 -.000000000000000D+00 -.367997790159026D+03
 0.155843582198696D+03 -.899193294541510D+01 -.174637992077570D+02 -.146292115206726D+03
 0.216515287444960D+03 -.372948461236833D+02 -.250924865929393D+01 -.213264314457788D+03
 0.166543457825040D+03 0.215794204206505D+02 0.192006070797279D+02 0.164019476423990D+03
 0.197093252849355D+03 0.247073586484481D+02 0.772440787323102D+00 0.195536953240524D+03
0.327667995857D-04 0.000000000000D+00 0.000000000000D+00 0.557562343363D-04 0.000000000000D+00  6 -3 22 9900012 -11 -4 21 0 0.14379126D+00 0.22291086D-01 0.50110374D+04 0.50110374D+04 0.50110374D+04 0.12417377D+01  1  2  2  2  6  5       -4 0.102368689797D-04 0.100000000000D+01
0.139228529602D-05 0.000000000000D+00 -.629165690528D-07 0.557562343363D-04 0.000000000000D+00  6 -3 22 9900012 -11 -4 21 2 0.14379126D+00 0.22291086D-01 0.50110374D+04 0.50110374D+04 0.50110374D+04 0.12417377D+01  1  2  3  2  6  5       -4 0.670688894459D-06 0.100000000000D+01
-.433748219075D-05 0.000000000000D+00 0.000000000000D+00 0.557562343363D-04 0.000000000000D+00  6 -3 22 9900012 -11 -4 21 2 0.14379126D+00 0.22291086D-01 0.50110374D+04 0.50110374D+04 0.50110374D+04 0.12417377D+01  1  2 15  2  6  5       -4 -.208944326537D-05 0.100000000000D+01
0.887136911983D-03 0.000000000000D+00 0.000000000000D+00 0.557562343363D-04 0.000000000000D+00  6 -3 22 9900012 -11 -4 21 2 0.14379126D+00 0.22291086D-01 0.52347723D+04 0.52347723D+04 0.52347723D+04 0.12396080D+01  1  2 12  2  6  5       -4 0.426589736861D-03 0.100000000000D+01
-.885378733128D-03 0.000000000000D+00 0.000000000000D+00 0.557562343363D-04 0.000000000000D+00  6 -3 22 9900012 -11 -4 21 2 0.14379126D+00 0.22291086D-01 0.50110374D+04 0.50110374D+04 0.50110374D+04 0.12417377D+01  1  2  5  2  6  5       -4 -.426502876527D-03 0.100000000000D+01
  </mgrwgt>
  </event>
  <event>
  6     66 -.93819742E-06 0.33684119E+02 0.78161638E-02 0.12568306E+00
       -1 -1    0    0    0  501 0.00000000E+00 0.00000000E+00 0.11268958E+03 0.11268958E+03 0.00000000E+00 0.0000E+00 0.9000E+01
       22 -1    0    0    0    0 -.00000000E+00 -.00000000E+00 -.33475591E+03 0.33475591E+03 0.00000000E+00 0.0000E+00 0.9000E+01
       24  2    1    2    0    0 -.27608361E+01 -.38738025E+02 -.32526246E+03 0.33718354E+03 0.79930036E+02 0.0000E+00 0.0000E+00
  9900012  1    3    3    0    0 -.21061744E+02 -.34003671E+02 -.29187815E+03 0.29881884E+03 0.50000000E+02 0.0000E+00 0.9000E+01
      -11  1    3    3    0    0 0.18300908E+02 -.47343545E+01 -.33384316E+02 0.38364696E+02 0.00000000E+00 0.0000E+00 0.9000E+01
       -2  1    1    2    0  501 0.27608361E+01 0.38738025E+02 0.10319613E+03 0.11026195E+03 0.00000000E+00 0.0000E+00 0.9000E+01
#aMCatNLO 1  0  0  5  1 0.31141329D+00 0.00000000D+00  -5  6  0 0.00000000D+00 0.00000000D+00 0.00000000D+00 0.00000000D+00 0.00000000D+00
  <mgrwgt>
 -.2713713528D-03    7    2    0
 0.194225388071018D+03 0.000000000000000D+00 0.000000000000000D+00 0.194225388071018D+03
 0.194225388071018D+03 -.000000000000000D+00 -.000000000000000D+00 -.194225388071018D+03
 0.177342497052595D+03 -.210617443012664D+02 -.340036705610396D+02 -.165379909832525D+03
 0.251063404775835D+02 0.183009082376350D+02 -.473435448678201D+01 -.165224386047429D+02
 0.186001938611857D+03 0.276083606363147D+01 0.387380250478216D+02 0.181902348437268D+03
 0.000000000000000D+00 0.000000000000000D+00 0.000000000000000D+00 0.000000000000000D+00
 0.194225388071018D+03 0.000000000000000D+00 0.000000000000000D+00 0.194225388071018D+03
 0.194225388071018D+03 -.000000000000000D+00 -.000000000000000D+00 -.194225388071018D+03
 0.177339316973845D+03 -.210616948069435D+02 -.340029760930320D+02 -.165376648815441D+03
 0.251060232285341D+02 0.183009152445545D+02 -.473425617083007D+01 -.165219769420091D+02
 0.179110963109036D+03 0.248185320054933D+01 0.375540601168147D+02 0.175112164281297D+03
 0.689447283062193D+01 0.278926361839662D+00 0.118317214704736D+01 0.678646147615281D+01
0.172873165385D-06 0.000000000000D+00 0.000000000000D+00 0.354976514630D-04 0.000000000000D+00  6 -1 22 9900012 -11 -2 21 0 0.17336858D-01 0.51500909D-01 0.37069647D+04 0.37069647D+04 0.37069647D+04 0.12567463D+01  1  2  2  2  6  5       -2 0.155415248678D-05 0.100000000000D+01
0.920933132302D-08 0.000000000000D+00 -.331939236815D-09 0.354976514630D-04 0.000000000000D+00  6 -1 22 9900012 -11 -2 21 2 0.17336858D-01 0.51500909D-01 0.37069647D+04 0.37069647D+04 0.37069647D+04 0.12567463D+01  1  2  3  2  6  5       -2 0.130764345537D-06 0.100000000000D+01
-.222333578249D-07 0.000000000000D+00 0.000000000000D+00 0.354976514630D-04 0.000000000000D+00  6 -1 22 9900012 -11 -2 21 2 0.17336858D-01 0.51500909D-01 0.37069647D+04 0.37069647D+04 0.37069647D+04 0.12567463D+01  1  2 15  2  6  5       -2 -.315693982885D-06 0.100000000000D+01
-.897597588440D-03 0.000000000000D+00 0.000000000000D+00 0.354976514630D-04 0.000000000000D+00  6 -1 22 9900012 -11 -2 21 2 0.17336858D-01 0.51500909D-01 0.37069647D+04 0.37069647D+04 0.37069647D+04 0.12567463D+01  1  2  4  2  6  5       -2 -.127450905056D-01 0.100000000000D+01
-.617538051730D-03 0.000000000000D+00 0.000000000000D+00 0.354976514630D-04 0.000000000000D+00  6 -1 22 9900012 -11 -2 21 2 0.17336858D-01 0.51500909D-01 0.37069647D+04 0.37069647D+04 0.37069647D+04 0.12567463D+01  1  2  5  2  6  5       -2 -.876849321049D-02 0.100000000000D+01
0.640852059191D-03 0.000000000000D+00 -.000000000000D+00 0.354976514630D-04 0.000000000000D+00  6 -1 22 9900012 -11 -2 21 2 0.17336858D-01 0.51500909D-01 0.37069647D+04 0.37069647D+04 0.37069647D+04 0.12567463D+01  1  2  6  2  6  5       -2 0.909953146077D-02 0.100000000000D+01
0.855075666228D-03 0.000000000000D+00 0.000000000000D+00 0.354976514630D-04 0.402657675886D-02  6 -1 22 9900012 -11 -2 21 2 0.17336858D-01 0.51500909D-01 0.37078720D+04 0.37078720D+04 0.37078720D+04 0.12567339D+01  1  2 11  2  6  5       -2 0.121413116797D-01 0.100000000000D+01
  </mgrwgt>
  </event>
  <event>
  6     66 0.93819742E-06 0.15929028E+02 0.78161638E-02 0.12706421E+00
       -3 -1    0    0    0  501 0.00000000E+00 0.00000000E+00 0.29758548E+03 0.29758548E+03 0.00000000E+00 0.0000E+00 0.9000E+01
       22 -1    0    0    0    0 0.00000000E+00 0.00000000E+00 -.31997851E+02 0.31997851E+02 0.00000000E+00 0.0000E+00 0.9000E+01
       24  2    1    2    0    0 0.79329129E+01 -.13813140E+02 0.23208004E+02 0.86680848E+02 0.81983071E+02 0.0000E+00 0.0000E+00
  9900012  1    3    3    0    0 -.10762171E+02 -.21644990E+02 0.32538862E+02 0.64366975E+02 0.50000000E+02 0.0000E+00 0.9000E+01
      -11  1    3    3    0    0 0.18695084E+02 0.78318497E+01 -.93308573E+01 0.22313873E+02 0.00000000E+00 0.0000E+00 0.9000E+01
       -4  1    1    2    0  501 -.79329129E+01 0.13813140E+02 0.24237963E+03 0.24290249E+03 0.00000000E+00 0.0000E+00 0.9000E+01
#aMCatNLO 1  0  0  5  5 0.21102724D+02 0.00000000D+00  -5  6  0 0.00000000D+00 0.00000000D+00 0.00000000D+00 0.00000000D+00 0.00000000D+00
  <mgrwgt>
 0.1666055689D-04    6    2    0
 0.975812275068940D+02 0.000000000000000D+00 0.000000000000000D+00 0.975812275068940D+02
 0.975812275068940D+02 -.000000000000000D+00 -.000000000000000D+00 -.975812275068940D+02
 0.644199874113684D+02 -.107621711308878D+02 -.216449897879477D+02 -.326436037794541D+02
 0.503808020581682D+02 0.186950840203108D+02 0.783184973605266D+01 -.461235425700340D+02
 0.803616655442513D+02 -.793291288942301D+01 0.138131400518950D+02 0.787671463494881D+02
 0.000000000000000D+00 0.000000000000000D+00 0.000000000000000D+00 0.000000000000000D+00
 0.975812275068940D+02 0.000000000000000D+00 0.000000000000000D+00 0.975812275068940D+02
 0.975812275068940D+02 -.000000000000000D+00 -.000000000000000D+00 -.975812275068940D+02
 0.624344579930215D+02 -.111419999481913D+02 -.209836149912883D+02 -.288722233978310D+02
 0.476982435434950D+02 0.184014147856665D+02 0.834319964290502D+01 -.432076543072989D+02
 0.488745520905825D+02 0.577299826049866D+01 -.103585624144301D+02 0.474140751027129D+02
 0.361552013866888D+02 -.130324130979739D+02 0.229989777628134D+02 0.246658026024169D+02
0.352150531530D-06 0.000000000000D+00 0.000000000000D+00 0.488649146374D-06 0.000000000000D+00  6 -3 22 9900012 -11 -4 21 0 0.45782382D-01 0.49227463D-02 0.21038303D+04 0.21038303D+04 0.21038303D+04 0.12865408D+01  1  2  2  2  6  5       -4 0.122425014571D-04 0.100000000000D+01
0.477497691266D-07 0.000000000000D+00 -.676175382219D-09 0.488649146374D-06 0.000000000000D+00  6 -3 22 9900012 -11 -4 21 2 0.45782382D-01 0.49227463D-02 0.21038303D+04 0.21038303D+04 0.21038303D+04 0.12865408D+01  1  2  3  2  6  5       -4 0.274764234847D-05 0.100000000000D+01
-.465750987252D-07 0.000000000000D+00 0.000000000000D+00 0.488649146374D-06 0.000000000000D+00  6 -3 22 9900012 -11 -4 21 2 0.45782382D-01 0.49227463D-02 0.21038303D+04 0.21038303D+04 0.21038303D+04 0.12865408D+01  1  2 15  2  6  5       -4 -.268004884595D-05 0.100000000000D+01
-.442289258395D-08 0.000000000000D+00 0.000000000000D+00 0.488649146374D-06 0.000000000000D+00  6 -3 22 9900012 -11 -4 21 2 0.45782382D-01 0.49227463D-02 0.21038303D+04 0.21038303D+04 0.21038303D+04 0.12865408D+01  1  2  4  2  6  5       -4 -.254504413083D-06 0.100000000000D+01
-.149475442724D-06 0.000000000000D+00 0.000000000000D+00 0.488649146374D-06 0.000000000000D+00  6 -3 22 9900012 -11 -4 21 2 0.45782382D-01 0.49227463D-02 0.21038303D+04 0.21038303D+04 0.21038303D+04 0.12865408D+01  1  2  5  2  6  5       -4 -.860119460256D-05 0.100000000000D+01
0.229502626756D-06 0.000000000000D+00 -.000000000000D+00 0.488649146374D-06 0.000000000000D+00  6 -3 22 9900012 -11 -4 21 2 0.45782382D-01 0.49227463D-02 0.21038303D+04 0.21038303D+04 0.21038303D+04 0.12865408D+01  1  2  6  2  6  5       -4 0.132061609489D-04 0.100000000000D+01
  </mgrwgt>
  </event>
  <event>
  6     66 0.93819742E-06 0.25462735E+02 0.78161638E-02 0.12572722E+00
       -1 -1    0    0    0  501 0.00000000E+00 0.00000000E+00 0.40965768E+02 0.40965768E+02 0.00000000E+00 0.0000E+00 0.9000E+01
       22 -1    0    0    0    0 0.00000000E+00 0.00000000E+00 -.14429811E+03 0.14429811E+03 0.00000000E+00 0.0000E+00 0.9000E+01
       24  2    1    2    0    0 0.12843895E+02 0.21986023E+02 -.12316118E+03 0.15299108E+03 0.87116251E+02 0.0000E+00 0.0000E+00
  9900012  1    3    3    0    0 -.74268495E+01 -.94372122E+01 -.55331926E+02 0.75537018E+02 0.50000000E+02 0.0000E+00 0.9000E+01
      -11  1    3    3    0    0 0.20270744E+02 0.31423236E+02 -.67829259E+02 0.77454058E+02 0.00000000E+00 0.0000E+00 0.9000E+01
       -2  1    1    2    0  501 -.12843895E+02 -.21986023E+02 0.19828841E+02 0.32272803E+02 0.00000000E+00 0.0000E+00 0.9000E+01
#aMCatNLO 1  0  0  1  5 0.86184310D+01 0.00000000D+00  -5  6  0 0.00000000D+00 0.00000000D+00 0.00000000D+00 0.00000000D+00 0.00000000D+00
  <mgrwgt>
 0.5102268152D-04   11    4    0
 0.768848679773167D+02 0.000000000000000D+00 0.000000000000000D+00 0.768848679773167D+02
 0.768848679773167D+02 0.000000000000000D+00 0.000000000000000D+00 -.768848679773167D+02
 0.538253080136165D+02 -.742684954135996D+01 -.943721224666002D+01 -.159042357144939D+02
 0.477368514599673D+02 0.202707444458068D+02 0.314232355401667D+02 -.296729535960103D+02
 0.522075764810495D+02 -.128438949044468D+02 -.219860232935067D+02 0.455771893105042D+02
 0.000000000000000D+00 -.000000000000000D+00 -.000000000000000D+00 0.000000000000000D+00
 0.862099078453290D+02 0.000000000000000D+00 0.000000000000000D+00 0.862099078453290D+02
 0.786638713990291D+02 0.000000000000000D+00 0.000000000000000D+00 -.786638713990291D+02
 0.532976000538619D+02 -.528348381680371D+01 -.773138128647232D+01 -.159042357144939D+02
 0.496124534211414D+02 0.222185553030336D+02 0.329734311165820D+02 -.296729535960103D+02
 0.510609185756161D+02 -.107776500953390D+02 -.203415702137912D+02 0.455771893105042D+02
 0.109028071937387D+02 -.615742139089089D+01 -.490047961631853D+01 0.754603644629995D+01
 0.768848679773167D+02 0.000000000000000D+00 0.000000000000000D+00 0.768848679773167D+02
 0.768848679773167D+02 0.000000000000000D+00 0.000000000000000D+00 -.768848679773167D+02
 0.538253080136165D+02 -.742684954135996D+01 -.943721224666002D+01 -.159042357144939D+02
 0.477368514599673D+02 0.202707444458068D+02 0.314232355401667D+02 -.296729535960103D+02
 0.000000000000000D+00 -.000000000000000D+00 -.000000000000000D+00 0.000000000000000D+00
 0.522075764810495D+02 -.128438949044468D+02 -.219860232935067D+02 0.455771893105042D+02
 0.862099078453290D+02 0.000000000000000D+00 0.000000000000000D+00 0.862099078453290D+02
 0.786638713990291D+02 0.000000000000000D+00 0.000000000000000D+00 -.786638713990291D+02
 0.532976000538619D+02 -.528348381680371D+01 -.773138128647232D+01 -.159042357144939D+02
 0.496124534211414D+02 0.222185553030336D+02 0.329734311165820D+02 -.296729535960103D+02
 0.109028071937387D+02 -.615742139089089D+01 -.490047961631853D+01 0.754603644629995D+01
 0.510609185756161D+02 -.107776500953390D+02 -.203415702137912D+02 0.455771893105042D+02
0.701687509428D-07 0.000000000000D+00 0.000000000000D+00 0.149723535174D-07 0.000000000000D+00  6 -1 22 9900012 -11 -2 21 0 0.63024258D-02 0.22199709D-01 0.32649145D+04 0.32649145D+04 0.32649145D+04 0.12632373D+01  1  2  2  1  6  1       -1 0.102688898777D-04 0.100000000000D+01
0.410686532765D-08 0.000000000000D+00 -.134733239738D-09 0.149723535174D-07 0.000000000000D+00  6 -1 22 9900012 -11 -2 21 2 0.63024258D-02 0.22199709D-01 0.32649145D+04 0.32649145D+04 0.32649145D+04 0.12632373D+01  1  2  3  1  6  1       -1 0.959091643619D-06 0.100000000000D+01
-.882341737673D-08 0.000000000000D+00 0.000000000000D+00 0.149723535174D-07 0.000000000000D+00  6 -1 22 9900012 -11 -2 21 2 0.63024258D-02 0.22199709D-01 0.32649145D+04 0.32649145D+04 0.32649145D+04 0.12632373D+01  1  2 15  1  6  1       -1 -.206056571108D-05 0.100000000000D+01
0.202480877246D-06 0.000000000000D+00 0.000000000000D+00 0.149723535174D-07 0.000000000000D+00  6 -1 22 9900012 -11 -2 21 2 0.72303362D-02 0.22199709D-01 0.36917683D+04 0.36917683D+04 0.36917683D+04 0.12569546D+01  1  2 12  1  6  1       -1 0.389436155110D-04 0.100000000000D+01
-.196073322805D-07 0.000000000000D+00 0.000000000000D+00 0.149723535174D-07 0.000000000000D+00  6 -1 22 9900012 -11 -2 21 2 0.63024258D-02 0.22199709D-01 0.32649145D+04 0.32649145D+04 0.32649145D+04 0.12632373D+01  1  2  4  1  6  1       -1 -.457897375337D-05 0.100000000000D+01
-.383592504742D-06 0.000000000000D+00 -.673742320602D-07 0.149723535174D-07 0.000000000000D+00  6 -1 22 9900012 -11 -2 21 2 0.72238435D-02 0.22199709D-01 0.32649145D+04 0.32649145D+04 0.32649145D+04 0.12632373D+01  1  2  5  1  6  1       -1 -.736052606574D-04 0.100000000000D+01
0.389773998391D-06 0.000000000000D+00 0.667518311558D-07 0.149723535174D-07 0.000000000000D+00  6 -1 22 9900012 -11 -2 21 2 0.63024258D-02 0.22199709D-01 0.32649145D+04 0.32649145D+04 0.32649145D+04 0.12632373D+01  1  2  6  1  6  1       -1 0.910253818746D-04 0.100000000000D+01
0.209072463252D-10 0.000000000000D+00 0.000000000000D+00 0.149723535174D-07 0.346369729440D-08  6 -1 22 9900012 -11 -2 21 2 0.70668204D-02 0.22713378D-01 0.36917683D+04 0.36917683D+04 0.36917683D+04 0.12569546D+01  1  2 11  1  6  1       -1 0.401687086168D-08 0.100000000000D+01
0.429845044631D-08 0.000000000000D+00 0.000000000000D+00 0.149723535174D-07 0.000000000000D+00  6 21 22 9900012 -11 1 -2 2 0.72303362D-02 0.22199709D-01 0.36917683D+04 0.36917683D+04 0.36917683D+04 0.12569546D+01  3  4 12  3  5  1       -1 0.125914121251D-04 0.100000000000D+01
-.770529322014D-08 0.000000000000D+00 -.142258142653D-08 0.149723535174D-07 0.000000000000D+00  6 21 22 9900012 -11 1 -2 2 0.72238435D-02 0.22199709D-01 0.32649145D+04 0.32649145D+04 0.32649145D+04 0.12632373D+01  3  4  5  3  5  1       -1 -.225386852487D-04 0.100000000000D+01
0.468561492241D-11 0.000000000000D+00 0.000000000000D+00 0.149723535174D-07 0.699652485314D-10  6 21 22 9900012 -11 1 -2 2 0.70668204D-02 0.22713378D-01 0.36917683D+04 0.36917683D+04 0.36917683D+04 0.12569546D+01  3  4 11  3  5  1       -1 0.137589895953D-07 0.100000000000D+01
  </mgrwgt>
  </event>
  <event>
  6     66 0.93819742E-06 0.61453167E+02 0.78161638E-02 0.11362509E+00
       -1 -1    0    0    0  501 0.00000000E+00 0.00000000E+00 0.51027988E+02 0.51027988E+02 0.00000000E+00 0.0000E+00 0.9000E+01
       22 -1    0    0    0    0 0.00000000E+00 0.00000000E+00 -.27749984E+03 0.27749984E+03 0.00000000E+00 0.0000E+00 0.9000E+01
       24  2    1    2    0    0 0.68935570E+02 -.71743352E+02 -.17220966E+03 0.21519819E+03 0.82188037E+02 0.0000E+00 0.0000E+00
  9900012  1    3    3    0    0 0.61815242E+02 -.30591054E+02 -.13280864E+03 0.15778172E+03 0.50000000E+02 0.0000E+00 0.9000E+01
      -11  1    3    3    0    0 0.71203279E+01 -.41152298E+02 -.39401019E+02 0.57416470E+02 0.00000000E+00 0.0000E+00 0.9000E+01
       -2  1    1    2    0  501 -.68935570E+02 0.71743352E+02 -.54262196E+02 0.11332964E+03 0.00000000E+00 0.0000E+00 0.9000E+01
#aMCatNLO 1  0  0  1  5 0.96114142D+01 0.00000000D+00  -5  6  0 0.00000000D+00 0.00000000D+00 0.00000000D+00 0.00000000D+00 0.00000000D+00
  <mgrwgt>
 0.3066407538D-04   11    4    0
 0.118996885026573D+03 0.000000000000000D+00 0.000000000000000D+00 0.118996885026573D+03
 0.118996885026573D+03 0.000000000000000D+00 0.000000000000000D+00 -.118996885026573D+03
 0.914236853241720D+02 0.618152422519362D+02 -.305910537267512D+02 -.331866463426886D+02
 0.417644817751699D+02 0.712032790619920D+01 -.411522982918800D+02 0.247414132240307D+00
 0.104805602953803D+03 -.689355701581354D+02 0.717433520186312D+02 0.329392322104482D+02
 0.000000000000000D+00 0.000000000000000D+00 0.000000000000000D+00 0.000000000000000D+00
 0.129799120414488D+03 0.000000000000000D+00 0.000000000000000D+00 0.129799120414488D+03
 0.120900827533134D+03 0.000000000000000D+00 0.000000000000000D+00 -.120900827533134D+03
 0.905259346421931D+02 0.592911129530801D+02 -.328352748146415D+02 -.331866463426886D+02
 0.426111699055437D+02 0.594981128430827D+01 -.421930128415523D+02 0.247414132240307D+00
 0.105020740809686D+03 -.718464243938474D+02 0.691552910732113D+02 0.329392322104482D+02
 0.125421025901983D+02 0.660550015645905D+01 0.587299658298249D+01 0.889829288135402D+01
 0.118996885026573D+03 0.000000000000000D+00 0.000000000000000D+00 0.118996885026573D+03
 0.118996885026573D+03 0.000000000000000D+00 0.000000000000000D+00 -.118996885026573D+03
 0.914236853241720D+02 0.618152422519362D+02 -.305910537267512D+02 -.331866463426886D+02
 0.417644817751699D+02 0.712032790619920D+01 -.411522982918800D+02 0.247414132240307D+00
 0.000000000000000D+00 0.000000000000000D+00 0.000000000000000D+00 0.000000000000000D+00
 0.104805602953803D+03 -.689355701581354D+02 0.717433520186312D+02 0.329392322104482D+02
 0.129799120414488D+03 0.000000000000000D+00 0.000000000000000D+00 0.129799120414488D+03
 0.120900827533134D+03 0.000000000000000D+00 0.000000000000000D+00 -.120900827533134D+03
 0.905259346421931D+02 0.592911129530801D+02 -.328352748146415D+02 -.331866463426886D+02
 0.426111699055437D+02 0.594981128430827D+01 -.421930128415523D+02 0.247414132240307D+00
 0.125421025901983D+02 0.660550015645905D+01 0.587299658298249D+01 0.889829288135402D+01
 0.105020740809686D+03 -.718464243938474D+02 0.691552910732113D+02 0.329392322104482D+02
0.271341276861D-06 0.000000000000D+00 0.000000000000D+00 0.817881355182D-07 0.000000000000D+00  6 -1 22 9900012 -11 -2 21 0 0.78504598D-02 0.42692283D-01 0.12819474D+05 0.12819474D+05 0.12819474D+05 0.11983073D+01  1  2  2  1  6  1       -1 0.119856878375D-04 0.100000000000D+01
-.747155067740D-08 0.000000000000D+00 -.521010974473D-09 0.817881355182D-07 0.000000000000D+00  6 -1 22 9900012 -11 -2 21 2 0.78504598D-02 0.42692283D-01 0.12819474D+05 0.12819474D+05 0.12819474D+05 0.11983073D+01  1  2  3  1  6  1       -1 -.473908271693D-06 0.100000000000D+01
-.307591423871D-07 0.000000000000D+00 0.000000000000D+00 0.817881355182D-07 0.000000000000D+00  6 -1 22 9900012 -11 -2 21 2 0.78504598D-02 0.42692283D-01 0.12819474D+05 0.12819474D+05 0.12819474D+05 0.11983073D+01  1  2 15  1  6  1       -1 -.195100222655D-05 0.100000000000D+01
0.110416731726D-05 0.000000000000D+00 0.000000000000D+00 0.817881355182D-07 0.000000000000D+00  6 -1 22 9900012 -11 -2 21 2 0.87001137D-02 0.42692283D-01 0.13852602D+05 0.13852602D+05 0.13852602D+05 0.11949289D+01  1  2 12  1  6  1       -1 0.602127254513D-04 0.100000000000D+01
-.724335811271D-06 0.000000000000D+00 0.000000000000D+00 0.817881355182D-07 0.000000000000D+00  6 -1 22 9900012 -11 -2 21 2 0.78504598D-02 0.42692283D-01 0.12819474D+05 0.12819474D+05 0.12819474D+05 0.11983073D+01  1  2  4  1  6  1       -1 -.459434389548D-04 0.100000000000D+01
-.238927292778D-05 0.000000000000D+00 -.340924970845D-06 0.817881355182D-07 0.000000000000D+00  6 -1 22 9900012 -11 -2 21 2 0.86930425D-02 0.42692283D-01 0.12819474D+05 0.12819474D+05 0.12819474D+05 0.11983073D+01  1  2  5  1  6  1       -1 -.130327002302D-03 0.100000000000D+01
0.241324220823D-05 0.000000000000D+00 0.339160827446D-06 0.817881355182D-07 0.000000000000D+00  6 -1 22 9900012 -11 -2 21 2 0.78504598D-02 0.42692283D-01 0.12819474D+05 0.12819474D+05 0.12819474D+05 0.11983073D+01  1  2  6  1  6  1       -1 0.153068016729D-03 0.100000000000D+01
0.240085343138D-11 0.000000000000D+00 0.000000000000D+00 0.817881355182D-07 0.572023600244D-08  6 -1 22 9900012 -11 -2 21 2 0.85631046D-02 0.43375357D-01 0.13852602D+05 0.13852602D+05 0.13852602D+05 0.11949289D+01  1  2 11  1  6  1       -1 0.130619211570D-09 0.100000000000D+01
0.183713554467D-07 0.000000000000D+00 0.000000000000D+00 0.817881355182D-07 0.000000000000D+00  6 21 22 9900012 -11 1 -2 2 0.87001137D-02 0.42692283D-01 0.13852602D+05 0.13852602D+05 0.13852602D+05 0.11949289D+01  3  4 12  3  5  1       -1 0.146354145780D-04 0.100000000000D+01
-.382938293313D-07 0.000000000000D+00 -.563047798328D-08 0.817881355182D-07 0.000000000000D+00  6 21 22 9900012 -11 1 -2 2 0.86930425D-02 0.42692283D-01 0.12819474D+05 0.12819474D+05 0.12819474D+05 0.11983073D+01  3  4  5  3  5  1       -1 -.305425966268D-04 0.100000000000D+01
0.609058216552D-13 0.000000000000D+00 0.000000000000D+00 0.817881355182D-07 0.114226255384D-09  6 21 22 9900012 -11 1 -2 2 0.85631046D-02 0.43375357D-01 0.13852602D+05 0.13852602D+05 0.13852602D+05 0.11949289D+01  3  4 11  3  5  1       -1 0.485428644606D-10 0.100000000000D+01
  </mgrwgt>
  </event>
  <event>
  6     66 0.93819742E-06 0.47394582E+02 0.78161638E-02 0.12119965E+00
       -1 -1    0    0    0  501 0.00000000E+00 0.00000000E+00 0.24034762E+03 0.24034762E+03 0.00000000E+00 0.0000E+00 0.9000E+01
       22 -1    0    0    0    0 0.00000000E+00 0.00000000E+00 -.37877321E+03 0.37877321E+03 0.00000000E+00 0.0000E+00 0.9000E+01
       24  2    1    2    0    0 -.47577672E+02 -.10270848E+02 -.37061904E+03 0.38188061E+03 0.78135830E+02 0.0000E+00 0.0000E+00
  9900012  1    3    3    0    0 -.44893820E+02 -.26630580E+02 -.33325602E+03 0.34100471E+03 0.50000000E+02 0.0000E+00 0.9000E+01
      -11  1    3    3    0    0 -.26838525E+01 0.16359732E+02 -.37363021E+02 0.40875900E+02 0.00000000E+00 0.0000E+00 0.9000E+01
       -2  1    1    2    0  501 0.47577672E+02 0.10270848E+02 0.23219344E+03 0.23724022E+03 0.00000000E+00 0.0000E+00 0.9000E+01
#aMCatNLO 1  0  0  1  5 0.13279525D+02 0.00000000D+00  -5  6  0 0.00000000D+00 0.00000000D+00 0.00000000D+00 0.00000000D+00 0.00000000D+00
  <mgrwgt>
 0.5535393530D-03    9    4    0
 0.301723779795059D+03 0.000000000000000D+00 0.000000000000000D+00 0.301723779795059D+03
 0.301723779795059D+03 0.000000000000000D+00 0.000000000000000D+00 -.301723779795059D+03
 0.273415571816025D+03 -.448938197067287D+02 -.266305799712740D+02 -.263688134116834D+03
 0.333668148213576D+02 -.268385252709485D+01 0.163597319238526D+02 -.289568720395566D+02
 0.296665172952735D+03 0.475776722338235D+02 0.102708480474215D+02 0.292645006156390D+03
 0.000000000000000D+00 -.000000000000000D+00 0.000000000000000D+00 0.000000000000000D+00
 0.364642805992910D+03 0.000000000000000D+00 0.000000000000000D+00 0.364642805992910D+03
 0.302488167510067D+03 0.000000000000000D+00 0.000000000000000D+00 -.302488167510067D+03
 0.273148291523186D+03 -.404810070682595D+02 -.306568940820428D+02 -.263688134116834D+03
 0.330903848175163D+02 -.214729460558863D+01 0.158701687115439D+02 -.289568720395566D+02
 0.297353066423563D+03 0.523736190023974D+02 0.589495681187075D+01 0.292645006156390D+03
 0.635392307387119D+02 -.974531732854935D+01 0.889176855862814D+01 0.621546384828433D+02
 0.301723779795059D+03 0.000000000000000D+00 0.000000000000000D+00 0.301723779795059D+03
 0.301723779795059D+03 0.000000000000000D+00 0.000000000000000D+00 -.301723779795059D+03
 0.273415571816025D+03 -.448938197067287D+02 -.266305799712740D+02 -.263688134116834D+03
 0.333668148213576D+02 -.268385252709485D+01 0.163597319238526D+02 -.289568720395566D+02
 0.000000000000000D+00 -.000000000000000D+00 0.000000000000000D+00 0.000000000000000D+00
 0.296665172952735D+03 0.475776722338235D+02 0.102708480474215D+02 0.292645006156390D+03
 0.364642805992910D+03 0.000000000000000D+00 0.000000000000000D+00 0.364642805992910D+03
 0.302488167510067D+03 0.000000000000000D+00 0.000000000000000D+00 -.302488167510067D+03
 0.273148291523186D+03 -.404810070682595D+02 -.306568940820428D+02 -.263688134116834D+03
 0.330903848175163D+02 -.214729460558863D+01 0.158701687115439D+02 -.289568720395566D+02
 0.635392307387119D+02 -.974531732854935D+01 0.889176855862814D+01 0.621546384828433D+02
 0.297353066423563D+03 0.523736190023974D+02 0.589495681187075D+01 0.292645006156390D+03
0.719051088997D-05 0.000000000000D+00 0.000000000000D+00 0.484662306572D-04 0.000000000000D+00  6 -1 22 9900012 -11 -2 21 0 0.36976557D-01 0.58272802D-01 0.47288843D+04 0.47288843D+04 0.47288843D+04 0.12445819D+01  1  2  2  1  6  1       -1 0.163600482403D-04 0.100000000000D+01
0.308342266921D-06 0.000000000000D+00 -.138067275612D-07 0.484662306572D-04 0.000000000000D+00  6 -1 22 9900012 -11 -2 21 2 0.36976557D-01 0.58272802D-01 0.47288843D+04 0.47288843D+04 0.47288843D+04 0.12445819D+01  1  2  3  1  6  1       -1 0.108668798885D-05 0.100000000000D+01
-.987170014632D-06 0.000000000000D+00 0.000000000000D+00 0.484662306572D-04 0.000000000000D+00  6 -1 22 9900012 -11 -2 21 2 0.36976557D-01 0.58272802D-01 0.47288843D+04 0.47288843D+04 0.47288843D+04 0.12445819D+01  1  2 15  1  6  1       -1 -.347907475858D-05 0.100000000000D+01
0.188663852227D-03 0.000000000000D+00 0.000000000000D+00 0.484662306572D-04 0.000000000000D+00  6 -1 22 9900012 -11 -2 21 2 0.44800558D-01 0.58272802D-01 0.58656703D+04 0.58656703D+04 0.58656703D+04 0.12341149D+01  1  2 12  1  6  1       -1 0.480775346854D-03 0.100000000000D+01
-.320239322673D-04 0.000000000000D+00 0.000000000000D+00 0.484662306572D-04 0.000000000000D+00  6 -1 22 9900012 -11 -2 21 2 0.36976557D-01 0.58272802D-01 0.47288843D+04 0.47288843D+04 0.47288843D+04 0.12445819D+01  1  2  4  1  6  1       -1 -.112861667970D-03 0.100000000000D+01
-.187506258353D-03 0.000000000000D+00 -.496092864983D-05 0.484662306572D-04 0.000000000000D+00  6 -1 22 9900012 -11 -2 21 2 0.44741546D-01 0.58272802D-01 0.47288843D+04 0.47288843D+04 0.47288843D+04 0.12445819D+01  1  2  5  1  6  1       -1 -.481944446980D-03 0.100000000000D+01
0.185166442284D-03 0.000000000000D+00 0.487214470986D-05 0.484662306572D-04 0.000000000000D+00  6 -1 22 9900012 -11 -2 21 2 0.36976557D-01 0.58272802D-01 0.47288843D+04 0.47288843D+04 0.47288843D+04 0.12445819D+01  1  2  6  1  6  1       -1 0.652580493672D-03 0.100000000000D+01
0.523056977133D-05 0.000000000000D+00 0.000000000000D+00 0.484662306572D-04 0.000000000000D+00  6 21 22 9900012 -11 1 -2 2 0.44800558D-01 0.58272802D-01 0.58656703D+04 0.58656703D+04 0.58656703D+04 0.12341149D+01  3  4 12  3  5  1       -1 0.132891316074D-03 0.100000000000D+01
-.511825880470D-05 0.000000000000D+00 -.136807048063D-06 0.484662306572D-04 0.000000000000D+00  6 21 22 9900012 -11 1 -2 2 0.44741546D-01 0.58272802D-01 0.47288843D+04 0.47288843D+04 0.47288843D+04 0.12445819D+01  3  4  5  3  5  1       -1 -.131869350099D-03 0.100000000000D+01
  </mgrwgt>
  </event>
  <event>
  6     66 0.93819742E-06 0.17513890E+02 0.78161638E-02 0.12353199E+00
       -3 -1    0    0    0  501 0.00000000E+00 0.00000000E+00 0.69165448E+02 0.69165448E+02 0.00000000E+00 0.0000E+00 0.9000E+01
       22 -1    0    0    0    0 0.00000000E+00 0.00000000E+00 -.78504536E+02 0.78504536E+02 0.00000000E+00 0.0000E+00 0.9000E+01
       24  2    1    2    0    0 -.36956766E+02 0.51819766E+01 -.42576814E+02 0.97695972E+02 0.79618229E+02 0.0000E+00 0.0000E+00
  9900012  1    3    3    0    0 -.14307812E+01 -.43435325E+01 -.31546905E+02 0.59296885E+02 0.50000000E+02 0.0000E+00 0.9000E+01
      -11  1    3    3    0    0 -.35525985E+02 0.95255091E+01 -.11029910E+02 0.38399087E+02 0.00000000E+00 0.0000E+00 0.9000E+01
       -4  1    1    2    0  501 0.36956766E+02 -.51819766E+01 0.33237726E+02 0.49974012E+02 0.00000000E+00 0.0000E+00 0.9000E+01
#aMCatNLO 1  0  0  1  5 0.11163780D+02 0.00000000D+00  -5  6  0 0.00000000D+00 0.00000000D+00 0.00000000D+00 0.00000000D+00 0.00000000D+00
  <mgrwgt>
 0.5958941252D-04    9    4    0
 0.736871862922923D+02 0.000000000000000D+00 0.000000000000000D+00 0.736871862922923D+02
 0.736871862922923D+02 0.000000000000000D+00 0.000000000000000D+00 -.736871862922923D+02
 0.574167045689925D+02 -.143078116744112D+01 -.434353252110781D+01 -.278525502252836D+02
 0.377771461676591D+02 -.355259851654986D+02 0.952550914541486D+01 -.861869051040057D+01
 0.521805218479329D+02 0.369567663329398D+02 -.518197662430705D+01 0.364712407356842D+02
 0.000000000000000D+00 -.000000000000000D+00 0.000000000000000D+00 0.000000000000000D+00
 0.920811372095683D+02 0.000000000000000D+00 0.000000000000000D+00 0.920811372095683D+02
 0.754289163027497D+02 0.000000000000000D+00 0.000000000000000D+00 -.754289163027497D+02
 0.578660243641983D+02 -.986095367449740D+00 -.846993728384970D+01 -.278525502252836D+02
 0.369179762924473D+02 -.352378599572042D+02 0.685188828368462D+01 -.861869051040057D+01
 0.529728838506773D+02 0.373623797909800D+02 -.894581460861373D+01 0.364712407356842D+02
 0.197531690049951D+02 -.113842446632603D+01 0.105638636087788D+02 0.166522209068186D+02
 0.736871862922923D+02 0.000000000000000D+00 0.000000000000000D+00 0.736871862922923D+02
 0.736871862922923D+02 0.000000000000000D+00 0.000000000000000D+00 -.736871862922923D+02
 0.574167045689925D+02 -.143078116744112D+01 -.434353252110781D+01 -.278525502252836D+02
 0.377771461676591D+02 -.355259851654986D+02 0.952550914541486D+01 -.861869051040057D+01
 0.000000000000000D+00 -.000000000000000D+00 0.000000000000000D+00 0.000000000000000D+00
 0.521805218479329D+02 0.369567663329398D+02 -.518197662430705D+01 0.364712407356842D+02
 0.920811372095683D+02 0.000000000000000D+00 0.000000000000000D+00 0.920811372095683D+02
 0.754289163027497D+02 0.000000000000000D+00 0.000000000000000D+00 -.754289163027497D+02
 0.578660243641983D+02 -.986095367449740D+00 -.846993728384970D+01 -.278525502252836D+02
 0.369179762924473D+02 -.352378599572042D+02 0.685188828368462D+01 -.861869051040057D+01
 0.197531690049951D+02 -.113842446632603D+01 0.105638636087788D+02 0.166522209068186D+02
 0.529728838506773D+02 0.373623797909800D+02 -.894581460861373D+01 0.364712407356842D+02
0.112946440298D-06 0.000000000000D+00 0.000000000000D+00 0.487952737059D-06 0.000000000000D+00  6 -3 22 9900012 -11 -4 21 0 0.10640838D-01 0.12077621D-01 0.38631103D+04 0.38631103D+04 0.38631103D+04 0.12546596D+01  1  2  2  1  6  1       -3 0.155567969081D-04 0.100000000000D+01
0.168469457180D-08 0.000000000000D+00 -.216872035112D-09 0.487952737059D-06 0.000000000000D+00  6 -3 22 9900012 -11 -4 21 2 0.10640838D-01 0.12077621D-01 0.38631103D+04 0.38631103D+04 0.38631103D+04 0.12546596D+01  1  2  3  1  6  1       -3 0.365275583142D-06 0.100000000000D+01
-.140925427343D-07 0.000000000000D+00 0.000000000000D+00 0.487952737059D-06 0.000000000000D+00  6 -3 22 9900012 -11 -4 21 2 0.10640838D-01 0.12077621D-01 0.38631103D+04 0.38631103D+04 0.38631103D+04 0.12546596D+01  1  2 15  1  6  1       -3 -.305554600306D-05 0.100000000000D+01
0.345148926083D-06 0.000000000000D+00 0.000000000000D+00 0.487952737059D-06 0.000000000000D+00  6 -3 22 9900012 -11 -4 21 2 0.13611326D-01 0.12077621D-01 0.46011261D+04 0.46011261D+04 0.46011261D+04 0.12459329D+01  1  2 12  1  6  1       -3 0.505549988852D-04 0.100000000000D+01
-.139666958877D-06 0.000000000000D+00 0.000000000000D+00 0.487952737059D-06 0.000000000000D+00  6 -3 22 9900012 -11 -4 21 2 0.10640838D-01 0.12077621D-01 0.38631103D+04 0.38631103D+04 0.38631103D+04 0.12546596D+01  1  2  4  1  6  1       -3 -.302825988186D-04 0.100000000000D+01
-.459366180630D-06 0.000000000000D+00 -.650105302911D-07 0.487952737059D-06 0.000000000000D+00  6 -3 22 9900012 -11 -4 21 2 0.13575047D-01 0.12077621D-01 0.38631103D+04 0.38631103D+04 0.38631103D+04 0.12546596D+01  1  2  5  1  6  1       -3 -.672054072342D-04 0.100000000000D+01
0.463273644735D-06 0.000000000000D+00 0.631291996209D-07 0.487952737059D-06 0.000000000000D+00  6 -3 22 9900012 -11 -4 21 2 0.10640838D-01 0.12077621D-01 0.38631103D+04 0.38631103D+04 0.38631103D+04 0.12546596D+01  1  2  6  1  6  1       -3 0.100447020824D-03 0.100000000000D+01
0.115496633793D-07 0.000000000000D+00 0.000000000000D+00 0.487952737059D-06 0.000000000000D+00  6 21 22 9900012 -11 3 -4 2 0.13611326D-01 0.12077621D-01 0.46011261D+04 0.46011261D+04 0.46011261D+04 0.12459329D+01  3  4 12  3  5  1       -3 0.291085451018D-04 0.100000000000D+01
-.142046356413D-07 0.000000000000D+00 -.215795960521D-08 0.487952737059D-06 0.000000000000D+00  6 21 22 9900012 -11 3 -4 2 0.13575047D-01 0.12077621D-01 0.38631103D+04 0.38631103D+04 0.38631103D+04 0.12546596D+01  3  4  5  3  5  1       -3 -.358996727245D-04 0.100000000000D+01
  </mgrwgt>
  </event>
  <event>
  6     66 0.93819742E-06 0.41155298E+02 0.78161638E-02 0.12139109E+00
       -3 -1    0    0    0  501 0.00000000E+00 0.00000000E+00 0.34341740E+02 0.34341740E+02 0.00000000E+00 0.0000E+00 0.9000E+01
       22 -1    0    0    0    0 -.00000000E+00 -.00000000E+00 -.20372700E+03 0.20372700E+03 0.00000000E+00 0.0000E+00 0.9000E+01
       24  2    1    2    0    0 0.25049708E+02 0.52832984E+02 -.14121766E+03 0.17316708E+03 0.81397771E+02 0.0000E+00 0.0000E+00
  9900012  1    3    3    0    0 0.16729020E+02 0.12976330E+02 -.52386250E+02 0.75449085E+02 0.50000000E+02 0.0000E+00 0.9000E+01
      -11  1    3    3    0    0 0.83206875E+01 0.39856653E+02 -.88831408E+02 0.97717990E+02 0.00000000E+00 0.0000E+00 0.9000E+01
       -4  1    1    2    0  501 -.25049708E+02 -.52832984E+02 -.28167600E+02 0.64901662E+02 0.00000000E+00 0.0000E+00 0.9000E+01
#aMCatNLO 1  0  0  5  1 0.10111223D+02 0.00000000D+00  -5  6  0 0.00000000D+00 0.00000000D+00 0.00000000D+00 0.00000000D+00 0.00000000D+00
  <mgrwgt>
 0.7072023672D-04    7    2    0
 0.836441243465994D+02 0.000000000000000D+00 0.000000000000000D+00 0.836441243465994D+02
 0.836441243465994D+02 -.000000000000000D+00 -.000000000000000D+00 -.836441243465994D+02
 0.543290402057238D+02 0.167290203236982D+02 0.129763303184689D+02 0.184372995594012D+01
 0.491180208383043D+02 0.832068750238731D+01 0.398566532839373D+02 -.274735021350342D+02
 0.638411876491707D+02 -.250497078260855D+02 -.528329836024062D+02 0.256297721790940D+02
 0.000000000000000D+00 0.000000000000000D+00 -.000000000000000D+00 0.000000000000000D+00
 0.836441243465994D+02 0.000000000000000D+00 0.000000000000000D+00 0.836441243465994D+02
 0.836441243465994D+02 -.000000000000000D+00 -.000000000000000D+00 -.836441243465994D+02
 0.539904690403957D+02 0.162790333643658D+02 0.120272512390336D+02 0.230413705255470D+01
 0.481278034039347D+02 0.791670346421090D+01 0.390046001497134D+02 -.270601632276769D+02
 0.418101636333375D+02 -.201861875341421D+02 -.280513188326766D+02 0.235314922525204D+02
 0.233598126155309D+02 -.400954929443465D+01 -.229805325560705D+02 0.122453392260184D+01
0.299442568139D-06 0.000000000000D+00 0.000000000000D+00 0.148231383021D-06 0.000000000000D+00  6 -3 22 9900012 -11 -4 21 0 0.52833446D-02 0.31342615D-01 0.58893561D+04 0.58893561D+04 0.58893561D+04 0.12339218D+01  1  2  2  2  6  5       -4 0.312768501623D-04 0.100000000000D+01
-.550786997317D-08 0.000000000000D+00 -.574969153347D-09 0.148231383021D-06 0.000000000000D+00  6 -3 22 9900012 -11 -4 21 2 0.52833446D-02 0.31342615D-01 0.58893561D+04 0.58893561D+04 0.58893561D+04 0.12339218D+01  1  2  3  2  6  5       -4 -.875928081919D-06 0.100000000000D+01
-.369935990259D-07 0.000000000000D+00 0.000000000000D+00 0.148231383021D-06 0.000000000000D+00  6 -3 22 9900012 -11 -4 21 2 0.52833446D-02 0.31342615D-01 0.58893561D+04 0.58893561D+04 0.58893561D+04 0.12339218D+01  1  2 15  2  6  5       -4 -.588316942772D-05 0.100000000000D+01
0.396226040471D-06 0.000000000000D+00 0.000000000000D+00 0.148231383021D-06 0.000000000000D+00  6 -3 22 9900012 -11 -4 21 2 0.52833446D-02 0.31342615D-01 0.57477916D+04 0.57477916D+04 0.57477916D+04 0.12350892D+01  1  2 12  2  6  5       -4 0.629573030332D-04 0.100000000000D+01
-.267855050996D-06 0.000000000000D+00 0.000000000000D+00 0.148231383021D-06 0.000000000000D+00  6 -3 22 9900012 -11 -4 21 2 0.52833446D-02 0.31342615D-01 0.58893561D+04 0.58893561D+04 0.58893561D+04 0.12339218D+01  1  2  4  2  6  5       -4 -.425975489970D-04 0.100000000000D+01
-.381047938845D-06 0.000000000000D+00 0.000000000000D+00 0.148231383021D-06 0.000000000000D+00  6 -3 22 9900012 -11 -4 21 2 0.52833446D-02 0.31342615D-01 0.58893561D+04 0.58893561D+04 0.58893561D+04 0.12339218D+01  1  2  5  2  6  5       -4 -.605988507022D-04 0.100000000000D+01
0.543548034137D-06 0.000000000000D+00 -.000000000000D+00 0.148231383021D-06 0.000000000000D+00  6 -3 22 9900012 -11 -4 21 2 0.52833446D-02 0.31342615D-01 0.58893561D+04 0.58893561D+04 0.58893561D+04 0.12339218D+01  1  2  6  2  6  5       -4 0.864415807366D-04 0.100000000000D+01
  </mgrwgt>
  </event>
  <event>
  6     66 0.93819742E-06 0.76719398E+02 0.78161638E-02 0.11190327E+00
       -1 -1    0    0    0  501 0.00000000E+00 0.00000000E+00 0.86598545E+03 0.86598545E+03 0.00000000E+00 0.0000E+00 0.9000E+01
       22 -1    0    0    0    0 0.00000000E+00 0.00000000E+00 -.21003663E+03 0.21003663E+03 0.00000000E+00 0.0000E+00 0.9000E+01
       24  2    1    2    0    0 -.87583503E+02 -.25248716E+02 -.19018118E+03 0.22499660E+03 0.78397838E+02 0.0000E+00 0.0000E+00
  9900012  1    3    3    0    0 -.41913355E+02 -.32749447E+02 -.12977237E+03 0.14889635E+03 0.50000000E+02 0.0000E+00 0.9000E+01
      -11  1    3    3    0    0 -.45670148E+02 0.75007312E+01 -.60408811E+02 0.76100249E+02 0.00000000E+00 0.0000E+00 0.9000E+01
       -2  1    1    2    0  501 0.87583503E+02 0.25248716E+02 0.84613001E+03 0.85102548E+03 0.00000000E+00 0.0000E+00 0.9000E+01
#aMCatNLO 1  0  0  1  5 0.59616692D+02 0.00000000D+00  -5  6  0 0.00000000D+00 0.00000000D+00 0.00000000D+00 0.00000000D+00 0.00000000D+00
  <mgrwgt>
 0.1058011776D-03    9    4    0
 0.426484071276619D+03 0.000000000000000D+00 0.000000000000000D+00 0.426484071276619D+03
 0.426484071276619D+03 0.000000000000000D+00 0.000000000000000D+00 -.426484071276619D+03
 0.287630672509707D+03 -.419133552284497D+02 -.327494472037977D+02 -.278212415484510D+03
 0.142456242026153D+03 -.456701482020066D+02 0.750073119076458D+01 -.134728458341304D+03
 0.422881228017379D+03 0.875835034304563D+02 0.252487160130331D+02 0.412940873825814D+03
 0.000000000000000D+00 -.000000000000000D+00 0.000000000000000D+00 0.000000000000000D+00
 0.454072791452568D+03 0.000000000000000D+00 0.000000000000000D+00 0.454072791452568D+03
 0.446217805240664D+03 0.000000000000000D+00 0.000000000000000D+00 -.446217805240664D+03
 0.288977620990936D+03 -.370060493226597D+02 -.472913270841946D+02 -.278212415484510D+03
 0.141501719297394D+03 -.432534840709043D+02 0.339400680618501D+00 -.134728458341304D+03
 0.423698252783131D+03 0.947884370616238D+02 0.389824766602155D+01 0.412940873825814D+03
 0.461130036217716D+02 -.145289036680597D+02 0.430536787375546D+02 0.785498621190379D+01
 0.426484071276619D+03 0.000000000000000D+00 0.000000000000000D+00 0.426484071276619D+03
 0.426484071276619D+03 0.000000000000000D+00 0.000000000000000D+00 -.426484071276619D+03
 0.287630672509707D+03 -.419133552284497D+02 -.327494472037977D+02 -.278212415484510D+03
 0.142456242026153D+03 -.456701482020066D+02 0.750073119076458D+01 -.134728458341304D+03
 0.000000000000000D+00 -.000000000000000D+00 0.000000000000000D+00 0.000000000000000D+00
 0.422881228017379D+03 0.875835034304563D+02 0.252487160130331D+02 0.412940873825814D+03
 0.454072791452568D+03 0.000000000000000D+00 0.000000000000000D+00 0.454072791452568D+03
 0.446217805240664D+03 0.000000000000000D+00 0.000000000000000D+00 -.446217805240664D+03
 0.288977620990936D+03 -.370060493226597D+02 -.472913270841946D+02 -.278212415484510D+03
 0.141501719297394D+03 -.432534840709043D+02 0.339400680618501D+00 -.134728458341304D+03
 0.461130036217716D+02 -.145289036680597D+02 0.430536787375546D+02 0.785498621190379D+01
 0.423698252783131D+03 0.947884370616238D+02 0.389824766602155D+01 0.412940873825814D+03
0.911429718580D-04 0.000000000000D+00 0.000000000000D+00 0.650987678536D-04 0.000000000000D+00  6 -1 22 9900012 -11 -2 21 0 0.13322853D+00 0.32313327D-01 0.11070617D+05 0.11070617D+05 0.11070617D+05 0.12047788D+01  1  2  2  1  6  1       -1 0.457109954004D-04 0.100000000000D+01
0.169989535126D-05 0.000000000000D+00 -.175006505215D-06 0.650987678536D-04 0.000000000000D+00  6 -1 22 9900012 -11 -2 21 2 0.13322853D+00 0.32313327D-01 0.11070617D+05 0.11070617D+05 0.11070617D+05 0.12047788D+01  1  2  3  1  6  1       -1 0.123746895242D-05 0.100000000000D+01
-.121432660770D-04 0.000000000000D+00 0.000000000000D+00 0.650987678536D-04 0.000000000000D+00  6 -1 22 9900012 -11 -2 21 2 0.13322853D+00 0.32313327D-01 0.11070617D+05 0.11070617D+05 0.11070617D+05 0.12047788D+01  1  2 15  1  6  1       -1 -.883990578609D-05 0.100000000000D+01
0.590056489371D-04 0.000000000000D+00 0.000000000000D+00 0.650987678536D-04 0.000000000000D+00  6 -1 22 9900012 -11 -2 21 2 0.14841028D+00 0.32313327D-01 0.17122090D+05 0.17122090D+05 0.17122090D+05 0.11858406D+01  1  2 12  1  6  1       -1 0.313504840964D-04 0.100000000000D+01
-.175794395239D-05 0.000000000000D+00 0.000000000000D+00 0.650987678536D-04 0.000000000000D+00  6 -1 22 9900012 -11 -2 21 2 0.13322853D+00 0.32313327D-01 0.11070617D+05 0.11070617D+05 0.11070617D+05 0.12047788D+01  1  2  4  1  6  1       -1 -.127972646056D-05 0.100000000000D+01
-.255708927539D-03 0.000000000000D+00 -.106644278139D-03 0.650987678536D-04 0.000000000000D+00  6 -1 22 9900012 -11 -2 21 2 0.14654477D+00 0.32313327D-01 0.11070617D+05 0.11070617D+05 0.11070617D+05 0.12047788D+01  1  2  5  1  6  1       -1 -.144560542236D-03 0.100000000000D+01
0.265146431670D-03 0.000000000000D+00 0.106162179709D-03 0.650987678536D-04 0.000000000000D+00  6 -1 22 9900012 -11 -2 21 2 0.13322853D+00 0.32313327D-01 0.11070617D+05 0.11070617D+05 0.11070617D+05 0.12047788D+01  1  2  6  1  6  1       -1 0.193018044784D-03 0.100000000000D+01
0.102321083124D-05 0.000000000000D+00 0.000000000000D+00 0.650987678536D-04 0.000000000000D+00  6 21 22 9900012 -11 1 -2 2 0.14841028D+00 0.32313327D-01 0.17122090D+05 0.17122090D+05 0.17122090D+05 0.11858406D+01  3  4 12  3  5  1       -1 0.380576853715D-05 0.100000000000D+01
-.366109760708D-05 0.000000000000D+00 -.166083505761D-05 0.650987678536D-04 0.000000000000D+00  6 21 22 9900012 -11 1 -2 2 0.14654477D+00 0.32313327D-01 0.11070617D+05 0.11070617D+05 0.11070617D+05 0.12047788D+01  3  4  5  3  5  1       -1 -.146414097314D-04 0.100000000000D+01
  </mgrwgt>
  </event>
  <event>
  6     66 0.93819742E-06 0.17249637E+02 0.78161638E-02 0.12008270E+00
       -3 -1    0    0    0  501 0.00000000E+00 0.00000000E+00 0.24056368E+03 0.24056368E+03 0.00000000E+00 0.0000E+00 0.9000E+01
       22 -1    0    0    0    0 0.00000000E+00 0.00000000E+00 -.72788010E+02 0.72788010E+02 0.00000000E+00 0.0000E+00 0.9000E+01
       24  2    1    2    0    0 0.13885245E+02 0.61740787E+02 -.29777463E+02 0.10591022E+03 0.79533336E+02 0.0000E+00 0.0000E+00
  9900012  1    3    3    0    0 -.67226499E+01 0.60227504E+02 -.13750225E+02 0.79759733E+02 0.50000000E+02 0.0000E+00 0.9000E+01
      -11  1    3    3    0    0 0.20607895E+02 0.15132825E+01 -.16027238E+02 0.26150482E+02 0.00000000E+00 0.0000E+00 0.9000E+01
       -4  1    1    2    0  501 -.13885245E+02 -.61740787E+02 0.19755313E+03 0.20744147E+03 0.00000000E+00 0.0000E+00 0.9000E+01
#aMCatNLO 1  0  0  5  1 0.97759426D+01 0.00000000D+00  -5  6  0 0.00000000D+00 0.00000000D+00 0.00000000D+00 0.00000000D+00 0.00000000D+00
  <mgrwgt>
 0.2091789142D-04    6    2    0
 0.132325928691863D+03 0.000000000000000D+00 0.000000000000000D+00 0.132325928691863D+03
 0.132325928691863D+03 -.000000000000000D+00 -.000000000000000D+00 -.132325928691863D+03
 0.103153631887442D+03 -.672264990165772D+01 0.602275044116612D+02 -.668440383445899D+02
 0.411229999182208D+02 0.206078950744603D+02 0.151328253734262D+01 -.355545462470862D+02
 0.120375225578064D+03 -.138852451728026D+02 -.617407869490038D+02 0.102398584591676D+03
 0.000000000000000D+00 0.000000000000000D+00 -.000000000000000D+00 0.000000000000000D+00
 0.132325928691863D+03 0.000000000000000D+00 0.000000000000000D+00 0.132325928691863D+03
 0.132325928691863D+03 -.000000000000000D+00 -.000000000000000D+00 -.132325928691863D+03
 0.102376281043150D+03 -.682915864038603D+01 0.597539129651873D+02 -.660585755056776D+02
 0.408245673991267D+02 0.205654285939740D+02 0.132445519640981D+01 -.352413715468723D+02
 0.259126637978719D+02 -.448207636603703D+01 -.406897777926621D+01 0.251956455837588D+02
 0.955383451435783D+02 -.925419358755090D+01 -.570093903823309D+02 0.761043014687910D+02
0.125972050787D-05 0.000000000000D+00 0.000000000000D+00 0.261021860352D-05 0.000000000000D+00  6 -3 22 9900012 -11 -4 21 0 0.37009797D-01 0.11198155D-01 0.66025238D+04 0.66025238D+04 0.66025238D+04 0.12284835D+01  1  2  2  2  6  5       -4 0.235838582789D-04 0.100000000000D+01
0.175085603595D-07 0.000000000000D+00 -.241882922112D-08 0.261021860352D-05 0.000000000000D+00  6 -3 22 9900012 -11 -4 21 2 0.37009797D-01 0.11198155D-01 0.66025238D+04 0.66025238D+04 0.66025238D+04 0.12284835D+01  1  2  3  2  6  5       -4 0.494686169653D-06 0.100000000000D+01
-.162198754436D-06 0.000000000000D+00 0.000000000000D+00 0.261021860352D-05 0.000000000000D+00  6 -3 22 9900012 -11 -4 21 2 0.37009797D-01 0.11198155D-01 0.66025238D+04 0.66025238D+04 0.66025238D+04 0.12284835D+01  1  2 15  2  6  5       -4 -.458275717175D-05 0.100000000000D+01
0.113790122950D-05 0.000000000000D+00 0.000000000000D+00 0.261021860352D-05 0.000000000000D+00  6 -3 22 9900012 -11 -4 21 2 0.37009797D-01 0.11198155D-01 0.66120909D+04 0.66120909D+04 0.66120909D+04 0.12284151D+01  1  2 12  2  6  5       -4 0.321506223306D-04 0.100000000000D+01
-.108758294338D-05 0.000000000000D+00 0.000000000000D+00 0.261021860352D-05 0.000000000000D+00  6 -3 22 9900012 -11 -4 21 2 0.37009797D-01 0.11198155D-01 0.66025238D+04 0.66025238D+04 0.66025238D+04 0.12284835D+01  1  2  5  2  6  5       -4 -.307285253267D-04 0.100000000000D+01
0.252820644770D-12 0.000000000000D+00 0.000000000000D+00 0.261021860352D-05 0.164441874235D-07  6 -3 22 9900012 -11 -4 21 2 0.37009797D-01 0.11198155D-01 0.66120909D+04 0.66120909D+04 0.66120909D+04 0.12284151D+01  1  2 11  2  6  5       -4 0.714327470315D-11 0.100000000000D+01
  </mgrwgt>
  </event>
  <event>
  6     66 0.93819742E-06 0.40089539E+02 0.78161638E-02 0.11460854E+00
       -3 -1    0    0    0  501 0.00000000E+00 0.00000000E+00 0.41907758E+02 0.41907758E+02 0.00000000E+00 0.0000E+00 0.9000E+01
       22 -1    0    0    0    0 0.00000000E+00 0.00000000E+00 -.57476586E+03 0.57476586E+03 0.00000000E+00 0.0000E+00 0.9000E+01
       24  2    1    2    0    0 0.30689822E+02 -.66238683E+02 -.53274665E+03 0.54367060E+03 0.80182959E+02 0.0000E+00 0.0000E+00
  9900012  1    3    3    0    0 0.36697000E+02 -.25855343E+02 -.35394249E+03 0.36026442E+03 0.50000000E+02 0.0000E+00 0.9000E+01
      -11  1    3    3    0    0 -.60071783E+01 -.40383339E+02 -.17880416E+03 0.18340618E+03 0.00000000E+00 0.0000E+00 0.9000E+01
       -4  1    1    2    0  501 -.30689822E+02 0.66238683E+02 -.11145837E+00 0.73003018E+02 0.00000000E+00 0.0000E+00 0.9000E+01
#aMCatNLO 1  0  0  1  5 0.38179827D+02 0.00000000D+00  -5  6  0 0.00000000D+00 0.00000000D+00 0.00000000D+00 0.00000000D+00 0.00000000D+00
  <mgrwgt>
 0.6351797029D-04    9    4    0
 0.155200350304767D+03 0.000000000000000D+00 0.000000000000000D+00 0.155200350304767D+03
 0.155200350304767D+03 0.000000000000000D+00 0.000000000000000D+00 -.155200350304767D+03
 0.108132622691899D+03 0.366970001209965D+02 -.258553430732866D+02 -.847201009614066D+02
 0.574241908853070D+02 -.600717830279090D+01 -.403833394605313D+02 -.403811515646366D+02
 0.144843887032328D+03 -.306898218182056D+02 0.662386825338179D+02 0.125101252526043D+03
 0.000000000000000D+00 -.000000000000000D+00 -.000000000000000D+00 0.000000000000000D+00
 0.212632124990192D+03 0.000000000000000D+00 0.000000000000000D+00 0.212632124990192D+03
 0.161937395462020D+03 0.000000000000000D+00 0.000000000000000D+00 -.161937395462020D+03
 0.109758203715323D+03 0.456048283103162D+02 -.170166803663368D+02 -.847201009614066D+02
 0.540264110436396D+02 -.145084690532364D+01 -.358623860308745D+02 -.403811515646366D+02
 0.148682033229578D+03 -.186898743678326D+02 0.781454555160513D+02 0.125101252526043D+03
 0.621028724636714D+02 -.254641070371600D+02 -.252663891188400D+02 0.506947295281715D+02
 0.155200350304767D+03 0.000000000000000D+00 0.000000000000000D+00 0.155200350304767D+03
 0.155200350304767D+03 0.000000000000000D+00 0.000000000000000D+00 -.155200350304767D+03
 0.108132622691899D+03 0.366970001209965D+02 -.258553430732866D+02 -.847201009614066D+02
 0.574241908853070D+02 -.600717830279090D+01 -.403833394605313D+02 -.403811515646366D+02
 0.000000000000000D+00 -.000000000000000D+00 -.000000000000000D+00 0.000000000000000D+00
 0.144843887032328D+03 -.306898218182056D+02 0.662386825338179D+02 0.125101252526043D+03
 0.212632124990192D+03 0.000000000000000D+00 0.000000000000000D+00 0.212632124990192D+03
 0.161937395462020D+03 0.000000000000000D+00 0.000000000000000D+00 -.161937395462020D+03
 0.109758203715323D+03 0.456048283103162D+02 -.170166803663368D+02 -.847201009614066D+02
 0.540264110436396D+02 -.145084690532364D+01 -.358623860308745D+02 -.403811515646366D+02
 0.621028724636714D+02 -.254641070371600D+02 -.252663891188400D+02 0.506947295281715D+02
 0.148682033229578D+03 -.186898743678326D+02 0.781454555160513D+02 0.125101252526043D+03
0.174408526220D-05 0.000000000000D+00 0.000000000000D+00 0.473998854675D-05 0.000000000000D+00  6 -3 22 9900012 -11 -4 21 0 0.64473474D-02 0.88425517D-01 0.81925695D+04 0.81925695D+04 0.81925695D+04 0.12184121D+01  1  2  2  1  6  1       -3 0.241725624808D-04 0.100000000000D+01
0.234541235147D-07 0.000000000000D+00 -.334887331752D-08 0.473998854675D-05 0.000000000000D+00  6 -3 22 9900012 -11 -4 21 2 0.64473474D-02 0.88425517D-01 0.81925695D+04 0.81925695D+04 0.81925695D+04 0.12184121D+01  1  2  3  1  6  1       -3 0.482572527591D-06 0.100000000000D+01
-.255824583208D-06 0.000000000000D+00 0.000000000000D+00 0.473998854675D-05 0.000000000000D+00  6 -3 22 9900012 -11 -4 21 2 0.64473474D-02 0.88425517D-01 0.81925695D+04 0.81925695D+04 0.81925695D+04 0.12184121D+01  1  2 15  1  6  1       -3 -.526363373421D-05 0.100000000000D+01
0.249219682791D-05 0.000000000000D+00 0.000000000000D+00 0.473998854675D-05 0.000000000000D+00  6 -3 22 9900012 -11 -4 21 2 0.92166205D-02 0.88425517D-01 0.12309249D+05 0.12309249D+05 0.12309249D+05 0.12000889D+01  1  2 12  1  6  1       -3 0.294712239667D-04 0.100000000000D+01
-.646053259808D-06 0.000000000000D+00 0.000000000000D+00 0.473998854675D-05 0.000000000000D+00  6 -3 22 9900012 -11 -4 21 2 0.64473474D-02 0.88425517D-01 0.81925695D+04 0.81925695D+04 0.81925695D+04 0.12184121D+01  1  2  4  1  6  1       -3 -.132926542468D-04 0.100000000000D+01
-.338488880919D-05 0.000000000000D+00 -.753156330700D-06 0.473998854675D-05 0.000000000000D+00  6 -3 22 9900012 -11 -4 21 2 0.91952668D-02 0.88425517D-01 0.81925695D+04 0.81925695D+04 0.81925695D+04 0.12184121D+01  1  2  5  1  6  1       -3 -.399954562182D-04 0.100000000000D+01
0.347600025319D-05 0.000000000000D+00 0.708063764193D-06 0.473998854675D-05 0.000000000000D+00  6 -3 22 9900012 -11 -4 21 2 0.64473474D-02 0.88425517D-01 0.81925695D+04 0.81925695D+04 0.81925695D+04 0.12184121D+01  1  2  6  1  6  1       -3 0.715192885820D-04 0.100000000000D+01
0.109285062552D-06 0.000000000000D+00 0.000000000000D+00 0.473998854675D-05 0.000000000000D+00  6 21 22 9900012 -11 3 -4 2 0.92166205D-02 0.88425517D-01 0.12309249D+05 0.12309249D+05 0.12309249D+05 0.12000889D+01  3  4 12  3  5  1       -3 0.223285308489D-04 0.100000000000D+01
-.125989031237D-06 0.000000000000D+00 -.328715740133D-07 0.473998854675D-05 0.000000000000D+00  6 21 22 9900012 -11 3 -4 2 0.91952668D-02 0.88425517D-01 0.81925695D+04 0.81925695D+04 0.81925695D+04 0.12184121D+01  3  4  5  3  5  1       -3 -.259044639132D-04 0.100000000000D+01
  </mgrwgt>
  </event>
  <event>
  6     66 0.93819742E-06 0.31341675E+02 0.78161638E-02 0.12083401E+00
       -1 -1    0    0    0  501 0.00000000E+00 0.00000000E+00 0.45818630E+02 0.45818630E+02 0.00000000E+00 0.0000E+00 0.9000E+01
       22 -1    0    0    0    0 0.00000000E+00 0.00000000E+00 -.86577957E+02 0.86577957E+02 0.00000000E+00 0.0000E+00 0.9000E+01
       24  2    1    2    0    0 0.25755278E+02 -.17859627E+02 -.43046409E+02 0.10097157E+03 0.85790238E+02 0.0000E+00 0.0000E+00
  9900012  1    3    3    0    0 0.40391938E+02 0.42429646E+01 -.26069952E+02 0.69492113E+02 0.50000000E+02 0.0000E+00 0.9000E+01
      -11  1    3    3    0    0 -.14636660E+02 -.22102591E+02 -.16976458E+02 0.31479461E+02 0.00000000E+00 0.0000E+00 0.9000E+01
       -2  1    1    2    0  501 -.25755278E+02 0.17859627E+02 0.22870818E+01 0.31425012E+02 0.00000000E+00 0.0000E+00 0.9000E+01
#aMCatNLO 1  0  0  1  1 0.43618758D+02 0.00000000D+00  -5  6  0 0.00000000D+00 0.00000000D+00 0.00000000D+00 0.00000000D+00 0.00000000D+00
  <mgrwgt>
 0.1826328439D-04    4    2    0
 0.629831988523846D+02 0.000000000000000D+00 0.000000000000000D+00 0.629831988523846D+02
 0.629831988523846D+02 0.000000000000000D+00 0.000000000000000D+00 -.629831988523846D+02
 0.646039344748938D+02 0.403919384613285D+02 0.424296462445940D+01 -.491496776878734D+01
 0.275932653884978D+02 -.146366603462859D+02 -.221025914614454D+02 -.765714825479914D+01
 0.337691978413776D+02 -.257552781150426D+02 0.178596268369860D+02 0.125721160235865D+02
 0.000000000000000D+00 -.000000000000000D+00 -.000000000000000D+00 -.000000000000000D+00
 0.794402311705765D+02 0.000000000000000D+00 0.000000000000000D+00 0.794402311705765D+02
 0.805450381103708D+02 0.000000000000000D+00 0.000000000000000D+00 -.805450381103708D+02
 0.710420268922401D+02 0.464101009458593D+02 0.192071655114620D+02 -.491496776878734D+01
 0.221207551670583D+02 -.124310137465108D+02 -.166182365791027D+02 -.765714825479914D+01
 0.364166452391896D+02 -.226413644863912D+02 0.256023937037312D+02 0.125721160235865D+02
 0.304058419824592D+02 -.113377227129574D+02 -.281913226360906D+02 -.110480693979427D+01
0.927535876620D-07 0.000000000000D+00 0.000000000000D+00 0.506246179174D-08 0.000000000000D+00  6 -1 22 9900012 -11 -2 21 0 0.70490199D-02 0.13319686D-01 0.37373617D+04 0.37373617D+04 0.37373617D+04 0.12563324D+01  1  2  2  1  6  1       -1 0.246972043843D-04 0.100000000000D+01
0.363938358076D-09 0.000000000000D+00 -.178099099601D-09 0.506246179174D-08 0.000000000000D+00  6 -1 22 9900012 -11 -2 21 2 0.70490199D-02 0.13319686D-01 0.37373617D+04 0.37373617D+04 0.37373617D+04 0.12563324D+01  1  2  3  1  6  1       -1 0.152951599777D-06 0.100000000000D+01
-.106658105924D-07 0.000000000000D+00 0.000000000000D+00 0.506246179174D-08 0.000000000000D+00  6 -1 22 9900012 -11 -2 21 2 0.70490199D-02 0.13319686D-01 0.37373617D+04 0.37373617D+04 0.37373617D+04 0.12563324D+01  1  2 15  1  6  1       -1 -.448249753514D-05 0.100000000000D+01
-.500722084540D-08 0.000000000000D+00 0.000000000000D+00 0.506246179174D-08 0.000000000000D+00  6 -1 22 9900012 -11 -2 21 2 0.70490199D-02 0.13319686D-01 0.37373617D+04 0.37373617D+04 0.37373617D+04 0.12563324D+01  1  2  4  1  6  1       -1 -.210437405605D-05 0.100000000000D+01
  </mgrwgt>
  </event>
  <event>
  6     66 0.93819742E-06 0.43799304E+02 0.78161638E-02 0.12089955E+00
       -1 -1    0    0    0  501 0.00000000E+00 0.00000000E+00 0.14332456E+03 0.14332456E+03 0.00000000E+00 0.0000E+00 0.9000E+01
       22 -1    0    0    0    0 -.00000000E+00 -.00000000E+00 -.27993714E+03 0.27993714E+03 0.00000000E+00 0.0000E+00 0.9000E+01
       24  2    1    2    0    0 0.16106876E+01 0.43769678E+02 -.26893673E+03 0.28387713E+03 0.79629663E+02 0.0000E+00 0.0000E+00
  9900012  1    3    3    0    0 -.17113050E+02 0.12300812E+02 -.15954977E+03 0.16852387E+03 0.50000000E+02 0.0000E+00 0.9000E+01
      -11  1    3    3    0    0 0.18723737E+02 0.31468866E+02 -.10938696E+03 0.11535326E+03 0.00000000E+00 0.0000E+00 0.9000E+01
       -2  1    1    2    0  501 -.16106876E+01 -.43769678E+02 0.13232414E+03 0.13938457E+03 0.00000000E+00 0.0000E+00 0.9000E+01
#aMCatNLO 1  0  0  5  1 0.13631694D+03 0.00000000D+00  -5  6  0 0.00000000D+00 0.00000000D+00 0.00000000D+00 0.00000000D+00 0.00000000D+00
  <mgrwgt>
 0.1039080716D-03    3    2    0
 0.200304434521996D+03 0.000000000000000D+00 0.000000000000000D+00 0.200304434521996D+03
 0.200304434521996D+03 -.000000000000000D+00 -.000000000000000D+00 -.200304434521996D+03
 0.123644774544433D+03 -.171130495396805D+02 0.123008123950032D+02 -.111102942454370D+03
 0.845737173837727D+02 0.187237371747171D+02 0.314688659054729D+02 -.762354629876787D+02
 0.192390377115786D+03 -.161068763503665D+01 -.437696783004761D+02 0.187338405442049D+03
 0.000000000000000D+00 0.000000000000000D+00 0.000000000000000D+00 -.000000000000000D+00
 0.200304434521996D+03 0.000000000000000D+00 0.000000000000000D+00 0.200304434521996D+03
 0.200304434521996D+03 -.000000000000000D+00 -.000000000000000D+00 -.200304434521996D+03
 0.680963941712149D+02 -.177025089895698D+02 -.371747068584010D+01 -.425431602763075D+02
 0.417108619317259D+02 0.183355073587029D+02 0.209189034025283D+02 -.310806153964515D+02
 0.180212015171786D+03 0.348555236272797D+02 0.792350503964684D+00 0.176807338834176D+03
 0.110589597769265D+03 -.354885219964128D+02 -.179937832206530D+02 -.103183563161417D+03
0.138657641266D-04 0.000000000000D+00 0.000000000000D+00 0.295266127538D-04 0.000000000000D+00  6 -1 22 9900012 -11 -2 21 0 0.22049932D-01 0.43067253D-01 0.45344965D+04 0.45344965D+04 0.45344965D+04 0.12466542D+01  1  2  2  2  6  5       -2 0.117666687219D-03 0.100000000000D+01
0.706745375975D-06 0.000000000000D+00 -.266240925929D-07 0.295266127538D-04 0.000000000000D+00  6 -1 22 9900012 -11 -2 21 2 0.22049932D-01 0.43067253D-01 0.45344965D+04 0.45344965D+04 0.45344965D+04 0.12466542D+01  1  2  3  2  6  5       -2 0.932104666175D-05 0.100000000000D+01
-.174995847453D-05 0.000000000000D+00 0.000000000000D+00 0.295266127538D-04 0.000000000000D+00  6 -1 22 9900012 -11 -2 21 2 0.22049932D-01 0.43067253D-01 0.45344965D+04 0.45344965D+04 0.45344965D+04 0.12466542D+01  1  2 15  2  6  5       -2 -.230796622825D-04 0.100000000000D+01
  </mgrwgt>
  </event>
  <event>
  6     66 0.93819742E-06 0.38100036E+02 0.78161638E-02 0.12199195E+00
       -1 -1    0    0    0  501 0.00000000E+00 0.00000000E+00 0.10404534E+03 0.10404534E+03 0.00000000E+00 0.0000E+00 0.9000E+01
       22 -1    0    0    0    0 0.00000000E+00 0.00000000E+00 -.54594048E+02 0.54594048E+02 0.00000000E+00 0.0000E+00 0.9000E+01
       24  2    1    2    0    0 0.45477427E+02 0.24127921E+02 0.15758331E+02 0.97112415E+02 0.80821676E+02 0.0000E+00 0.0000E+00
  9900012  1    3    3    0    0 0.41605093E+02 -.60603833E+01 0.91202061E+01 0.65961278E+02 0.50000000E+02 0.0000E+00 0.9000E+01
      -11  1    3    3    0    0 0.38723345E+01 0.30188304E+02 0.66381246E+01 0.31151137E+02 0.00000000E+00 0.0000E+00 0.9000E+01
       -2  1    1    2    0  501 -.45477427E+02 -.24127921E+02 0.33692964E+02 0.61526976E+02 0.00000000E+00 0.0000E+00 0.9000E+01
#aMCatNLO 1  0  0  5  1 0.16999421D+02 0.00000000D+00  -5  6  0 0.00000000D+00 0.00000000D+00 0.00000000D+00 0.00000000D+00 0.00000000D+00
  <mgrwgt>
 0.4129341842D-04    7    2    0
 0.753674761150055D+02 0.000000000000000D+00 0.000000000000000D+00 0.753674761150055D+02
 0.753674761150055D+02 -.000000000000000D+00 -.000000000000000D+00 -.753674761150055D+02
 0.664281957569241D+02 0.416050927502825D+02 -.606038331716461D+01 -.120413123375176D+02
 0.306069265750890D+02 0.387233449157489D+01 0.301883038687129D+02 -.323346400760912D+01
 0.536998298979979D+02 -.454774272418574D+02 -.241279205515483D+02 0.152747763451267D+02
 0.000000000000000D+00 0.000000000000000D+00 0.000000000000000D+00 0.000000000000000D+00
 0.753674761150055D+02 0.000000000000000D+00 0.000000000000000D+00 0.753674761150055D+02
 0.753674761150055D+02 -.000000000000000D+00 -.000000000000000D+00 -.753674761150055D+02
 0.635191516033592D+02 0.367661850467429D+02 -.862765212958807D+01 -.104160393744454D+02
 0.291603902237789D+02 0.164675208798729D+01 0.290075274116564D+02 -.248594429257210D+01
 0.390699799837090D+02 -.251426006905464D+02 -.297467456088711D+02 0.307312416349721D+01
 0.189854304191639D+02 -.132703364441839D+02 0.936687032680276D+01 0.982885950352024D+01
0.220955052443D-06 0.000000000000D+00 0.000000000000D+00 0.141737691077D-06 0.000000000000D+00  6 -1 22 9900012 -11 -2 21 0 0.16006976D-01 0.83990843D-02 0.54202691D+04 0.54202691D+04 0.54202691D+04 0.12379187D+01  1  2  2  2  6  5       -2 0.350982257501D-04 0.100000000000D+01
-.417940514829D-08 0.000000000000D+00 -.424262790092D-09 0.141737691077D-06 0.000000000000D+00  6 -1 22 9900012 -11 -2 21 2 0.16006976D-01 0.83990843D-02 0.54202691D+04 0.54202691D+04 0.54202691D+04 0.12379187D+01  1  2  3  2  6  5       -2 -.101737244270D-05 0.100000000000D+01
-.248046027820D-07 0.000000000000D+00 0.000000000000D+00 0.141737691077D-06 0.000000000000D+00  6 -1 22 9900012 -11 -2 21 2 0.16006976D-01 0.83990843D-02 0.54202691D+04 0.54202691D+04 0.54202691D+04 0.12379187D+01  1  2 15  2  6  5       -2 -.603806485068D-05 0.100000000000D+01
0.859559040819D-07 0.000000000000D+00 0.000000000000D+00 0.141737691077D-06 0.000000000000D+00  6 -1 22 9900012 -11 -2 21 2 0.16006976D-01 0.83990843D-02 0.53953157D+04 0.53953157D+04 0.53953157D+04 0.12381422D+01  1  2 12  2  6  5       -2 0.209215927785D-04 0.100000000000D+01
-.625789235143D-07 0.000000000000D+00 0.000000000000D+00 0.141737691077D-06 0.000000000000D+00  6 -1 22 9900012 -11 -2 21 2 0.16006976D-01 0.83990843D-02 0.54202691D+04 0.54202691D+04 0.54202691D+04 0.12379187D+01  1  2  4  2  6  5       -2 -.152332856037D-04 0.100000000000D+01
-.756726345014D-07 0.000000000000D+00 0.000000000000D+00 0.141737691077D-06 0.000000000000D+00  6 -1 22 9900012 -11 -2 21 2 0.16006976D-01 0.83990843D-02 0.54202691D+04 0.54202691D+04 0.54202691D+04 0.12379187D+01  1  2  5  2  6  5       -2 -.184206245331D-04 0.100000000000D+01
0.106738947535D-06 0.000000000000D+00 -.000000000000D+00 0.141737691077D-06 0.000000000000D+00  6 -1 22 9900012 -11 -2 21 2 0.16006976D-01 0.83990843D-02 0.54202691D+04 0.54202691D+04 0.54202691D+04 0.12379187D+01  1  2  6  2  6  5       -2 0.259829473173D-04 0.100000000000D+01
  </mgrwgt>
  </event>
  <event>
  6     66 0.93819742E-06 0.51135465E+02 0.78161638E-02 0.11696511E+00
       -3 -1    0    0    0  501 0.00000000E+00 0.00000000E+00 0.95365016E+02 0.95365016E+02 0.00000000E+00 0.0000E+00 0.9000E+01
       22 -1    0    0    0    0 -.00000000E+00 -.00000000E+00 -.12783826E+03 0.12783826E+03 0.00000000E+00 0.0000E+00 0.9000E+01
       24  2    1    2    0    0 -.23391801E+02 0.45471524E+02 -.99870025E+02 0.13860326E+03 0.81375716E+02 0.0000E+00 0.0000E+00
  9900012  1    3    3    0    0 0.88127053E+01 0.35717103E+02 -.70554176E+02 0.93974821E+02 0.50000000E+02 0.0000E+00 0.9000E+01
      -11  1    3    3    0    0 -.32204506E+02 0.97544210E+01 -.29315850E+02 0.44628444E+02 0.00000000E+00 0.0000E+00 0.9000E+01
       -4  1    1    2    0  501 0.23391801E+02 -.45471524E+02 0.67396781E+02 0.84600011E+02 0.00000000E+00 0.0000E+00 0.9000E+01
#aMCatNLO 1  0  0  5  5 0.52701887D+02 0.00000000D+00  -5  6  0 0.00000000D+00 0.00000000D+00 0.00000000D+00 0.00000000D+00 0.00000000D+00
  <mgrwgt>
 0.4890726691D-04    3    2    0
 0.110414209544613D+03 0.000000000000000D+00 0.000000000000000D+00 0.110414209544613D+03
 0.110414209544613D+03 -.000000000000000D+00 -.000000000000000D+00 -.110414209544613D+03
 0.846103271495289D+02 0.881270528332342D+01 0.357171025473823D+02 -.574937585443792D+02
 0.407974397524547D+02 -.322045064407525D+02 0.975442102847977D+01 -.230684226955781D+02
 0.954206521872419D+02 0.233918011574290D+02 -.454715235758620D+02 0.805621812399572D+02
 0.000000000000000D+00 0.000000000000000D+00 0.000000000000000D+00 -.000000000000000D+00
 0.110414209544613D+03 0.000000000000000D+00 0.000000000000000D+00 0.110414209544613D+03
 0.110414209544613D+03 -.000000000000000D+00 -.000000000000000D+00 -.110414209544613D+03
 0.678027644056134D+02 0.149945372122308D+02 0.237001862609656D+02 -.362033131913319D+02
 0.322003345693742D+02 -.292437373399000D+02 0.399895649344813D+01 -.128714303687694D+02
 0.544257965081484D+02 -.412253839646155D+02 0.597774153051903D+01 0.350271558752736D+02
 0.663995236060896D+02 0.554745840922848D+02 -.336768842849328D+02 0.140475876848278D+02
0.138693510367D-05 0.000000000000D+00 0.000000000000D+00 0.679110914251D-06 0.000000000000D+00  6 -3 22 9900012 -11 -4 21 0 0.14671541D-01 0.19667425D-01 0.53919927D+04 0.53919927D+04 0.53919927D+04 0.12381720D+01  1  2  2  2  6  5       -4 0.580006686668D-04 0.100000000000D+01
0.298021312785D-07 0.000000000000D+00 -.266309799324D-08 0.679110914251D-06 0.000000000000D+00  6 -3 22 9900012 -11 -4 21 2 0.14671541D-01 0.19667425D-01 0.53919927D+04 0.53919927D+04 0.53919927D+04 0.12381720D+01  1  2  3  2  6  5       -4 0.191067200145D-05 0.100000000000D+01
-.171638486569D-06 0.000000000000D+00 0.000000000000D+00 0.679110914251D-06 0.000000000000D+00  6 -3 22 9900012 -11 -4 21 2 0.14671541D-01 0.19667425D-01 0.53919927D+04 0.53919927D+04 0.53919927D+04 0.12381720D+01  1  2 15  2  6  5       -4 -.110040737555D-04 0.100000000000D+01
  </mgrwgt>
  </event>
  <event>
  6     66 0.93819742E-06 0.38919951E+02 0.78161638E-02 0.12451271E+00
       -3 -1    0    0    0  501 0.00000000E+00 0.00000000E+00 0.66419015E+01 0.66419015E+01 0.00000000E+00 0.0000E+00 0.9000E+01
       22 -1    0    0    0    0 -.00000000E+00 -.00000000E+00 -.94388001E+03 0.94388001E+03 0.00000000E+00 0.0000E+00 0.9000E+01
       24  2    1    2    0    0 -.62499579E+01 -.48144129E+02 -.81757996E+03 0.82139022E+03 0.62353812E+02 0.0000E+00 0.0000E+00
  9900012  1    3    3    0    0 -.35466257E+01 -.25557198E+02 -.57575371E+03 0.57849640E+03 0.50000000E+02 0.0000E+00 0.9000E+01
      -11  1    3    3    0    0 -.27033321E+01 -.22586931E+02 -.24182624E+03 0.24289382E+03 0.00000000E+00 0.0000E+00 0.9000E+01
       -4  1    1    2    0  501 0.62499579E+01 0.48144129E+02 -.11965816E+03 0.12913169E+03 0.00000000E+00 0.0000E+00 0.9000E+01
#aMCatNLO 1  0  0  5  1 0.57780073D+01 0.00000000D+00  -5  6  0 0.00000000D+00 0.00000000D+00 0.00000000D+00 0.00000000D+00 0.00000000D+00
  <mgrwgt>
 0.3817866848D-04    6    2    0
 0.791780153352187D+02 0.000000000000000D+00 0.000000000000000D+00 0.791780153352187D+02
 0.791780153352187D+02 -.000000000000000D+00 -.000000000000000D+00 -.791780153352187D+02
 0.647603048094821D+02 -.354662572193607D+01 -.255571983482799D+02 -.320647491428236D+02
 0.266938388085827D+02 -.270333212946433D+01 -.225869305014831D+02 -.139672329492128D+02
 0.669018870523726D+02 0.624995785140040D+01 0.481441288497630D+02 0.460319820920365D+02
 0.000000000000000D+00 0.000000000000000D+00 0.000000000000000D+00 0.000000000000000D+00
 0.791780153352187D+02 0.000000000000000D+00 0.000000000000000D+00 0.791780153352187D+02
 0.791780153352187D+02 -.000000000000000D+00 -.000000000000000D+00 -.791780153352187D+02
 0.640518716685062D+02 -.344064037087866D+01 -.247407812589467D+02 -.312841493535307D+02
 0.262378999429986D+02 -.265978043220204D+01 -.222514468751172D+02 -.136464674342892D+02
 0.685188671451533D+01 0.378918131538918D+01 0.508896985780369D-01 0.570857834721007D+01
 0.612143723444173D+02 0.231123948769152D+01 0.469413384354859D+02 0.392220384406098D+02
0.633050920938D-06 0.000000000000D+00 0.000000000000D+00 0.272244509880D-08 0.000000000000D+00  6 -3 22 9900012 -11 -4 21 0 0.10218310D-02 0.14521231D+00 0.40679669D+04 0.40679669D+04 0.40679669D+04 0.12520614D+01  1  2  2  2  6  5       -4 0.440545764198D-04 0.100000000000D+01
0.976234491880D-09 0.000000000000D+00 -.121554111127D-08 0.272244509880D-08 0.000000000000D+00  6 -3 22 9900012 -11 -4 21 2 0.10218310D-02 0.14521231D+00 0.40679669D+04 0.40679669D+04 0.40679669D+04 0.12520614D+01  1  2  3  2  6  5       -4 0.106501998967D-06 0.100000000000D+01
-.708723163963D-07 0.000000000000D+00 0.000000000000D+00 0.272244509880D-08 0.000000000000D+00  6 -3 22 9900012 -11 -4 21 2 0.10218310D-02 0.14521231D+00 0.40679669D+04 0.40679669D+04 0.40679669D+04 0.12520614D+01  1  2 15  2  6  5       -4 -.773179336567D-05 0.100000000000D+01
0.102710205541D-06 0.000000000000D+00 0.000000000000D+00 0.272244509880D-08 0.000000000000D+00  6 -3 22 9900012 -11 -4 21 2 0.10218310D-02 0.14521231D+00 0.41660461D+04 0.41660461D+04 0.41660461D+04 0.12508689D+01  1  2 12  2  6  5       -4 0.112188745068D-04 0.100000000000D+01
-.119817748502D-06 0.000000000000D+00 0.000000000000D+00 0.272244509880D-08 0.000000000000D+00  6 -3 22 9900012 -11 -4 21 2 0.10218310D-02 0.14521231D+00 0.40679669D+04 0.40679669D+04 0.40679669D+04 0.12520614D+01  1  2  5  2  6  5       -4 -.130714800936D-04 0.100000000000D+01
0.329766619342D-07 0.000000000000D+00 0.000000000000D+00 0.272244509880D-08 0.275850815562D-10  6 -3 22 9900012 -11 -4 21 2 0.10218310D-02 0.14521231D+00 0.41660461D+04 0.41660461D+04 0.41660461D+04 0.12508689D+01  1  2 11  2  6  5       -4 0.360198901311D-05 0.100000000000D+01
  </mgrwgt>
  </event>
  <event>
  7     66 0.93819742E-06 0.83026556E+02 0.78161638E-02 0.10619297E+00
       21 -1    0    0  502  501 0.00000000E+00 0.00000000E+00 0.20171192E+03 0.20171192E+03 0.00000000E+00 0.0000E+00 0.9000E+01
       22 -1    0    0    0    0 0.00000000E+00 0.00000000E+00 -.39087084E+03 0.39087084E+03 0.00000000E+00 0.0000E+00 0.9000E+01
       24  2    1    2    0    0 -.50096932E+01 -.15208848E+03 -.29222969E+03 0.33867279E+03 0.78390473E+02 0.0000E+00 0.0000E+00
  9900012  1    3    3    0    0 0.98968804E+00 -.69608414E+02 -.11832576E+03 0.14610714E+03 0.50000000E+02 0.0000E+00 0.9000E+01
      -11  1    3    3    0    0 -.59993812E+01 -.82480064E+02 -.17390393E+03 0.19256565E+03 0.00000000E+00 0.0000E+00 0.9000E+01
        3  1    1    2  502    0 -.51516634E+02 0.14756915E+03 0.11732713E+03 0.19543867E+03 0.00000000E+00 0.0000E+00 0.9000E+01
       -4  1    1    2    0  501 0.56526327E+02 0.45193292E+01 -.14256359E+02 0.58471307E+02 0.00000000E+00 0.0000E+00 0.9000E+01
#aMCatNLO 2  0  0  1  5 0.16607016D+03 0.00000000D+00  -5  6  0 0.00000000D+00 0.00000000D+00 0.00000000D+00 0.00000000D+00 0.00000000D+00
  <mgrwgt>
 0.1026658529D-04    1    2    0
 0.991956649372061D+02 0.000000000000000D+00 0.000000000000000D+00 0.991956649372061D+02
 0.991956649372061D+02 0.000000000000000D+00 0.000000000000000D+00 -.991956649372061D+02
 0.576504719407255D+02 -.154386506621404D+02 -.225495167511850D+02 -.876038098536781D+01
 0.570324277628025D+02 -.229979443036931D+02 -.337877616488396D+02 -.397766204834538D+02
 0.000000000000000D+00 -.000000000000000D+00 0.000000000000000D+00 0.000000000000000D+00
 0.837084301708843D+02 0.384365949658335D+02 0.563372784000247D+02 0.485370014688216D+02
 0.561953782848122D+03 0.000000000000000D+00 0.000000000000000D+00 0.561953782848122D+03
 0.140302122578323D+03 0.000000000000000D+00 0.000000000000000D+00 -.140302122578323D+03
 0.861571530104132D+02 0.989688042580230D+00 -.696084136971195D+02 -.876038098536781D+01
 0.917667314861362D+02 -.599938120281577D+01 -.824800636259891D+02 -.397766204834538D+02
 0.449689603650766D+03 -.515166335355550D+02 0.147569148172879D+03 0.421651660269798D+03
 0.746424172791299D+02 0.565263266957906D+02 0.451932915023004D+01 0.485370014688216D+02
0.224731429198D-06 0.000000000000D+00 0.000000000000D+00 0.251602357690D-06 0.697880498909D-10  6 21 22 9900012 -11 3 -4 2 0.31032603D-01 0.60133975D-01 0.36369971D+05 0.36369971D+05 0.36369971D+05 0.11551884D+01  1  2  1  3  5  1       -3 0.102665852911D-04 0.100000000000D+01
  </mgrwgt>
  </event>
  <event>
  6     66 0.93819742E-06 0.33149371E+02 0.78161638E-02 0.11996701E+00
       -1 -1    0    0    0  501 0.00000000E+00 0.00000000E+00 0.50732707E+02 0.50732707E+02 0.00000000E+00 0.0000E+00 0.9000E+01
       22 -1    0    0    0    0 -.00000000E+00 -.00000000E+00 -.19199607E+03 0.19199607E+03 0.00000000E+00 0.0000E+00 0.9000E+01
       24  2    1    2    0    0 -.13862593E+02 -.60460905E+02 -.14842651E+03 0.18028677E+03 0.81395330E+02 0.0000E+00 0.0000E+00
  9900012  1    3    3    0    0 0.91970565E+01 -.20424454E+02 -.65833951E+02 0.85649596E+02 0.50000000E+02 0.0000E+00 0.9000E+01
      -11  1    3    3    0    0 -.23059649E+02 -.40036451E+02 -.82592558E+02 0.94637178E+02 0.00000000E+00 0.0000E+00 0.9000E+01
       -2  1    1    2    0  501 0.13862593E+02 0.60460905E+02 0.71631502E+01 0.62441999E+02 0.00000000E+00 0.0000E+00 0.9000E+01
#aMCatNLO 1  0  0  5  1 0.47887445D+01 0.00000000D+00  -5  6  0 0.00000000D+00 0.00000000D+00 0.00000000D+00 0.00000000D+00 0.00000000D+00
  <mgrwgt>
 0.3140397842D-04    8    2    0
 0.986938711725784D+02 0.000000000000000D+00 0.000000000000000D+00 0.986938711725784D+02
 0.986938711725784D+02 -.000000000000000D+00 -.000000000000000D+00 -.986938711725784D+02
 0.582087629181107D+02 0.919705646301819D+01 -.204244540858690D+02 -.196600078374120D+02
 0.572673047726071D+02 -.230596491350127D+02 -.400364512184928D+02 -.338360658398406D+02
 0.819116746544390D+02 0.138625926719945D+02 0.604609053043618D+02 0.534960736772526D+02
 0.000000000000000D+00 0.000000000000000D+00 0.000000000000000D+00 0.000000000000000D+00
 0.986938711725784D+02 0.000000000000000D+00 0.000000000000000D+00 0.986938711725784D+02
 0.986938711725784D+02 -.000000000000000D+00 -.000000000000000D+00 -.986938711725784D+02
 0.580262369142594D+02 0.926569269777109D+01 -.201251010724730D+02 -.193951389807595D+02
 0.568810335643279D+02 -.229922450643107D+02 -.397424722181522D+02 -.335759519334639D+02
 0.729576128624916D+02 0.167258314605544D+02 0.522779806684665D+02 0.480632143512454D+02
 0.952285900407797D+01 -.299927909401487D+01 0.758959262215865D+01 0.490787656297806D+01
0.136297762296D-06 0.000000000000D+00 0.000000000000D+00 0.346937377220D-06 0.000000000000D+00  6 -1 22 9900012 -11 -2 21 0 0.78050319D-02 0.29537856D-01 0.66439111D+04 0.66439111D+04 0.66439111D+04 0.12281884D+01  1  2  2  2  6  5       -2 0.102366269454D-04 0.100000000000D+01
-.209778357050D-09 0.000000000000D+00 -.261709647621D-09 0.346937377220D-06 0.000000000000D+00  6 -1 22 9900012 -11 -2 21 2 0.78050319D-02 0.29537856D-01 0.66439111D+04 0.66439111D+04 0.66439111D+04 0.12281884D+01  1  2  3  2  6  5       -2 -.237661472484D-07 0.100000000000D+01
-.162013086941D-07 0.000000000000D+00 0.000000000000D+00 0.346937377220D-06 0.000000000000D+00  6 -1 22 9900012 -11 -2 21 2 0.78050319D-02 0.29537856D-01 0.66439111D+04 0.66439111D+04 0.66439111D+04 0.12281884D+01  1  2 15  2  6  5       -2 -.183547384704D-05 0.100000000000D+01
0.309366039075D-06 0.000000000000D+00 0.000000000000D+00 0.346937377220D-06 0.000000000000D+00  6 -1 22 9900012 -11 -2 21 2 0.78050319D-02 0.29537856D-01 0.66955087D+04 0.66955087D+04 0.66955087D+04 0.12278232D+01  1  2 12  2  6  5       -2 0.350543715475D-04 0.100000000000D+01
-.654644439539D-06 0.000000000000D+00 0.000000000000D+00 0.346937377220D-06 0.000000000000D+00  6 -1 22 9900012 -11 -2 21 2 0.78050319D-02 0.29537856D-01 0.66439111D+04 0.66439111D+04 0.66439111D+04 0.12281884D+01  1  2  4  2  6  5       -2 -.741657831827D-04 0.100000000000D+01
-.976617396182D-06 0.000000000000D+00 0.000000000000D+00 0.346937377220D-06 0.000000000000D+00  6 -1 22 9900012 -11 -2 21 2 0.78050319D-02 0.29537856D-01 0.66439111D+04 0.66439111D+04 0.66439111D+04 0.12281884D+01  1  2  5  2  6  5       -2 -.110642647647D-03 0.100000000000D+01
0.109670645907D-05 0.000000000000D+00 -.000000000000D+00 0.346937377220D-06 0.000000000000D+00  6 -1 22 9900012 -11 -2 21 2 0.78050319D-02 0.29537856D-01 0.66439111D+04 0.66439111D+04 0.66439111D+04 0.12281884D+01  1  2  6  2  6  5       -2 0.124247742050D-03 0.100000000000D+01
0.428318439772D-06 0.000000000000D+00 0.000000000000D+00 0.346937377220D-06 0.677929037476D-07  6 -1 22 9900012 -11 -2 21 2 0.78050319D-02 0.29537856D-01 0.66955087D+04 0.66955087D+04 0.66955087D+04 0.12278232D+01  1  2 11  2  6  5       -2 0.485329086971D-04 0.100000000000D+01
  </mgrwgt>
  </event>
  <event>
  6     66 0.93819742E-06 0.17175342E+03 0.78161638E-02 0.97235647E-01
       -3 -1    0    0    0  501 0.00000000E+00 0.00000000E+00 0.12604864E+03 0.12604864E+03 0.00000000E+00 0.0000E+00 0.9000E+01
       22 -1    0    0    0    0 0.00000000E+00 0.00000000E+00 -.82732699E+03 0.82732699E+03 0.00000000E+00 0.0000E+00 0.9000E+01
       24  2    1    2    0    0 -.27988208E+03 0.98542652E+02 -.52490153E+03 0.60818958E+03 0.79550690E+02 0.0000E+00 0.0000E+00
  9900012  1    3    3    0    0 -.17977916E+03 0.59186691E+02 -.29072716E+03 0.35049378E+03 0.50000000E+02 0.0000E+00 0.9000E+01
      -11  1    3    3    0    0 -.10010292E+03 0.39355962E+02 -.23417437E+03 0.25769580E+03 0.00000000E+00 0.0000E+00 0.9000E+01
       -4  1    1    2    0  501 0.27988208E+03 -.98542652E+02 -.17637682E+03 0.34518606E+03 0.00000000E+00 0.0000E+00 0.9000E+01
#aMCatNLO 1  0  0  1  5 0.18482706D+03 0.00000000D+00  -5  6  0 0.00000000D+00 0.00000000D+00 0.00000000D+00 0.00000000D+00 0.00000000D+00
  <mgrwgt>
 0.3206745832D-05    9    4    0
 0.322929474055119D+03 0.000000000000000D+00 0.000000000000000D+00 0.322929474055119D+03
 0.322929474055119D+03 0.000000000000000D+00 0.000000000000000D+00 -.322929474055119D+03
 0.201702818230315D+03 -.179779158254503D+03 0.591866907980384D+02 -.485841205717597D+02
 0.126125800000147D+03 -.100102921415018D+03 0.393559615247229D+02 -.658652476069154D+02
 0.318030329879775D+03 0.279882079669521D+03 -.985426523227613D+02 0.114449368178675D+03
 0.000000000000000D+00 0.000000000000000D+00 0.000000000000000D+00 0.000000000000000D+00
 0.410982590587652D+03 0.000000000000000D+00 0.000000000000000D+00 0.410982590587652D+03
 0.389813874978254D+03 0.000000000000000D+00 0.000000000000000D+00 -.389813874978254D+03
 0.209856825550450D+03 -.197017886364828D+03 0.190636541805725D+02 -.485841205717597D+02
 0.129718550609506D+03 -.110819305456481D+03 0.144136417346147D+02 -.658652476069154D+02
 0.320992378000098D+03 0.253115755799019D+03 -.160841111112648D+03 0.114449368178675D+03
 0.140228711405853D+03 0.547214360222897D+02 0.127363815197461D+03 0.211687156093981D+02
 0.322929474055119D+03 0.000000000000000D+00 0.000000000000000D+00 0.322929474055119D+03
 0.322929474055119D+03 0.000000000000000D+00 0.000000000000000D+00 -.322929474055119D+03
 0.201702818230315D+03 -.179779158254503D+03 0.591866907980384D+02 -.485841205717597D+02
 0.126125800000147D+03 -.100102921415018D+03 0.393559615247229D+02 -.658652476069154D+02
 0.000000000000000D+00 0.000000000000000D+00 0.000000000000000D+00 0.000000000000000D+00
 0.318030329879775D+03 0.279882079669521D+03 -.985426523227613D+02 0.114449368178675D+03
 0.410982590587652D+03 0.000000000000000D+00 0.000000000000000D+00 0.410982590587652D+03
 0.389813874978254D+03 0.000000000000000D+00 0.000000000000000D+00 -.389813874978254D+03
 0.209856825550450D+03 -.197017886364828D+03 0.190636541805725D+02 -.485841205717597D+02
 0.129718550609506D+03 -.110819305456481D+03 0.144136417346147D+02 -.658652476069154D+02
 0.140228711405853D+03 0.547214360222897D+02 0.127363815197461D+03 0.211687156093981D+02
 0.320992378000098D+03 0.253115755799019D+03 -.160841111112648D+03 0.114449368178675D+03
0.200267911059D-05 0.000000000000D+00 0.000000000000D+00 0.644136534735D-06 0.000000000000D+00  6 -3 22 9900012 -11 -4 21 0 0.19392099D-01 0.12728108D+00 0.90014663D+05 0.90014663D+05 0.90014663D+05 0.11213631D+01  1  2  2  1  6  1       -3 0.261766661597D-05 0.100000000000D+01
-.578486802341D-07 0.000000000000D+00 -.384540755110D-08 0.644136534735D-06 0.000000000000D+00  6 -3 22 9900012 -11 -4 21 2 0.19392099D-01 0.12728108D+00 0.90014663D+05 0.90014663D+05 0.90014663D+05 0.11213631D+01  1  2  3  1  6  1       -3 -.950799555593D-07 0.100000000000D+01
-.246326851972D-06 0.000000000000D+00 0.000000000000D+00 0.644136534735D-06 0.000000000000D+00  6 -3 22 9900012 -11 -4 21 2 0.19392099D-01 0.12728108D+00 0.90014663D+05 0.90014663D+05 0.90014663D+05 0.11213631D+01  1  2 15  1  6  1       -3 -.404862237890D-06 0.100000000000D+01
0.308058952756D-06 0.000000000000D+00 0.000000000000D+00 0.644136534735D-06 0.000000000000D+00  6 -3 22 9900012 -11 -4 21 2 0.29791349D-01 0.12728108D+00 0.14228952D+06 0.14228952D+06 0.14228952D+06 0.11053955D+01  1  2 12  1  6  1       -3 0.229006225175D-06 0.100000000000D+01
-.284436943364D-06 0.000000000000D+00 0.000000000000D+00 0.644136534735D-06 0.000000000000D+00  6 -3 22 9900012 -11 -4 21 2 0.19392099D-01 0.12728108D+00 0.90014663D+05 0.90014663D+05 0.90014663D+05 0.11213631D+01  1  2  4  1  6  1       -3 -.467499894985D-06 0.100000000000D+01
-.144360761747D-05 0.000000000000D+00 -.755319294747D-06 0.644136534735D-06 0.000000000000D+00  6 -3 22 9900012 -11 -4 21 2 0.29683136D-01 0.12728108D+00 0.90014663D+05 0.90014663D+05 0.90014663D+05 0.11213631D+01  1  2  5  1  6  1       -3 -.109053524154D-05 0.100000000000D+01
0.167472493207D-05 0.000000000000D+00 0.691688913283D-06 0.644136534735D-06 0.000000000000D+00  6 -3 22 9900012 -11 -4 21 2 0.19392099D-01 0.12728108D+00 0.90014663D+05 0.90014663D+05 0.90014663D+05 0.11213631D+01  1  2  6  1  6  1       -3 0.275257398217D-05 0.100000000000D+01
0.154524663394D-07 0.000000000000D+00 0.000000000000D+00 0.644136534735D-06 0.000000000000D+00  6 21 22 9900012 -11 3 -4 2 0.29791349D-01 0.12728108D+00 0.14228952D+06 0.14228952D+06 0.14228952D+06 0.11053955D+01  3  4 12  3  5  1       -3 0.173847271277D-06 0.100000000000D+01
-.439481688700D-07 0.000000000000D+00 -.376475659368D-07 0.644136534735D-06 0.000000000000D+00  6 21 22 9900012 -11 3 -4 2 0.29683136D-01 0.12728108D+00 0.90014663D+05 0.90014663D+05 0.90014663D+05 0.11213631D+01  3  4  5  3  5  1       -3 -.508370932620D-06 0.100000000000D+01
  </mgrwgt>
  </event>
  <event>
  6     66 0.93819742E-06 0.45097517E+02 0.78161638E-02 0.12111702E+00
       -1 -1    0    0    0  501 0.00000000E+00 0.00000000E+00 0.18416594E+03 0.18416594E+03 0.00000000E+00 0.0000E+00 0.9000E+01
       22 -1    0    0    0    0 0.00000000E+00 0.00000000E+00 -.66556522E+02 0.66556522E+02 0.00000000E+00 0.0000E+00 0.9000E+01
       24  2    1    2    0    0 0.54621930E+02 0.56948685E+01 -.22330427E+02 0.10039234E+03 0.81018432E+02 0.0000E+00 0.0000E+00
  9900012  1    3    3    0    0 0.61541352E+02 -.10688717E+02 -.19848838E+02 0.82435205E+02 0.50000000E+02 0.0000E+00 0.9000E+01
      -11  1    3    3    0    0 -.69194218E+01 0.16383585E+02 -.24815886E+01 0.17957131E+02 0.00000000E+00 0.0000E+00 0.9000E+01
       -2  1    1    2    0  501 -.54621930E+02 -.56948685E+01 0.13993985E+03 0.15033013E+03 0.00000000E+00 0.0000E+00 0.9000E+01
#aMCatNLO 1  0  0  1  5 0.30905595D+02 0.00000000D+00  -5  6  0 0.00000000D+00 0.00000000D+00 0.00000000D+00 0.00000000D+00 0.00000000D+00
  <mgrwgt>
 0.3716063109D-04    6    4    0
 0.110713344692856D+03 0.000000000000000D+00 0.000000000000000D+00 0.110713344692856D+03
 0.110713344692856D+03 0.000000000000000D+00 0.000000000000000D+00 -.110713344692856D+03
 0.103884352472454D+03 0.615413519010482D+02 -.106887168177582D+02 -.662598824901024D+02
 0.216510229212117D+02 -.691942179140311D+01 0.163835853252970D+02 -.123477336987888D+02
 0.958913139920459D+02 -.546219301096450D+02 -.569486850753875D+01 0.786076161888912D+02
 0.000000000000000D+00 0.000000000000000D+00 -.000000000000000D+00 -.000000000000000D+00
 0.110731690101135D+03 0.000000000000000D+00 0.000000000000000D+00 0.110731690101135D+03
 0.127271545335820D+03 0.000000000000000D+00 0.000000000000000D+00 -.127271545335820D+03
 0.103635501913157D+03 0.611791938917754D+02 -.103465677372926D+02 -.662598824901024D+02
 0.217294491270052D+02 -.699512821209625D+01 0.164551090292115D+02 -.123477336987888D+02
 0.960642909743032D+02 -.549569258138835D+02 -.537838103734510D+01 0.786076161888912D+02
 0.165739934224896D+02 0.772860134204380D+00 -.730160254573803D+00 -.165398552346847D+02
 0.110713344692856D+03 0.000000000000000D+00 0.000000000000000D+00 0.110713344692856D+03
 0.110713344692856D+03 0.000000000000000D+00 0.000000000000000D+00 -.110713344692856D+03
 0.103884352472454D+03 0.615413519010482D+02 -.106887168177582D+02 -.662598824901024D+02
 0.216510229212117D+02 -.691942179140311D+01 0.163835853252970D+02 -.123477336987888D+02
 0.000000000000000D+00 0.000000000000000D+00 -.000000000000000D+00 -.000000000000000D+00
 0.958913139920459D+02 -.546219301096450D+02 -.569486850753875D+01 0.786076161888912D+02
 0.110731690101135D+03 0.000000000000000D+00 0.000000000000000D+00 0.110731690101135D+03
 0.127271545335820D+03 0.000000000000000D+00 0.000000000000000D+00 -.127271545335820D+03
 0.103635501913157D+03 0.611791938917754D+02 -.103465677372926D+02 -.662598824901024D+02
 0.217294491270052D+02 -.699512821209625D+01 0.164551090292115D+02 -.123477336987888D+02
 0.165739934224896D+02 0.772860134204380D+00 -.730160254573803D+00 -.165398552346847D+02
 0.960642909743032D+02 -.549569258138835D+02 -.537838103734510D+01 0.786076161888912D+02
0.532630330517D-06 0.000000000000D+00 0.000000000000D+00 0.835325516387D-06 0.000000000000D+00  6 -1 22 9900012 -11 -2 21 0 0.28333222D-01 0.10239465D-01 0.58302959D+04 0.58302959D+04 0.58302959D+04 0.12344050D+01  1  2  2  1  6  1       -1 0.267184856778D-04 0.100000000000D+01
0.885049404943D-08 0.000000000000D+00 -.102272035699D-08 0.835325516387D-06 0.000000000000D+00  6 -1 22 9900012 -11 -2 21 2 0.28333222D-01 0.10239465D-01 0.58302959D+04 0.58302959D+04 0.58302959D+04 0.12344050D+01  1  2  3  1  6  1       -1 0.676501552642D-06 0.100000000000D+01
-.662493009687D-07 0.000000000000D+00 0.000000000000D+00 0.835325516387D-06 0.000000000000D+00  6 -1 22 9900012 -11 -2 21 2 0.28333222D-01 0.10239465D-01 0.58302959D+04 0.58302959D+04 0.58302959D+04 0.12344050D+01  1  2 15  1  6  1       -1 -.506387041406D-05 0.100000000000D+01
0.206324955025D-06 0.000000000000D+00 0.000000000000D+00 0.835325516387D-06 0.000000000000D+00  6 -1 22 9900012 -11 -2 21 2 0.32576114D-01 0.10239465D-01 0.59174149D+04 0.59174149D+04 0.59174149D+04 0.12336942D+01  1  2 12  1  6  1       -1 0.126209207123D-04 0.100000000000D+01
-.100878047109D-07 0.000000000000D+00 0.000000000000D+00 0.835325516387D-06 0.000000000000D+00  6 -1 22 9900012 -11 -2 21 2 0.28333222D-01 0.10239465D-01 0.58302959D+04 0.58302959D+04 0.58302959D+04 0.12344050D+01  1  2  4  1  6  1       -1 -.771077355856D-06 0.100000000000D+01
0.443740484967D-08 0.000000000000D+00 0.000000000000D+00 0.835325516387D-06 0.000000000000D+00  6 21 22 9900012 -11 1 -2 2 0.32576114D-01 0.10239465D-01 0.59174149D+04 0.59174149D+04 0.59174149D+04 0.12336942D+01  3  4 12  3  5  1       -1 0.297967091385D-05 0.100000000000D+01
  </mgrwgt>
  </event>
  <event>
  6     66 0.93819742E-06 0.23062882E+02 0.78161638E-02 0.12925874E+00
       -3 -1    0    0    0  501 0.00000000E+00 0.00000000E+00 0.53526468E+03 0.53526468E+03 0.00000000E+00 0.0000E+00 0.9000E+01
       22 -1    0    0    0    0 0.00000000E+00 0.00000000E+00 -.58188294E+01 0.58188294E+01 0.00000000E+00 0.0000E+00 0.9000E+01
       24  2    1    2    0    0 -.18163097E+02 -.14673617E+02 0.41486140E+03 0.42414416E+03 0.85106294E+02 0.0000E+00 0.0000E+00
  9900012  1    3    3    0    0 0.89560234E+01 -.11698749E+02 0.17118157E+03 0.17894189E+03 0.50000000E+02 0.0000E+00 0.9000E+01
      -11  1    3    3    0    0 -.27119120E+02 -.29748683E+01 0.24367982E+03 0.24520227E+03 0.00000000E+00 0.0000E+00 0.9000E+01
       -4  1    1    2    0  501 0.18163097E+02 0.14673617E+02 0.11458445E+03 0.11693934E+03 0.00000000E+00 0.0000E+00 0.9000E+01
#aMCatNLO 1  0  0  5  1 0.35990285D+01 0.00000000D+00  -5  6  0 0.00000000D+00 0.00000000D+00 0.00000000D+00 0.00000000D+00 0.00000000D+00
  <mgrwgt>
 0.8110584593D-04    8    2    0
 0.558087254225791D+02 0.000000000000000D+00 0.000000000000000D+00 0.558087254225791D+02
 0.558087254225791D+02 -.000000000000000D+00 -.000000000000000D+00 -.558087254225791D+02
 0.554674497462120D+02 0.895602338175999D+01 -.116987489609776D+02 -.189622493202136D+02
 0.327872831523182D+02 -.271191199969865D+02 -.297486832319498D+01 0.181854179374296D+02
 0.233627179466281D+02 0.181630966152265D+02 0.146736172841726D+02 0.776831382784005D+00
 0.000000000000000D+00 0.000000000000000D+00 0.000000000000000D+00 0.000000000000000D+00
 0.558087254225791D+02 0.000000000000000D+00 0.000000000000000D+00 0.558087254225791D+02
 0.558087254225791D+02 -.000000000000000D+00 -.000000000000000D+00 -.558087254225791D+02
 0.554581862734706D+02 0.979238887130803D+01 -.110230653282082D+02 -.189264781643627D+02
 0.323599482511034D+02 -.266279179805675D+02 -.257803563817237D+01 0.182064265324795D+02
 0.200437401788977D+02 0.133818329873202D+02 0.149222657304616D+02 0.636531862286356D-01
 0.375557614168653D+01 0.345369612193925D+01 -.132116476408098D+01 0.656398445654585D+00
0.747725319714D-06 0.000000000000D+00 0.000000000000D+00 0.115993397558D-07 0.000000000000D+00  6 -3 22 9900012 -11 -4 21 0 0.82348412D-01 0.89520452D-03 0.26397569D+04 0.26397569D+04 0.26397569D+04 0.12743466D+01  1  2  2  2  6  5       -4 0.744398583686D-04 0.100000000000D+01
-.338682830844D-08 0.000000000000D+00 -.143573105415D-08 0.115993397558D-07 0.000000000000D+00  6 -3 22 9900012 -11 -4 21 2 0.82348412D-01 0.89520452D-03 0.26397569D+04 0.26397569D+04 0.26397569D+04 0.12743466D+01  1  2  3  2  6  5       -4 -.547560029756D-06 0.100000000000D+01
-.751935933241D-07 0.000000000000D+00 0.000000000000D+00 0.115993397558D-07 0.000000000000D+00  6 -3 22 9900012 -11 -4 21 2 0.82348412D-01 0.89520452D-03 0.26397569D+04 0.26397569D+04 0.26397569D+04 0.12743466D+01  1  2 15  2  6  5       -4 -.121568034894D-04 0.100000000000D+01
0.399796805095D-07 0.000000000000D+00 0.000000000000D+00 0.115993397558D-07 0.000000000000D+00  6 -3 22 9900012 -11 -4 21 2 0.82348412D-01 0.89520452D-03 0.26328449D+04 0.26328449D+04 0.26328449D+04 0.12744855D+01  1  2 12  2  6  5       -4 0.646308719149D-05 0.100000000000D+01
-.109875372545D-05 0.000000000000D+00 0.000000000000D+00 0.115993397558D-07 0.000000000000D+00  6 -3 22 9900012 -11 -4 21 2 0.82348412D-01 0.89520452D-03 0.26397569D+04 0.26397569D+04 0.26397569D+04 0.12743466D+01  1  2  4  2  6  5       -4 -.177639244690D-03 0.100000000000D+01
-.925590588209D-06 0.000000000000D+00 0.000000000000D+00 0.115993397558D-07 0.000000000000D+00  6 -3 22 9900012 -11 -4 21 2 0.82348412D-01 0.89520452D-03 0.26397569D+04 0.26397569D+04 0.26397569D+04 0.12743466D+01  1  2  5  2  6  5       -4 -.149643372461D-03 0.100000000000D+01
0.111717407717D-05 0.000000000000D+00 -.000000000000D+00 0.115993397558D-07 0.000000000000D+00  6 -3 22 9900012 -11 -4 21 2 0.82348412D-01 0.89520452D-03 0.26397569D+04 0.26397569D+04 0.26397569D+04 0.12743466D+01  1  2  6  2  6  5       -4 0.180617325481D-03 0.100000000000D+01
0.987091710261D-06 0.000000000000D+00 0.000000000000D+00 0.115993397558D-07 0.691453916606D-08  6 -3 22 9900012 -11 -4 21 2 0.82348412D-01 0.89520452D-03 0.26328449D+04 0.26328449D+04 0.26328449D+04 0.12744855D+01  1  2 11  2  6  5       -4 0.159572555561D-03 0.100000000000D+01
  </mgrwgt>
  </event>
  <event>
  6     66 0.93819742E-06 0.28241937E+02 0.78161638E-02 0.12821305E+00
       -1 -1    0    0    0  501 0.00000000E+00 0.00000000E+00 0.32814983E+03 0.32814983E+03 0.00000000E+00 0.0000E+00 0.9000E+01
       22 -1    0    0    0    0 0.00000000E+00 0.00000000E+00 -.21834454E+02 0.21834454E+02 0.00000000E+00 0.0000E+00 0.9000E+01
       24  2    1    2    0    0 -.24947445E+02 0.18690953E+02 0.61462765E+02 0.10315534E+03 0.76756927E+02 0.0000E+00 0.0000E+00
  9900012  1    3    3    0    0 -.28452568E+02 -.17420026E+00 0.26643729E+02 0.63399269E+02 0.50000000E+02 0.0000E+00 0.9000E+01
      -11  1    3    3    0    0 0.35051234E+01 0.18865153E+02 0.34819036E+02 0.39756071E+02 0.00000000E+00 0.0000E+00 0.9000E+01
       -2  1    1    2    0  501 0.24947445E+02 -.18690953E+02 0.24485261E+03 0.24682894E+03 0.00000000E+00 0.0000E+00 0.9000E+01
#aMCatNLO 1  0  0  5  1 0.23225507D+01 0.00000000D+00  -5  6  0 0.00000000D+00 0.00000000D+00 0.00000000D+00 0.00000000D+00 0.00000000D+00
  <mgrwgt>
 0.6643163310D-04    8    2    0
 0.846461592038477D+02 0.000000000000000D+00 0.000000000000000D+00 0.846461592038477D+02
 0.846461592038477D+02 -.000000000000000D+00 -.000000000000000D+00 -.846461592038477D+02
 0.828588315433442D+02 -.284525679795978D+02 -.174200261011027D+00 -.596322647093310D+02
 0.191880753924243D+02 0.350512335212601D+01 0.188651527989460D+02 0.485533125689514D-01
 0.672454114719268D+02 0.249474446274718D+02 -.186909525379350D+02 0.595837113967621D+02
 0.000000000000000D+00 0.000000000000000D+00 0.000000000000000D+00 0.000000000000000D+00
 0.846461592038477D+02 0.000000000000000D+00 0.000000000000000D+00 0.846461592038477D+02
 0.846461592038477D+02 -.000000000000000D+00 -.000000000000000D+00 -.846461592038477D+02
 0.827545126704515D+02 -.284019218695962D+02 -.212144990517681D+00 -.595113030939524D+02
 0.191816715571508D+02 0.351685717969871D+01 0.188563616615159D+02 0.765780263667466D-01
 0.556191530397557D+02 0.189402268026694D+02 -.142625991401102D+02 0.503123867381755D+02
 0.117369811403374D+02 0.594483788722810D+01 -.438161753088808D+01 0.912233832941022D+01
0.116769024319D-06 0.000000000000D+00 0.000000000000D+00 0.154493594636D-06 0.000000000000D+00  6 -1 22 9900012 -11 -2 21 0 0.50484589D-01 0.33591468D-02 0.29100353D+04 0.29100353D+04 0.29100353D+04 0.12692139D+01  1  2  2  2  6  5       -2 0.991152970910D-05 0.100000000000D+01
0.443098281863D-08 0.000000000000D+00 -.224211899688D-09 0.154493594636D-06 0.000000000000D+00  6 -1 22 9900012 -11 -2 21 2 0.50484589D-01 0.33591468D-02 0.29100353D+04 0.29100353D+04 0.29100353D+04 0.12692139D+01  1  2  3  2  6  5       -2 0.605874588643D-06 0.100000000000D+01
-.149428212265D-07 0.000000000000D+00 0.000000000000D+00 0.154493594636D-06 0.000000000000D+00  6 -1 22 9900012 -11 -2 21 2 0.50484589D-01 0.33591468D-02 0.29100353D+04 0.29100353D+04 0.29100353D+04 0.12692139D+01  1  2 15  2  6  5       -2 -.204322066556D-05 0.100000000000D+01
0.939511759440D-08 0.000000000000D+00 0.000000000000D+00 0.154493594636D-06 0.000000000000D+00  6 -1 22 9900012 -11 -2 21 2 0.50484589D-01 0.33591468D-02 0.29041557D+04 0.29041557D+04 0.29041557D+04 0.12693198D+01  1  2 12  2  6  5       -2 0.128463097705D-05 0.100000000000D+01
-.156433717707D-05 0.000000000000D+00 0.000000000000D+00 0.154493594636D-06 0.000000000000D+00  6 -1 22 9900012 -11 -2 21 2 0.50484589D-01 0.33591468D-02 0.29100353D+04 0.29100353D+04 0.29100353D+04 0.12692139D+01  1  2  4  2  6  5       -2 -.213901110082D-03 0.100000000000D+01
-.296101629879D-05 0.000000000000D+00 0.000000000000D+00 0.154493594636D-06 0.000000000000D+00  6 -1 22 9900012 -11 -2 21 2 0.50484589D-01 0.33591468D-02 0.29100353D+04 0.29100353D+04 0.29100353D+04 0.12692139D+01  1  2  5  2  6  5       -2 -.404877338826D-03 0.100000000000D+01
0.352211570984D-05 0.000000000000D+00 -.000000000000D+00 0.154493594636D-06 0.000000000000D+00  6 -1 22 9900012 -11 -2 21 2 0.50484589D-01 0.33591468D-02 0.29100353D+04 0.29100353D+04 0.29100353D+04 0.12692139D+01  1  2  6  2  6  5       -2 0.481599792687D-03 0.100000000000D+01
0.141772807389D-05 0.000000000000D+00 0.000000000000D+00 0.154493594636D-06 0.837778528675D-07  6 -1 22 9900012 -11 -2 21 2 0.50484589D-01 0.33591468D-02 0.29041557D+04 0.29041557D+04 0.29041557D+04 0.12693198D+01  1  2 11  2  6  5       -2 0.193851474711D-03 0.100000000000D+01
  </mgrwgt>
  </event>
  <event>
  7     66 0.93819742E-06 0.52115814E+02 0.78161638E-02 0.12314557E+00
       21 -1    0    0  502  501 0.00000000E+00 0.00000000E+00 0.59286549E+01 0.59286549E+01 0.00000000E+00 0.0000E+00 0.9000E+01
       22 -1    0    0    0    0 0.00000000E+00 0.00000000E+00 -.11214698E+04 0.11214698E+04 0.00000000E+00 0.0000E+00 0.9000E+01
       24  2    1    2    0    0 -.44152405E+02 -.28354623E+02 -.84195909E+03 0.84755333E+03 0.81842051E+02 0.0000E+00 0.0000E+00
  9900012  1    3    3    0    0 -.20117525E+02 -.82494452E+01 -.31659657E+03 0.32125715E+03 0.50000000E+02 0.0000E+00 0.9000E+01
      -11  1    3    3    0    0 -.24034879E+02 -.20105178E+02 -.52536252E+03 0.52629618E+03 0.00000000E+00 0.0000E+00 0.9000E+01
        3  1    1    2  502    0 0.26635145E+00 0.23600792E-03 -.58751434E+02 0.58752038E+02 0.00000000E+00 0.0000E+00 0.9000E+01
       -4  1    1    2    0  501 0.43886053E+02 0.28354387E+02 -.21483064E+03 0.22109311E+03 0.00000000E+00 0.0000E+00 0.9000E+01
#aMCatNLO 2  0  0  1  5 0.85476345D+01 0.00000000D+00  -5  6  0 0.00000000D+00 0.00000000D+00 0.00000000D+00 0.00000000D+00 0.00000000D+00
  <mgrwgt>
 0.1259903056D-02    2    2    0
 0.793734859327730D+02 0.000000000000000D+00 0.000000000000000D+00 0.793734859327730D+02
 0.793734859327730D+02 0.000000000000000D+00 0.000000000000000D+00 -.793734859327730D+02
 0.549865243089245D+02 -.200252388036863D+02 -.824936340810859D+01 0.737940849880525D+01
 0.454838090330014D+02 -.239585313037995D+02 -.201051105073743D+02 -.330234794260337D+02
 0.000000000000000D+00 0.000000000000000D+00 0.000000000000000D+00 -.000000000000000D+00
 0.582766385236201D+02 0.439837701074858D+02 0.283544739154829D+02 0.256440709272284D+02
 0.793776394280409D+02 0.000000000000000D+00 0.000000000000000D+00 0.793776394280409D+02
 0.837617196954560D+02 0.000000000000000D+00 0.000000000000000D+00 -.837617196954560D+02
 0.550202130452129D+02 -.201175253933402D+02 -.824944518114309D+01 0.737940849880525D+01
 0.455241014407903D+02 -.240348794429331D+02 -.201051781577126D+02 -.330234794260337D+02
 0.439216381085305D+01 0.266351449271292D+00 0.236007921971999D-03 -.438408026741511D+01
 0.582028808266407D+02 0.438860533870021D+02 0.283543873309338D+02 0.256440709272284D+02
-.617386883064D-08 0.000000000000D+00 0.000000000000D+00 0.864809667848D-07 0.000000000000D+00  6 21 22 9900012 -11 3 -4 2 0.96252706D-03 0.16349486D+00 0.47868147D+04 0.47868147D+04 0.47868147D+04 0.12439827D+01  1  2 13  3  5  1       -3 -.116213130674D-04 0.100000000000D+01
0.706414427997D-06 0.000000000000D+00 0.000000000000D+00 0.864809667848D-07 0.119078657567D-07  6 21 22 9900012 -11 3 -4 2 0.91210076D-03 0.17253382D+00 0.47868147D+04 0.47868147D+04 0.47868147D+04 0.12439827D+01  1  2  1  3  5  1       -3 0.127152436926D-02 0.100000000000D+01
  </mgrwgt>
  </event>
  <event>
  6     66 0.93819742E-06 0.26752581E+02 0.78161638E-02 0.12479790E+00
       -1 -1    0    0    0  501 0.00000000E+00 0.00000000E+00 0.83196320E+02 0.83196320E+02 0.00000000E+00 0.0000E+00 0.9000E+01
       22 -1    0    0    0    0 -.00000000E+00 -.00000000E+00 -.83378514E+02 0.83378514E+02 0.00000000E+00 0.0000E+00 0.9000E+01
       24  2    1    2    0    0 0.27482849E+02 0.22867302E+02 -.52390301E+02 0.10329840E+03 0.81532789E+02 0.0000E+00 0.0000E+00
  9900012  1    3    3    0    0 0.10602495E+01 0.51201611E+01 -.11661455E+02 0.51607458E+02 0.50000000E+02 0.0000E+00 0.9000E+01
      -11  1    3    3    0    0 0.26422599E+02 0.17747140E+02 -.40728846E+02 0.51690944E+02 0.00000000E+00 0.0000E+00 0.9000E+01
       -2  1    1    2    0  501 -.27482849E+02 -.22867302E+02 0.52208107E+02 0.63276432E+02 0.00000000E+00 0.0000E+00 0.9000E+01
#aMCatNLO 1  0  0  5  1 0.16602595D+02 0.00000000D+00  -5  6  0 0.00000000D+00 0.00000000D+00 0.00000000D+00 0.00000000D+00 0.00000000D+00
  <mgrwgt>
 0.6015399999D-04    7    2    0
 0.832873670508588D+02 0.000000000000000D+00 0.000000000000000D+00 0.832873670508588D+02
 0.832873670508588D+02 -.000000000000000D+00 -.000000000000000D+00 -.832873670508588D+02
 0.515947337965509D+02 0.106024951695062D+01 0.512016105244307D+01 -.116050151786113D+02
 0.516464266610309D+02 0.264225990749119D+02 0.177471404735527D+02 -.406723327335880D+02
 0.633335736441359D+02 -.274828485918626D+02 -.228673015259958D+02 0.522773479121993D+02
 0.000000000000000D+00 0.000000000000000D+00 0.000000000000000D+00 0.000000000000000D+00
 0.832873670508588D+02 0.000000000000000D+00 0.000000000000000D+00 0.832873670508588D+02
 0.832873670508588D+02 -.000000000000000D+00 -.000000000000000D+00 -.832873670508588D+02
 0.509819237611872D+02 -.254590437618820D+00 0.402613902633954D+01 -.910395181452321D+01
 0.486946659154912D+02 0.251364148616030D+02 0.166769616627427D+02 -.382257777713692D+02
 0.423953661668360D+02 -.310088566245578D+02 -.681380676856537D+01 0.280960837231522D+02
 0.245027782582032D+02 0.612703220057360D+01 -.138892939205168D+02 0.192336458627402D+02
0.294852204923D-06 0.000000000000D+00 0.000000000000D+00 0.299495835431D-06 0.000000000000D+00  6 -1 22 9900012 -11 -2 21 0 0.12799434D-01 0.12827464D-01 0.34724108D+04 0.34724108D+04 0.34724108D+04 0.12600743D+01  1  2  2  2  6  5       -2 0.343791842343D-04 0.100000000000D+01
0.717673634231D-08 0.000000000000D+00 -.566155051636D-09 0.299495835431D-06 0.000000000000D+00  6 -1 22 9900012 -11 -2 21 2 0.12799434D-01 0.12827464D-01 0.34724108D+04 0.34724108D+04 0.34724108D+04 0.12600743D+01  1  2  3  2  6  5       -2 0.132864975348D-05 0.100000000000D+01
-.410381680170D-07 0.000000000000D+00 0.000000000000D+00 0.299495835431D-06 0.000000000000D+00  6 -1 22 9900012 -11 -2 21 2 0.12799434D-01 0.12827464D-01 0.34724108D+04 0.34724108D+04 0.34724108D+04 0.12600743D+01  1  2 15  2  6  5       -2 -.759751357976D-05 0.100000000000D+01
0.150557171026D-06 0.000000000000D+00 0.000000000000D+00 0.299495835431D-06 0.000000000000D+00  6 -1 22 9900012 -11 -2 21 2 0.12799434D-01 0.12827464D-01 0.40486093D+04 0.40486093D+04 0.40486093D+04 0.12523005D+01  1  2 12  2  6  5       -2 0.279741900718D-04 0.100000000000D+01
-.409141208157D-07 0.000000000000D+00 0.000000000000D+00 0.299495835431D-06 0.000000000000D+00  6 -1 22 9900012 -11 -2 21 2 0.12799434D-01 0.12827464D-01 0.34724108D+04 0.34724108D+04 0.34724108D+04 0.12600743D+01  1  2  4  2  6  5       -2 -.757454836612D-05 0.100000000000D+01
-.138663931962D-06 0.000000000000D+00 0.000000000000D+00 0.299495835431D-06 0.000000000000D+00  6 -1 22 9900012 -11 -2 21 2 0.12799434D-01 0.12827464D-01 0.34724108D+04 0.34724108D+04 0.34724108D+04 0.12600743D+01  1  2  5  2  6  5       -2 -.256712508626D-04 0.100000000000D+01
0.201559506661D-06 0.000000000000D+00 -.000000000000D+00 0.299495835431D-06 0.000000000000D+00  6 -1 22 9900012 -11 -2 21 2 0.12799434D-01 0.12827464D-01 0.34724108D+04 0.34724108D+04 0.34724108D+04 0.12600743D+01  1  2  6  2  6  5       -2 0.373152887418D-04 0.100000000000D+01
  </mgrwgt>
  </event>
  <event>
  6     66 0.93819742E-06 0.25861440E+02 0.78161638E-02 0.10318311E+00
       -3 -1    0    0    0  501 0.00000000E+00 0.00000000E+00 0.15026630E+03 0.15026630E+03 0.00000000E+00 0.0000E+00 0.9000E+01
       22 -1    0    0    0    0 0.00000000E+00 0.00000000E+00 -.39421327E+02 0.39421327E+02 0.00000000E+00 0.0000E+00 0.9000E+01
       24  2    1    2    0    0 0.11538757E+02 -.23144572E+02 0.65004903E+01 0.82186069E+02 0.77739819E+02 0.0000E+00 0.0000E+00
  9900012  1    3    3    0    0 0.33028530E+00 0.55375194E+01 -.16413828E+01 0.50333561E+02 0.50000000E+02 0.0000E+00 0.9000E+01
      -11  1    3    3    0    0 0.11208471E+02 -.28682091E+02 0.81418731E+01 0.31852508E+02 0.00000000E+00 0.0000E+00 0.9000E+01
       -4  1    1    2    0  501 -.11538757E+02 0.23144572E+02 0.10434448E+03 0.10750156E+03 0.00000000E+00 0.0000E+00 0.9000E+01
#aMCatNLO 1  0  0  1  5 0.26573812D+03 0.00000000D+00  -5  6  0 0.00000000D+00 0.00000000D+00 0.00000000D+00 0.00000000D+00 0.00000000D+00
  <mgrwgt>
 0.4351357728D-04    3    2    0
 0.769655568267049D+02 0.000000000000000D+00 0.000000000000000D+00 0.769655568267049D+02
 0.769655568267049D+02 0.000000000000000D+00 0.000000000000000D+00 -.769655568267049D+02
 0.632074467371116D+02 0.330285298562827D+00 0.553751940914767D+01 -.382675856756036D+02
 0.333885775808470D+02 0.112084712942303D+02 -.286820909445357D+02 -.129036794430131D+02
 0.573350893354513D+02 -.115387565927931D+02 0.231445715353880D+02 0.511712651186167D+02
 0.000000000000000D+00 -.000000000000000D+00 -.000000000000000D+00 -.000000000000000D+00
 0.204968674108640D+03 0.000000000000000D+00 0.000000000000000D+00 0.204968674108640D+03
 0.314775388338285D+03 0.000000000000000D+00 0.000000000000000D+00 -.314775388338285D+03
 0.119219823952495D+03 0.228696691027068D+02 0.986201629736883D+02 -.382675856756036D+02
 0.222131466078806D+02 0.180782150388167D+02 -.311576740882124D+00 -.129036794430131D+02
 0.129634256627309D+03 0.115618129236731D+02 0.118544787314303D+03 0.511712651186167D+02
 0.248676835259241D+03 -.525096970651965D+02 -.216853373547109D+03 -.109806714229646D+03
0.527247101917D-06 0.000000000000D+00 0.000000000000D+00 0.164239648724D-06 0.000000000000D+00  6 -3 22 9900012 -11 -4 21 0 0.23117892D-01 0.60648196D-02 0.28602486D+04 0.28602486D+04 0.28602486D+04 0.12701182D+01  1  2  2  1  6  1       -3 0.503160476843D-04 0.100000000000D+01
0.303159069108D-07 0.000000000000D+00 -.101238384936D-08 0.164239648724D-06 0.000000000000D+00  6 -3 22 9900012 -11 -4 21 2 0.23117892D-01 0.60648196D-02 0.28602486D+04 0.28602486D+04 0.28602486D+04 0.12701182D+01  1  2  3  1  6  1       -3 0.466714346469D-05 0.100000000000D+01
-.745020480035D-07 0.000000000000D+00 0.000000000000D+00 0.164239648724D-06 0.000000000000D+00  6 -3 22 9900012 -11 -4 21 2 0.23117892D-01 0.60648196D-02 0.28602486D+04 0.28602486D+04 0.28602486D+04 0.12701182D+01  1  2 15  1  6  1       -3 -.114696138720D-04 0.100000000000D+01
  </mgrwgt>
  </event>
  <event>
  6     66 0.93819742E-06 0.45312718E+02 0.78161638E-02 0.12309495E+00
       -1 -1    0    0    0  501 0.00000000E+00 0.00000000E+00 0.48327673E+01 0.48327673E+01 0.00000000E+00 0.0000E+00 0.9000E+01
       22 -1    0    0    0    0 -.00000000E+00 -.00000000E+00 -.16009427E+04 0.16009427E+04 0.00000000E+00 0.0000E+00 0.9000E+01
       24  2    1    2    0    0 0.41847135E+02 -.17379864E+02 -.14486717E+04 0.14515312E+04 0.78994095E+02 0.0000E+00 0.0000E+00
  9900012  1    3    3    0    0 0.88564446E+01 -.55850584E+01 -.61278515E+03 0.61491078E+03 0.50000000E+02 0.0000E+00 0.9000E+01
      -11  1    3    3    0    0 0.32990691E+02 -.11794806E+02 -.83588652E+03 0.83662045E+03 0.00000000E+00 0.0000E+00 0.9000E+01
       -2  1    1    2    0  501 -.41847135E+02 0.17379864E+02 -.14743823E+03 0.15424420E+03 0.00000000E+00 0.0000E+00 0.9000E+01
#aMCatNLO 1  0  0  5  1 0.11820765D+02 0.00000000D+00  -5  6  0 0.00000000D+00 0.00000000D+00 0.00000000D+00 0.00000000D+00 0.00000000D+00
  <mgrwgt>
 0.8026458433D-04    4    2    0
 0.879601238363000D+02 0.000000000000000D+00 0.000000000000000D+00 0.879601238363000D+02
 0.879601238363000D+02 -.000000000000000D+00 -.000000000000000D+00 -.879601238363000D+02
 0.530705447360850D+02 0.885644456327749D+01 -.558505835268442D+01 -.143823931068336D+02
 0.526250790755618D+02 0.329906908231266D+02 -.117948061200482D+02 -.392669812350335D+02
 0.702246238609534D+02 -.418471353864041D+02 0.173798644727327D+02 0.536493743418671D+02
 0.000000000000000D+00 0.000000000000000D+00 0.000000000000000D+00 -.000000000000000D+00
 0.879601238363000D+02 0.000000000000000D+00 0.000000000000000D+00 0.879601238363000D+02
 0.879601238363000D+02 -.000000000000000D+00 -.000000000000000D+00 -.879601238363000D+02
 0.519994336887821D+02 0.674422491193165D+01 -.470781571855754D+01 -.116744595357315D+02
 0.491935508839994D+02 0.309438329642237D+02 -.109447094084287D+02 -.366428435853976D+02
 0.730524177319572D+01 0.698814679661959D+01 -.189547355816006D+01 0.969299594581118D+00
 0.674220213266228D+02 -.446762046727750D+02 0.175479986851463D+02 0.473480035265480D+02
0.248721385955D-05 0.000000000000D+00 0.000000000000D+00 0.544824417088D-06 0.000000000000D+00  6 -1 22 9900012 -11 -2 21 0 0.74350266D-03 0.24629887D+00 0.43186578D+04 0.43186578D+04 0.43186578D+04 0.12490745D+01  1  2  2  2  6  5       -2 0.794981065402D-04 0.100000000000D+01
0.273364546877D-07 0.000000000000D+00 -.477577805956D-08 0.544824417088D-06 0.000000000000D+00  6 -1 22 9900012 -11 -2 21 2 0.74350266D-03 0.24629887D+00 0.43186578D+04 0.43186578D+04 0.43186578D+04 0.12490745D+01  1  2  3  2  6  5       -2 0.136320921071D-05 0.100000000000D+01
-.333482907013D-06 0.000000000000D+00 0.000000000000D+00 0.544824417088D-06 0.000000000000D+00  6 -1 22 9900012 -11 -2 21 2 0.74350266D-03 0.24629887D+00 0.43186578D+04 0.43186578D+04 0.43186578D+04 0.12490745D+01  1  2 15  2  6  5       -2 -.166300632489D-04 0.100000000000D+01
0.320033553827D-06 0.000000000000D+00 0.000000000000D+00 0.544824417088D-06 0.000000000000D+00  6 -1 22 9900012 -11 -2 21 2 0.74350266D-03 0.24629887D+00 0.48117730D+04 0.48117730D+04 0.48117730D+04 0.12437270D+01  1  2 12  2  6  5       -2 0.160333318239D-04 0.100000000000D+01
  </mgrwgt>
  </event>
  <event>
  6     66 0.93819742E-06 0.17460573E+02 0.78161638E-02 0.12963499E+00
       -3 -1    0    0    0  501 0.00000000E+00 0.00000000E+00 0.17302856E+03 0.17302856E+03 0.00000000E+00 0.0000E+00 0.9000E+01
       22 -1    0    0    0    0 0.00000000E+00 0.00000000E+00 -.30571667E+02 0.30571667E+02 0.00000000E+00 0.0000E+00 0.9000E+01
       24  2    1    2    0    0 -.38199076E+01 -.17037603E+02 0.24564790E+02 0.84422128E+02 0.78859337E+02 0.0000E+00 0.0000E+00
  9900012  1    3    3    0    0 0.15977859E+02 -.14410246E+02 0.31964155E+02 0.63124119E+02 0.50000000E+02 0.0000E+00 0.9000E+01
      -11  1    3    3    0    0 -.19797767E+02 -.26273577E+01 -.73993650E+01 0.21298009E+02 0.00000000E+00 0.0000E+00 0.9000E+01
       -4  1    1    2    0  501 0.38199076E+01 0.17037603E+02 0.11789210E+03 0.11917810E+03 0.00000000E+00 0.0000E+00 0.9000E+01
#aMCatNLO 1  0  0  5  1 0.78915019D+01 0.00000000D+00  -5  6  0 0.00000000D+00 0.00000000D+00 0.00000000D+00 0.00000000D+00 0.00000000D+00
  <mgrwgt>
 0.2526889148D-04    6    2    0
 0.727308158411331D+02 0.000000000000000D+00 0.000000000000000D+00 0.727308158411331D+02
 0.727308158411331D+02 -.000000000000000D+00 -.000000000000000D+00 -.727308158411331D+02
 0.570498943292627D+02 0.159778590471150D+02 -.144102456312879D+02 -.170804942579690D+02
 0.370569882034731D+02 -.197977666461294D+02 -.262735768186728D+01 -.312148330469552D+02
 0.513547491495305D+02 0.381990759901438D+01 0.170376033131552D+02 0.482953273049242D+02
 0.000000000000000D+00 0.000000000000000D+00 0.000000000000000D+00 0.000000000000000D+00
 0.727308158411331D+02 0.000000000000000D+00 0.000000000000000D+00 0.727308158411331D+02
 0.727308158411331D+02 -.000000000000000D+00 -.000000000000000D+00 -.727308158411331D+02
 0.564698502336015D+02 0.161082690029292D+02 -.138285893902257D+02 -.154317131457006D+02
 0.360952861024706D+02 -.197137302972398D+02 -.225253762689099D+01 -.301523563063708D+02
 0.881254338462072D+01 -.343950035318327D+01 -.407503196390495D+01 0.701604395079076D+01
 0.440839519615734D+02 0.704496164749390D+01 0.201561589810216D+02 0.385680255012807D+02
0.250467654199D-06 0.000000000000D+00 0.000000000000D+00 0.303568939445D-06 0.000000000000D+00  6 -3 22 9900012 -11 -4 21 0 0.26619778D-01 0.47033334D-02 0.21097889D+04 0.21097889D+04 0.21097889D+04 0.12863865D+01  1  2  2  2  6  5       -4 0.254214846418D-04 0.100000000000D+01
0.228353218981D-07 0.000000000000D+00 -.480930870886D-09 0.303568939445D-06 0.000000000000D+00  6 -3 22 9900012 -11 -4 21 2 0.26619778D-01 0.47033334D-02 0.21097889D+04 0.21097889D+04 0.21097889D+04 0.12863865D+01  1  2  3  2  6  5       -4 0.383530035134D-05 0.100000000000D+01
-.324494570465D-07 0.000000000000D+00 0.000000000000D+00 0.303568939445D-06 0.000000000000D+00  6 -3 22 9900012 -11 -4 21 2 0.26619778D-01 0.47033334D-02 0.21097889D+04 0.21097889D+04 0.21097889D+04 0.12863865D+01  1  2 15  2  6  5       -4 -.545003983592D-05 0.100000000000D+01
0.472767795008D-07 0.000000000000D+00 0.000000000000D+00 0.303568939445D-06 0.000000000000D+00  6 -3 22 9900012 -11 -4 21 2 0.26619778D-01 0.47033334D-02 0.25425203D+04 0.25425203D+04 0.25425203D+04 0.12763390D+01  1  2 12  2  6  5       -4 0.799185975664D-05 0.100000000000D+01
-.389694569700D-07 0.000000000000D+00 0.000000000000D+00 0.303568939445D-06 0.000000000000D+00  6 -3 22 9900012 -11 -4 21 2 0.26619778D-01 0.47033334D-02 0.21097889D+04 0.21097889D+04 0.21097889D+04 0.12863865D+01  1  2  5  2  6  5       -4 -.654510467052D-05 0.100000000000D+01
0.910486816593D-10 0.000000000000D+00 0.000000000000D+00 0.303568939445D-06 0.145172685209D-08  6 -3 22 9900012 -11 -4 21 2 0.26619778D-01 0.47033334D-02 0.25425203D+04 0.25425203D+04 0.25425203D+04 0.12763390D+01  1  2 11  2  6  5       -4 0.153912407429D-07 0.100000000000D+01
  </mgrwgt>
  </event>
  <event>
  6     66 0.93819742E-06 0.65518634E+02 0.78161638E-02 0.11614418E+00
       -3 -1    0    0    0  501 0.00000000E+00 0.00000000E+00 0.35907094E+02 0.35907094E+02 0.00000000E+00 0.0000E+00 0.9000E+01
       22 -1    0    0    0    0 -.00000000E+00 -.00000000E+00 -.56445203E+03 0.56445203E+03 0.00000000E+00 0.0000E+00 0.9000E+01
       24  2    1    2    0    0 0.73183804E+02 -.28974002E+02 -.50611471E+03 0.51851490E+03 0.80686073E+02 0.0000E+00 0.0000E+00
  9900012  1    3    3    0    0 0.24843041E+02 -.25546779E+02 -.33899374E+03 0.34450917E+03 0.50000000E+02 0.0000E+00 0.9000E+01
      -11  1    3    3    0    0 0.48340763E+02 -.34272233E+01 -.16712097E+03 0.17400573E+03 0.00000000E+00 0.0000E+00 0.9000E+01
       -4  1    1    2    0  501 -.73183804E+02 0.28974002E+02 -.22430229E+02 0.81844225E+02 0.00000000E+00 0.0000E+00 0.9000E+01
#aMCatNLO 1  0  0  5  1 0.18927545D+02 0.00000000D+00  -5  6  0 0.00000000D+00 0.00000000D+00 0.00000000D+00 0.00000000D+00 0.00000000D+00
  <mgrwgt>
 0.9351357621D-04    4    2    0
 0.142365137544593D+03 0.000000000000000D+00 0.000000000000000D+00 0.142365137544593D+03
 0.142365137544593D+03 -.000000000000000D+00 -.000000000000000D+00 -.142365137544593D+03
 0.971298224888424D+02 0.248430414949047D+02 -.255467790282942D+02 -.752621271774589D+02
 0.566676124386924D+02 0.483407627301967D+02 -.342722329967426D+01 -.293707864828105D+02
 0.130932840161651D+03 -.731838042251014D+02 0.289740023279684D+02 0.104632913660269D+03
 0.000000000000000D+00 0.000000000000000D+00 0.000000000000000D+00 -.000000000000000D+00
 0.142365137544593D+03 0.000000000000000D+00 0.000000000000000D+00 0.142365137544593D+03
 0.142365137544593D+03 -.000000000000000D+00 -.000000000000000D+00 -.142365137544593D+03
 0.928425485464732D+02 0.218885115230602D+02 -.243770590446354D+02 -.710379537729196D+02
 0.539012187077108D+02 0.466211499054816D+02 -.274641602934913D+01 -.269122083571903D+02
 0.136588959407451D+02 0.118586931038943D+02 0.171467965873977D+01 0.655718764834873D+01
 0.124327611894257D+03 -.803683545324361D+02 0.254087954152447D+02 0.913929744817611D+02
0.499951641555D-05 0.000000000000D+00 0.000000000000D+00 0.197847185339D-05 0.000000000000D+00  6 -3 22 9900012 -11 -4 21 0 0.55241683D-02 0.86838774D-01 0.88898063D+04 0.88898063D+04 0.88898063D+04 0.12146644D+01  1  2  2  2  6  5       -4 0.915270030900D-04 0.100000000000D+01
0.235026682687D-07 0.000000000000D+00 -.959972971932D-08 0.197847185339D-05 0.000000000000D+00  6 -3 22 9900012 -11 -4 21 2 0.55241683D-02 0.86838774D-01 0.88898063D+04 0.88898063D+04 0.88898063D+04 0.12146644D+01  1  2  3  2  6  5       -4 0.634820577941D-06 0.100000000000D+01
-.644992685001D-06 0.000000000000D+00 0.000000000000D+00 0.197847185339D-05 0.000000000000D+00  6 -3 22 9900012 -11 -4 21 2 0.55241683D-02 0.86838774D-01 0.88898063D+04 0.88898063D+04 0.88898063D+04 0.12146644D+01  1  2 15  2  6  5       -4 -.174216231272D-04 0.100000000000D+01
0.692924789243D-06 0.000000000000D+00 0.000000000000D+00 0.197847185339D-05 0.000000000000D+00  6 -3 22 9900012 -11 -4 21 2 0.55241683D-02 0.86838774D-01 0.10276965D+05 0.10276965D+05 0.10276965D+05 0.12081022D+01  1  2 12  2  6  5       -4 0.187733756715D-04 0.100000000000D+01
  </mgrwgt>
  </event>
  <event>
  6     66 0.93819742E-06 0.44485434E+02 0.78161638E-02 0.11881052E+00
       -3 -1    0    0    0  501 0.00000000E+00 0.00000000E+00 0.16725201E+03 0.16725201E+03 0.00000000E+00 0.0000E+00 0.9000E+01
       22 -1    0    0    0    0 0.00000000E+00 0.00000000E+00 -.37628873E+03 0.37628873E+03 0.00000000E+00 0.0000E+00 0.9000E+01
       24  2    1    2    0    0 0.33440456E+02 0.41328565E+02 -.36525826E+03 0.37852109E+03 0.83894623E+02 0.0000E+00 0.0000E+00
  9900012  1    3    3    0    0 0.51893433E+01 0.86795649E+01 -.13642465E+03 0.14565009E+03 0.50000000E+02 0.0000E+00 0.9000E+01
      -11  1    3    3    0    0 0.28251113E+02 0.32649000E+02 -.22883361E+03 0.23287100E+03 0.00000000E+00 0.0000E+00 0.9000E+01
       -4  1    1    2    0  501 -.33440456E+02 -.41328565E+02 0.15622154E+03 0.16501965E+03 0.00000000E+00 0.0000E+00 0.9000E+01
#aMCatNLO 1  0  0  1  5 0.23782736D+02 0.00000000D+00  -5  6  0 0.00000000D+00 0.00000000D+00 0.00000000D+00 0.00000000D+00 0.00000000D+00
  <mgrwgt>
 0.2806272130D-03    9    4    0
 0.250868583684148D+03 0.000000000000000D+00 0.000000000000000D+00 0.250868583684148D+03
 0.250868583684148D+03 0.000000000000000D+00 0.000000000000000D+00 -.250868583684148D+03
 0.100947268470639D+03 0.518934334932457D+01 0.867956493348284D+01 -.871096256440791D+02
 0.156935254246592D+03 0.282511130366451D+02 0.326490001346396D+02 -.150879393648840D+03
 0.243854644651065D+03 -.334404563859697D+02 -.413285650681225D+02 0.237989019292919D+03
 0.000000000000000D+00 -.000000000000000D+00 0.000000000000000D+00 0.000000000000000D+00
 0.361286466699104D+03 0.000000000000000D+00 0.000000000000000D+00 0.361286466699104D+03
 0.252408828736011D+03 0.000000000000000D+00 0.000000000000000D+00 -.252408828736011D+03
 0.100719347710694D+03 0.630122256958349D+01 0.407366144207965D+01 -.871096256440791D+02
 0.155928131749934D+03 0.299760703164191D+02 0.255034517579173D+02 -.150879393648840D+03
 0.245643938850167D+03 -.307416294127844D+02 -.525083194443152D+02 0.237989019292919D+03
 0.111403877124320D+03 -.553566347321823D+01 0.229312062443183D+02 0.108877637963093D+03
 0.250868583684148D+03 0.000000000000000D+00 0.000000000000000D+00 0.250868583684148D+03
 0.250868583684148D+03 0.000000000000000D+00 0.000000000000000D+00 -.250868583684148D+03
 0.100947268470639D+03 0.518934334932457D+01 0.867956493348284D+01 -.871096256440791D+02
 0.156935254246592D+03 0.282511130366451D+02 0.326490001346396D+02 -.150879393648840D+03
 0.000000000000000D+00 -.000000000000000D+00 0.000000000000000D+00 0.000000000000000D+00
 0.243854644651065D+03 -.334404563859697D+02 -.413285650681225D+02 0.237989019292919D+03
 0.361286466699104D+03 0.000000000000000D+00 0.000000000000000D+00 0.361286466699104D+03
 0.252408828736011D+03 0.000000000000000D+00 0.000000000000000D+00 -.252408828736011D+03
 0.100719347710694D+03 0.630122256958349D+01 0.407366144207965D+01 -.871096256440791D+02
 0.155928131749934D+03 0.299760703164191D+02 0.255034517579173D+02 -.150879393648840D+03
 0.111403877124320D+03 -.553566347321823D+01 0.229312062443183D+02 0.108877637963093D+03
 0.245643938850167D+03 -.307416294127844D+02 -.525083194443152D+02 0.237989019292919D+03
0.682404894588D-05 0.000000000000D+00 0.000000000000D+00 0.588066768165D-05 0.000000000000D+00  6 -3 22 9900012 -11 -4 21 0 0.25731078D-01 0.57890574D-01 0.54280430D+04 0.54280430D+04 0.54280430D+04 0.12378494D+01  1  2  2  1  6  1       -3 0.198765130358D-04 0.100000000000D+01
0.260484550761D-06 0.000000000000D+00 -.131030723828D-07 0.588066768165D-05 0.000000000000D+00  6 -3 22 9900012 -11 -4 21 2 0.25731078D-01 0.57890574D-01 0.54280430D+04 0.54280430D+04 0.54280430D+04 0.12378494D+01  1  2  3  1  6  1       -3 0.116256068447D-05 0.100000000000D+01
-.965842020757D-06 0.000000000000D+00 0.000000000000D+00 0.588066768165D-05 0.000000000000D+00  6 -3 22 9900012 -11 -4 21 2 0.25731078D-01 0.57890574D-01 0.54280430D+04 0.54280430D+04 0.54280430D+04 0.12378494D+01  1  2 15  1  6  1       -3 -.431062017866D-05 0.100000000000D+01
0.811798397456D-04 0.000000000000D+00 0.000000000000D+00 0.588066768165D-05 0.000000000000D+00  6 -3 22 9900012 -11 -4 21 2 0.37283929D-01 0.57890574D-01 0.75996958D+04 0.75996958D+04 0.75996958D+04 0.12218908D+01  1  2 12  1  6  1       -3 0.182038202529D-03 0.100000000000D+01
-.179777775632D-04 0.000000000000D+00 0.000000000000D+00 0.588066768165D-05 0.000000000000D+00  6 -3 22 9900012 -11 -4 21 2 0.25731078D-01 0.57890574D-01 0.54280430D+04 0.54280430D+04 0.54280430D+04 0.12378494D+01  1  2  4  1  6  1       -3 -.802360728422D-04 0.100000000000D+01
-.838438702176D-04 0.000000000000D+00 -.281905598231D-05 0.588066768165D-05 0.000000000000D+00  6 -3 22 9900012 -11 -4 21 2 0.37166131D-01 0.57890574D-01 0.54280430D+04 0.54280430D+04 0.54280430D+04 0.12378494D+01  1  2  5  1  6  1       -3 -.189925564268D-03 0.100000000000D+01
0.796176749241D-04 0.000000000000D+00 0.263866093605D-05 0.588066768165D-05 0.000000000000D+00  6 -3 22 9900012 -11 -4 21 2 0.25731078D-01 0.57890574D-01 0.54280430D+04 0.54280430D+04 0.54280430D+04 0.12378494D+01  1  2  6  1  6  1       -3 0.355339226012D-03 0.100000000000D+01
0.365681255913D-05 0.000000000000D+00 0.000000000000D+00 0.588066768165D-05 0.000000000000D+00  6 21 22 9900012 -11 3 -4 2 0.37283929D-01 0.57890574D-01 0.75996958D+04 0.75996958D+04 0.75996958D+04 0.12218908D+01  3  4 12  3  5  1       -3 0.133387568070D-03 0.100000000000D+01
-.366783679704D-05 0.000000000000D+00 -.126200398918D-06 0.588066768165D-05 0.000000000000D+00  6 21 22 9900012 -11 3 -4 2 0.37166131D-01 0.57890574D-01 0.54280430D+04 0.54280430D+04 0.54280430D+04 0.12378494D+01  3  4  5  3  5  1       -3 -.136704600081D-03 0.100000000000D+01
  </mgrwgt>
  </event>
  <event>
  6     66 0.93819742E-06 0.24117668E+02 0.78161638E-02 0.12339396E+00
       -3 -1    0    0    0  501 0.00000000E+00 0.00000000E+00 0.28919666E+02 0.28919666E+02 0.00000000E+00 0.0000E+00 0.9000E+01
       22 -1    0    0    0    0 0.00000000E+00 0.00000000E+00 -.35260466E+03 0.35260466E+03 0.00000000E+00 0.0000E+00 0.9000E+01
       24  2    1    2    0    0 0.29215051E+02 0.26681021E+02 -.32947220E+03 0.34153823E+03 0.80814849E+02 0.0000E+00 0.0000E+00
  9900012  1    3    3    0    0 0.19306328E+02 0.58587209E+01 -.29613192E+03 0.30100029E+03 0.50000000E+02 0.0000E+00 0.9000E+01
      -11  1    3    3    0    0 0.99087224E+01 0.20822300E+02 -.33340278E+02 0.40537946E+02 0.00000000E+00 0.0000E+00 0.9000E+01
       -4  1    1    2    0  501 -.29215051E+02 -.26681021E+02 0.57872016E+01 0.39986095E+02 0.00000000E+00 0.0000E+00 0.9000E+01
#aMCatNLO 1  0  0  1  5 0.21272572D+02 0.00000000D+00  -5  6  0 0.00000000D+00 0.00000000D+00 0.00000000D+00 0.00000000D+00 0.00000000D+00
  <mgrwgt>
 0.6993706992D-04    9    4    0
 0.100981231494216D+03 0.000000000000000D+00 0.000000000000000D+00 0.100981231494216D+03
 0.100981231494216D+03 0.000000000000000D+00 0.000000000000000D+00 -.100981231494216D+03
 0.940049591976559D+02 0.193063284224026D+02 0.585872093724958D+01 -.770056713858059D+02
 0.231452171408871D+02 0.990872243561940D+01 0.208223002732779D+02 0.198748774137502D+01
 0.848122866498892D+02 -.292150508580220D+02 -.266810212105275D+02 0.750181836444308D+02
 0.000000000000000D+00 -.000000000000000D+00 0.000000000000000D+00 0.000000000000000D+00
 0.112860967288917D+03 0.000000000000000D+00 0.000000000000000D+00 0.112860967288917D+03
 0.107592957918982D+03 0.000000000000000D+00 0.000000000000000D+00 -.107592957918982D+03
 0.940217331828903D+02 0.201561214372022D+02 -.198586347583665D+01 -.770056713858059D+02
 0.215761012301010D+02 0.101108419511155D+02 0.189565005158919D+02 0.198748774137502D+01
 0.870772088844465D+02 -.284381904518044D+02 -.338523522612960D+02 0.750181836444308D+02
 0.177788819104611D+02 -.182877293651331D+01 0.168817152212407D+02 0.526800936993523D+01
 0.100981231494216D+03 0.000000000000000D+00 0.000000000000000D+00 0.100981231494216D+03
 0.100981231494216D+03 0.000000000000000D+00 0.000000000000000D+00 -.100981231494216D+03
 0.940049591976559D+02 0.193063284224026D+02 0.585872093724958D+01 -.770056713858059D+02
 0.231452171408871D+02 0.990872243561940D+01 0.208223002732779D+02 0.198748774137502D+01
 0.000000000000000D+00 -.000000000000000D+00 0.000000000000000D+00 0.000000000000000D+00
 0.848122866498892D+02 -.292150508580220D+02 -.266810212105275D+02 0.750181836444308D+02
 0.112860967288917D+03 0.000000000000000D+00 0.000000000000000D+00 0.112860967288917D+03
 0.107592957918982D+03 0.000000000000000D+00 0.000000000000000D+00 -.107592957918982D+03
 0.940217331828903D+02 0.201561214372022D+02 -.198586347583665D+01 -.770056713858059D+02
 0.215761012301010D+02 0.101108419511155D+02 0.189565005158919D+02 0.198748774137502D+01
 0.177788819104611D+02 -.182877293651331D+01 0.168817152212407D+02 0.526800936993523D+01
 0.870772088844465D+02 -.284381904518044D+02 -.338523522612960D+02 0.750181836444308D+02
0.572874871114D-06 0.000000000000D+00 0.000000000000D+00 0.141266371993D-05 0.000000000000D+00  6 -3 22 9900012 -11 -4 21 0 0.44491794D-02 0.54246871D-01 0.33955072D+04 0.33955072D+04 0.33955072D+04 0.12612211D+01  1  2  2  1  6  1       -3 0.300363259444D-04 0.100000000000D+01
0.128454521396D-07 0.000000000000D+00 -.109999517325D-08 0.141266371993D-05 0.000000000000D+00  6 -3 22 9900012 -11 -4 21 2 0.44491794D-02 0.54246871D-01 0.33955072D+04 0.33955072D+04 0.33955072D+04 0.12612211D+01  1  2  3  1  6  1       -3 0.107131915915D-05 0.100000000000D+01
-.723283547005D-07 0.000000000000D+00 0.000000000000D+00 0.141266371993D-05 0.000000000000D+00  6 -3 22 9900012 -11 -4 21 2 0.44491794D-02 0.54246871D-01 0.33955072D+04 0.33955072D+04 0.33955072D+04 0.12612211D+01  1  2 15  1  6  1       -3 -.603223236508D-05 0.100000000000D+01
0.557978364349D-06 0.000000000000D+00 0.000000000000D+00 0.141266371993D-05 0.000000000000D+00  6 -3 22 9900012 -11 -4 21 2 0.52981739D-02 0.54246871D-01 0.46664861D+04 0.46664861D+04 0.46664861D+04 0.12452366D+01  1  2 12  1  6  1       -3 0.362239430160D-04 0.100000000000D+01
-.381782187756D-07 0.000000000000D+00 0.000000000000D+00 0.141266371993D-05 0.000000000000D+00  6 -3 22 9900012 -11 -4 21 2 0.44491794D-02 0.54246871D-01 0.33955072D+04 0.33955072D+04 0.33955072D+04 0.12612211D+01  1  2  4  1  6  1       -3 -.318408856240D-05 0.100000000000D+01
-.135558335295D-05 0.000000000000D+00 -.442440283310D-06 0.141266371993D-05 0.000000000000D+00  6 -3 22 9900012 -11 -4 21 2 0.52953700D-02 0.54246871D-01 0.33955072D+04 0.33955072D+04 0.33955072D+04 0.12612211D+01  1  2  5  1  6  1       -3 -.871769029864D-04 0.100000000000D+01
0.141769736170D-05 0.000000000000D+00 0.435817585826D-06 0.141266371993D-05 0.000000000000D+00  6 -3 22 9900012 -11 -4 21 2 0.44491794D-02 0.54246871D-01 0.33955072D+04 0.33955072D+04 0.33955072D+04 0.12612211D+01  1  2  6  1  6  1       -3 0.118236892634D-03 0.100000000000D+01
0.143712328324D-07 0.000000000000D+00 0.000000000000D+00 0.141266371993D-05 0.000000000000D+00  6 21 22 9900012 -11 3 -4 2 0.52981739D-02 0.54246871D-01 0.46664861D+04 0.46664861D+04 0.46664861D+04 0.12452366D+01  3  4 12  3  5  1       -3 0.169876385056D-04 0.100000000000D+01
-.308277948424D-07 0.000000000000D+00 -.113682471830D-07 0.141266371993D-05 0.000000000000D+00  6 21 22 9900012 -11 3 -4 2 0.52953700D-02 0.54246871D-01 0.33955072D+04 0.33955072D+04 0.33955072D+04 0.12612211D+01  3  4  5  3  5  1       -3 -.362258254207D-04 0.100000000000D+01
  </mgrwgt>
  </event>
  <event>
  7     66 0.93819742E-06 0.32510587E+02 0.78161638E-02 0.12671457E+00
       21 -1    0    0  502  501 0.00000000E+00 0.00000000E+00 0.15575426E+02 0.15575426E+02 0.00000000E+00 0.0000E+00 0.9000E+01
       22 -1    0    0    0    0 0.00000000E+00 0.00000000E+00 -.33008116E+03 0.33008116E+03 0.00000000E+00 0.0000E+00 0.9000E+01
       24  2    1    2    0    0 -.10014475E+02 -.36240319E+02 -.25310604E+03 0.26848348E+03 0.81283834E+02 0.0000E+00 0.0000E+00
  9900012  1    3    3    0    0 0.17340365E+01 -.12627583E+02 -.94223950E+02 0.10742726E+03 0.50000000E+02 0.0000E+00 0.9000E+01
      -11  1    3    3    0    0 -.11748512E+02 -.23612736E+02 -.15888209E+03 0.16105622E+03 0.00000000E+00 0.0000E+00 0.9000E+01
        1  1    1    2  502    0 -.25174093E+00 0.35323793E+01 -.31459085E+02 0.31657781E+02 0.00000000E+00 0.0000E+00 0.9000E+01
       -2  1    1    2    0  501 0.10266216E+02 0.32707940E+02 -.29940603E+02 0.45515319E+02 0.00000000E+00 0.0000E+00 0.9000E+01
#aMCatNLO 2  0  0  1  5 0.14160523D+02 0.00000000D+00  -5  6  0 0.00000000D+00 0.00000000D+00 0.00000000D+00 0.00000000D+00 0.00000000D+00
  <mgrwgt>
 0.3037005241D-04    2    2    0
 0.679472276614214D+02 0.000000000000000D+00 0.000000000000000D+00 0.679472276614214D+02
 0.679472276614214D+02 0.000000000000000D+00 0.000000000000000D+00 -.679472276614214D+02
 0.516372428599662D+02 0.163810551007867D+01 -.112814978963363D+02 0.603732272882124D+01
 0.406195183130911D+02 -.118242810719281D+02 -.225495584320142D+02 -.316488397834859D+02
 0.000000000000000D+00 -.000000000000000D+00 0.000000000000000D+00 -.000000000000000D+00
 0.436376941497855D+02 0.101861755618494D+02 0.338310563283505D+02 0.256115170546647D+02
 0.684066276914471D+02 0.000000000000000D+00 0.000000000000000D+00 0.684066276914471D+02
 0.751557984832999D+02 0.000000000000000D+00 0.000000000000000D+00 -.751557984832999D+02
 0.519510539426041D+02 0.173403653203268D+01 -.126275831939843D+02 0.603732272882124D+01
 0.411975471590645D+02 -.117485119460105D+02 -.236127359561961D+02 -.316488397834859D+02
 0.762183597190464D+01 -.251740925617266D+00 0.353237932722253D+01 -.674917079185286D+01
 0.427919891011738D+02 0.102662163395951D+02 0.327079398229578D+02 0.256115170546647D+02
-.230820072309D-08 0.000000000000D+00 0.000000000000D+00 0.109754000251D-06 0.000000000000D+00  6 21 22 9900012 -11 1 -2 2 0.26504361D-02 0.45910986D-01 0.33521593D+04 0.33521593D+04 0.33521593D+04 0.12618805D+01  1  2 13  3  5  1       -1 -.103577088955D-04 0.100000000000D+01
0.920000119996D-08 0.000000000000D+00 0.000000000000D+00 0.109754000251D-06 0.563236187565D-09  6 21 22 9900012 -11 1 -2 2 0.23962194D-02 0.50781716D-01 0.33521593D+04 0.33521593D+04 0.33521593D+04 0.12618805D+01  1  2  1  3  5  1       -1 0.407277613006D-04 0.100000000000D+01
  </mgrwgt>
  </event>
  <event>
  6     66 0.93819742E-06 0.40932052E+02 0.78161638E-02 0.11181149E+00
       -1 -1    0    0    0  501 0.00000000E+00 0.00000000E+00 0.47988289E+03 0.47988289E+03 0.00000000E+00 0.0000E+00 0.9000E+01
       22 -1    0    0    0    0 0.00000000E+00 0.00000000E+00 -.26432655E+03 0.26432655E+03 0.00000000E+00 0.0000E+00 0.9000E+01
       24  2    1    2    0    0 0.83420684E+02 0.44185446E+02 -.24474681E+03 0.27432610E+03 0.80264809E+02 0.0000E+00 0.0000E+00
  9900012  1    3    3    0    0 0.57389070E+02 0.10893273E+02 -.19140645E+03 0.20627312E+03 0.50000000E+02 0.0000E+00 0.9000E+01
      -11  1    3    3    0    0 0.26031614E+02 0.33292173E+02 -.53340362E+02 0.68052978E+02 0.00000000E+00 0.0000E+00 0.9000E+01
       -2  1    1    2    0  501 -.83420684E+02 -.44185446E+02 0.46030315E+03 0.46988334E+03 0.00000000E+00 0.0000E+00 0.9000E+01
#aMCatNLO 1  0  0  1  5 0.59364921D+02 0.00000000D+00  -5  6  0 0.00000000D+00 0.00000000D+00 0.00000000D+00 0.00000000D+00 0.00000000D+00
  <mgrwgt>
 0.5992565049D-04    9    4    0
 0.356154163633634D+03 0.000000000000000D+00 0.000000000000000D+00 0.356154163633634D+03
 0.356154163633634D+03 0.000000000000000D+00 0.000000000000000D+00 -.356154163633634D+03
 0.273433942683371D+03 0.573890704392790D+02 0.108932726663867D+02 -.262400366265187D+03
 0.872424476692163D+02 0.260316135870974D+02 0.332921729302989D+02 -.763232008693757D+02
 0.351631936914679D+03 -.834206840263763D+02 -.441854455966856D+02 0.338723567134563D+03
 0.000000000000000D+00 -.000000000000000D+00 -.000000000000000D+00 0.000000000000000D+00
 0.395105075302151D+03 0.000000000000000D+00 0.000000000000000D+00 0.395105075302151D+03
 0.373014006467189D+03 0.000000000000000D+00 0.000000000000000D+00 -.373014006467189D+03
 0.275383572207724D+03 0.599924972861565D+02 0.297163237153052D+02 -.262400366265187D+03
 0.899855588756209D+02 0.268723304697373D+02 0.393706447792768D+02 -.763232008693757D+02
 0.348649103578599D+03 -.800987593215110D+02 -.201675791544850D+02 0.338723567134563D+03
 0.541008471073953D+02 -.676606843438274D+01 -.489193893400970D+02 0.220910688349617D+02
 0.356154163633634D+03 0.000000000000000D+00 0.000000000000000D+00 0.356154163633634D+03
 0.356154163633634D+03 0.000000000000000D+00 0.000000000000000D+00 -.356154163633634D+03
 0.273433942683371D+03 0.573890704392790D+02 0.108932726663867D+02 -.262400366265187D+03
 0.872424476692163D+02 0.260316135870974D+02 0.332921729302989D+02 -.763232008693757D+02
 0.000000000000000D+00 -.000000000000000D+00 -.000000000000000D+00 0.000000000000000D+00
 0.351631936914679D+03 -.834206840263763D+02 -.441854455966856D+02 0.338723567134563D+03
 0.395105075302151D+03 0.000000000000000D+00 0.000000000000000D+00 0.395105075302151D+03
 0.373014006467189D+03 0.000000000000000D+00 0.000000000000000D+00 -.373014006467189D+03
 0.275383572207724D+03 0.599924972861565D+02 0.297163237153052D+02 -.262400366265187D+03
 0.899855588756209D+02 0.268723304697373D+02 0.393706447792768D+02 -.763232008693757D+02
 0.541008471073953D+02 -.676606843438274D+01 -.489193893400970D+02 0.220910688349617D+02
 0.348649103578599D+03 -.800987593215110D+02 -.201675791544850D+02 0.338723567134563D+03
0.215508147801D-04 0.000000000000D+00 0.000000000000D+00 0.839081416108D-04 0.000000000000D+00  6 -1 22 9900012 -11 -2 21 0 0.73828137D-01 0.40665623D-01 0.11401104D+05 0.11401104D+05 0.11401104D+05 0.12034724D+01  1  2  2  1  6  1       -1 0.274261378185D-04 0.100000000000D+01
0.329206224629D-06 0.000000000000D+00 -.413804016077D-07 0.839081416108D-04 0.000000000000D+00  6 -1 22 9900012 -11 -2 21 2 0.73828137D-01 0.40665623D-01 0.11401104D+05 0.11401104D+05 0.11401104D+05 0.12034724D+01  1  2  3  1  6  1       -1 0.606794013877D-06 0.100000000000D+01
-.278136214242D-05 0.000000000000D+00 0.000000000000D+00 0.839081416108D-04 0.000000000000D+00  6 -1 22 9900012 -11 -2 21 2 0.73828137D-01 0.40665623D-01 0.11401104D+05 0.11401104D+05 0.11401104D+05 0.12034724D+01  1  2 15  1  6  1       -1 -.512661599988D-05 0.100000000000D+01
0.149132089202D-04 0.000000000000D+00 0.000000000000D+00 0.839081416108D-04 0.000000000000D+00  6 -1 22 9900012 -11 -2 21 2 0.85779518D-01 0.40665623D-01 0.17319924D+05 0.17319924D+05 0.17319924D+05 0.11853542D+01  1  2 12  1  6  1       -1 0.200451169852D-04 0.100000000000D+01
-.932674887552D-06 0.000000000000D+00 0.000000000000D+00 0.839081416108D-04 0.000000000000D+00  6 -1 22 9900012 -11 -2 21 2 0.73828137D-01 0.40665623D-01 0.11401104D+05 0.11401104D+05 0.11401104D+05 0.12034724D+01  1  2  4  1  6  1       -1 -.171910947097D-05 0.100000000000D+01
-.460302015767D-04 0.000000000000D+00 -.188444483183D-04 0.839081416108D-04 0.000000000000D+00  6 -1 22 9900012 -11 -2 21 2 0.84919135D-01 0.40665623D-01 0.11401104D+05 0.11401104D+05 0.11401104D+05 0.12034724D+01  1  2  5  1  6  1       -1 -.643308715968D-04 0.100000000000D+01
0.483761499860D-04 0.000000000000D+00 0.186613739875D-04 0.839081416108D-04 0.000000000000D+00  6 -1 22 9900012 -11 -2 21 2 0.73828137D-01 0.40665623D-01 0.11401104D+05 0.11401104D+05 0.11401104D+05 0.12034724D+01  1  2  6  1  6  1       -1 0.891670813911D-04 0.100000000000D+01
0.340258764983D-06 0.000000000000D+00 0.000000000000D+00 0.839081416108D-04 0.000000000000D+00  6 21 22 9900012 -11 1 -2 2 0.85779518D-01 0.40665623D-01 0.17319924D+05 0.17319924D+05 0.17319924D+05 0.11853542D+01  3  4 12  3  5  1       -1 0.358061366169D-05 0.100000000000D+01
-.876954391337D-06 0.000000000000D+00 -.406273614022D-06 0.839081416108D-04 0.000000000000D+00  6 21 22 9900012 -11 1 -2 2 0.84919135D-01 0.40665623D-01 0.11401104D+05 0.11401104D+05 0.11401104D+05 0.12034724D+01  3  4  5  3  5  1       -1 -.972349631659D-05 0.100000000000D+01
  </mgrwgt>
  </event>
  <event>
  6     66 0.93819742E-06 0.57853586E+02 0.78161638E-02 0.12107241E+00
       -1 -1    0    0    0  501 0.00000000E+00 0.00000000E+00 0.96004785E+01 0.96004785E+01 0.00000000E+00 0.0000E+00 0.9000E+01
       22 -1    0    0    0    0 -.00000000E+00 -.00000000E+00 -.89009358E+03 0.89009358E+03 0.00000000E+00 0.0000E+00 0.9000E+01
       24  2    1    2    0    0 0.51317793E+02 0.40228150E+02 -.70813629E+03 0.71541522E+03 0.78167207E+02 0.0000E+00 0.0000E+00
  9900012  1    3    3    0    0 0.40322722E+02 0.11886602E+02 -.35401022E+03 0.35998673E+03 0.50000000E+02 0.0000E+00 0.9000E+01
      -11  1    3    3    0    0 0.10995071E+02 0.28341548E+02 -.35412607E+03 0.35542849E+03 0.00000000E+00 0.0000E+00 0.9000E+01
       -2  1    1    2    0  501 -.51317793E+02 -.40228150E+02 -.17235682E+03 0.18427884E+03 0.00000000E+00 0.0000E+00 0.9000E+01
#aMCatNLO 1  0  0  5  1 0.16085582D+02 0.00000000D+00  -5  6  0 0.00000000D+00 0.00000000D+00 0.00000000D+00 0.00000000D+00 0.00000000D+00
  <mgrwgt>
 0.3160671754D-04    5    2    0
 0.924409232036766D+02 0.000000000000000D+00 0.000000000000000D+00 0.924409232036766D+02
 0.924409232036766D+02 -.000000000000000D+00 -.000000000000000D+00 -.924409232036766D+02
 0.658494594965222D+02 0.403227218904363D+02 0.118866022841130D+02 -.830289717327438D+01
 0.431158340329512D+02 0.109950706888863D+02 0.283415478542657D+02 -.305751570744576D+02
 0.759165528778797D+02 -.513177925793226D+02 -.402281501383787D+02 0.388780542477320D+02
 0.000000000000000D+00 0.000000000000000D+00 0.000000000000000D+00 0.000000000000000D+00
 0.924409232036766D+02 0.000000000000000D+00 0.000000000000000D+00 0.924409232036766D+02
 0.924409232036766D+02 -.000000000000000D+00 -.000000000000000D+00 -.924409232036766D+02
 0.642424477824573D+02 0.383799758749027D+02 0.103636786651202D+02 -.683108435387588D+01
 0.414733308760471D+02 0.973184635371025D+01 0.273513030354659D+02 -.296181458360238D+02
 0.248451711840779D+02 -.178742982635248D+02 -.168810601332782D+02 -.358075432406826D+01
 0.543208965647709D+02 -.302375239650882D+02 -.208339215673079D+02 0.400299845139680D+02
0.696367962268D-06 0.000000000000D+00 0.000000000000D+00 0.117337295376D-06 0.000000000000D+00  6 -1 22 9900012 -11 -2 21 0 0.14769967D-02 0.13693747D+00 0.64745742D+04 0.64745742D+04 0.64745742D+04 0.12294093D+01  1  2  2  2  6  5       -2 0.372236853484D-04 0.100000000000D+01
-.104771763377D-07 0.000000000000D+00 -.133711816650D-08 0.117337295376D-06 0.000000000000D+00  6 -1 22 9900012 -11 -2 21 2 0.14769967D-02 0.13693747D+00 0.64745742D+04 0.64745742D+04 0.64745742D+04 0.12294093D+01  1  2  3  2  6  5       -2 -.846482188804D-06 0.100000000000D+01
-.867684488595D-07 0.000000000000D+00 0.000000000000D+00 0.117337295376D-06 0.000000000000D+00  6 -1 22 9900012 -11 -2 21 2 0.14769967D-02 0.13693747D+00 0.64745742D+04 0.64745742D+04 0.64745742D+04 0.12294093D+01  1  2 15  2  6  5       -2 -.701028064649D-05 0.100000000000D+01
0.206988834951D-06 0.000000000000D+00 0.000000000000D+00 0.117337295376D-06 0.000000000000D+00  6 -1 22 9900012 -11 -2 21 2 0.14769967D-02 0.13693747D+00 0.59455743D+04 0.59455743D+04 0.59455743D+04 0.12334670D+01  1  2 12  2  6  5       -2 0.166710724855D-04 0.100000000000D+01
-.178620460936D-06 0.000000000000D+00 0.000000000000D+00 0.117337295376D-06 0.000000000000D+00  6 -1 22 9900012 -11 -2 21 2 0.14769967D-02 0.13693747D+00 0.64745742D+04 0.64745742D+04 0.64745742D+04 0.12294093D+01  1  2  5  2  6  5       -2 -.144312774612D-04 0.100000000000D+01
  </mgrwgt>
  </event>
  <event>
  6     66 0.93819742E-06 0.12549090E+03 0.78161638E-02 0.10950181E+00
       -1 -1    0    0    0  501 0.00000000E+00 0.00000000E+00 0.18455365E+03 0.18455365E+03 0.00000000E+00 0.0000E+00 0.9000E+01
       22 -1    0    0    0    0 -.00000000E+00 -.00000000E+00 -.28261310E+03 0.28261310E+03 0.00000000E+00 0.0000E+00 0.9000E+01
       24  2    1    2    0    0 -.12035659E+03 -.79779558E+02 -.22212621E+03 0.27679069E+03 0.80140773E+02 0.0000E+00 0.0000E+00
  9900012  1    3    3    0    0 -.58804976E+02 -.52269939E+02 -.15965208E+03 0.18487552E+03 0.50000000E+02 0.0000E+00 0.9000E+01
      -11  1    3    3    0    0 -.61551614E+02 -.27509619E+02 -.62474128E+02 0.91915161E+02 0.00000000E+00 0.0000E+00 0.9000E+01
       -2  1    1    2    0  501 0.12035659E+03 0.79779558E+02 0.12406675E+03 0.19037606E+03 0.00000000E+00 0.0000E+00 0.9000E+01
#aMCatNLO 1  0  0  5  1 0.25896686D+02 0.00000000D+00  -5  6  0 0.00000000D+00 0.00000000D+00 0.00000000D+00 0.00000000D+00 0.00000000D+00
  <mgrwgt>
 0.3718943558D-04    5    2    0
 0.228379681346643D+03 0.000000000000000D+00 0.000000000000000D+00 0.228379681346643D+03
 0.228379681346643D+03 -.000000000000000D+00 -.000000000000000D+00 -.228379681346643D+03
 0.154813030825652D+03 -.588049764838587D+02 -.522699394786882D+02 -.123599768127013D+03
 0.805972053295567D+02 -.615516135626837D+02 -.275096189184293D+02 -.441647964076319D+02
 0.221349126538077D+03 0.120356590046542D+03 0.797795583971174D+02 0.167764564534645D+03
 0.000000000000000D+00 0.000000000000000D+00 0.000000000000000D+00 -.000000000000000D+00
 0.228379681346643D+03 0.000000000000000D+00 0.000000000000000D+00 0.228379681346643D+03
 0.228379681346643D+03 -.000000000000000D+00 -.000000000000000D+00 -.228379681346643D+03
 0.146794048780607D+03 -.541142584064876D+02 -.491606505179978D+02 -.117061395152998D+03
 0.763289902152031D+02 -.591110324489517D+02 -.258918555420277D+02 -.407628802549860D+02
 0.218725582044781D+03 0.111155571503839D+03 0.862193623842903D+02 0.167485941841485D+03
 0.149107416526951D+02 0.206971935160015D+01 -.111668563242648D+02 -.966166643350183D+01
0.284118777715D-05 0.000000000000D+00 0.000000000000D+00 0.383856677236D-05 0.000000000000D+00  6 -1 22 9900012 -11 -2 21 0 0.28392869D-01 0.43478939D-01 0.23261969D+05 0.23261969D+05 0.23261969D+05 0.11730743D+01  1  2  2  2  6  5       -2 0.176762127688D-04 0.100000000000D+01
-.145450574315D-07 0.000000000000D+00 -.545545458309D-08 0.383856677236D-05 0.000000000000D+00  6 -1 22 9900012 -11 -2 21 2 0.28392869D-01 0.43478939D-01 0.23261969D+05 0.23261969D+05 0.23261969D+05 0.11730743D+01  1  2  3  2  6  5       -2 -.124524769114D-06 0.100000000000D+01
-.347904959249D-06 0.000000000000D+00 0.000000000000D+00 0.383856677236D-05 0.000000000000D+00  6 -1 22 9900012 -11 -2 21 2 0.28392869D-01 0.43478939D-01 0.23261969D+05 0.23261969D+05 0.23261969D+05 0.11730743D+01  1  2 15  2  6  5       -2 -.297852276817D-05 0.100000000000D+01
0.285132292123D-05 0.000000000000D+00 0.000000000000D+00 0.383856677236D-05 0.000000000000D+00  6 -1 22 9900012 -11 -2 21 2 0.28392869D-01 0.43478939D-01 0.23277190D+05 0.23277190D+05 0.23277190D+05 0.11730475D+01  1  2 12  2  6  5       -2 0.244108330113D-04 0.100000000000D+01
-.209613053116D-06 0.000000000000D+00 0.000000000000D+00 0.383856677236D-05 0.000000000000D+00  6 -1 22 9900012 -11 -2 21 2 0.28392869D-01 0.43478939D-01 0.23261969D+05 0.23261969D+05 0.23261969D+05 0.11730743D+01  1  2  4  2  6  5       -2 -.179456266608D-05 0.100000000000D+01
  </mgrwgt>
  </event>
  <event>
  6     66 0.93819742E-06 0.10510924E+03 0.78161638E-02 0.11045982E+00
       -1 -1    0    0    0  501 0.00000000E+00 0.00000000E+00 0.27219421E+03 0.27219421E+03 0.00000000E+00 0.0000E+00 0.9000E+01
       22 -1    0    0    0    0 0.00000000E+00 0.00000000E+00 -.83659899E+02 0.83659899E+02 0.00000000E+00 0.0000E+00 0.9000E+01
       24  2    1    2    0    0 -.12745850E+03 -.38525567E+02 0.49531263E+02 0.16336584E+03 0.80654589E+02 0.0000E+00 0.0000E+00
  9900012  1    3    3    0    0 -.46984939E+02 -.60867485E+01 0.20349403E+02 0.71824308E+02 0.50000000E+02 0.0000E+00 0.9000E+01
      -11  1    3    3    0    0 -.80473559E+02 -.32438818E+02 0.29181860E+02 0.91541529E+02 0.00000000E+00 0.0000E+00 0.9000E+01
       -2  1    1    2    0  501 0.12745850E+03 0.38525567E+02 0.13900305E+03 0.19248828E+03 0.00000000E+00 0.0000E+00 0.9000E+01
#aMCatNLO 1  0  0  5  1 0.74293234D+01 0.00000000D+00  -5  6  0 0.00000000D+00 0.00000000D+00 0.00000000D+00 0.00000000D+00 0.00000000D+00
  <mgrwgt>
 0.7219193255D-04    8    2    0
 0.150903083082866D+03 0.000000000000000D+00 0.000000000000000D+00 0.150903083082866D+03
 0.150903083082866D+03 -.000000000000000D+00 -.000000000000000D+00 -.150903083082866D+03
 0.719747211723589D+02 -.469849391985688D+02 -.608674852747009D+01 -.208740860568539D+02
 0.897054159122219D+02 -.804735587554378D+02 -.324388181205729D+02 -.227769854054526D+02
 0.140126029081151D+03 0.127458497954007D+03 0.385255666480430D+02 0.436510714623064D+02
 0.000000000000000D+00 0.000000000000000D+00 0.000000000000000D+00 0.000000000000000D+00
 0.150903083082866D+03 0.000000000000000D+00 0.000000000000000D+00 0.150903083082866D+03
 0.150903083082866D+03 -.000000000000000D+00 -.000000000000000D+00 -.150903083082866D+03
 0.716109304258378D+02 -.465159588678377D+02 -.594499467599505D+01 -.207134730395990D+02
 0.890670285168347D+02 -.798896511074189D+02 -.322623263732893D+02 -.225770129055393D+02
 0.126795832028571D+03 0.112835940448702D+03 0.346924002360477D+02 0.462781906381020D+02
 0.143323751944887D+02 0.135696695265550D+02 0.351492081323665D+01 -.298770469296372D+01
0.518505201442D-06 0.000000000000D+00 0.000000000000D+00 0.595459179748D-06 0.000000000000D+00  6 -1 22 9900012 -11 -2 21 0 0.41876033D-01 0.12870754D-01 0.20851436D+05 0.20851436D+05 0.20851436D+05 0.11775834D+01  1  2  2  2  6  5       -2 0.108264873397D-04 0.100000000000D+01
-.150071123033D-07 0.000000000000D+00 -.995598249545D-09 0.595459179748D-06 0.000000000000D+00  6 -1 22 9900012 -11 -2 21 2 0.41876033D-01 0.12870754D-01 0.20851436D+05 0.20851436D+05 0.20851436D+05 0.11775834D+01  1  2  3  2  6  5       -2 -.434525178142D-06 0.100000000000D+01
-.605395122919D-07 0.000000000000D+00 0.000000000000D+00 0.595459179748D-06 0.000000000000D+00  6 -1 22 9900012 -11 -2 21 2 0.41876033D-01 0.12870754D-01 0.20851436D+05 0.20851436D+05 0.20851436D+05 0.11775834D+01  1  2 15  2  6  5       -2 -.175289834791D-05 0.100000000000D+01
0.410418981059D-05 0.000000000000D+00 0.000000000000D+00 0.595459179748D-06 0.000000000000D+00  6 -1 22 9900012 -11 -2 21 2 0.41876033D-01 0.12870754D-01 0.20559857D+05 0.20559857D+05 0.20559857D+05 0.11781676D+01  1  2 12  2  6  5       -2 0.118850072972D-03 0.100000000000D+01
-.239908315163D-05 0.000000000000D+00 0.000000000000D+00 0.595459179748D-06 0.000000000000D+00  6 -1 22 9900012 -11 -2 21 2 0.41876033D-01 0.12870754D-01 0.20851436D+05 0.20851436D+05 0.20851436D+05 0.11775834D+01  1  2  4  2  6  5       -2 -.694645320681D-04 0.100000000000D+01
-.415747725309D-05 0.000000000000D+00 0.000000000000D+00 0.595459179748D-06 0.000000000000D+00  6 -1 22 9900012 -11 -2 21 2 0.41876033D-01 0.12870754D-01 0.20851436D+05 0.20851436D+05 0.20851436D+05 0.11775834D+01  1  2  5  2  6  5       -2 -.120378158537D-03 0.100000000000D+01
0.460433346171D-05 0.000000000000D+00 -.000000000000D+00 0.595459179748D-06 0.000000000000D+00  6 -1 22 9900012 -11 -2 21 2 0.41876033D-01 0.12870754D-01 0.20851436D+05 0.20851436D+05 0.20851436D+05 0.11775834D+01  1  2  6  2  6  5       -2 0.133316708588D-03 0.100000000000D+01
0.424327651366D-07 0.000000000000D+00 0.000000000000D+00 0.595459179748D-06 0.364202549220D-07  6 -1 22 9900012 -11 -2 21 2 0.41876033D-01 0.12870754D-01 0.20559857D+05 0.20559857D+05 0.20559857D+05 0.11781676D+01  1  2 11  2  6  5       -2 0.122877777726D-05 0.100000000000D+01
  </mgrwgt>
  </event>
  <event>
  6     66 0.93819742E-06 0.53446912E+02 0.78161638E-02 0.10848662E+00
       -3 -1    0    0    0  501 0.00000000E+00 0.00000000E+00 0.17465810E+03 0.17465810E+03 0.00000000E+00 0.0000E+00 0.9000E+01
       22 -1    0    0    0    0 0.00000000E+00 0.00000000E+00 -.20206547E+03 0.20206547E+03 0.00000000E+00 0.0000E+00 0.9000E+01
       24  2    1    2    0    0 0.96300722E+02 0.96725626E+02 -.11946656E+03 0.21208892E+03 0.10990802E+03 0.0000E+00 0.0000E+00
  9900012  1    3    3    0    0 0.45649191E+02 0.11853442E+02 -.19353443E+02 0.71406642E+02 0.50000000E+02 0.0000E+00 0.9000E+01
      -11  1    3    3    0    0 0.50651531E+02 0.84872184E+02 -.10011312E+03 0.14068227E+03 0.00000000E+00 0.0000E+00 0.9000E+01
       -4  1    1    2    0  501 -.96300722E+02 -.96725626E+02 0.92059192E+02 0.16463466E+03 0.00000000E+00 0.0000E+00 0.9000E+01
#aMCatNLO 1  0  0  1  5 0.59654279D+02 0.00000000D+00  -5  6  0 0.00000000D+00 0.00000000D+00 0.00000000D+00 0.00000000D+00 0.00000000D+00
  <mgrwgt>
 0.4260009387D-04    6    4    0
 0.187862640746808D+03 0.000000000000000D+00 0.000000000000000D+00 0.187862640746808D+03
 0.187862640746808D+03 0.000000000000000D+00 0.000000000000000D+00 -.187862640746808D+03
 0.701846259165007D+02 0.456491913654152D+02 0.118534419413920D+02 -.141960894920007D+02
 0.133753287276640D+03 0.506515310164398D+02 0.848721838936955D+02 -.901170165069433D+02
 0.171787368300476D+03 -.963007223818550D+02 -.967256258350875D+02 0.104313105998944D+03
 0.000000000000000D+00 0.000000000000000D+00 -.000000000000000D+00 -.000000000000000D+00
 0.191987678548199D+03 0.000000000000000D+00 0.000000000000000D+00 0.191987678548199D+03
 0.217841299192768D+03 0.000000000000000D+00 0.000000000000000D+00 -.217841299192768D+03
 0.709200612970305D+02 0.455731036266454D+02 0.158498695056052D+02 -.141960894920007D+02
 0.138724884951088D+03 0.505046028852888D+02 0.925894277332955D+02 -.901170165069433D+02
 0.166683821607083D+03 -.964832358616504D+02 -.871392994007882D+02 0.104313105998944D+03
 0.335002098857656D+02 0.405529349716159D+00 -.212999978381125D+02 -.258536206445688D+02
 0.187862640746808D+03 0.000000000000000D+00 0.000000000000000D+00 0.187862640746808D+03
 0.187862640746808D+03 0.000000000000000D+00 0.000000000000000D+00 -.187862640746808D+03
 0.701846259165007D+02 0.456491913654152D+02 0.118534419413920D+02 -.141960894920007D+02
 0.133753287276640D+03 0.506515310164398D+02 0.848721838936955D+02 -.901170165069433D+02
 0.000000000000000D+00 0.000000000000000D+00 -.000000000000000D+00 -.000000000000000D+00
 0.171787368300476D+03 -.963007223818550D+02 -.967256258350875D+02 0.104313105998944D+03
 0.191987678548199D+03 0.000000000000000D+00 0.000000000000000D+00 0.191987678548199D+03
 0.217841299192768D+03 0.000000000000000D+00 0.000000000000000D+00 -.217841299192768D+03
 0.709200612970305D+02 0.455731036266454D+02 0.158498695056052D+02 -.141960894920007D+02
 0.138724884951088D+03 0.505046028852888D+02 0.925894277332955D+02 -.901170165069433D+02
 0.335002098857656D+02 0.405529349716159D+00 -.212999978381125D+02 -.258536206445688D+02
 0.166683821607083D+03 -.964832358616504D+02 -.871392994007882D+02 0.104313105998944D+03
0.410973078049D-05 0.000000000000D+00 0.000000000000D+00 0.418021893091D-08 0.000000000000D+00  6 -3 22 9900012 -11 -4 21 0 0.26870477D-01 0.31086996D-01 0.23113435D+05 0.23113435D+05 0.23113435D+05 0.11733369D+01  1  2  2  1  6  1       -3 0.337849668770D-04 0.100000000000D+01
-.526095677734D-07 0.000000000000D+00 -.789122415703D-08 0.418021893091D-08 0.000000000000D+00  6 -3 22 9900012 -11 -4 21 2 0.26870477D-01 0.31086996D-01 0.23113435D+05 0.23113435D+05 0.23113435D+05 0.11733369D+01  1  2  3  1  6  1       -3 -.595415749552D-06 0.100000000000D+01
-.505049165109D-06 0.000000000000D+00 0.000000000000D+00 0.418021893091D-08 0.000000000000D+00  6 -3 22 9900012 -11 -4 21 2 0.26870477D-01 0.31086996D-01 0.23113435D+05 0.23113435D+05 0.23113435D+05 0.11733369D+01  1  2 15  1  6  1       -3 -.571596080203D-05 0.100000000000D+01
0.150755444529D-05 0.000000000000D+00 0.000000000000D+00 0.418021893091D-08 0.000000000000D+00  6 -3 22 9900012 -11 -4 21 2 0.31842570D-01 0.31086996D-01 0.26612278D+05 0.26612278D+05 0.26612278D+05 0.11675971D+01  1  2 12  1  6  1       -3 0.124389673663D-04 0.100000000000D+01
-.198810005893D-06 0.000000000000D+00 0.000000000000D+00 0.418021893091D-08 0.000000000000D+00  6 -3 22 9900012 -11 -4 21 2 0.26870477D-01 0.31086996D-01 0.23113435D+05 0.23113435D+05 0.23113435D+05 0.11733369D+01  1  2  4  1  6  1       -3 -.225005856704D-05 0.100000000000D+01
0.379720980398D-07 0.000000000000D+00 0.000000000000D+00 0.418021893091D-08 0.000000000000D+00  6 21 22 9900012 -11 3 -4 2 0.31842570D-01 0.31086996D-01 0.26612278D+05 0.26612278D+05 0.26612278D+05 0.11675971D+01  3  4 12  3  5  1       -3 0.493759474911D-05 0.100000000000D+01
  </mgrwgt>
  </event>
  <event>
  6     66 0.93819742E-06 0.20610263E+02 0.78161638E-02 0.12192883E+00
       -1 -1    0    0    0  501 0.00000000E+00 0.00000000E+00 0.11508498E+03 0.11508498E+03 0.00000000E+00 0.0000E+00 0.9000E+01
       22 -1    0    0    0    0 -.00000000E+00 -.00000000E+00 -.21111711E+03 0.21111711E+03 0.00000000E+00 0.0000E+00 0.9000E+01
       24  2    1    2    0    0 -.44915548E+02 -.27172472E+02 -.19331134E+03 0.21566253E+03 0.79908073E+02 0.0000E+00 0.0000E+00
  9900012  1    3    3    0    0 -.18729737E+02 -.39044368E+02 -.14626478E+03 0.16052617E+03 0.50000000E+02 0.0000E+00 0.9000E+01
      -11  1    3    3    0    0 -.26185811E+02 0.11871895E+02 -.47046568E+02 0.55136360E+02 0.00000000E+00 0.0000E+00 0.9000E+01
       -2  1    1    2    0  501 0.44915548E+02 0.27172472E+02 0.97279210E+02 0.11053956E+03 0.00000000E+00 0.0000E+00 0.9000E+01
#aMCatNLO 1  0  0  5  1 0.41133262D+00 0.00000000D+00  -5  6  0 0.00000000D+00 0.00000000D+00 0.00000000D+00 0.00000000D+00 0.00000000D+00
  <mgrwgt>
 0.5891602088D-04    7    2    0
 0.155873050573964D+03 0.000000000000000D+00 0.000000000000000D+00 0.155873050573964D+03
 0.155873050573964D+03 -.000000000000000D+00 -.000000000000000D+00 -.155873050573964D+03
 0.122913654246221D+03 -.187297368537032D+02 -.390443679497942D+02 -.103597783224120D+03
 0.432005831594326D+02 -.261858107883894D+02 0.118718954718075D+02 -.322436318763287D+02
 0.145631863742274D+03 0.449155476420926D+02 0.271724724779867D+02 0.135841415100449D+03
 0.000000000000000D+00 0.000000000000000D+00 0.000000000000000D+00 0.000000000000000D+00
 0.155873050573964D+03 0.000000000000000D+00 0.000000000000000D+00 0.155873050573964D+03
 0.155873050573964D+03 -.000000000000000D+00 -.000000000000000D+00 -.155873050573964D+03
 0.122911522247443D+03 -.187290000661112D+02 -.390439222168216D+02 -.103595554902873D+03
 0.431998846967812D+02 -.261855518287760D+02 0.118720521341068D+02 -.322428486856035D+02
 0.129992018614942D+03 0.398581394042897D+02 0.239455259048172D+02 0.121391372905810D+03
 0.156426755887615D+02 0.505641249059760D+01 0.322634417789764D+01 0.144470306826665D+02
0.252415254214D-07 0.000000000000D+00 0.000000000000D+00 0.905079163684D-05 0.000000000000D+00  6 -1 22 9900012 -11 -2 21 0 0.17705381D-01 0.32479556D-01 0.54311262D+04 0.54311262D+04 0.54311262D+04 0.12378219D+01  1  2  2  2  6  5       -2 0.475294547409D-06 0.100000000000D+01
0.816401297854D-09 0.000000000000D+00 -.484670519322D-10 0.905079163684D-05 0.000000000000D+00  6 -1 22 9900012 -11 -2 21 2 0.17705381D-01 0.32479556D-01 0.54311262D+04 0.54311262D+04 0.54311262D+04 0.12378219D+01  1  2  3  2  6  5       -2 0.235541390667D-07 0.100000000000D+01
-.332926510838D-08 0.000000000000D+00 0.000000000000D+00 0.905079163684D-05 0.000000000000D+00  6 -1 22 9900012 -11 -2 21 2 0.17705381D-01 0.32479556D-01 0.54311262D+04 0.54311262D+04 0.54311262D+04 0.12378219D+01  1  2 15  2  6  5       -2 -.960532198548D-07 0.100000000000D+01
-.709076386389D-04 0.000000000000D+00 0.000000000000D+00 0.905079163684D-05 0.000000000000D+00  6 -1 22 9900012 -11 -2 21 2 0.17705381D-01 0.32479556D-01 0.54311262D+04 0.54311262D+04 0.54311262D+04 0.12378219D+01  1  2  4  2  6  5       -2 -.204576889549D-02 0.100000000000D+01
-.735430971207D-04 0.000000000000D+00 0.000000000000D+00 0.905079163684D-05 0.000000000000D+00  6 -1 22 9900012 -11 -2 21 2 0.17705381D-01 0.32479556D-01 0.54311262D+04 0.54311262D+04 0.54311262D+04 0.12378219D+01  1  2  5  2  6  5       -2 -.212180497695D-02 0.100000000000D+01
0.818640665834D-04 0.000000000000D+00 -.000000000000D+00 0.905079163684D-05 0.000000000000D+00  6 -1 22 9900012 -11 -2 21 2 0.17705381D-01 0.32479556D-01 0.54311262D+04 0.54311262D+04 0.54311262D+04 0.12378219D+01  1  2  6  2  6  5       -2 0.236187474706D-02 0.100000000000D+01
0.646147741980D-04 0.000000000000D+00 0.000000000000D+00 0.905079163684D-05 0.308055647640D-03  6 -1 22 9900012 -11 -2 21 2 0.17705381D-01 0.32479556D-01 0.54311353D+04 0.54311353D+04 0.54311353D+04 0.12378218D+01  1  2 11  2  6  5       -2 0.186421235079D-02 0.100000000000D+01
  </mgrwgt>
  </event>
  <event>
  7     66 -.93819742E-06 0.16101367E+02 0.78161638E-02 0.12508894E+00
       -3 -1    0    0    0  502 0.00000000E+00 0.00000000E+00 0.18737755E+04 0.18737755E+04 0.00000000E+00 0.0000E+00 0.9000E+01
       22 -1    0    0    0    0 0.00000000E+00 0.00000000E+00 -.66222974E+01 0.66222974E+01 0.00000000E+00 0.0000E+00 0.9000E+01
       24  2    1    2    0    0 0.19160552E+02 0.32845562E+02 0.33540136E+03 0.34757102E+03 0.82858813E+02 0.0000E+00 0.0000E+00
  9900012  1    3    3    0    0 0.32935433E+02 0.11607070E+02 0.17826849E+03 0.18841211E+03 0.50000000E+02 0.0000E+00 0.9000E+01
      -11  1    3    3    0    0 -.13774881E+02 0.21238492E+02 0.15713287E+03 0.15915891E+03 0.00000000E+00 0.0000E+00 0.9000E+01
       -4  1    1    2    0  501 -.15635410E+02 -.17909742E+02 0.13972573E+04 0.13974595E+04 0.00000000E+00 0.0000E+00 0.9000E+01
       21  1    1    2  501  502 -.35251420E+01 -.14935821E+02 0.13449457E+03 0.13536726E+03 0.00000000E+00 0.0000E+00 0.9000E+01
#aMCatNLO 2  0  0  1  5 0.21236657D+02 0.00000000D+00  -5  6  0 0.00000000D+00 0.00000000D+00 0.00000000D+00 0.00000000D+00 0.00000000D+00
  <mgrwgt>
 -.5977342506D-05    2    2    0
 0.103428887320286D+03 0.000000000000000D+00 0.000000000000000D+00 0.103428887320286D+03
 0.103428887320286D+03 0.000000000000000D+00 0.000000000000000D+00 -.103428887320286D+03
 0.948331578101031D+02 0.313118999846575D+02 0.472825467696827D+01 -.740981534675221D+02
 0.251906652201360D+02 -.142140090660209D+02 0.193779325929979D+02 -.755164147224130D+01
 0.868339516103332D+02 -.170978909186366D+02 -.241061872699661D+02 0.816497949397634D+02
 0.000000000000000D+00 -.000000000000000D+00 -.000000000000000D+00 0.000000000000000D+00
 0.111761052772725D+03 0.000000000000000D+00 0.000000000000000D+00 0.111761052772725D+03
 0.111028828136530D+03 0.000000000000000D+00 0.000000000000000D+00 -.111028828136530D+03
 0.959687615018275D+02 0.329354332187853D+02 0.116070700691054D+02 -.740981534675221D+02
 0.264168163791349D+02 -.137748810855048D+02 0.212384921725592D+02 -.755164147224130D+01
 0.850406603186482D+02 -.156354101135388D+02 -.179097416036005D+02 0.816497949397634D+02
 0.153636427096448D+02 -.352514201974164D+01 -.149358206380641D+02 0.732224636195234D+00
-.292581544851D-05 0.000000000000D+00 0.000000000000D+00 0.306237698856D-06 0.000000000000D+00  6 -3 22 9900012 -11 -4 21 2 0.30945543D+00 0.94907694D-03 0.39327018D+04 0.39327018D+04 0.39327018D+04 0.12537600D+01  1  2 13  1  6  1       -3 -.627183003376D-05 0.100000000000D+01
0.106059937635D-06 0.000000000000D+00 0.000000000000D+00 0.306237698856D-06 0.634823892995D-09  6 -3 22 9900012 -11 -4 21 2 0.28827316D+00 0.10188150D-02 0.39327018D+04 0.39327018D+04 0.39327018D+04 0.12537600D+01  1  2  1  1  6  1       -3 0.294487527915D-06 0.100000000000D+01
  </mgrwgt>
  </event>
  <event>
  6     66 0.93819742E-06 0.16740355E+02 0.78161638E-02 0.12980180E+00
       -1 -1    0    0    0  501 0.00000000E+00 0.00000000E+00 0.18749709E+02 0.18749709E+02 0.00000000E+00 0.0000E+00 0.9000E+01
       22 -1    0    0    0    0 0.00000000E+00 0.00000000E+00 -.25292179E+03 0.25292179E+03 0.00000000E+00 0.0000E+00 0.9000E+01
       24  2    1    2    0    0 0.38112525E+00 0.17917047E+02 -.23931740E+03 0.25302639E+03 0.80177101E+02 0.0000E+00 0.0000E+00
  9900012  1    3    3    0    0 -.10182874E+02 -.19491632E+01 -.20972223E+03 0.21584926E+03 0.50000000E+02 0.0000E+00 0.9000E+01
      -11  1    3    3    0    0 0.10564000E+02 0.19866210E+02 -.29595175E+02 0.37177127E+02 0.00000000E+00 0.0000E+00 0.9000E+01
       -2  1    1    2    0  501 -.38112525E+00 -.17917047E+02 0.51453226E+01 0.18645111E+02 0.00000000E+00 0.0000E+00 0.9000E+01
#aMCatNLO 1  0  0  1  5 0.11199762D+02 0.00000000D+00  -5  6  0 0.00000000D+00 0.00000000D+00 0.00000000D+00 0.00000000D+00 0.00000000D+00
  <mgrwgt>
 0.8229670836D-04    6    4    0
 0.688637059146571D+02 0.000000000000000D+00 0.000000000000000D+00 0.688637059146571D+02
 0.688637059146571D+02 0.000000000000000D+00 0.000000000000000D+00 -.688637059146571D+02
 0.691874001519996D+02 -.101828743134445D+02 -.194916316498355D+01 -.466841105031013D+02
 0.230135897570149D+02 0.105639995602366D+02 0.198662103303766D+02 0.483331293263117D+01
 0.455264219202996D+02 -.381125246792117D+00 -.179170471653931D+02 0.418507975704702D+02
 0.000000000000000D+00 0.000000000000000D+00 0.000000000000000D+00 -.000000000000000D+00
 0.724686125634960D+02 0.000000000000000D+00 0.000000000000000D+00 0.724686125634960D+02
 0.730980059884275D+02 0.000000000000000D+00 0.000000000000000D+00 -.730980059884275D+02
 0.698619925567709D+02 -.138538773882777D+02 -.305972414558978D+01 -.466841105031013D+02
 0.221728374904780D+02 0.937104567432001D+01 0.195053149537303D+02 0.483331293263117D+01
 0.459023037175056D+02 -.279490876936694D+01 -.186472709601317D+02 0.418507975704702D+02
 0.762948478716888D+01 0.727774048332466D+01 0.220168015199112D+01 -.629393424931550D+00
 0.688637059146571D+02 0.000000000000000D+00 0.000000000000000D+00 0.688637059146571D+02
 0.688637059146571D+02 0.000000000000000D+00 0.000000000000000D+00 -.688637059146571D+02
 0.691874001519996D+02 -.101828743134445D+02 -.194916316498355D+01 -.466841105031013D+02
 0.230135897570149D+02 0.105639995602366D+02 0.198662103303766D+02 0.483331293263117D+01
 0.000000000000000D+00 0.000000000000000D+00 0.000000000000000D+00 -.000000000000000D+00
 0.455264219202996D+02 -.381125246792117D+00 -.179170471653931D+02 0.418507975704702D+02
 0.724686125634960D+02 0.000000000000000D+00 0.000000000000000D+00 0.724686125634960D+02
 0.730980059884275D+02 0.000000000000000D+00 0.000000000000000D+00 -.730980059884275D+02
 0.698619925567709D+02 -.138538773882777D+02 -.305972414558978D+01 -.466841105031013D+02
 0.221728374904780D+02 0.937104567432001D+01 0.195053149537303D+02 0.483331293263117D+01
 0.762948478716888D+01 0.727774048332466D+01 0.220168015199112D+01 -.629393424931550D+00
 0.459023037175056D+02 -.279490876936694D+01 -.186472709601317D+02 0.418507975704702D+02
0.160038180422D-06 0.000000000000D+00 0.000000000000D+00 0.780259085034D-06 0.000000000000D+00  6 -1 22 9900012 -11 -2 21 0 0.28845706D-02 0.38911045D-01 0.20923768D+04 0.20923768D+04 0.20923768D+04 0.12868386D+01  1  2  2  1  6  1       -1 0.283563348554D-04 0.100000000000D+01
0.121449458591D-07 0.000000000000D+00 -.307294375920D-09 0.780259085034D-06 0.000000000000D+00  6 -1 22 9900012 -11 -2 21 2 0.28845706D-02 0.38911045D-01 0.20923768D+04 0.20923768D+04 0.20923768D+04 0.12868386D+01  1  2  3  1  6  1       -1 0.356344653516D-05 0.100000000000D+01
-.186541794252D-07 0.000000000000D+00 0.000000000000D+00 0.780259085034D-06 0.000000000000D+00  6 -1 22 9900012 -11 -2 21 2 0.28845706D-02 0.38911045D-01 0.20923768D+04 0.20923768D+04 0.20923768D+04 0.12868386D+01  1  2 15  1  6  1       -1 -.547331966814D-05 0.100000000000D+01
0.173509778812D-06 0.000000000000D+00 0.000000000000D+00 0.780259085034D-06 0.000000000000D+00  6 -1 22 9900012 -11 -2 21 2 0.32222251D-02 0.38911045D-01 0.25036328D+04 0.25036328D+04 0.25036328D+04 0.12771600D+01  1  2 12  1  6  1       -1 0.439521207519D-04 0.100000000000D+01
-.449680700322D-08 0.000000000000D+00 0.000000000000D+00 0.780259085034D-06 0.000000000000D+00  6 -1 22 9900012 -11 -2 21 2 0.28845706D-02 0.38911045D-01 0.20923768D+04 0.20923768D+04 0.20923768D+04 0.12868386D+01  1  2  4  1  6  1       -1 -.131940739143D-05 0.100000000000D+01
0.307483624274D-08 0.000000000000D+00 0.000000000000D+00 0.780259085034D-06 0.000000000000D+00  6 21 22 9900012 -11 1 -2 2 0.32222251D-02 0.38911045D-01 0.25036328D+04 0.25036328D+04 0.25036328D+04 0.12771600D+01  3  4 12  3  5  1       -1 0.132175332739D-04 0.100000000000D+01
  </mgrwgt>
  </event>
  <event>
  6     66 0.93819742E-06 0.31883157E+02 0.78161638E-02 0.95912718E-01
       -3 -1    0    0    0  501 0.00000000E+00 0.00000000E+00 0.64780801E+02 0.64780801E+02 0.00000000E+00 0.0000E+00 0.9000E+01
       22 -1    0    0    0    0 0.00000000E+00 0.00000000E+00 -.71322924E+03 0.71322924E+03 0.00000000E+00 0.0000E+00 0.9000E+01
       24  2    1    2    0    0 0.16831746E+02 -.27078183E+02 -.70640918E+03 0.71185884E+03 0.81930098E+02 0.0000E+00 0.0000E+00
  9900012  1    3    3    0    0 -.12673959E+02 -.13752256E+02 -.35944995E+03 0.36339238E+03 0.50000000E+02 0.0000E+00 0.9000E+01
      -11  1    3    3    0    0 0.29505705E+02 -.13325928E+02 -.34695923E+03 0.34846646E+03 0.00000000E+00 0.0000E+00 0.9000E+01
       -4  1    1    2    0  501 -.16831746E+02 0.27078183E+02 0.57960735E+02 0.66151209E+02 0.00000000E+00 0.0000E+00 0.9000E+01
#aMCatNLO 1  0  0  1  5 0.46411885D+02 0.00000000D+00  -5  6  0 0.00000000D+00 0.00000000D+00 0.00000000D+00 0.00000000D+00 0.00000000D+00
  <mgrwgt>
 0.9443342851D-04    5    4    0
 0.214950138151897D+03 0.000000000000000D+00 0.000000000000000D+00 0.214950138151897D+03
 0.214950138151897D+03 0.000000000000000D+00 0.000000000000000D+00 -.214950138151897D+03
 0.115464358835541D+03 -.126739593277461D+02 -.137522557884578D+02 -.102382930105512D+03
 0.107292870066816D+03 0.295057051160625D+02 -.133259276838755D+02 -.102291705353575D+03
 0.207143047401437D+03 -.168317457883164D+02 0.270781834723333D+02 0.204674635459087D+03
 0.000000000000000D+00 -.000000000000000D+00 -.000000000000000D+00 0.000000000000000D+00
 0.618915513755668D+03 0.000000000000000D+00 0.000000000000000D+00 0.618915513755668D+03
 0.430204487719130D+03 0.000000000000000D+00 0.000000000000000D+00 -.430204487719130D+03
 0.142706124457804D+03 0.755464072226720D+02 0.409330421117504D+02 -.102382930105512D+03
 0.165983641730887D+03 0.122888007123917D+03 0.445591072982485D+02 -.102291705353575D+03
 0.286978590126990D+03 0.152016340279369D+03 0.131742313168671D+03 0.204674635459087D+03
 0.453451645159118D+03 -.350450754625959D+03 -.217234462578669D+03 0.188711026036538D+03
 0.214950138151897D+03 0.000000000000000D+00 0.000000000000000D+00 0.214950138151897D+03
 0.214950138151897D+03 0.000000000000000D+00 0.000000000000000D+00 -.214950138151897D+03
 0.115464358835541D+03 -.126739593277461D+02 -.137522557884578D+02 -.102382930105512D+03
 0.107292870066816D+03 0.295057051160625D+02 -.133259276838755D+02 -.102291705353575D+03
 0.000000000000000D+00 -.000000000000000D+00 -.000000000000000D+00 0.000000000000000D+00
 0.207143047401437D+03 -.168317457883164D+02 0.270781834723333D+02 0.204674635459087D+03
 0.618915513755668D+03 0.000000000000000D+00 0.000000000000000D+00 0.618915513755668D+03
 0.430204487719130D+03 0.000000000000000D+00 0.000000000000000D+00 -.430204487719130D+03
 0.142706124457804D+03 0.755464072226720D+02 0.409330421117504D+02 -.102382930105512D+03
 0.165983641730887D+03 0.122888007123917D+03 0.445591072982485D+02 -.102291705353575D+03
 0.453451645159118D+03 -.350450754625959D+03 -.217234462578669D+03 0.188711026036538D+03
 0.286978590126990D+03 0.152016340279369D+03 0.131742313168671D+03 0.204674635459087D+03
0.154275643933D-04 0.000000000000D+00 0.000000000000D+00 0.125602772829D-04 0.000000000000D+00  6 -3 22 9900012 -11 -4 21 0 0.99662771D-02 0.10972758D+00 0.34598894D+04 0.34598894D+04 0.34598894D+04 0.12602591D+01  1  2  2  1  6  1       -3 0.660676011033D-04 0.100000000000D+01
0.124793593413D-05 0.000000000000D+00 -.296229547206D-07 0.125602772829D-04 0.000000000000D+00  6 -3 22 9900012 -11 -4 21 2 0.99662771D-02 0.10972758D+00 0.34598894D+04 0.34598894D+04 0.34598894D+04 0.12602591D+01  1  2  3  1  6  1       -3 0.848795623725D-05 0.100000000000D+01
-.219370068064D-05 0.000000000000D+00 0.000000000000D+00 0.125602772829D-04 0.000000000000D+00  6 -3 22 9900012 -11 -4 21 2 0.99662771D-02 0.10972758D+00 0.34598894D+04 0.34598894D+04 0.34598894D+04 0.12602591D+01  1  2 15  1  6  1       -3 -.149206660900D-04 0.100000000000D+01
0.262196376858D-04 0.000000000000D+00 -.663404953568D-05 0.125602772829D-04 0.000000000000D+00  6 -3 22 9900012 -11 -4 21 2 0.56680307D-01 0.10972758D+00 0.34598894D+04 0.34598894D+04 0.34598894D+04 0.12602591D+01  1  2  5  1  6  1       -3 0.809446176495D-05 0.100000000000D+01
0.522808422800D-05 0.000000000000D+00 -.141241580042D-05 0.125602772829D-04 0.000000000000D+00  6 21 22 9900012 -11 3 -4 2 0.56680307D-01 0.10972758D+00 0.34598894D+04 0.34598894D+04 0.34598894D+04 0.12602591D+01  3  4  5  3  5  1       -3 0.267040754956D-04 0.100000000000D+01
  </mgrwgt>
  </event>
  <event>
  7     66 -.93819742E-06 0.18421739E+03 0.78161638E-02 0.10500364E+00
       -1 -1    0    0    0  502 0.00000000E+00 0.00000000E+00 0.31713193E+03 0.31713193E+03 0.00000000E+00 0.0000E+00 0.9000E+01
       22 -1    0    0    0    0 0.00000000E+00 0.00000000E+00 -.22675597E+04 0.22675597E+04 0.00000000E+00 0.0000E+00 0.9000E+01
       24  2    1    2    0    0 -.14387919E+03 -.12892443E+03 -.21973028E+04 0.22072099E+04 0.79455629E+02 0.0000E+00 0.0000E+00
  9900012  1    3    3    0    0 -.11328081E+03 -.89607564E+02 -.18569879E+04 0.18632676E+04 0.50000000E+02 0.0000E+00 0.9000E+01
      -11  1    3    3    0    0 -.30598382E+02 -.39316870E+02 -.34031488E+03 0.34394228E+03 0.00000000E+00 0.0000E+00 0.9000E+01
       -2  1    1    2    0  501 0.13106200E+03 0.14235514E+03 0.27949974E+03 0.33994461E+03 0.00000000E+00 0.0000E+00 0.9000E+01
       21  1    1    2  501  502 0.12817188E+02 -.13430704E+02 -.32624727E+02 0.37537141E+02 0.00000000E+00 0.0000E+00 0.9000E+01
#aMCatNLO 2  0  0  1  5 0.32142367D+02 0.00000000D+00  -5  6  0 0.00000000D+00 0.00000000D+00 0.00000000D+00 0.00000000D+00 0.00000000D+00
  <mgrwgt>
 -.1440899334D-04    3    2    0
 0.838105426173380D+03 0.000000000000000D+00 0.000000000000000D+00 0.838105426173380D+03
 0.838105426173380D+03 0.000000000000000D+00 0.000000000000000D+00 -.838105426173380D+03
 0.706620481355519D+03 -.107877384862468D+03 -.952696344198838D+02 -.689999037147040D+03
 0.133368119898647D+03 -.295789513883261D+02 -.403850967261484D+02 -.123617090252467D+03
 0.836222251092594D+03 0.137456336250794D+03 0.135654731146032D+03 0.813616127399507D+03
 0.000000000000000D+00 0.000000000000000D+00 -.000000000000000D+00 -.000000000000000D+00
 0.844699077653614D+03 0.000000000000000D+00 0.000000000000000D+00 0.844699077653614D+03
 0.851327537161525D+03 0.000000000000000D+00 0.000000000000000D+00 -.851327537161525D+03
 0.706725356174980D+03 -.113280811428352D+03 -.896075641837487D+02 -.689999037147040D+03
 0.133278888849193D+03 -.305983816597585D+02 -.393168697913851D+02 -.123617090252467D+03
 0.836309414661725D+03 0.131062004591100D+03 0.142355137735977D+03 0.813616127399507D+03
 0.197129551292406D+02 0.128171884970105D+02 -.134307037608435D+02 -.662845950791119D+01
-.439016319039D-03 0.000000000000D+00 0.000000000000D+00 0.306004622404D-03 0.000000000000D+00  6 -1 22 9900012 -11 -2 21 2 0.49559241D-01 0.34343720D+00 0.43000670D+05 0.43000670D+05 0.43000670D+05 0.11487013D+01  1  2 13  1  6  1       -1 -.143967006559D-04 0.100000000000D+01
-.489287267489D-04 0.000000000000D+00 0.000000000000D+00 0.306004622404D-03 0.000000000000D+00  6 -1 22 9900012 -11 -2 21 2 0.48408681D-01 0.34343720D+00 0.39113452D+05 0.39113452D+05 0.39113452D+05 0.11523580D+01  1  2  8  1  6  1       -1 -.168111187039D-05 0.100000000000D+01
0.524098663017D-04 0.000000000000D+00 0.000000000000D+00 0.306004622404D-03 0.416619787808D-07  6 -1 22 9900012 -11 -2 21 2 0.48789528D-01 0.34885534D+00 0.43000670D+05 0.43000670D+05 0.43000670D+05 0.11487013D+01  1  2  1  1  6  1       -1 0.166881918494D-05 0.100000000000D+01
  </mgrwgt>
  </event>
  <event>
  6     66 0.93819742E-06 0.33075763E+02 0.78161638E-02 0.11841550E+00
       -1 -1    0    0    0  501 0.00000000E+00 0.00000000E+00 0.15477699E+03 0.15477699E+03 0.00000000E+00 0.0000E+00 0.9000E+01
       22 -1    0    0    0    0 0.00000000E+00 0.00000000E+00 -.50016292E+02 0.50016292E+02 0.00000000E+00 0.0000E+00 0.9000E+01
       24  2    1    2    0    0 -.22928070E+02 -.23839248E+02 -.90310959E+01 0.86291897E+02 0.79187908E+02 0.0000E+00 0.0000E+00
  9900012  1    3    3    0    0 -.28798077E+02 0.35252759E+01 -.51467187E+01 0.58036588E+02 0.50000000E+02 0.0000E+00 0.9000E+01
      -11  1    3    3    0    0 0.58700072E+01 -.27364523E+02 -.38843772E+01 0.28255309E+02 0.00000000E+00 0.0000E+00 0.9000E+01
       -2  1    1    2    0  501 0.22928070E+02 0.23839248E+02 0.11379180E+03 0.11850139E+03 0.00000000E+00 0.0000E+00 0.9000E+01
#aMCatNLO 1  0  0  1  5 0.63422079D+02 0.00000000D+00  -5  6  0 0.00000000D+00 0.00000000D+00 0.00000000D+00 0.00000000D+00 0.00000000D+00
  <mgrwgt>
 0.2330875403D-04    5    4    0
 0.879850635493392D+02 0.000000000000000D+00 0.000000000000000D+00 0.879850635493392D+02
 0.879850635493392D+02 0.000000000000000D+00 0.000000000000000D+00 -.879850635493392D+02
 0.706067422137695D+02 -.287980767662772D+02 0.352527587476009D+01 -.405407850270827D+02
 0.351959044117401D+02 0.587000715988459D+01 -.273645234177326D+02 -.213419202843516D+02
 0.701674804731688D+02 0.229280696063927D+02 0.238392475429725D+02 0.618827053114343D+02
 0.000000000000000D+00 0.000000000000000D+00 0.000000000000000D+00 0.000000000000000D+00
 0.207931504028249D+03 0.000000000000000D+00 0.000000000000000D+00 0.207931504028249D+03
 0.100550558616832D+03 0.000000000000000D+00 0.000000000000000D+00 -.100550558616832D+03
 0.821995652893096D+02 -.502096075549051D+02 -.960253051657461D+01 -.405407850270827D+02
 0.402920227246224D+02 -.470751481850205D+01 -.338497981980906D+02 -.213419202843516D+02
 0.632501698452369D+02 0.423331692099468D+01 0.123771481624771D+02 0.618827053114343D+02
 0.122740304785912D+03 0.506838054524125D+02 0.310751805521880D+02 0.107380945411416D+03
 0.879850635493392D+02 0.000000000000000D+00 0.000000000000000D+00 0.879850635493392D+02
 0.879850635493392D+02 0.000000000000000D+00 0.000000000000000D+00 -.879850635493392D+02
 0.706067422137695D+02 -.287980767662772D+02 0.352527587476009D+01 -.405407850270827D+02
 0.351959044117401D+02 0.587000715988459D+01 -.273645234177326D+02 -.213419202843516D+02
 0.000000000000000D+00 0.000000000000000D+00 0.000000000000000D+00 0.000000000000000D+00
 0.701674804731688D+02 0.229280696063927D+02 0.238392475429725D+02 0.618827053114343D+02
 0.207931504028249D+03 0.000000000000000D+00 0.000000000000000D+00 0.207931504028249D+03
 0.100550558616832D+03 0.000000000000000D+00 0.000000000000000D+00 -.100550558616832D+03
 0.821995652893096D+02 -.502096075549051D+02 -.960253051657461D+01 -.405407850270827D+02
 0.402920227246224D+02 -.470751481850205D+01 -.338497981980906D+02 -.213419202843516D+02
 0.122740304785912D+03 0.506838054524125D+02 0.310751805521880D+02 0.107380945411416D+03
 0.632501698452369D+02 0.423331692099468D+01 0.123771481624771D+02 0.618827053114343D+02
0.509908395430D-06 0.000000000000D+00 0.000000000000D+00 0.757744166533D-06 0.000000000000D+00  6 -1 22 9900012 -11 -2 21 0 0.23811845D-01 0.76948142D-02 0.35325625D+04 0.35325625D+04 0.35325625D+04 0.12591972D+01  1  2  2  1  6  1       -1 0.478602022148D-04 0.100000000000D+01
0.225762462226D-07 0.000000000000D+00 -.979091250207D-09 0.757744166533D-06 0.000000000000D+00  6 -1 22 9900012 -11 -2 21 2 0.23811845D-01 0.76948142D-02 0.35325625D+04 0.35325625D+04 0.35325625D+04 0.12591972D+01  1  2  3  1  6  1       -1 0.335986319665D-05 0.100000000000D+01
-.656798361386D-07 0.000000000000D+00 0.000000000000D+00 0.757744166533D-06 0.000000000000D+00  6 -1 22 9900012 -11 -2 21 2 0.23811845D-01 0.76948142D-02 0.35325625D+04 0.35325625D+04 0.35325625D+04 0.12591972D+01  1  2 15  1  6  1       -1 -.977466590453D-05 0.100000000000D+01
-.341785974370D-06 0.000000000000D+00 -.147482205006D-06 0.757744166533D-06 0.000000000000D+00  6 -1 22 9900012 -11 -2 21 2 0.62205216D-01 0.76948142D-02 0.35325625D+04 0.35325625D+04 0.35325625D+04 0.12591972D+01  1  2  5  1  6  1       -1 -.104801687233D-04 0.100000000000D+01
-.275435677346D-07 0.000000000000D+00 -.157041784769D-07 0.757744166533D-06 0.000000000000D+00  6 21 22 9900012 -11 1 -2 2 0.62205216D-01 0.76948142D-02 0.35325625D+04 0.35325625D+04 0.35325625D+04 0.12591972D+01  3  4  5  3  5  1       -1 -.765647674914D-05 0.100000000000D+01
  </mgrwgt>
  </event>
  <event>
  6     66 0.93819742E-06 0.46358448E+02 0.78161638E-02 0.11836599E+00
       -3 -1    0    0    0  501 0.00000000E+00 0.00000000E+00 0.26640109E+03 0.26640109E+03 0.00000000E+00 0.0000E+00 0.9000E+01
       22 -1    0    0    0    0 0.00000000E+00 0.00000000E+00 -.72423350E+02 0.72423350E+02 0.00000000E+00 0.0000E+00 0.9000E+01
       24  2    1    2    0    0 -.12668173E+02 0.44593981E+02 -.39559690E+02 0.10073026E+03 0.80202936E+02 0.0000E+00 0.0000E+00
  9900012  1    3    3    0    0 0.32020693E+01 0.15186627E+02 -.42151673E+02 0.67213469E+02 0.50000000E+02 0.0000E+00 0.9000E+01
      -11  1    3    3    0    0 -.15870243E+02 0.29407354E+02 0.25919825E+01 0.33516794E+02 0.00000000E+00 0.0000E+00 0.9000E+01
       -4  1    1    2    0  501 0.12668173E+02 -.44593981E+02 0.23353743E+03 0.23809418E+03 0.00000000E+00 0.0000E+00 0.9000E+01
#aMCatNLO 1  0  0  5  5 0.44583886D+02 0.00000000D+00  -5  6  0 0.00000000D+00 0.00000000D+00 0.00000000D+00 0.00000000D+00 0.00000000D+00
  <mgrwgt>
 0.6538068005D-04    6    2    0
 0.138901616921577D+03 0.000000000000000D+00 0.000000000000000D+00 0.138901616921577D+03
 0.138901616921577D+03 -.000000000000000D+00 -.000000000000000D+00 -.138901616921577D+03
 0.111409977315674D+03 0.320206934680640D+01 0.151866265839988D+02 -.983427484381808D+02
 0.390690983495371D+02 -.158702427512034D+02 0.294073541666178D+02 -.202419703038706D+02
 0.127324158177942D+03 0.126681734043970D+02 -.445939807506166D+02 0.118584718742051D+03
 0.000000000000000D+00 0.000000000000000D+00 0.000000000000000D+00 0.000000000000000D+00
 0.138901616921577D+03 0.000000000000000D+00 0.000000000000000D+00 0.138901616921577D+03
 0.138901616921577D+03 -.000000000000000D+00 -.000000000000000D+00 -.138901616921577D+03
 0.100337763334416D+03 0.449675983131032D+01 0.106291106185215D+02 -.862233605783952D+02
 0.355739280097744D+02 -.154138524460919D+02 0.278007878660769D+02 -.159697746020445D+02
 0.803707177681420D+02 -.373940848599613D+02 -.265301382067526D+02 0.660097451804123D+02
 0.615208247308209D+02 0.483111774747428D+02 -.118997602778458D+02 0.361833900000275D+02
0.415910732188D-05 0.000000000000D+00 0.000000000000D+00 0.642172915939D-05 0.000000000000D+00  6 -3 22 9900012 -11 -4 21 0 0.40984783D-01 0.11142054D-01 0.43644751D+04 0.43644751D+04 0.43644751D+04 0.12485496D+01  1  2  2  2  6  5       -4 0.622028007648D-04 0.100000000000D+01
0.130619070781D-06 0.000000000000D+00 -.798603361706D-08 0.642172915939D-05 0.000000000000D+00  6 -3 22 9900012 -11 -4 21 2 0.40984783D-01 0.11142054D-01 0.43644751D+04 0.43644751D+04 0.43644751D+04 0.12485496D+01  1  2  3  2  6  5       -4 0.304528527655D-05 0.100000000000D+01
-.508327718660D-06 0.000000000000D+00 0.000000000000D+00 0.642172915939D-05 0.000000000000D+00  6 -3 22 9900012 -11 -4 21 2 0.40984783D-01 0.11142054D-01 0.43644751D+04 0.43644751D+04 0.43644751D+04 0.12485496D+01  1  2 15  2  6  5       -4 -.118512779799D-04 0.100000000000D+01
-.685809400355D-07 0.000000000000D+00 0.000000000000D+00 0.642172915939D-05 0.000000000000D+00  6 -3 22 9900012 -11 -4 21 2 0.40984783D-01 0.11142054D-01 0.43644751D+04 0.43644751D+04 0.43644751D+04 0.12485496D+01  1  2  4  2  6  5       -4 -.159891297414D-05 0.100000000000D+01
-.100724184338D-05 0.000000000000D+00 0.000000000000D+00 0.642172915939D-05 0.000000000000D+00  6 -3 22 9900012 -11 -4 21 2 0.40984783D-01 0.11142054D-01 0.43644751D+04 0.43644751D+04 0.43644751D+04 0.12485496D+01  1  2  5  2  6  5       -4 -.234830851055D-04 0.100000000000D+01
0.158983775447D-05 0.000000000000D+00 -.000000000000D+00 0.642172915939D-05 0.000000000000D+00  6 -3 22 9900012 -11 -4 21 2 0.40984783D-01 0.11142054D-01 0.43644751D+04 0.43644751D+04 0.43644751D+04 0.12485496D+01  1  2  6  2  6  5       -4 0.370658700667D-04 0.100000000000D+01
  </mgrwgt>
  </event>
  <event>
  7     66 -.93819742E-06 0.96577444E+02 0.78161638E-02 0.11375244E+00
       -1 -1    0    0    0  501 0.00000000E+00 0.00000000E+00 0.52912988E+02 0.52912988E+02 0.00000000E+00 0.0000E+00 0.9000E+01
       22 -1    0    0    0    0 -.00000000E+00 -.00000000E+00 -.15793426E+04 0.15793426E+04 0.00000000E+00 0.0000E+00 0.9000E+01
       24  2    1    2    0    0 -.86184588E+02 -.26017891E+02 -.15066779E+04 0.15114056E+04 0.78510375E+02 0.0000E+00 0.0000E+00
  9900012  1    3    3    0    0 -.48995661E+02 -.18428100E+01 -.11210541E+04 0.11232392E+04 0.50000000E+02 0.0000E+00 0.9000E+01
      -11  1    3    3    0    0 -.37188927E+02 -.24175081E+02 -.38562382E+03 0.38816643E+03 0.00000000E+00 0.0000E+00 0.9000E+01
       -2  1    1    2    0  502 0.10119305E+03 0.24511462E+02 -.16482825E+02 0.10541598E+03 0.00000000E+00 0.0000E+00 0.9000E+01
       21  1    1    2  502  501 -.15008466E+02 0.15064288E+01 -.32689070E+01 0.15434025E+02 0.00000000E+00 0.0000E+00 0.9000E+01
#aMCatNLO 2  0  0  5  1 0.25482398D+02 0.00000000D+00  -5  6  0 0.00000000D+00 0.00000000D+00 0.00000000D+00 0.00000000D+00 0.00000000D+00
  <mgrwgt>
 -.5379680019D-04    2    2    0
 0.289080849379664D+03 0.000000000000000D+00 0.000000000000000D+00 0.289080849379664D+03
 0.289080849379664D+03 -.000000000000000D+00 -.000000000000000D+00 -.289080849379664D+03
 0.215239719715518D+03 -.502378977612366D+02 -.221782348603743D+01 -.203222468813690D+03
 0.791717137106656D+02 -.376459055494424D+02 -.243130359840642D+02 -.652673143961329D+02
 0.283750265333145D+03 0.878838033106789D+02 0.265308594701017D+02 0.268489783209823D+03
 0.000000000000000D+00 0.000000000000000D+00 0.000000000000000D+00 0.000000000000000D+00
 0.289080849379664D+03 0.000000000000000D+00 0.000000000000000D+00 0.289080849379664D+03
 0.289080849379664D+03 -.000000000000000D+00 -.000000000000000D+00 -.289080849379664D+03
 0.211365195390305D+03 -.489956609259829D+02 -.184281000615660D+01 -.199427367941536D+03
 0.777623533698822D+02 -.371889270385753D+02 -.241750807272826D+02 -.638712202730723D+02
 0.254091473901179D+03 0.101193053477070D+03 0.245114619414411D+02 0.231779272737563D+03
 0.349426760979628D+02 -.150084655125120D+02 0.150642879199813D+01 0.315193154770455D+02
-.331880265467D-04 0.000000000000D+00 0.000000000000D+00 0.144119228975D-04 0.000000000000D+00  6 -1 22 9900012 -11 -2 21 2 0.81404596D-02 0.24297579D+00 0.13640789D+05 0.13640789D+05 0.13640789D+05 0.11955983D+01  1  2 13  2  6  5       -2 -.589920950697D-04 0.100000000000D+01
0.292279133758D-05 0.000000000000D+00 0.000000000000D+00 0.144119228975D-04 0.705990871579D-07  6 -1 22 9900012 -11 -2 21 2 0.81404596D-02 0.24297579D+00 0.13640789D+05 0.13640789D+05 0.13640789D+05 0.11955983D+01  1  2  1  2  6  5       -2 0.519529488181D-05 0.100000000000D+01
  </mgrwgt>
  </event>
  <event>
  6     66 0.93819742E-06 0.54916956E+02 0.78161638E-02 0.11231797E+00
       -3 -1    0    0    0  501 0.00000000E+00 0.00000000E+00 0.37167873E+03 0.37167873E+03 0.00000000E+00 0.0000E+00 0.9000E+01
       22 -1    0    0    0    0 0.00000000E+00 0.00000000E+00 -.60011689E+02 0.60011689E+02 0.00000000E+00 0.0000E+00 0.9000E+01
       24  2    1    2    0    0 -.30454120E+02 -.10226744E+03 0.38622573E+02 0.13853626E+03 0.79463880E+02 0.0000E+00 0.0000E+00
  9900012  1    3    3    0    0 0.11171942E+01 -.80096760E+02 0.28893479E+02 0.98750049E+02 0.50000000E+02 0.0000E+00 0.9000E+01
      -11  1    3    3    0    0 -.31571314E+02 -.22170680E+02 0.97290937E+01 0.39786206E+02 0.00000000E+00 0.0000E+00 0.9000E+01
       -4  1    1    2    0  501 0.30454120E+02 0.10226744E+03 0.27304447E+03 0.29315417E+03 0.00000000E+00 0.0000E+00 0.9000E+01
#aMCatNLO 1  0  0  5  1 0.38500901D+02 0.00000000D+00  -5  6  0 0.00000000D+00 0.00000000D+00 0.00000000D+00 0.00000000D+00 0.00000000D+00
  <mgrwgt>
 0.2807985273D-04    5    2    0
 0.149348815835792D+03 0.000000000000000D+00 0.000000000000000D+00 0.149348815835792D+03
 0.149348815835792D+03 -.000000000000000D+00 -.000000000000000D+00 -.149348815835792D+03
 0.112569708825036D+03 0.111719424814122D+01 -.800967600045154D+02 -.612796887944469D+02
 0.473491743842486D+02 -.315713140825422D+02 -.221706799971939D+02 -.274528211743981D+02
 0.138778748462300D+03 0.304541198344009D+02 0.102267440001709D+03 0.887325099688450D+02
 0.000000000000000D+00 0.000000000000000D+00 -.000000000000000D+00 0.000000000000000D+00
 0.149348815835792D+03 0.000000000000000D+00 0.000000000000000D+00 0.149348815835792D+03
 0.149348815835792D+03 -.000000000000000D+00 -.000000000000000D+00 -.149348815835792D+03
 0.101642127971345D+03 0.392205503513817D+01 -.706778067132324D+02 -.531073187145770D+02
 0.427989495397495D+02 -.303909267538246D+02 -.182068422315711D+02 -.240135909164868D+02
 0.123324523563392D+03 0.130704695398024D+02 0.108444033539823D+03 0.572537555777840D+02
 0.309320305970971D+02 0.133984021788840D+02 -.195593845950193D+02 0.198671540532797D+02
0.188544469283D-05 0.000000000000D+00 0.000000000000D+00 0.106861011157D-05 0.000000000000D+00  6 -3 22 9900012 -11 -4 21 0 0.57181344D-01 0.92325676D-02 0.14365508D+05 0.14365508D+05 0.14365508D+05 0.11933535D+01  1  2  2  2  6  5       -4 0.206541276721D-04 0.100000000000D+01
-.173084453519D-07 0.000000000000D+00 -.362030203473D-08 0.106861011157D-05 0.000000000000D+00  6 -3 22 9900012 -11 -4 21 2 0.57181344D-01 0.92325676D-02 0.14365508D+05 0.14365508D+05 0.14365508D+05 0.11933535D+01  1  2  3  2  6  5       -4 -.270015912191D-06 0.100000000000D+01
-.225218968104D-06 0.000000000000D+00 0.000000000000D+00 0.106861011157D-05 0.000000000000D+00  6 -3 22 9900012 -11 -4 21 2 0.57181344D-01 0.92325676D-02 0.14365508D+05 0.14365508D+05 0.14365508D+05 0.11933535D+01  1  2 15  2  6  5       -4 -.351347009386D-05 0.100000000000D+01
0.893922156293D-06 0.000000000000D+00 0.000000000000D+00 0.106861011157D-05 0.000000000000D+00  6 -3 22 9900012 -11 -4 21 2 0.57181344D-01 0.92325676D-02 0.16259959D+05 0.16259959D+05 0.16259959D+05 0.11880358D+01  1  2 12  2  6  5       -4 0.139441268315D-04 0.100000000000D+01
-.175312409472D-06 0.000000000000D+00 0.000000000000D+00 0.106861011157D-05 0.000000000000D+00  6 -3 22 9900012 -11 -4 21 2 0.57181344D-01 0.92325676D-02 0.14365508D+05 0.14365508D+05 0.14365508D+05 0.11933535D+01  1  2  4  2  6  5       -4 -.273491577086D-05 0.100000000000D+01
  </mgrwgt>
  </event>
  <event>
  6     66 0.93819742E-06 0.12568119E+03 0.78161638E-02 0.91469129E-01
       -1 -1    0    0    0  501 0.00000000E+00 0.00000000E+00 0.39277294E+03 0.39277294E+03 0.00000000E+00 0.0000E+00 0.9000E+01
       22 -1    0    0    0    0 0.00000000E+00 0.00000000E+00 -.86701507E+03 0.86701507E+03 0.00000000E+00 0.0000E+00 0.9000E+01
       24  2    1    2    0    0 -.15445008E+02 0.12472856E+03 -.85026885E+03 0.86331373E+03 0.80979719E+02 0.0000E+00 0.0000E+00
  9900012  1    3    3    0    0 -.22044665E+02 0.72514432E+02 -.41141453E+03 0.42131488E+03 0.50000000E+02 0.0000E+00 0.9000E+01
      -11  1    3    3    0    0 0.65996576E+01 0.52214127E+02 -.43885432E+03 0.44199885E+03 0.00000000E+00 0.0000E+00 0.9000E+01
       -2  1    1    2    0  501 0.15445008E+02 -.12472856E+03 0.37602672E+03 0.39647428E+03 0.00000000E+00 0.0000E+00 0.9000E+01
#aMCatNLO 1  0  0  1  5 0.59886651D+02 0.00000000D+00  -5  6  0 0.00000000D+00 0.00000000D+00 0.00000000D+00 0.00000000D+00 0.00000000D+00
  <mgrwgt>
 0.1729469258D-03    3    2    0
 0.583558101123751D+03 0.000000000000000D+00 0.000000000000000D+00 0.583558101123751D+03
 0.583558101123751D+03 0.000000000000000D+00 0.000000000000000D+00 -.583558101123751D+03
 0.287595464884017D+03 -.220446653428687D+02 0.725144320283456D+02 -.272886132479064D+03
 0.298772002993812D+03 0.659965755401507D+01 0.522141266843806D+02 -.294100049758057D+03
 0.580748734369673D+03 0.154450077888536D+02 -.124728558712726D+03 0.566986182237121D+03
 0.000000000000000D+00 0.000000000000000D+00 0.000000000000000D+00 -.000000000000000D+00
 0.761319963603961D+03 0.000000000000000D+00 0.000000000000000D+00 0.761319963603961D+03
 0.156211056314373D+04 0.000000000000000D+00 0.000000000000000D+00 -.156211056314373D+04
 0.299640717329783D+03 -.103135548113298D+03 -.466987890409980D+02 -.272886132479064D+03
 0.312603683081387D+03 -.778246262176631D+02 -.718995894455442D+02 -.294100049758057D+03
 0.704606692706305D+03 -.162048493824787D+03 -.385665069986653D+03 0.566986182237121D+03
 0.100657943363021D+04 0.343008668155748D+03 0.504263448473195D+03 -.800790599539770D+03
0.951074196155D-03 0.000000000000D+00 0.000000000000D+00 0.197299270145D-03 0.000000000000D+00  6 -1 22 9900012 -11 -2 21 0 0.60426606D-01 0.13338693D+00 0.18104904D+05 0.18104904D+05 0.18104904D+05 0.11834835D+01  1  2  2  1  6  1       -1 0.205887798866D-03 0.100000000000D+01
0.104456716257D-04 0.000000000000D+00 -.182618766841D-05 0.197299270145D-03 0.000000000000D+00  6 -1 22 9900012 -11 -2 21 2 0.60426606D-01 0.13338693D+00 0.18104904D+05 0.18104904D+05 0.18104904D+05 0.11834835D+01  1  2  3  1  6  1       -1 0.316721111503D-05 0.100000000000D+01
-.119086848538D-03 0.000000000000D+00 0.000000000000D+00 0.197299270145D-03 0.000000000000D+00  6 -1 22 9900012 -11 -2 21 2 0.60426606D-01 0.13338693D+00 0.18104904D+05 0.18104904D+05 0.18104904D+05 0.11834835D+01  1  2 15  1  6  1       -1 -.361080841766D-04 0.100000000000D+01
  </mgrwgt>
  </event>
  <event>
  6     66 0.93819742E-06 0.18539811E+02 0.78161638E-02 0.12547153E+00
       -3 -1    0    0    0  501 0.00000000E+00 0.00000000E+00 0.75865245E+02 0.75865245E+02 0.00000000E+00 0.0000E+00 0.9000E+01
       22 -1    0    0    0    0 0.00000000E+00 0.00000000E+00 -.20097187E+03 0.20097187E+03 0.00000000E+00 0.0000E+00 0.9000E+01
       24  2    1    2    0    0 -.16487979E+02 -.84776848E+01 -.19080907E+03 0.20856901E+03 0.82153558E+02 0.0000E+00 0.0000E+00
  9900012  1    3    3    0    0 0.12382046E+02 -.16108634E+02 -.13216544E+03 0.14276031E+03 0.50000000E+02 0.0000E+00 0.9000E+01
      -11  1    3    3    0    0 -.28870025E+02 0.76309494E+01 -.58643628E+02 0.65808699E+02 0.00000000E+00 0.0000E+00 0.9000E+01
       -4  1    1    2    0  501 0.16487979E+02 0.84776848E+01 0.65702438E+02 0.68268110E+02 0.00000000E+00 0.0000E+00 0.9000E+01
#aMCatNLO 1  0  0  1  5 0.15607288D+02 0.00000000D+00  -5  6  0 0.00000000D+00 0.00000000D+00 0.00000000D+00 0.00000000D+00 0.00000000D+00
  <mgrwgt>
 0.5076690010D-04    9    4    0
 0.123477854595908D+03 0.000000000000000D+00 0.000000000000000D+00 0.123477854595908D+03
 0.123477854595908D+03 0.000000000000000D+00 0.000000000000000D+00 -.123477854595908D+03
 0.930797705556703D+02 0.123820460185444D+02 -.161086341246768D+02 -.758356151799943D+02
 0.440628970366078D+02 -.288700245235313D+02 0.763094935720054D+01 -.324010677474870D+02
 0.109813041599537D+03 0.164879785049869D+02 0.847768476747621D+01 0.108236682927481D+03
 0.000000000000000D+00 -.000000000000000D+00 -.000000000000000D+00 0.000000000000000D+00
 0.158455685809183D+03 0.000000000000000D+00 0.000000000000000D+00 0.158455685809183D+03
 0.125363467167949D+03 0.000000000000000D+00 0.000000000000000D+00 -.125363467167949D+03
 0.936583908536014D+02 0.178062694271105D+02 -.142755180868133D+02 -.758356151799943D+02
 0.426170161237966D+02 -.263522145029717D+02 0.848184313154109D+01 -.324010677474870D+02
 0.111145067453737D+03 0.229061960690577D+02 0.106467210819862D+02 0.108236682927481D+03
 0.363986785459974D+02 -.143602509931966D+02 -.485304612671402D+01 0.330922186412340D+02
 0.123477854595908D+03 0.000000000000000D+00 0.000000000000000D+00 0.123477854595908D+03
 0.123477854595908D+03 0.000000000000000D+00 0.000000000000000D+00 -.123477854595908D+03
 0.930797705556703D+02 0.123820460185444D+02 -.161086341246768D+02 -.758356151799943D+02
 0.440628970366078D+02 -.288700245235313D+02 0.763094935720054D+01 -.324010677474870D+02
 0.000000000000000D+00 -.000000000000000D+00 -.000000000000000D+00 0.000000000000000D+00
 0.109813041599537D+03 0.164879785049869D+02 0.847768476747621D+01 0.108236682927481D+03
 0.158455685809183D+03 0.000000000000000D+00 0.000000000000000D+00 0.158455685809183D+03
 0.125363467167949D+03 0.000000000000000D+00 0.000000000000000D+00 -.125363467167949D+03
 0.936583908536014D+02 0.178062694271105D+02 -.142755180868133D+02 -.758356151799943D+02
 0.426170161237966D+02 -.263522145029717D+02 0.848184313154109D+01 -.324010677474870D+02
 0.363986785459974D+02 -.143602509931966D+02 -.485304612671402D+01 0.330922186412340D+02
 0.111145067453737D+03 0.229061960690577D+02 0.106467210819862D+02 0.108236682927481D+03
0.212044898488D-06 0.000000000000D+00 0.000000000000D+00 0.114235787104D-05 0.000000000000D+00  6 -3 22 9900012 -11 -4 21 0 0.11671576D-01 0.30918750D-01 0.26199918D+04 0.26199918D+04 0.26199918D+04 0.12747448D+01  1  2  2  1  6  1       -3 0.604061082420D-05 0.100000000000D+01
0.303755052489D-07 0.000000000000D+00 -.407154121450D-09 0.114235787104D-05 0.000000000000D+00  6 -3 22 9900012 -11 -4 21 2 0.11671576D-01 0.30918750D-01 0.26199918D+04 0.26199918D+04 0.26199918D+04 0.12747448D+01  1  2  3  1  6  1       -3 0.140612214827D-05 0.100000000000D+01
-.287573898004D-07 0.000000000000D+00 0.000000000000D+00 0.114235787104D-05 0.000000000000D+00  6 -3 22 9900012 -11 -4 21 2 0.11671576D-01 0.30918750D-01 0.26199918D+04 0.26199918D+04 0.26199918D+04 0.12747448D+01  1  2 15  1  6  1       -3 -.133121745280D-05 0.100000000000D+01
0.989483525467D-06 0.000000000000D+00 0.000000000000D+00 0.114235787104D-05 0.000000000000D+00  6 -3 22 9900012 -11 -4 21 2 0.15206532D-01 0.30918750D-01 0.37861617D+04 0.37861617D+04 0.37861617D+04 0.12556758D+01  1  2 12  1  6  1       -3 0.299948105481D-04 0.100000000000D+01
-.461859461105D-07 0.000000000000D+00 0.000000000000D+00 0.114235787104D-05 0.000000000000D+00  6 -3 22 9900012 -11 -4 21 2 0.11671576D-01 0.30918750D-01 0.26199918D+04 0.26199918D+04 0.26199918D+04 0.12747448D+01  1  2  4  1  6  1       -3 -.213800828111D-05 0.100000000000D+01
-.103490524477D-05 0.000000000000D+00 -.114969161518D-06 0.114235787104D-05 0.000000000000D+00  6 -3 22 9900012 -11 -4 21 2 0.15162875D-01 0.30918750D-01 0.26199918D+04 0.26199918D+04 0.26199918D+04 0.12747448D+01  1  2  5  1  6  1       -3 -.313106173626D-04 0.100000000000D+01
0.103323716419D-05 0.000000000000D+00 0.111141706657D-06 0.114235787104D-05 0.000000000000D+00  6 -3 22 9900012 -11 -4 21 2 0.11671576D-01 0.30918750D-01 0.26199918D+04 0.26199918D+04 0.26199918D+04 0.12747448D+01  1  2  6  1  6  1       -3 0.478299092997D-04 0.100000000000D+01
0.349102168701D-07 0.000000000000D+00 0.000000000000D+00 0.114235787104D-05 0.000000000000D+00  6 21 22 9900012 -11 3 -4 2 0.15206532D-01 0.30918750D-01 0.37861617D+04 0.37861617D+04 0.37861617D+04 0.12556758D+01  3  4 12  3  5  1       -3 0.181951782836D-04 0.100000000000D+01
-.341460762746D-07 0.000000000000D+00 -.402392734173D-08 0.114235787104D-05 0.000000000000D+00  6 21 22 9900012 -11 3 -4 2 0.15162875D-01 0.30918750D-01 0.26199918D+04 0.26199918D+04 0.26199918D+04 0.12747448D+01  3  4  5  3  5  1       -3 -.179198879063D-04 0.100000000000D+01
  </mgrwgt>
  </event>
  <event>
  6     66 0.93819742E-06 0.30899160E+02 0.78161638E-02 0.11861657E+00
       -1 -1    0    0    0  501 0.00000000E+00 0.00000000E+00 0.48563159E+01 0.48563159E+01 0.00000000E+00 0.0000E+00 0.9000E+01
       22 -1    0    0    0    0 0.00000000E+00 0.00000000E+00 -.12943414E+04 0.12943414E+04 0.00000000E+00 0.0000E+00 0.9000E+01
       24  2    1    2    0    0 0.48252202E+02 0.33914042E+02 -.85060446E+03 0.85637198E+03 0.79790788E+02 0.0000E+00 0.0000E+00
  9900012  1    3    3    0    0 0.81383643E+01 0.17972458E+02 -.37839263E+03 0.38219135E+03 0.50000000E+02 0.0000E+00 0.9000E+01
      -11  1    3    3    0    0 0.40113838E+02 0.15941585E+02 -.47221183E+03 0.47418063E+03 0.00000000E+00 0.0000E+00 0.9000E+01
       -2  1    1    2    0  501 -.48252202E+02 -.33914042E+02 -.43888062E+03 0.44282574E+03 0.00000000E+00 0.0000E+00 0.9000E+01
#aMCatNLO 1  0  0  1  5 0.38956755D+02 0.00000000D+00  -5  6  0 0.00000000D+00 0.00000000D+00 0.00000000D+00 0.00000000D+00 0.00000000D+00
  <mgrwgt>
 0.9340627741D-04    6    4    0
 0.792826005768387D+02 0.000000000000000D+00 0.000000000000000D+00 0.792826005768387D+02
 0.792826005768387D+02 0.000000000000000D+00 0.000000000000000D+00 -.792826005768387D+02
 0.543023995610089D+02 0.813836425060337D+01 0.179724575374387D+02 0.771416848875636D+01
 0.450557591172713D+02 0.401138377240677D+02 0.159415849153244D+02 -.129138423046063D+02
 0.592070424753973D+02 -.482522019746710D+02 -.339140424527631D+02 0.519967381584996D+01
 0.000000000000000D+00 -.000000000000000D+00 0.000000000000000D+00 -.000000000000000D+00
 0.848711930973682D+02 0.000000000000000D+00 0.000000000000000D+00 0.848711930973682D+02
 0.981007644212227D+02 0.000000000000000D+00 0.000000000000000D+00 -.981007644212227D+02
 0.535329036729796D+02 0.119823172270415D+02 0.127548992178745D+02 0.771416848875636D+01
 0.467043579921339D+02 0.433847663040676D+02 0.115018166013288D+02 -.129138423046063D+02
 0.594774823052564D+02 -.440215120372782D+02 -.396565350419401D+02 0.519967381584996D+01
 0.232572135482210D+02 -.113455714938308D+02 0.153998192227368D+02 -.132295713238545D+02
 0.792826005768387D+02 0.000000000000000D+00 0.000000000000000D+00 0.792826005768387D+02
 0.792826005768387D+02 0.000000000000000D+00 0.000000000000000D+00 -.792826005768387D+02
 0.543023995610089D+02 0.813836425060337D+01 0.179724575374387D+02 0.771416848875636D+01
 0.450557591172713D+02 0.401138377240677D+02 0.159415849153244D+02 -.129138423046063D+02
 0.000000000000000D+00 -.000000000000000D+00 0.000000000000000D+00 -.000000000000000D+00
 0.592070424753973D+02 -.482522019746710D+02 -.339140424527631D+02 0.519967381584996D+01
 0.848711930973682D+02 0.000000000000000D+00 0.000000000000000D+00 0.848711930973682D+02
 0.981007644212227D+02 0.000000000000000D+00 0.000000000000000D+00 -.981007644212227D+02
 0.535329036729796D+02 0.119823172270415D+02 0.127548992178745D+02 0.771416848875636D+01
 0.467043579921339D+02 0.433847663040676D+02 0.115018166013288D+02 -.129138423046063D+02
 0.232572135482210D+02 -.113455714938308D+02 0.153998192227368D+02 -.132295713238545D+02
 0.594774823052564D+02 -.440215120372782D+02 -.396565350419401D+02 0.519967381584996D+01
0.157993116369D-05 0.000000000000D+00 0.000000000000D+00 0.269213709963D-06 0.000000000000D+00  6 -1 22 9900012 -11 -2 21 0 0.74712553D-03 0.19912945D+00 0.60758421D+04 0.60758421D+04 0.60758421D+04 0.12324312D+01  1  2  2  1  6  1       -1 0.913620826929D-04 0.100000000000D+01
-.517194299171D-07 0.000000000000D+00 -.303367583701D-08 0.269213709963D-06 0.000000000000D+00  6 -1 22 9900012 -11 -2 21 2 0.74712553D-03 0.19912945D+00 0.60758421D+04 0.60758421D+04 0.60758421D+04 0.12324312D+01  1  2  3  1  6  1       -1 -.454262556674D-05 0.100000000000D+01
-.182563627272D-06 0.000000000000D+00 0.000000000000D+00 0.269213709963D-06 0.000000000000D+00  6 -1 22 9900012 -11 -2 21 2 0.74712553D-03 0.19912945D+00 0.60758421D+04 0.60758421D+04 0.60758421D+04 0.12324312D+01  1  2 15  1  6  1       -1 -.160349447419D-04 0.100000000000D+01
0.313447132160D-06 0.000000000000D+00 0.000000000000D+00 0.269213709963D-06 0.000000000000D+00  6 -1 22 9900012 -11 -2 21 2 0.98962464D-03 0.19912945D+00 0.77647245D+04 0.77647245D+04 0.77647245D+04 0.12208930D+01  1  2 12  1  6  1       -1 0.188683549303D-04 0.100000000000D+01
-.109776941958D-06 0.000000000000D+00 0.000000000000D+00 0.269213709963D-06 0.000000000000D+00  6 -1 22 9900012 -11 -2 21 2 0.74712553D-03 0.19912945D+00 0.60758421D+04 0.60758421D+04 0.60758421D+04 0.12324312D+01  1  2  4  1  6  1       -1 -.964193812604D-05 0.100000000000D+01
0.115582431314D-07 0.000000000000D+00 0.000000000000D+00 0.269213709963D-06 0.000000000000D+00  6 21 22 9900012 -11 1 -2 2 0.98962464D-03 0.19912945D+00 0.77647245D+04 0.77647245D+04 0.77647245D+04 0.12208930D+01  3  4 12  3  5  1       -1 0.133953482249D-04 0.100000000000D+01
  </mgrwgt>
  </event>
  <event>
  6     66 0.93819742E-06 0.35788364E+02 0.78161638E-02 0.12569255E+00
       -1 -1    0    0    0  501 0.00000000E+00 0.00000000E+00 0.87791678E+01 0.87791678E+01 0.00000000E+00 0.0000E+00 0.9000E+01
       22 -1    0    0    0    0 -.00000000E+00 -.00000000E+00 -.70381979E+03 0.70381979E+03 0.00000000E+00 0.0000E+00 0.9000E+01
       24  2    1    2    0    0 -.29166076E+02 -.20739986E+02 -.64663286E+03 0.65239831E+03 0.78795220E+02 0.0000E+00 0.0000E+00
  9900012  1    3    3    0    0 -.71556382E+01 0.59475400E+01 -.43401471E+03 0.43698438E+03 0.50000000E+02 0.0000E+00 0.9000E+01
      -11  1    3    3    0    0 -.22010438E+02 -.26687526E+02 -.21261815E+03 0.21541393E+03 0.00000000E+00 0.0000E+00 0.9000E+01
       -2  1    1    2    0  501 0.29166076E+02 0.20739986E+02 -.48407761E+02 0.60200650E+02 0.00000000E+00 0.0000E+00 0.9000E+01
#aMCatNLO 1  0  0  5  1 0.11994917D+02 0.00000000D+00  -5  6  0 0.00000000D+00 0.00000000D+00 0.00000000D+00 0.00000000D+00 0.00000000D+00
  <mgrwgt>
 0.4376124744D-04    7    2    0
 0.786063104848447D+02 0.000000000000000D+00 0.000000000000000D+00 0.786063104848447D+02
 0.786063104848447D+02 -.000000000000000D+00 -.000000000000000D+00 -.786063104848447D+02
 0.619336844498205D+02 -.715563821065913D+01 0.594754000384786D+01 -.353440925648221D+02
 0.364187720280070D+02 -.220104380354833D+02 -.266875260436901D+02 -.113861111526923D+02
 0.588601644918620D+02 0.291660762461424D+02 0.207399860398422D+02 0.467302037175145D+02
 0.000000000000000D+00 0.000000000000000D+00 0.000000000000000D+00 -.000000000000000D+00
 0.786063104848447D+02 0.000000000000000D+00 0.000000000000000D+00 0.786063104848447D+02
 0.786063104848447D+02 -.000000000000000D+00 -.000000000000000D+00 -.786063104848447D+02
 0.595645916262463D+02 -.449743386620633D+01 0.783778813080634D+01 -.310850887313706D+02
 0.339642139533516D+02 -.204705613791752D+02 -.255925203224754D+02 -.891890407136138D+01
 0.569252511293792D+02 0.268346649951892D+02 0.212189410581596D+02 0.454988077987678D+02
 0.675856426071233D+01 -.186666974980765D+01 -.346420886649048D+01 -.549481499603579D+01
0.269223846582D-06 0.000000000000D+00 0.000000000000D+00 0.338241446152D-06 0.000000000000D+00  6 -1 22 9900012 -11 -2 21 0 0.13506412D-02 0.10827997D+00 0.36747767D+04 0.36747767D+04 0.36747767D+04 0.12571887D+01  1  2  2  2  6  5       -2 0.245949973958D-04 0.100000000000D+01
0.691954560123D-08 0.000000000000D+00 -.516945229570D-09 0.338241446152D-06 0.000000000000D+00  6 -1 22 9900012 -11 -2 21 2 0.13506412D-02 0.10827997D+00 0.36747767D+04 0.36747767D+04 0.36747767D+04 0.12571887D+01  1  2  3  2  6  5       -2 0.999106470979D-06 0.100000000000D+01
-.341897962071D-07 0.000000000000D+00 0.000000000000D+00 0.338241446152D-06 0.000000000000D+00  6 -1 22 9900012 -11 -2 21 2 0.13506412D-02 0.10827997D+00 0.36747767D+04 0.36747767D+04 0.36747767D+04 0.12571887D+01  1  2 15  2  6  5       -2 -.493663147850D-05 0.100000000000D+01
0.171857989314D-06 0.000000000000D+00 0.000000000000D+00 0.338241446152D-06 0.000000000000D+00  6 -1 22 9900012 -11 -2 21 2 0.13506412D-02 0.10827997D+00 0.37044065D+04 0.37044065D+04 0.37044065D+04 0.12567813D+01  1  2 12  2  6  5       -2 0.248233550887D-04 0.100000000000D+01
-.114768725215D-07 0.000000000000D+00 0.000000000000D+00 0.338241446152D-06 0.000000000000D+00  6 -1 22 9900012 -11 -2 21 2 0.13506412D-02 0.10827997D+00 0.36747767D+04 0.36747767D+04 0.36747767D+04 0.12571887D+01  1  2  4  2  6  5       -2 -.165713448016D-05 0.100000000000D+01
0.356339921057D-08 0.000000000000D+00 0.000000000000D+00 0.338241446152D-06 0.000000000000D+00  6 -1 22 9900012 -11 -2 21 2 0.13506412D-02 0.10827997D+00 0.36747767D+04 0.36747767D+04 0.36747767D+04 0.12571887D+01  1  2  5  2  6  5       -2 0.514515752208D-06 0.100000000000D+01
-.399588053639D-08 0.000000000000D+00 0.000000000000D+00 0.338241446152D-06 0.000000000000D+00  6 -1 22 9900012 -11 -2 21 2 0.13506412D-02 0.10827997D+00 0.36747767D+04 0.36747767D+04 0.36747767D+04 0.12571887D+01  1  2  6  2  6  5       -2 -.576961310935D-06 0.100000000000D+01
  </mgrwgt>
  </event>
  <event>
  6     66 0.93819742E-06 0.25546449E+02 0.78161638E-02 0.12502250E+00
       -1 -1    0    0    0  501 0.00000000E+00 0.00000000E+00 0.27318665E+03 0.27318665E+03 0.00000000E+00 0.0000E+00 0.9000E+01
       22 -1    0    0    0    0 0.00000000E+00 0.00000000E+00 -.75933421E+02 0.75933421E+02 0.00000000E+00 0.0000E+00 0.9000E+01
       24  2    1    2    0    0 -.30414022E+02 -.12627339E+02 -.49986309E+02 0.99697034E+02 0.79727066E+02 0.0000E+00 0.0000E+00
  9900012  1    3    3    0    0 -.42315874E+02 -.22248303E+02 -.32417005E+02 0.76396874E+02 0.50000000E+02 0.0000E+00 0.9000E+01
      -11  1    3    3    0    0 0.11901852E+02 0.96209633E+01 -.17569305E+02 0.23300160E+02 0.00000000E+00 0.0000E+00 0.9000E+01
       -2  1    1    2    0  501 0.30414022E+02 0.12627339E+02 0.24723954E+03 0.24942304E+03 0.00000000E+00 0.0000E+00 0.9000E+01
#aMCatNLO 1  0  0  1  5 0.77256946D+01 0.00000000D+00  -5  6  0 0.00000000D+00 0.00000000D+00 0.00000000D+00 0.00000000D+00 0.00000000D+00
  <mgrwgt>
 0.2352830766D-03   11    4    0
 0.144027765206580D+03 0.000000000000000D+00 0.000000000000000D+00 0.144027765206580D+03
 0.144027765206580D+03 0.000000000000000D+00 0.000000000000000D+00 -.144027765206580D+03
 0.114790509430200D+03 -.423158739607347D+02 -.222483026595758D+02 -.916037166001035D+02
 0.402705539763860D+02 0.119018519925740D+02 0.962096325414255D+01 -.372491678131783D+02
 0.132994467006573D+03 0.304140219681606D+02 0.126273394054332D+02 0.128852884413282D+03
 0.000000000000000D+00 -.000000000000000D+00 0.000000000000000D+00 0.000000000000000D+00
 0.176149689666377D+03 0.000000000000000D+00 0.000000000000000D+00 0.176149689666377D+03
 0.144535992014579D+03 0.000000000000000D+00 0.000000000000000D+00 -.144535992014579D+03
 0.114637012323727D+03 -.405011823408651D+02 -.246993507718371D+02 -.916037166001035D+02
 0.402674960152902D+02 0.125388798577719D+02 0.876054932521108D+01 -.372491678131783D+02
 0.133252836555222D+03 0.325199452109034D+02 0.978293370466582D+01 0.128852884413282D+03
 0.325283367867178D+02 -.455764272781022D+01 0.615586774196020D+01 0.316136976517975D+02
 0.144027765206580D+03 0.000000000000000D+00 0.000000000000000D+00 0.144027765206580D+03
 0.144027765206580D+03 0.000000000000000D+00 0.000000000000000D+00 -.144027765206580D+03
 0.114790509430200D+03 -.423158739607347D+02 -.222483026595758D+02 -.916037166001035D+02
 0.402705539763860D+02 0.119018519925740D+02 0.962096325414255D+01 -.372491678131783D+02
 0.000000000000000D+00 -.000000000000000D+00 0.000000000000000D+00 0.000000000000000D+00
 0.132994467006573D+03 0.304140219681606D+02 0.126273394054332D+02 0.128852884413282D+03
 0.176149689666377D+03 0.000000000000000D+00 0.000000000000000D+00 0.176149689666377D+03
 0.144535992014579D+03 0.000000000000000D+00 0.000000000000000D+00 -.144535992014579D+03
 0.114637012323727D+03 -.405011823408651D+02 -.246993507718371D+02 -.916037166001035D+02
 0.402674960152902D+02 0.125388798577719D+02 0.876054932521108D+01 -.372491678131783D+02
 0.325283367867178D+02 -.455764272781022D+01 0.615586774196020D+01 0.316136976517975D+02
 0.133252836555222D+03 0.325199452109034D+02 0.978293370466582D+01 0.128852884413282D+03
0.511123262860D-06 0.000000000000D+00 0.000000000000D+00 0.935263207946D-05 0.000000000000D+00  6 -1 22 9900012 -11 -2 21 0 0.42028716D-01 0.11682065D-01 0.34464828D+04 0.34464828D+04 0.34464828D+04 0.12604577D+01  1  2  2  1  6  1       -1 0.107930250842D-04 0.100000000000D+01
0.343066500759D-07 0.000000000000D+00 -.981423955615D-09 0.935263207946D-05 0.000000000000D+00  6 -1 22 9900012 -11 -2 21 2 0.42028716D-01 0.11682065D-01 0.34464828D+04 0.34464828D+04 0.34464828D+04 0.12604577D+01  1  2  3  1  6  1       -1 0.115093930496D-05 0.100000000000D+01
-.704953307104D-07 0.000000000000D+00 0.000000000000D+00 0.935263207946D-05 0.000000000000D+00  6 -1 22 9900012 -11 -2 21 2 0.42028716D-01 0.11682065D-01 0.34464828D+04 0.34464828D+04 0.34464828D+04 0.12604577D+01  1  2 15  1  6  1       -1 -.236501805775D-05 0.100000000000D+01
0.963123266417D-05 0.000000000000D+00 0.000000000000D+00 0.935263207946D-05 0.000000000000D+00  6 -1 22 9900012 -11 -2 21 2 0.51583590D-01 0.11682065D-01 0.39588178D+04 0.39588178D+04 0.39588178D+04 0.12534269D+01  1  2 12  1  6  1       -1 0.228353088670D-03 0.100000000000D+01
-.282681343004D-05 0.000000000000D+00 0.000000000000D+00 0.935263207946D-05 0.000000000000D+00  6 -1 22 9900012 -11 -2 21 2 0.42028716D-01 0.11682065D-01 0.34464828D+04 0.34464828D+04 0.34464828D+04 0.12604577D+01  1  2  4  1  6  1       -1 -.948355691160D-04 0.100000000000D+01
-.994709391817D-05 0.000000000000D+00 -.332142077442D-06 0.935263207946D-05 0.000000000000D+00  6 -1 22 9900012 -11 -2 21 2 0.51489192D-01 0.11682065D-01 0.34464828D+04 0.34464828D+04 0.34464828D+04 0.12604577D+01  1  2  5  1  6  1       -1 -.237030517850D-03 0.100000000000D+01
0.981822128437D-05 0.000000000000D+00 0.325412799493D-06 0.935263207946D-05 0.000000000000D+00  6 -1 22 9900012 -11 -2 21 2 0.42028716D-01 0.11682065D-01 0.34464828D+04 0.34464828D+04 0.34464828D+04 0.12604577D+01  1  2  6  1  6  1       -1 0.329387356561D-03 0.100000000000D+01
0.267996921325D-07 0.000000000000D+00 0.000000000000D+00 0.935263207946D-05 0.499313133581D-06  6 -1 22 9900012 -11 -2 21 2 0.51402209D-01 0.11723287D-01 0.39588178D+04 0.39588178D+04 0.39588178D+04 0.12534269D+01  1  2 11  1  6  1       -1 0.636090978378D-06 0.100000000000D+01
0.280716011034D-06 0.000000000000D+00 0.000000000000D+00 0.935263207946D-05 0.000000000000D+00  6 21 22 9900012 -11 1 -2 2 0.51583590D-01 0.11682065D-01 0.39588178D+04 0.39588178D+04 0.39588178D+04 0.12534269D+01  3  4 12  3  5  1       -1 0.639974764324D-04 0.100000000000D+01
-.284014290283D-06 0.000000000000D+00 -.961453723745D-08 0.935263207946D-05 0.000000000000D+00  6 21 22 9900012 -11 1 -2 2 0.51489192D-01 0.11682065D-01 0.34464828D+04 0.34464828D+04 0.34464828D+04 0.12604577D+01  3  4  5  3  5  1       -1 -.653350530015D-04 0.100000000000D+01
0.232512425838D-08 0.000000000000D+00 0.000000000000D+00 0.935263207946D-05 0.361009051692D-07  6 21 22 9900012 -11 1 -2 2 0.51402209D-01 0.11723287D-01 0.39588178D+04 0.39588178D+04 0.39588178D+04 0.12534269D+01  3  4 11  3  5  1       -1 0.531257594693D-06 0.100000000000D+01
  </mgrwgt>
  </event>
  <event>
  6     66 0.93819742E-06 0.26243890E+02 0.78161638E-02 0.10828278E+00
       -1 -1    0    0    0  501 0.00000000E+00 0.00000000E+00 0.94495413E+02 0.94495413E+02 0.00000000E+00 0.0000E+00 0.9000E+01
       22 -1    0    0    0    0 -.00000000E+00 -.00000000E+00 -.97751535E+03 0.97751535E+03 0.00000000E+00 0.0000E+00 0.9000E+01
       24  2    1    2    0    0 -.21669694E+02 0.14804260E+02 -.97382053E+03 0.97749362E+03 0.80489831E+02 0.0000E+00 0.0000E+00
  9900012  1    3    3    0    0 0.86725880E+01 -.48818025E-02 -.61293183E+03 0.61502898E+03 0.50000000E+02 0.0000E+00 0.9000E+01
      -11  1    3    3    0    0 -.30342282E+02 0.14809142E+02 -.36088870E+03 0.36246464E+03 0.00000000E+00 0.0000E+00 0.9000E+01
       -2  1    1    2    0  501 0.21669694E+02 -.14804260E+02 0.90800595E+02 0.94517140E+02 0.00000000E+00 0.0000E+00 0.9000E+01
#aMCatNLO 1  0  0  5  1 0.25354629D+01 0.00000000D+00  -5  6  0 0.00000000D+00 0.00000000D+00 0.00000000D+00 0.00000000D+00 0.00000000D+00
  <mgrwgt>
 0.1679579828D-03    4    2    0
 0.303925511640433D+03 0.000000000000000D+00 0.000000000000000D+00 0.303925511640433D+03
 0.303925511640433D+03 -.000000000000000D+00 -.000000000000000D+00 -.303925511640433D+03
 0.194269077014684D+03 0.867258795486241D+01 -.488180250678028D-02 -.187524026403206D+03
 0.114985547063300D+03 -.303422815793484D+02 0.148091418819077D+02 -.109916838103756D+03
 0.298596399202882D+03 0.216696936244860D+02 -.148042600794009D+02 0.297440864506963D+03
 0.000000000000000D+00 0.000000000000000D+00 0.000000000000000D+00 0.000000000000000D+00
 0.303925511640433D+03 0.000000000000000D+00 0.000000000000000D+00 0.303925511640433D+03
 0.303925511640433D+03 -.000000000000000D+00 -.000000000000000D+00 -.303925511640433D+03
 0.145433828684669D+03 0.124279323007342D+02 -.257045081088322D+01 -.135977710700096D+03
 0.853829416356882D+02 -.281272499781982D+02 0.132958808051352D+02 -.795130434874865D+02
 0.258136570282863D+03 0.830778230033199D+01 -.129131817323174D+03 0.223361687461087D+03
 0.118897682677645D+03 0.739153537713200D+01 0.118406387328922D+03 -.787093327350487D+01
0.113655686367D-03 0.000000000000D+00 0.000000000000D+00 0.185270353203D-03 0.000000000000D+00  6 -1 22 9900012 -11 -2 21 0 0.14537756D-01 0.15038698D+00 0.30666020D+04 0.30666020D+04 0.30666020D+04 0.12664806D+01  1  2  2  2  6  5       -2 0.174786701261D-03 0.100000000000D+01
0.123859696590D-04 0.000000000000D+00 -.218233880938D-06 0.185270353203D-03 0.000000000000D+00  6 -1 22 9900012 -11 -2 21 2 0.14537756D-01 0.15038698D+00 0.30666020D+04 0.30666020D+04 0.30666020D+04 0.12664806D+01  1  2  3  2  6  5       -2 0.305523260128D-04 0.100000000000D+01
-.151190621755D-04 0.000000000000D+00 0.000000000000D+00 0.185270353203D-03 0.000000000000D+00  6 -1 22 9900012 -11 -2 21 2 0.14537756D-01 0.15038698D+00 0.30666020D+04 0.30666020D+04 0.30666020D+04 0.12664806D+01  1  2 15  2  6  5       -2 -.372940132513D-04 0.100000000000D+01
-.352826023082D-07 0.000000000000D+00 0.000000000000D+00 0.185270353203D-03 0.000000000000D+00  6 -1 22 9900012 -11 -2 21 2 0.14537756D-01 0.15038698D+00 0.30666020D+04 0.30666020D+04 0.30666020D+04 0.12664806D+01  1  2  4  2  6  5       -2 -.870311810847D-07 0.100000000000D+01
  </mgrwgt>
  </event>
</LesHouchesEvents>
