<LesHouchesEvents version="3.0">
  <!--
  <scalesfunctionalform>
    muR  H_T/2 := sum_i mT(i)/2, i=final state
    muF1 H_T/2 := sum_i mT(i)/2, i=final state
    muF2 H_T/2 := sum_i mT(i)/2, i=final state
    QES  H_T/2 := sum_i mT(i)/2, i=final state
  </scalesfunctionalform>
PYTHIA8   
  -->
  <header>
        4
  </header>
  <init>
   2212   2212 0.65000000D+04 0.65000000D+04 -1 -1  82200  82200 -4   1
 0.12503851D-05 0.27371370D-07 0.46571992D-06     66
  </init>
  <event>
  6     66 0.46571992E-06 0.77459358E+02 0.78161638E-02 0.10909133E+00
       -2 -1    0    0    0  501 0.00000000E+00 0.00000000E+00 0.21632586E+03 0.21632586E+03 0.00000000E+00 0.0000E+00 0.9000E+01
       22 -1    0    0    0    0 -.00000000E+00 -.00000000E+00 -.30138472E+03 0.30138472E+03 0.00000000E+00 0.0000E+00 0.9000E+01
      -24  2    1    2    0    0 -.69233935E+02 0.12778087E+03 -.24869502E+03 0.29885428E+03 0.79645359E+02 0.0000E+00 0.0000E+00
  9900012  1    3    3    0    0 -.26581969E+02 0.50422021E+02 -.94618150E+02 0.12125005E+03 0.50000000E+02 0.0000E+00 0.9000E+01
       13  1    3    3    0    0 -.42651966E+02 0.77358845E+02 -.15407687E+03 0.17760423E+03 0.00000000E+00 0.0000E+00 0.9000E+01
       -1  1    1    2    0  501 0.69233935E+02 -.12778087E+03 0.16363616E+03 0.21885630E+03 0.00000000E+00 0.0000E+00 0.9000E+01
#aMCatNLO 1  0  0  5  1 0.20985303D+02 0.00000000D+00  -5  6  0 0.00000000D+00 0.00000000D+00 0.00000000D+00 0.00000000D+00 0.00000000D+00
  <mgrwgt>
 0.1375574598D-05    7    2    0
 0.255337637837680D+03 0.000000000000000D+00 0.000000000000000D+00 0.255337637837680D+03
 0.255337637837680D+03 -.000000000000000D+00 -.000000000000000D+00 -.255337637837680D+03
 0.107160708652875D+03 -.265819688615650D+02 0.504220209991705D+02 -.757260603015124D+02
 0.154387708874219D+03 -.426519658126237D+02 0.773588452401055D+02 -.126617469279981D+03
 0.249126858148266D+03 0.692339346741887D+02 -.127780866239276D+03 0.202343529581493D+03
 0.000000000000000D+00 0.000000000000000D+00 0.000000000000000D+00 0.000000000000000D+00
 0.255337637837680D+03 0.000000000000000D+00 0.000000000000000D+00 0.255337637837680D+03
 0.255337637837680D+03 -.000000000000000D+00 -.000000000000000D+00 -.255337637837680D+03
 0.106132584307494D+03 -.262584009208464D+02 0.498248313125400D+02 -.747803986185167D+02
 0.152711518316744D+03 -.421860933833537D+02 0.764990128060650D+02 -.125255907610594D+03
 0.201699442237125D+03 0.359093393837165D+02 -.107194030689000D+03 0.167040785823218D+03
 0.501317308139972D+02 0.325351549204837D+02 -.191298134296055D+02 0.329955204058929D+02
0.327544051052D-07 0.000000000000D+00 0.000000000000D+00 0.665222901895D-05 0.000000000000D+00  6 -2 22 9900012 13 -1 21 0 0.33280902D-01 0.46366880D-01 0.23946257D+05 0.23946257D+05 0.23946257D+05 0.11718878D+01  1  2  2  2  6  5       -1 0.127955708161D-06 0.100000000000D+01
-.222217020420D-10 0.000000000000D+00 -.628927700185D-10 0.665222901895D-05 0.000000000000D+00  6 -2 22 9900012 13 -1 21 2 0.33280902D-01 0.46366880D-01 0.23946257D+05 0.23946257D+05 0.23946257D+05 0.11718878D+01  1  2  3  2  6  5       -1 -.119217307324D-09 0.100000000000D+01
-.325759292062D-08 0.000000000000D+00 0.000000000000D+00 0.665222901895D-05 0.000000000000D+00  6 -2 22 9900012 13 -1 21 2 0.33280902D-01 0.46366880D-01 0.23946257D+05 0.23946257D+05 0.23946257D+05 0.11718878D+01  1  2 15  2  6  5       -1 -.174766746319D-07 0.100000000000D+01
0.317964242264D-06 0.000000000000D+00 0.000000000000D+00 0.665222901895D-05 0.000000000000D+00  6 -2 22 9900012 13 -1 21 2 0.33280902D-01 0.46366880D-01 0.24564917D+05 0.24564917D+05 0.24564917D+05 0.11708467D+01  1  2 12  2  6  5       -1 0.170502588130D-05 0.100000000000D+01
-.151271113394D-06 0.000000000000D+00 0.000000000000D+00 0.665222901895D-05 0.000000000000D+00  6 -2 22 9900012 13 -1 21 2 0.33280902D-01 0.46366880D-01 0.23946257D+05 0.23946257D+05 0.23946257D+05 0.11718878D+01  1  2  4  2  6  5       -1 -.811555063633D-06 0.100000000000D+01
-.313571790383D-06 0.000000000000D+00 0.000000000000D+00 0.665222901895D-05 0.000000000000D+00  6 -2 22 9900012 13 -1 21 2 0.33280902D-01 0.46366880D-01 0.23946257D+05 0.23946257D+05 0.23946257D+05 0.11718878D+01  1  2  5  2  6  5       -1 -.168228268167D-05 0.100000000000D+01
0.382863605475D-06 0.000000000000D+00 -.000000000000D+00 0.665222901895D-05 0.000000000000D+00  6 -2 22 9900012 13 -1 21 2 0.33280902D-01 0.46366880D-01 0.23946257D+05 0.23946257D+05 0.23946257D+05 0.11718878D+01  1  2  6  2  6  5       -1 0.205402664616D-05 0.100000000000D+01
  </mgrwgt>
  </event>
  <event>
  6     66 -.46571992E-06 0.31438306E+02 0.78161638E-02 0.12682763E+00
       -2 -1    0    0    0  501 0.00000000E+00 0.00000000E+00 0.49096785E+01 0.49096785E+01 0.00000000E+00 0.0000E+00 0.9000E+01
       22 -1    0    0    0    0 -.00000000E+00 -.00000000E+00 -.69974684E+03 0.69974684E+03 0.00000000E+00 0.0000E+00 0.9000E+01
      -24  2    1    2    0    0 -.17851004E+02 -.25878731E+02 -.51820052E+03 0.52524395E+03 0.79756251E+02 0.0000E+00 0.0000E+00
  9900012  1    3    3    0    0 0.16120581E+01 -.36163867E+02 -.42616499E+03 0.43061238E+03 0.50000000E+02 0.0000E+00 0.9000E+01
       13  1    3    3    0    0 -.19463062E+02 0.10285136E+02 -.92035530E+02 0.94631568E+02 0.00000000E+00 0.0000E+00 0.9000E+01
       -1  1    1    2    0  501 0.17851004E+02 0.25878731E+02 -.17663664E+03 0.17941257E+03 0.00000000E+00 0.0000E+00 0.9000E+01
#aMCatNLO 1  0  0  5  1 0.24439745D+00 0.00000000D+00  -5  6  0 0.00000000D+00 0.00000000D+00 0.00000000D+00 0.00000000D+00 0.00000000D+00
  <mgrwgt>
 -.1164759495D-05    7    2    0
 0.586134115626690D+02 0.000000000000000D+00 0.000000000000000D+00 0.586134115626690D+02
 0.586134115626690D+02 -.000000000000000D+00 -.000000000000000D+00 -.586134115626690D+02
 0.624306713675906D+02 0.161205808101199D+01 -.361638671411424D+02 -.933620423669827D+01
 0.233141571297761D+02 -.194630622643825D+02 0.102851358324931D+02 0.767822315850658D+01
 0.314819946279714D+02 0.178510041833705D+02 0.258787313086493D+02 0.165798107819169D+01
 0.000000000000000D+00 0.000000000000000D+00 0.000000000000000D+00 0.000000000000000D+00
 0.586134115626690D+02 0.000000000000000D+00 0.000000000000000D+00 0.586134115626690D+02
 0.586134115626690D+02 -.000000000000000D+00 -.000000000000000D+00 -.586134115626690D+02
 0.624259527068853D+02 0.161775886638023D+01 -.361556026709043D+02 -.933567475420113D+01
 0.233138068210508D+02 -.194609332943209D+02 0.102882222159604D+02 0.767842089483792D+01
 0.298158425040655D+02 0.169766355664583D+02 0.244741544171445D+02 0.133943071364953D+01
 0.167122109333649D+01 0.866538861482372D+00 0.139322603779943D+01 0.317823145713678D+00
0.427079902544D-09 0.000000000000D+00 0.000000000000D+00 0.518542113431D-07 0.000000000000D+00  6 -2 22 9900012 13 -1 21 0 0.75533515D-03 0.10765336D+00 0.33166342D+04 0.33166342D+04 0.33166342D+04 0.12624281D+01  1  2  2  2  6  5       -1 0.875435249640D-07 0.100000000000D+01
-.675142024343D-11 0.000000000000D+00 -.820049639244D-12 0.518542113431D-07 0.000000000000D+00  6 -2 22 9900012 13 -1 21 2 0.75533515D-03 0.10765336D+00 0.33166342D+04 0.33166342D+04 0.33166342D+04 0.12624281D+01  1  2  3  2  6  5       -1 -.220558262292D-08 0.100000000000D+01
-.317128134188D-10 0.000000000000D+00 0.000000000000D+00 0.518542113431D-07 0.000000000000D+00  6 -2 22 9900012 13 -1 21 2 0.75533515D-03 0.10765336D+00 0.33166342D+04 0.33166342D+04 0.33166342D+04 0.12624281D+01  1  2 15  2  6  5       -1 -.103600764992D-07 0.100000000000D+01
-.255748792474D-06 0.000000000000D+00 0.000000000000D+00 0.518542113431D-07 0.000000000000D+00  6 -2 22 9900012 13 -1 21 2 0.75533515D-03 0.10765336D+00 0.33166342D+04 0.33166342D+04 0.33166342D+04 0.12624281D+01  1  2  4  2  6  5       -1 -.835491011037D-04 0.100000000000D+01
-.205532148060D-06 0.000000000000D+00 0.000000000000D+00 0.518542113431D-07 0.000000000000D+00  6 -2 22 9900012 13 -1 21 2 0.75533515D-03 0.10765336D+00 0.33166342D+04 0.33166342D+04 0.33166342D+04 0.12624281D+01  1  2  5  2  6  5       -1 -.671441145516D-04 0.100000000000D+01
0.216731984361D-06 0.000000000000D+00 -.000000000000D+00 0.518542113431D-07 0.000000000000D+00  6 -2 22 9900012 13 -1 21 2 0.75533515D-03 0.10765336D+00 0.33166342D+04 0.33166342D+04 0.33166342D+04 0.12624281D+01  1  2  6  2  6  5       -1 0.708029246146D-04 0.100000000000D+01
0.240757942720D-06 0.000000000000D+00 0.000000000000D+00 0.518542113431D-07 0.776467712631D-05  6 -2 22 9900012 13 -1 21 2 0.75533515D-03 0.10765336D+00 0.33156566D+04 0.33156566D+04 0.33156566D+04 0.12624432D+01  1  2 11  2  6  5       -1 0.786505536795D-04 0.100000000000D+01
  </mgrwgt>
  </event>
  <event>
  7     66 0.46571992E-06 0.23384009E+02 0.78161638E-02 0.12865032E+00
       -2 -1    0    0    0  502 0.00000000E+00 0.00000000E+00 0.48866147E+02 0.48866147E+02 0.00000000E+00 0.0000E+00 0.9000E+01
       22 -1    0    0    0    0 0.00000000E+00 0.00000000E+00 -.11523021E+03 0.11523021E+03 0.00000000E+00 0.0000E+00 0.9000E+01
      -24  2    1    2    0    0 0.24343121E+02 0.22121814E+01 0.25580135E+01 0.82993122E+02 0.79270635E+02 0.0000E+00 0.0000E+00
  9900012  1    3    3    0    0 0.14689433E+01 0.12499282E+02 -.13391677E+02 0.53270319E+02 0.50000000E+02 0.0000E+00 0.9000E+01
       13  1    3    3    0    0 0.22874178E+02 -.10287101E+02 0.15949690E+02 0.29722804E+02 0.00000000E+00 0.0000E+00 0.9000E+01
       -1  1    1    2    0  501 -.24534339E+02 -.59127685E+01 -.20429689E+02 0.32469475E+02 0.00000000E+00 0.0000E+00 0.9000E+01
       21  1    1    2  501  502 0.19121813E+00 0.37005871E+01 -.48492386E+02 0.48633758E+02 0.00000000E+00 0.0000E+00 0.9000E+01
#aMCatNLO 2  0  0  1  5 0.63357942D+02 0.00000000D+00  -5  6  0 0.00000000D+00 0.00000000D+00 0.00000000D+00 0.00000000D+00 0.00000000D+00
  <mgrwgt>
 0.7733325295D-08    1    2    0
 0.570054465101090D+02 0.000000000000000D+00 0.000000000000000D+00 0.570054465101090D+02
 0.570054465101090D+02 0.000000000000000D+00 0.000000000000000D+00 -.570054465101090D+02
 0.522575788501064D+02 0.155620099101166D+01 0.141879543389760D+02 -.520910140291006D+01
 0.323059082213271D+02 0.229285798447404D+02 -.923427034153113D+01 0.208009659287181D+02
 0.294474059487845D+02 -.244847808357521D+02 -.495368399744487D+01 -.155918645258081D+02
 0.000000000000000D+00 0.000000000000000D+00 0.000000000000000D+00 -.000000000000000D+00
 0.571181700232160D+02 0.000000000000000D+00 0.000000000000000D+00 0.571181700232160D+02
 0.985825755795905D+02 0.000000000000000D+00 0.000000000000000D+00 -.985825755795905D+02
 0.518220472799515D+02 0.146894328399083D+01 0.124992820789096D+02 -.520910140291006D+01
 0.325842389116382D+02 0.228741775985219D+02 -.102871007127522D+02 0.208009659287181D+02
 0.296648084678108D+02 -.245343390103796D+02 -.591276850253006D+01 -.155918645258081D+02
 0.416296509434059D+02 0.191218127866903D+00 0.370058713637267D+01 -.414644055563745D+02
0.313849913118D-10 0.000000000000D+00 0.000000000000D+00 0.108724334972D-07 0.766914347682D-10  6 -2 22 9900012 13 -1 21 2 0.75178687D-02 0.17727724D-01 0.27869313D+04 0.27869313D+04 0.27869313D+04 0.12714824D+01  1  2  1  1  6  1       -2 0.773332529493D-08 0.100000000000D+01
  </mgrwgt>
  </event>
  <event>
  7     66 0.46571992E-06 0.43941267E+02 0.78161638E-02 0.12408241E+00
       21 -1    0    0  502  501 0.00000000E+00 0.00000000E+00 0.18443645E+02 0.18443645E+02 0.00000000E+00 0.0000E+00 0.9000E+01
       22 -1    0    0    0    0 0.00000000E+00 0.00000000E+00 -.41875237E+03 0.41875237E+03 0.00000000E+00 0.0000E+00 0.9000E+01
      -24  2    1    2    0    0 0.29776059E+02 -.31926248E+02 -.10682105E+03 0.13791267E+03 0.75519997E+02 0.0000E+00 0.0000E+00
  9900012  1    3    3    0    0 -.10879061E+01 -.22515960E+02 -.63765028E+02 0.84107852E+02 0.50000000E+02 0.0000E+00 0.9000E+01
       13  1    3    3    0    0 0.30863965E+02 -.94102884E+01 -.43056020E+02 0.53804821E+02 0.00000000E+00 0.0000E+00 0.9000E+01
        4  1    1    2  502    0 0.33972802E+00 -.46738701E+00 -.12757334E+03 0.12757465E+03 0.00000000E+00 0.0000E+00 0.9000E+01
       -3  1    1    2    0  501 -.30115787E+02 0.32393635E+02 -.16591433E+03 0.17170869E+03 0.00000000E+00 0.0000E+00 0.9000E+01
#aMCatNLO 2  0  0  1  5 0.53550332D+02 0.00000000D+00  -5  6  0 0.00000000D+00 0.00000000D+00 0.00000000D+00 0.00000000D+00 0.00000000D+00
  <mgrwgt>
 0.1196398714D-03    1    2    0
 0.732810787497191D+02 0.000000000000000D+00 0.000000000000000D+00 0.732810787497191D+02
 0.732810787497191D+02 0.000000000000000D+00 0.000000000000000D+00 -.732810787497191D+02
 0.590927613240227D+02 -.951011661358923D+00 -.227042946307537D+02 0.218074533826810D+02
 0.336451474320235D+02 0.309418352666160D+02 -.951742003805769D+01 0.916610560027409D+01
 0.000000000000000D+00 0.000000000000000D+00 -.000000000000000D+00 -.000000000000000D+00
 0.538242487433920D+02 -.299908236052570D+02 0.322217146688114D+02 -.309735589829551D+02
 0.732842478850041D+02 0.000000000000000D+00 0.000000000000000D+00 0.732842478850041D+02
 0.105388540057871D+03 0.000000000000000D+00 0.000000000000000D+00 -.105388540057871D+03
 0.590230209392739D+02 -.108790608727492D+01 -.225159596310134D+02 0.218074533826810D+02
 0.335433353012023D+02 0.308639648195369D+02 -.941028835221825D+01 0.916610560027409D+01
 0.321094914575875D+02 0.339728019200302D+00 -.467387009951118D+00 -.321042921728666D+02
 0.539969402448112D+02 -.301157867514623D+02 0.323936349931828D+02 -.309735589829551D+02
0.516941927489D-07 0.000000000000D+00 0.000000000000D+00 0.167442113401D-08 0.212630342916D-08  6 21 22 9900012 13 4 -3 2 0.28374838D-02 0.64423441D-01 0.43508056D+04 0.43508056D+04 0.43508056D+04 0.12487055D+01  1  2  1  3  5  1       -4 0.119639871363D-03 0.100000000000D+01
  </mgrwgt>
  </event>
</LesHouchesEvents>
