<LesHouchesEvents version="3.0">
  <!--
  <scalesfunctionalform>
    muR  H_T/2 := sum_i mT(i)/2, i=final state
    muF1 H_T/2 := sum_i mT(i)/2, i=final state
    muF2 H_T/2 := sum_i mT(i)/2, i=final state
    QES  H_T/2 := sum_i mT(i)/2, i=final state
  </scalesfunctionalform>
PYTHIA8   
  -->
  <header>
        4
  </header>
  <init>
   2212   2212 0.65000000D+04 0.65000000D+04 -1 -1  82200  82200 -4   1
 0.24308238D-05 0.49388845D-07 0.79365728D-06     66
  </init>
  <event>
  7     66 0.79365728E-06 0.34840188E+02 0.78161638E-02 0.12584369E+00
       22 -1    0    0    0    0 0.00000000E+00 0.00000000E+00 0.17329356E+02 0.17329356E+02 0.00000000E+00 0.0000E+00 0.9000E+01
       -2 -1    0    0    0  502 0.00000000E+00 0.00000000E+00 -.40929312E+03 0.40929312E+03 0.00000000E+00 0.0000E+00 0.9000E+01
      -24  2    1    2    0    0 0.48468217E+01 -.36430140E+02 -.92970133E+02 0.12524783E+03 0.75451476E+02 0.0000E+00 0.0000E+00
  9900012  1    3    3    0    0 0.19638656E+02 -.11506974E+02 -.60103885E+02 0.81428277E+02 0.50000000E+02 0.0000E+00 0.9000E+01
       13  1    3    3    0    0 -.14791834E+02 -.24923166E+02 -.32866248E+02 0.43819548E+02 0.00000000E+00 0.0000E+00 0.9000E+01
       -1  1    1    2    0  501 -.19811024E+01 0.55464796E+01 -.28060853E+02 0.28672280E+02 0.00000000E+00 0.0000E+00 0.9000E+01
       21  1    1    2  501  502 -.28657192E+01 0.30883661E+02 -.27093278E+03 0.27270237E+03 0.00000000E+00 0.0000E+00 0.9000E+01
#aMCatNLO 2  0  0  2  5 0.43469869D+02 0.00000000D+00  -5  6  0 0.00000000D+00 0.00000000D+00 0.00000000D+00 0.00000000D+00 0.00000000D+00
  <mgrwgt>
 0.2700355001D-05    1    2    0
 0.449468755918856D+02 0.000000000000000D+00 0.000000000000000D+00 0.449468755918856D+02
 0.152016023325930D+03 0.000000000000000D+00 0.000000000000000D+00 -.152016023325930D+03
 0.539232156053663D+02 0.179465862987222D+02 0.672834285785832D+01 0.635315857132839D+01
 0.226884041172471D+02 -.155940488041223D+02 -.162777526893587D+02 0.257373088458080D+01
 0.132821314611578D+02 -.235253749459995D+01 0.954940983150037D+01 -.892688945590920D+01
 0.107069147734044D+03 -.000000000000000D+00 0.000000000000000D+00 -.107069147734044D+03
 0.501053418178452D+02 0.000000000000000D+00 0.000000000000000D+00 0.501053418178452D+02
 0.141557486552211D+03 0.000000000000000D+00 0.000000000000000D+00 -.141557486552211D+03
 0.553032537843454D+02 0.196386557402510D+02 -.115069742338798D+02 0.635315857132839D+01
 0.290961622310890D+02 -.147918340776881D+02 -.249231661417595D+02 0.257373088458080D+01
 0.106947444281432D+02 -.198110244573042D+01 0.554647961546761D+01 -.892688945590920D+01
 0.965686679264782D+02 -.286571921683245D+01 0.308836607601718D+02 -.914521447343655D+02
0.258059610997D-07 0.000000000000D+00 0.000000000000D+00 0.343357023102D-08 0.292091399743D-08  6 22 -2 9900012 13 -1 21 2 0.26660548D-02 0.62968172D-01 0.36496840D+04 0.36496840D+04 0.36496840D+04 0.12575367D+01  1  2  1  1  6  2       -2 0.270035500093D-05 0.100000000000D+01
  </mgrwgt>
  </event>
  <event>
  7     66 0.79365728E-06 0.54052407E+02 0.78161638E-02 0.12069334E+00
       22 -1    0    0    0    0 0.00000000E+00 0.00000000E+00 0.69961498E+03 0.69961498E+03 0.00000000E+00 0.0000E+00 0.9000E+01
       -2 -1    0    0    0  501 0.00000000E+00 0.00000000E+00 -.10205448E+02 0.10205448E+02 0.00000000E+00 0.0000E+00 0.9000E+01
      -24  2    1    2    0    0 0.60211082E+02 0.11779797E+02 0.46384240E+03 0.47487043E+03 0.81166623E+02 0.0000E+00 0.0000E+00
  9900012  1    3    3    0    0 0.33665955E+02 -.88508791E+01 0.20523088E+03 0.21408281E+03 0.50000000E+02 0.0000E+00 0.9000E+01
       13  1    3    3    0    0 0.26545126E+02 0.20630676E+02 0.25861151E+03 0.26078762E+03 0.00000000E+00 0.0000E+00 0.9000E+01
       -1  1    1    2    0  502 -.42801129E+02 -.14527939E+02 0.18937296E+03 0.19469236E+03 0.00000000E+00 0.0000E+00 0.9000E+01
       21  1    1    2  502  501 -.17409953E+02 0.27481421E+01 0.36194174E+02 0.40257632E+02 0.00000000E+00 0.0000E+00 0.9000E+01
#aMCatNLO 2  0  0  5  2 0.11022464D+02 0.00000000D+00  -5  6  0 0.00000000D+00 0.00000000D+00 0.00000000D+00 0.00000000D+00 0.00000000D+00
  <mgrwgt>
 0.2361882595D-05    2    2    0
 0.844978359077913D+02 0.000000000000000D+00 0.000000000000000D+00 0.844978359077913D+02
 0.844978359077913D+02 -.000000000000000D+00 -.000000000000000D+00 -.844978359077913D+02
 0.627345395802347D+02 0.352242419409943D+02 -.854601326571903D+01 -.110381562449751D+02
 0.412549811344915D+02 0.275651771796689D+02 0.208302406626622D+02 0.225440801408326D+02
 0.650061511008564D+02 -.627894191206632D+02 -.122842273969431D+02 -.115059238958575D+02
 0.000000000000000D+00 0.000000000000000D+00 0.000000000000000D+00 -.000000000000000D+00
 0.844978359077913D+02 0.000000000000000D+00 0.000000000000000D+00 0.844978359077913D+02
 0.844978359077913D+02 -.000000000000000D+00 -.000000000000000D+00 -.844978359077913D+02
 0.619674183583912D+02 0.336659553823074D+02 -.885087906483917D+01 -.113237063711474D+02
 0.403746346605865D+02 0.265451263706283D+02 0.206306762094442D+02 0.223571596828463D+02
 0.452147176703171D+02 -.428011285722416D+02 -.145279392185385D+02 0.117178027435995D+01
 0.214389011262877D+02 -.174099531806941D+02 0.274814207393354D+01 -.122052335860588D+02
-.312628614742D-07 0.000000000000D+00 0.000000000000D+00 0.811651504531D-07 0.000000000000D+00  6 22 -2 9900012 13 -1 21 2 0.10763307D+00 0.15700689D-02 0.61912127D+04 0.61912127D+04 0.61912127D+04 0.12315345D+01  1  2 13  2  6  5       -1 -.382318713575D-05 0.100000000000D+01
0.505763833551D-07 0.000000000000D+00 0.000000000000D+00 0.811651504531D-07 0.512159380658D-08  6 22 -2 9900012 13 -1 21 2 0.10763307D+00 0.15700689D-02 0.61912127D+04 0.61912127D+04 0.61912127D+04 0.12315345D+01  1  2  1  2  6  5       -1 0.618506973125D-05 0.100000000000D+01
  </mgrwgt>
  </event>
  <event>
  6     66 0.79365728E-06 0.24081688E+02 0.78161638E-02 0.12728587E+00
       22 -1    0    0    0    0 0.00000000E+00 0.00000000E+00 0.70157038E+02 0.70157038E+02 0.00000000E+00 0.0000E+00 0.9000E+01
       -2 -1    0    0    0  501 0.00000000E+00 0.00000000E+00 -.11836674E+03 0.11836674E+03 0.00000000E+00 0.0000E+00 0.9000E+01
      -24  2    1    2    0    0 -.72157858E+01 -.22975207E+02 -.10060861E+03 0.13085599E+03 0.80132822E+02 0.0000E+00 0.0000E+00
  9900012  1    3    3    0    0 0.15203883E+02 -.27192299E+02 -.84166083E+02 0.10273514E+03 0.50000000E+02 0.0000E+00 0.9000E+01
       13  1    3    3    0    0 -.22419669E+02 0.42170920E+01 -.16442529E+02 0.28120849E+02 0.00000000E+00 0.0000E+00 0.9000E+01
       -1  1    1    2    0  501 0.72157858E+01 0.22975207E+02 0.52398912E+02 0.57667787E+02 0.00000000E+00 0.0000E+00 0.9000E+01
#aMCatNLO 1  0  0  2  5 0.44782379D+02 0.00000000D+00  -5  6  0 0.00000000D+00 0.00000000D+00 0.00000000D+00 0.00000000D+00 0.00000000D+00
  <mgrwgt>
 0.4310953820D-05    4    2    0
 0.911277108706143D+02 0.000000000000000D+00 0.000000000000000D+00 0.911277108706143D+02
 0.911277108706143D+02 0.000000000000000D+00 0.000000000000000D+00 -.911277108706143D+02
 0.840051530780511D+02 0.152038829238971D+02 -.271922992582387D+02 -.598856122015431D+02
 0.247386841781164D+02 -.224196687222597D+02 0.421709201441122D+01 -.956959164179465D+01
 0.735115844850611D+02 0.721578579836264D+01 0.229752072438275D+02 0.694552038433378D+02
 0.000000000000000D+00 -.000000000000000D+00 0.000000000000000D+00 0.000000000000000D+00
 0.116137275449098D+03 0.000000000000000D+00 0.000000000000000D+00 0.116137275449098D+03
 0.915960731954202D+02 0.000000000000000D+00 0.000000000000000D+00 -.915960731954202D+02
 0.848870353118653D+02 0.179950029593944D+02 -.282081917849344D+02 -.598856122015431D+02
 0.239619979929818D+02 -.216148390196786D+02 0.392415567712854D+01 -.956959164179465D+01
 0.735191631823218D+02 0.964562266388510D+01 0.220908120614705D+02 0.694552038433378D+02
 0.253651521573490D+02 -.602578660360096D+01 0.219322404633532D+01 0.245412022536775D+02
0.610707911670D-07 0.000000000000D+00 0.000000000000D+00 0.273745054526D-06 0.000000000000D+00  6 22 -2 9900012 13 -1 21 0 0.10793390D-01 0.18210267D-01 0.27987351D+04 0.27987351D+04 0.27987351D+04 0.12712601D+01  1  2  2  1  6  2       -2 0.497536434921D-05 0.100000000000D+01
-.348881693098D-08 0.000000000000D+00 -.117263959195D-09 0.273745054526D-06 0.000000000000D+00  6 22 -2 9900012 13 -1 21 2 0.10793390D-01 0.18210267D-01 0.27987351D+04 0.27987351D+04 0.27987351D+04 0.12712601D+01  1  2  3  1  6  2       -2 -.459344333007D-06 0.100000000000D+01
0.300160252797D-09 0.000000000000D+00 0.000000000000D+00 0.273745054526D-06 0.000000000000D+00  6 22 -2 9900012 13 -1 21 2 0.10793390D-01 0.18210267D-01 0.27987351D+04 0.27987351D+04 0.27987351D+04 0.12712601D+01  1  2 15  1  6  2       -2 0.395196749626D-07 0.100000000000D+01
-.185768118985D-08 0.000000000000D+00 0.000000000000D+00 0.273745054526D-06 0.000000000000D+00  6 22 -2 9900012 13 -1 21 2 0.10793390D-01 0.18210267D-01 0.27987351D+04 0.27987351D+04 0.27987351D+04 0.12712601D+01  1  2  4  1  6  2       -2 -.244585870791D-06 0.100000000000D+01
  </mgrwgt>
  </event>
  <event>
  7     66 0.79365728E-06 0.89110915E+02 0.78161638E-02 0.11422108E+00
       22 -1    0    0    0    0 0.00000000E+00 0.00000000E+00 0.85893088E+03 0.85893088E+03 0.00000000E+00 0.0000E+00 0.9000E+01
       -2 -1    0    0    0  502 0.00000000E+00 0.00000000E+00 -.34981166E+03 0.34981166E+03 0.00000000E+00 0.0000E+00 0.9000E+01
      -24  2    1    2    0    0 0.44176234E+01 -.97973101E+02 0.84490539E+03 0.85444598E+03 0.81206937E+02 0.0000E+00 0.0000E+00
  9900012  1    3    3    0    0 -.19687347E+02 -.51737050E+02 0.45606246E+03 0.46212259E+03 0.50000000E+02 0.0000E+00 0.9000E+01
       13  1    3    3    0    0 0.24104970E+02 -.46236051E+02 0.38884293E+03 0.39232340E+03 0.00000000E+00 0.0000E+00 0.9000E+01
       -1  1    1    2    0  501 0.10563082E+01 0.92852665E+02 -.22708373E+03 0.24533600E+03 0.00000000E+00 0.0000E+00 0.9000E+01
       21  1    1    2  501  502 -.54739317E+01 0.51204359E+01 -.10870244E+03 0.10896056E+03 0.00000000E+00 0.0000E+00 0.9000E+01
#aMCatNLO 2  0  0  2  5 0.74973279D+01 0.00000000D+00  -5  6  0 0.00000000D+00 0.00000000D+00 0.00000000D+00 0.00000000D+00 0.00000000D+00
  <mgrwgt>
 0.4638549273D-05    2    2    0
 0.454906754567900D+03 0.000000000000000D+00 0.000000000000000D+00 0.454906754567900D+03
 0.454906754567900D+03 0.000000000000000D+00 0.000000000000000D+00 -.454906754567900D+03
 0.248745125501852D+03 -.211844013496801D+02 -.503366723471592D+02 0.237469109606708D+03
 0.209785760045485D+03 0.228416092239836D+02 -.450542756559437D+02 0.203613453020764D+03
 0.451282623588463D+03 -.165720787430348D+01 0.953909480031029D+02 -.441082562627472D+03
 0.000000000000000D+00 -.000000000000000D+00 0.000000000000000D+00 -.000000000000000D+00
 0.454990557156882D+03 0.000000000000000D+00 0.000000000000000D+00 0.454990557156882D+03
 0.660374221483476D+03 0.000000000000000D+00 0.000000000000000D+00 -.660374221483476D+03
 0.248909405171008D+03 -.196873469257245D+02 -.517370499372409D+02 0.237469109606708D+03
 0.210183872592803D+03 0.241049703665378D+02 -.462360514176681D+02 0.203613453020764D+03
 0.450751106841627D+03 0.105630823670573D+01 0.928526654320908D+02 -.441082562627472D+03
 0.205520394034920D+03 -.547393167751903D+01 0.512043592281817D+01 -.205383664326594D+03
-.473475256730D-04 0.000000000000D+00 0.000000000000D+00 0.107138721065D-03 0.000000000000D+00  6 22 -2 9900012 13 -1 21 2 0.13211887D+00 0.53827092D-01 0.12892563D+05 0.12892563D+05 0.12892563D+05 0.11980586D+01  1  2 13  1  6  2       -2 -.155490798291D-04 0.100000000000D+01
0.614740604298D-04 0.000000000000D+00 0.000000000000D+00 0.107138721065D-03 0.205545785074D-04  6 22 -2 9900012 13 -1 21 2 0.13214321D+00 0.53817178D-01 0.12892563D+05 0.12892563D+05 0.12892563D+05 0.11980586D+01  1  2  1  1  6  2       -2 0.201876291022D-04 0.100000000000D+01
  </mgrwgt>
  </event>
</LesHouchesEvents>
