<LesHouchesEvents version="3.0">
  <!--
  <scalesfunctionalform>
    muR  H_T/2 := sum_i mT(i)/2, i=final state
    muF1 H_T/2 := sum_i mT(i)/2, i=final state
    muF2 H_T/2 := sum_i mT(i)/2, i=final state
    QES  H_T/2 := sum_i mT(i)/2, i=final state
  </scalesfunctionalform>
PYTHIA8   
  -->
  <header>
       72
  </header>
  <init>
   2212   2212 0.65000000D+04 0.65000000D+04 -1 -1  82200  82200 -4   1
 0.31315287D-04 0.14632311D-06 0.83052089D-06     66
  </init>
  <event>
  6     66 0.83052089E-06 0.38206279E+02 0.78161638E-02 0.97227107E-01
       22 -1    0    0    0    0 0.00000000E+00 0.00000000E+00 0.20053113E+03 0.20053113E+03 0.00000000E+00 0.0000E+00 0.9000E+01
       -1 -1    0    0    0  501 -.00000000E+00 -.00000000E+00 -.19381294E+04 0.19381294E+04 0.00000000E+00 0.0000E+00 0.9000E+01
       24  2    1    2    0    0 -.31457475E+02 -.21682875E+02 0.19027851E+03 0.21040520E+03 0.81269407E+02 0.0000E+00 0.0000E+00
  9900012  1    3    3    0    0 -.27189223E+02 0.28279677E+00 0.17303637E+03 0.18215630E+03 0.50000000E+02 0.0000E+00 0.9000E+01
      -11  1    3    3    0    0 -.42682520E+01 -.21965672E+02 0.17242143E+02 0.28248898E+02 0.00000000E+00 0.0000E+00 0.9000E+01
       -2  1    1    2    0  501 0.31457475E+02 0.21682875E+02 -.19278768E+04 0.19282554E+04 0.00000000E+00 0.0000E+00 0.9000E+01
#aMCatNLO 1  0  0  5  2 0.16265341D+03 0.00000000D+00  -5  6  0 0.00000000D+00 0.00000000D+00 0.00000000D+00 0.00000000D+00 0.00000000D+00
  <mgrwgt>
 0.1140509627D-02    3    2    0
 0.623422234516216D+03 0.000000000000000D+00 0.000000000000000D+00 0.623422234516216D+03
 0.623422234516216D+03 -.000000000000000D+00 -.000000000000000D+00 -.623422234516216D+03
 0.553588052799428D+03 -.271892225992793D+02 0.282796774995921D+00 0.550654518189666D+03
 0.724827544535426D+02 -.426825201482461D+01 -.219656717597716D+02 0.689423018331450D+02
 0.620773661779462D+03 0.314574746141037D+02 0.216828749847755D+02 -.619596820022811D+03
 0.000000000000000D+00 -.000000000000000D+00 0.000000000000000D+00 0.000000000000000D+00
 0.623422234516216D+03 0.000000000000000D+00 0.000000000000000D+00 0.623422234516216D+03
 0.623422234516216D+03 -.000000000000000D+00 -.000000000000000D+00 -.623422234516216D+03
 0.346682762379835D+03 -.166246725287611D+02 0.756468514205340D+01 0.342571647299257D+03
 0.465401792878794D+02 -.287153480279231D+01 -.210029484302897D+02 0.414320978621516D+02
 0.515558196399518D+03 0.251558395734575D+03 -.232391106970676D+03 -.385373845520315D+03
 0.338063330965200D+03 -.232062188403021D+03 0.245829370258912D+03 0.137010035890616D+01
0.488686133481D-01 0.000000000000D+00 0.000000000000D+00 0.147075113831D-02 0.000000000000D+00  6 22 -1 9900012 -11 -2 21 0 0.30850943D-01 0.29817376D+00 0.34514418D+04 0.34514418D+04 0.34514418D+04 0.12603841D+01  1  2  2  2  6  5       -2 0.131022611642D-02 0.100000000000D+01
0.272398988835D-02 0.000000000000D+00 -.938341713291D-04 0.147075113831D-02 0.000000000000D+00  6 22 -1 9900012 -11 -2 21 2 0.30850943D-01 0.29817376D+00 0.34514418D+04 0.34514418D+04 0.34514418D+04 0.12603841D+01  1  2  3  2  6  5       -2 0.116018592066D-03 0.100000000000D+01
-.670874778255D-02 0.000000000000D+00 0.000000000000D+00 0.147075113831D-02 0.000000000000D+00  6 22 -1 9900012 -11 -2 21 2 0.30850943D-01 0.29817376D+00 0.34514418D+04 0.34514418D+04 0.34514418D+04 0.12603841D+01  1  2 15  2  6  5       -2 -.285735081319D-03 0.100000000000D+01
  </mgrwgt>
  </event>
  <event>
  7     66 -.83052089E-06 0.23425698E+02 0.78161638E-02 0.12880011E+00
       22 -1    0    0    0    0 0.00000000E+00 0.00000000E+00 0.13387780E+03 0.13387780E+03 0.00000000E+00 0.0000E+00 0.9000E+01
       -3 -1    0    0    0  502 0.00000000E+00 0.00000000E+00 -.32232342E+03 0.32232342E+03 0.00000000E+00 0.0000E+00 0.9000E+01
       24  2    1    2    0    0 0.83211184E+01 0.21415154E+02 0.11878764E+03 0.14497714E+03 0.79875013E+02 0.0000E+00 0.0000E+00
  9900012  1    3    3    0    0 -.84401635E+01 0.30636460E+02 0.65292570E+02 0.88164328E+02 0.50000000E+02 0.0000E+00 0.9000E+01
      -11  1    3    3    0    0 0.16761282E+02 -.92213059E+01 0.53495067E+02 0.56812809E+02 0.00000000E+00 0.0000E+00 0.9000E+01
       -4  1    1    2    0  501 -.16775359E+02 -.21995831E+02 -.29527318E+03 0.29656615E+03 0.00000000E+00 0.0000E+00 0.9000E+01
       21  1    1    2  501  502 0.84542404E+01 0.58067688E+00 -.11960081E+02 0.14657929E+02 0.00000000E+00 0.0000E+00 0.9000E+01
#aMCatNLO 2  0  0  2  5 0.94517074D+01 0.00000000D+00  -5  6  0 0.00000000D+00 0.00000000D+00 0.00000000D+00 0.00000000D+00 0.00000000D+00
  <mgrwgt>
 -.4545086085D-04    2    2    0
 0.202324932066734D+03 0.000000000000000D+00 0.000000000000000D+00 0.202324932066734D+03
 0.202324932066734D+03 0.000000000000000D+00 0.000000000000000D+00 -.202324932066734D+03
 0.124547171290956D+03 -.583722110519678D+01 0.308152425326655D+02 0.109673814349647D+03
 0.856611412692580D+02 0.185470659018162D+02 -.909864988108614D+01 0.831327374764411D+02
 0.194441551573255D+03 -.127098447966194D+02 -.217165926515794D+02 -.192806551826088D+03
 0.000000000000000D+00 0.000000000000000D+00 0.000000000000000D+00 -.000000000000000D+00
 0.204429077793743D+03 0.000000000000000D+00 0.000000000000000D+00 0.204429077793743D+03
 0.211085178153786D+03 0.000000000000000D+00 0.000000000000000D+00 -.211085178153786D+03
 0.124652214622170D+03 -.844016350563489D+01 0.306364602428034D+02 0.109673814349647D+03
 0.853054810348633D+02 0.167612819255659D+02 -.922130589852986D+01 0.831327374764411D+02
 0.194780891470209D+03 -.167753588286369D+02 -.219958312194356D+02 -.192806551826088D+03
 0.107756688202872D+02 0.845424040870589D+01 0.580676875162109D+00 -.665610036004314D+01
-.686012230240D-05 0.000000000000D+00 0.000000000000D+00 0.462129380055D-04 0.000000000000D+00  6 22 -3 9900012 -11 -4 21 2 0.20384588D-01 0.50103927D-01 0.32782019D+04 0.32782019D+04 0.32782019D+04 0.12630280D+01  1  2 13  1  6  2       -3 -.450034622437D-04 0.100000000000D+01
-.613398823332D-07 0.000000000000D+00 0.000000000000D+00 0.462129380055D-04 0.000000000000D+00  6 22 -3 9900012 -11 -4 21 2 0.20384588D-01 0.47530257D-01 0.27480445D+04 0.27480445D+04 0.27480445D+04 0.12722224D+01  1  2  8  1  6  2       -3 -.447398603774D-06 0.100000000000D+01
  </mgrwgt>
  </event>
  <event>
  6     66 0.83052089E-06 0.80608851E+02 0.78161638E-02 0.11203232E+00
       22 -1    0    0    0    0 0.00000000E+00 0.00000000E+00 0.26638730E+04 0.26638730E+04 0.00000000E+00 0.0000E+00 0.9000E+01
       -3 -1    0    0    0  501 0.00000000E+00 0.00000000E+00 -.40754089E+01 0.40754089E+01 0.00000000E+00 0.0000E+00 0.9000E+01
       24  2    1    2    0    0 0.74657278E+02 0.30398645E+02 0.20076572E+04 0.20108450E+04 0.79450844E+02 0.0000E+00 0.0000E+00
  9900012  1    3    3    0    0 0.25155157E+02 0.30285750E+02 0.11557983E+04 0.11575490E+04 0.50000000E+02 0.0000E+00 0.9000E+01
      -11  1    3    3    0    0 0.49502121E+02 0.11289507E+00 0.85185894E+03 0.85329604E+03 0.00000000E+00 0.0000E+00 0.9000E+01
       -4  1    1    2    0  501 -.74657278E+02 -.30398645E+02 0.65214041E+03 0.65710342E+03 0.00000000E+00 0.0000E+00 0.9000E+01
#aMCatNLO 1  0  0  2  5 0.11957187D+03 0.00000000D+00  -5  6  0 0.00000000D+00 0.00000000D+00 0.00000000D+00 0.00000000D+00 0.00000000D+00
  <mgrwgt>
 0.4341365815D-04    4    2    0
 0.104193915227791D+03 0.000000000000000D+00 0.000000000000000D+00 0.104193915227791D+03
 0.104193915227791D+03 0.000000000000000D+00 0.000000000000000D+00 -.104193915227791D+03
 0.676215827574591D+02 0.251551568039027D+02 0.302857502534509D+02 0.228619743762554D+02
 0.517182182261277D+02 0.495021214952147D+02 0.112895074554505D+00 0.149766925140537D+02
 0.890480294719962D+02 -.746572782991174D+02 -.303986453280054D+02 -.378386668903092D+02
 0.000000000000000D+00 0.000000000000000D+00 0.000000000000000D+00 0.000000000000000D+00
 0.170261484636760D+03 0.000000000000000D+00 0.000000000000000D+00 0.170261484636760D+03
 0.121220901726367D+03 0.000000000000000D+00 0.000000000000000D+00 -.121220901726367D+03
 0.594320511722919D+02 0.123708552943999D+02 0.188801687876559D+02 0.228619743762554D+02
 0.434667879345817D+02 0.399244826642372D+02 -.843184550868948D+01 0.149766925140537D+02
 0.113207684929863D+03 -.950085107271713D+02 -.485551037950528D+02 -.378386668903092D+02
 0.753758623263906D+02 0.427131727685342D+02 0.381067805160864D+02 0.490405829103933D+02
0.760994953290D-05 0.000000000000D+00 0.000000000000D+00 0.483175809855D-06 0.000000000000D+00  6 22 -3 9900012 -11 -4 21 0 0.40982662D+00 0.62698599D-03 0.93848411D+04 0.93848411D+04 0.93848411D+04 0.12121985D+01  1  2  2  1  6  2       -3 0.560312026749D-04 0.100000000000D+01
-.145881934598D-06 0.000000000000D+00 -.146121049760D-07 0.483175809855D-06 0.000000000000D+00  6 22 -3 9900012 -11 -4 21 2 0.40982662D+00 0.62698599D-03 0.93848411D+04 0.93848411D+04 0.93848411D+04 0.12121985D+01  1  2  3  1  6  2       -3 -.157832771205D-05 0.100000000000D+01
-.875058141037D-06 0.000000000000D+00 0.000000000000D+00 0.483175809855D-06 0.000000000000D+00  6 22 -3 9900012 -11 -4 21 2 0.40982662D+00 0.62698599D-03 0.93848411D+04 0.93848411D+04 0.93848411D+04 0.12121985D+01  1  2 15  1  6  2       -3 -.946744034796D-05 0.100000000000D+01
-.145276415053D-06 0.000000000000D+00 0.000000000000D+00 0.483175809855D-06 0.000000000000D+00  6 22 -3 9900012 -11 -4 21 2 0.40982662D+00 0.62698599D-03 0.93848411D+04 0.93848411D+04 0.93848411D+04 0.12121985D+01  1  2  4  1  6  2       -3 -.157177646716D-05 0.100000000000D+01
  </mgrwgt>
  </event>
  <event>
  6     66 0.83052089E-06 0.33504571E+02 0.78161638E-02 0.11770353E+00
       22 -1    0    0    0    0 0.00000000E+00 0.00000000E+00 0.18409768E+03 0.18409768E+03 0.00000000E+00 0.0000E+00 0.9000E+01
       -1 -1    0    0    0  501 0.00000000E+00 0.00000000E+00 -.12274522E+03 0.12274522E+03 0.00000000E+00 0.0000E+00 0.9000E+01
       24  2    1    2    0    0 0.29403615E+02 -.16061870E+02 0.17126501E+03 0.19193717E+03 0.79910048E+02 0.0000E+00 0.0000E+00
  9900012  1    3    3    0    0 0.33329464E+02 0.93922958E+01 0.12389694E+03 0.13802000E+03 0.50000000E+02 0.0000E+00 0.9000E+01
      -11  1    3    3    0    0 -.39258487E+01 -.25454166E+02 0.47368075E+02 0.53917171E+02 0.00000000E+00 0.0000E+00 0.9000E+01
       -2  1    1    2    0  501 -.29403615E+02 0.16061870E+02 -.10991256E+03 0.11490573E+03 0.00000000E+00 0.0000E+00 0.9000E+01
#aMCatNLO 1  0  0  5  2 0.20584451D+01 0.00000000D+00  -5  6  0 0.00000000D+00 0.00000000D+00 0.00000000D+00 0.00000000D+00 0.00000000D+00
  <mgrwgt>
 0.5781220847D-04    4    2    0
 0.150323352136898D+03 0.000000000000000D+00 0.000000000000000D+00 0.150323352136898D+03
 0.150323352136898D+03 -.000000000000000D+00 -.000000000000000D+00 -.150323352136898D+03
 0.115581093213430D+03 0.333294639096299D+02 0.939229580256109D+01 0.982848957035889D+02
 0.453620590440715D+02 -.392584874554850D+01 -.254541660668072D+02 0.373415257078269D+02
 0.139703552016296D+03 -.294036151640814D+02 0.160618702642461D+02 -.135626421411416D+03
 0.000000000000000D+00 0.000000000000000D+00 -.000000000000000D+00 0.000000000000000D+00
 0.150323352136898D+03 0.000000000000000D+00 0.000000000000000D+00 0.150323352136898D+03
 0.150323352136898D+03 -.000000000000000D+00 -.000000000000000D+00 -.150323352136898D+03
 0.994423388167357D+02 0.293562360332192D+02 0.115626911884710D+02 0.799580785648607D+02
 0.392803261556730D+02 -.548988054071738D+01 -.245998059603042D+02 0.301273095589381D+02
 0.121160152232799D+03 -.294764125023170D+02 0.530726859229919D+02 -.104853295627689D+03
 0.407638870685895D+02 0.561005700981519D+01 -.400355711511588D+02 -.523209249610952D+01
0.316571412200D-05 0.000000000000D+00 0.000000000000D+00 0.114026610636D-04 0.000000000000D+00  6 22 -1 9900012 -11 -2 21 0 0.28322719D-01 0.18883880D-01 0.36047818D+04 0.36047818D+04 0.36047818D+04 0.12581661D+01  1  2  2  2  6  5       -2 0.645618918546D-04 0.100000000000D+01
0.219104876442D-06 0.000000000000D+00 -.607858789007D-08 0.114026610636D-04 0.000000000000D+00  6 22 -1 9900012 -11 -2 21 2 0.28322719D-01 0.18883880D-01 0.36047818D+04 0.36047818D+04 0.36047818D+04 0.12581661D+01  1  2  3  2  6  5       -2 0.707347040999D-05 0.100000000000D+01
-.414785034374D-06 0.000000000000D+00 0.000000000000D+00 0.114026610636D-04 0.000000000000D+00  6 22 -1 9900012 -11 -2 21 2 0.28322719D-01 0.18883880D-01 0.36047818D+04 0.36047818D+04 0.36047818D+04 0.12581661D+01  1  2 15  2  6  5       -2 -.133907091197D-04 0.100000000000D+01
-.133952263578D-07 0.000000000000D+00 0.000000000000D+00 0.114026610636D-04 0.000000000000D+00  6 22 -1 9900012 -11 -2 21 2 0.28322719D-01 0.18883880D-01 0.36047818D+04 0.36047818D+04 0.36047818D+04 0.12581661D+01  1  2  4  2  6  5       -2 -.432444675881D-06 0.100000000000D+01
  </mgrwgt>
  </event>
  <event>
  6     66 0.83052089E-06 0.60835358E+02 0.78161638E-02 0.10852592E+00
       22 -1    0    0    0    0 0.00000000E+00 0.00000000E+00 0.16211487E+04 0.16211487E+04 0.00000000E+00 0.0000E+00 0.9000E+01
       -1 -1    0    0    0  501 0.00000000E+00 0.00000000E+00 -.57383752E+03 0.57383752E+03 0.00000000E+00 0.0000E+00 0.9000E+01
       24  2    1    2    0    0 0.79563250E+02 -.99494279E+02 0.16104900E+04 0.16175784E+04 0.81562562E+02 0.0000E+00 0.0000E+00
  9900012  1    3    3    0    0 0.45425810E+02 -.30397795E+02 0.82157809E+03 0.82491096E+03 0.50000000E+02 0.0000E+00 0.9000E+01
      -11  1    3    3    0    0 0.34137440E+02 -.69096484E+02 0.78891194E+03 0.79266749E+03 0.00000000E+00 0.0000E+00 0.9000E+01
       -2  1    1    2    0  501 -.79563250E+02 0.99494279E+02 -.56317881E+03 0.57740783E+03 0.00000000E+00 0.0000E+00 0.9000E+01
#aMCatNLO 1  0  0  5  2 0.49423996D+02 0.00000000D+00  -5  6  0 0.00000000D+00 0.00000000D+00 0.00000000D+00 0.00000000D+00 0.00000000D+00
  <mgrwgt>
 0.6342620579D-03    7    2    0
 0.964508155898485D+03 0.000000000000000D+00 0.000000000000000D+00 0.964508155898485D+03
 0.964508155898485D+03 -.000000000000000D+00 -.000000000000000D+00 -.964508155898485D+03
 0.492593177631462D+03 0.454258101985830D+02 -.303977951949017D+02 0.486991281712673D+03
 0.473639290137696D+03 0.341374401293007D+02 -.690964836201956D+02 0.467326960804620D+03
 0.962783844027812D+03 -.795632503278838D+02 0.994942788150973D+02 -.954318242517294D+03
 0.000000000000000D+00 0.000000000000000D+00 0.000000000000000D+00 -.000000000000000D+00
 0.964508155898485D+03 0.000000000000000D+00 0.000000000000000D+00 0.964508155898485D+03
 0.964508155898485D+03 -.000000000000000D+00 -.000000000000000D+00 -.964508155898485D+03
 0.490635701152934D+03 0.452630553698815D+02 -.301942693932458D+02 0.485039125391161D+03
 0.471747463155132D+03 0.339809493442873D+02 -.689007910393627D+02 0.465449938306058D+03
 0.765987744343991D+03 -.418387154590965D+02 0.123256342553496D+03 -.754847415306076D+03
 0.200645403144913D+03 -.374052892550723D+02 -.241612821208871D+02 -.195641648391144D+03
0.170684827672D-02 0.000000000000D+00 0.000000000000D+00 0.802059529688D-03 0.000000000000D+00  6 22 -1 9900012 -11 -2 21 0 0.24940750D+00 0.88282696D-01 0.19396410D+05 0.19396410D+05 0.19396410D+05 0.11805937D+01  1  2  2  2  6  5       -2 0.388666024572D-04 0.100000000000D+01
0.229372980652D-04 0.000000000000D+00 -.327737340303D-05 0.802059529688D-03 0.000000000000D+00  6 22 -1 9900012 -11 -2 21 2 0.24940750D+00 0.88282696D-01 0.19396410D+05 0.19396410D+05 0.19396410D+05 0.11805937D+01  1  2  3  2  6  5       -2 0.727989083820D-06 0.100000000000D+01
-.225184793445D-03 0.000000000000D+00 0.000000000000D+00 0.802059529688D-03 0.000000000000D+00  6 22 -1 9900012 -11 -2 21 2 0.24940750D+00 0.88282696D-01 0.19396410D+05 0.19396410D+05 0.19396410D+05 0.11805937D+01  1  2 15  2  6  5       -2 -.714696521815D-05 0.100000000000D+01
0.170899867474D-01 0.000000000000D+00 0.000000000000D+00 0.802059529688D-03 0.000000000000D+00  6 22 -1 9900012 -11 -2 21 2 0.24940750D+00 0.88282696D-01 0.26473437D+05 0.26473437D+05 0.26473437D+05 0.11678086D+01  1  2 12  2  6  5       -2 0.531482410627D-03 0.100000000000D+01
-.229265290623D-02 0.000000000000D+00 0.000000000000D+00 0.802059529688D-03 0.000000000000D+00  6 22 -1 9900012 -11 -2 21 2 0.24940750D+00 0.88282696D-01 0.19396410D+05 0.19396410D+05 0.19396410D+05 0.11805937D+01  1  2  4  2  6  5       -2 -.727647294803D-04 0.100000000000D+01
-.196423923476D-01 0.000000000000D+00 0.000000000000D+00 0.802059529688D-03 0.000000000000D+00  6 22 -1 9900012 -11 -2 21 2 0.24940750D+00 0.88282696D-01 0.19396410D+05 0.19396410D+05 0.19396410D+05 0.11805937D+01  1  2  5  2  6  5       -2 -.623414630986D-03 0.100000000000D+01
0.241510489877D-01 0.000000000000D+00 -.000000000000D+00 0.802059529688D-03 0.000000000000D+00  6 22 -1 9900012 -11 -2 21 2 0.24940750D+00 0.88282696D-01 0.19396410D+05 0.19396410D+05 0.19396410D+05 0.11805937D+01  1  2  6  2  6  5       -2 0.766511381414D-03 0.100000000000D+01
  </mgrwgt>
  </event>
  <event>
  6     66 0.83052089E-06 0.26248510E+02 0.78161638E-02 0.12717833E+00
       22 -1    0    0    0    0 0.00000000E+00 0.00000000E+00 0.23324533E+02 0.23324533E+02 0.00000000E+00 0.0000E+00 0.9000E+01
       -3 -1    0    0    0  501 -.00000000E+00 -.00000000E+00 -.20055817E+03 0.20055817E+03 0.00000000E+00 0.0000E+00 0.9000E+01
       24  2    1    2    0    0 0.11845210E+02 -.23423818E+02 -.59623978E+02 0.10337952E+03 0.80270313E+02 0.0000E+00 0.0000E+00
  9900012  1    3    3    0    0 0.21680947E+02 0.46214407E+01 -.37121242E+02 0.66101496E+02 0.50000000E+02 0.0000E+00 0.9000E+01
      -11  1    3    3    0    0 -.98357371E+01 -.28045259E+02 -.22502736E+02 0.37278028E+02 0.00000000E+00 0.0000E+00 0.9000E+01
       -4  1    1    2    0  501 -.11845210E+02 0.23423818E+02 -.11760966E+03 0.12050318E+03 0.00000000E+00 0.0000E+00 0.9000E+01
#aMCatNLO 1  0  0  5  2 0.63885640D+01 0.00000000D+00  -5  6  0 0.00000000D+00 0.00000000D+00 0.00000000D+00 0.00000000D+00 0.00000000D+00
  <mgrwgt>
 0.1650798933D-04    8    2    0
 0.683953630758240D+02 0.000000000000000D+00 0.000000000000000D+00 0.683953630758240D+02
 0.683953630758240D+02 -.000000000000000D+00 -.000000000000000D+00 -.683953630758240D+02
 0.600906881937232D+02 0.216809469456535D+02 0.462144071896505D+01 0.248891468880738D+02
 0.318564289224051D+02 -.983573708792870D+01 -.280452590257334D+02 0.114696898739639D+02
 0.448436090355197D+02 -.118452098577248D+02 0.234238183067683D+02 -.363588367620377D+02
 0.000000000000000D+00 0.000000000000000D+00 0.000000000000000D+00 -.000000000000000D+00
 0.683953630758240D+02 0.000000000000000D+00 0.000000000000000D+00 0.683953630758240D+02
 0.683953630758240D+02 -.000000000000000D+00 -.000000000000000D+00 -.683953630758240D+02
 0.595602009787607D+02 0.213132163497299D+02 0.534862535885034D+01 0.237603989072286D+02
 0.313681497906637D+02 -.100300491583861D+02 -.276610082874285D+02 0.108732495461424D+02
 0.376903868059312D+02 -.946753579964483D+01 0.245492920341660D+02 -.269863536641093D+02
 0.817198857629243D+01 -.181563139169893D+01 -.223690910558786D+01 -.764729478926172D+01
0.531801152536D-07 0.000000000000D+00 0.000000000000D+00 0.409686511276D-06 0.000000000000D+00  6 22 -3 9900012 -11 -4 21 0 0.35883897D-02 0.30855103D-01 0.30615413D+04 0.30615413D+04 0.30615413D+04 0.12665664D+01  1  2  2  2  6  5       -4 0.622538345915D-05 0.100000000000D+01
0.232614063890D-08 0.000000000000D+00 -.102112822610D-09 0.409686511276D-06 0.000000000000D+00  6 22 -3 9900012 -11 -4 21 2 0.35883897D-02 0.30855103D-01 0.30615413D+04 0.30615413D+04 0.30615413D+04 0.12665664D+01  1  2  3  2  6  5       -4 0.436826250846D-06 0.100000000000D+01
-.642969028568D-08 0.000000000000D+00 0.000000000000D+00 0.409686511276D-06 0.000000000000D+00  6 22 -3 9900012 -11 -4 21 2 0.35883897D-02 0.30855103D-01 0.30615413D+04 0.30615413D+04 0.30615413D+04 0.12665664D+01  1  2 15  2  6  5       -4 -.120743236872D-05 0.100000000000D+01
0.693066297033D-07 0.000000000000D+00 0.000000000000D+00 0.409686511276D-06 0.000000000000D+00  6 22 -3 9900012 -11 -4 21 2 0.35883897D-02 0.30855103D-01 0.32053473D+04 0.32053473D+04 0.32053473D+04 0.12641875D+01  1  2 12  2  6  5       -4 0.130355246196D-04 0.100000000000D+01
-.294072674203D-07 0.000000000000D+00 0.000000000000D+00 0.409686511276D-06 0.000000000000D+00  6 22 -3 9900012 -11 -4 21 2 0.35883897D-02 0.30855103D-01 0.30615413D+04 0.30615413D+04 0.30615413D+04 0.12665664D+01  1  2  4  2  6  5       -4 -.552239454486D-05 0.100000000000D+01
-.766685224056D-07 0.000000000000D+00 0.000000000000D+00 0.409686511276D-06 0.000000000000D+00  6 22 -3 9900012 -11 -4 21 2 0.35883897D-02 0.30855103D-01 0.30615413D+04 0.30615413D+04 0.30615413D+04 0.12665664D+01  1  2  5  2  6  5       -4 -.143975917192D-04 0.100000000000D+01
0.918877668547D-07 0.000000000000D+00 -.000000000000D+00 0.409686511276D-06 0.000000000000D+00  6 22 -3 9900012 -11 -4 21 2 0.35883897D-02 0.30855103D-01 0.30615413D+04 0.30615413D+04 0.30615413D+04 0.12665664D+01  1  2  6  2  6  5       -4 0.172556155989D-04 0.100000000000D+01
0.362633227276D-08 0.000000000000D+00 0.000000000000D+00 0.409686511276D-06 0.184295967657D-06  6 22 -3 9900012 -11 -4 21 2 0.35883897D-02 0.30855103D-01 0.32053473D+04 0.32053473D+04 0.32053473D+04 0.12641875D+01  1  2 11  2  6  5       -4 0.682058034315D-06 0.100000000000D+01
  </mgrwgt>
  </event>
  <event>
  6     66 0.83052089E-06 0.60478289E+02 0.78161638E-02 0.11705891E+00
       22 -1    0    0    0    0 0.00000000E+00 0.00000000E+00 0.87640422E+03 0.87640422E+03 0.00000000E+00 0.0000E+00 0.9000E+01
       -1 -1    0    0    0  501 0.00000000E+00 0.00000000E+00 -.35436583E+02 0.35436583E+02 0.00000000E+00 0.0000E+00 0.9000E+01
       24  2    1    2    0    0 -.59998991E+01 -.60179935E+02 0.84529025E+03 0.85120824E+03 0.79888853E+02 0.0000E+00 0.0000E+00
  9900012  1    3    3    0    0 -.17378056E+02 -.33625932E+02 0.39069245E+03 0.39569343E+03 0.50000000E+02 0.0000E+00 0.9000E+01
      -11  1    3    3    0    0 0.11378157E+02 -.26554004E+02 0.45459780E+03 0.45551481E+03 0.00000000E+00 0.0000E+00 0.9000E+01
       -2  1    1    2    0  501 0.59998991E+01 0.60179935E+02 -.43226123E+01 0.60632568E+02 0.00000000E+00 0.0000E+00 0.9000E+01
#aMCatNLO 1  0  0  5  5 0.85855573D+02 0.00000000D+00  -5  6  0 0.00000000D+00 0.00000000D+00 0.00000000D+00 0.00000000D+00 0.00000000D+00
  <mgrwgt>
 0.7735022152D-04    4    2    0
 0.176229312989507D+03 0.000000000000000D+00 0.000000000000000D+00 0.176229312989507D+03
 0.176229312989507D+03 -.000000000000000D+00 -.000000000000000D+00 -.176229312989507D+03
 0.914992740188290D+02 -.173780557885928D+02 -.336259315407117D+02 0.666289505470458D+02
 0.937839084801690D+02 0.113781567330992D+02 -.265540035998057D+02 0.892235615294259D+02
 0.167175443480015D+03 0.599989905549357D+01 0.601799351405174D+02 -.155852512076472D+03
 0.000000000000000D+00 0.000000000000000D+00 0.000000000000000D+00 0.000000000000000D+00
 0.176229312989507D+03 0.000000000000000D+00 0.000000000000000D+00 0.176229312989507D+03
 0.176229312989507D+03 -.000000000000000D+00 -.000000000000000D+00 -.176229312989507D+03
 0.714653230581048D+02 -.164268577509494D+02 -.240852649925381D+02 0.419207675796683D+02
 0.680318577114516D+02 0.123226492303780D+02 -.170805946805504D+02 0.646895607109447D+02
 0.137790952916299D+03 -.396932003950873D+02 -.147964178084199D+02 -.131117743147203D+03
 0.751704922931581D+02 0.437974089156587D+02 0.559622774815084D+02 0.245074148565894D+02
0.111926311781D-04 0.000000000000D+00 0.000000000000D+00 0.139839058505D-04 0.000000000000D+00  6 22 -1 9900012 -11 -2 21 0 0.13483142D+00 0.54517820D-02 0.57819743D+04 0.57819743D+04 0.57819743D+04 0.12348044D+01  1  2  2  2  6  5       -2 0.961212177647D-04 0.100000000000D+01
0.227899936003D-06 0.000000000000D+00 -.214913254057D-07 0.139839058505D-04 0.000000000000D+00  6 22 -1 9900012 -11 -2 21 2 0.13483142D+00 0.54517820D-02 0.57819743D+04 0.57819743D+04 0.57819743D+04 0.12348044D+01  1  2  3  2  6  5       -2 0.298419783883D-05 0.100000000000D+01
-.161210798520D-05 0.000000000000D+00 0.000000000000D+00 0.139839058505D-04 0.000000000000D+00  6 22 -1 9900012 -11 -2 21 2 0.13483142D+00 0.54517820D-02 0.57819743D+04 0.57819743D+04 0.57819743D+04 0.12348044D+01  1  2 15  2  6  5       -2 -.211094801067D-04 0.100000000000D+01
-.493124723169D-07 0.000000000000D+00 0.000000000000D+00 0.139839058505D-04 0.000000000000D+00  6 22 -1 9900012 -11 -2 21 2 0.13483142D+00 0.54517820D-02 0.57819743D+04 0.57819743D+04 0.57819743D+04 0.12348044D+01  1  2  4  2  6  5       -2 -.645713973844D-06 0.100000000000D+01
  </mgrwgt>
  </event>
  <event>
  6     66 0.83052089E-06 0.32067767E+02 0.78161638E-02 0.12334400E+00
       22 -1    0    0    0    0 0.00000000E+00 0.00000000E+00 0.59983635E+03 0.59983635E+03 0.00000000E+00 0.0000E+00 0.9000E+01
       -1 -1    0    0    0  501 0.00000000E+00 0.00000000E+00 -.84490938E+01 0.84490938E+01 0.00000000E+00 0.0000E+00 0.9000E+01
       24  2    1    2    0    0 -.21851487E+02 -.27837392E+02 0.53300526E+03 0.54001491E+03 0.79177596E+02 0.0000E+00 0.0000E+00
  9900012  1    3    3    0    0 0.84923378E+00 -.12246805E+02 0.44046992E+03 0.44346867E+03 0.50000000E+02 0.0000E+00 0.9000E+01
      -11  1    3    3    0    0 -.22700721E+02 -.15590587E+02 0.92535334E+02 0.96546244E+02 0.00000000E+00 0.0000E+00 0.9000E+01
       -2  1    1    2    0  501 0.21851487E+02 0.27837392E+02 0.58381999E+02 0.68270533E+02 0.00000000E+00 0.0000E+00 0.9000E+01
#aMCatNLO 1  0  0  2  5 0.35018836D+02 0.00000000D+00  -5  6  0 0.00000000D+00 0.00000000D+00 0.00000000D+00 0.00000000D+00 0.00000000D+00
  <mgrwgt>
 0.6227956133D-04    6    4    0
 0.711904035169501D+02 0.000000000000000D+00 0.000000000000000D+00 0.711904035169501D+02
 0.711904035169501D+02 0.000000000000000D+00 0.000000000000000D+00 -.711904035169501D+02
 0.650876742704237D+02 0.849233779542997D+00 -.122468051154933D+02 0.398208476602844D+02
 0.281179565977848D+02 -.227007206710586D+02 -.155905868407134D+02 -.567717942394420D+01
 0.491751761656918D+02 0.218514868915156D+02 0.278373919562066D+02 -.341436682363402D+02
 0.000000000000000D+00 -.000000000000000D+00 -.000000000000000D+00 0.000000000000000D+00
 0.870965142183497D+02 0.000000000000000D+00 0.000000000000000D+00 0.870965142183497D+02
 0.783332779220046D+02 0.000000000000000D+00 0.000000000000000D+00 -.783332779220046D+02
 0.641137394756401D+02 0.338559631798169D+01 -.366188731917499D+01 0.398208476602844D+02
 0.254117799688013D+02 -.216498744412578D+02 -.120337496919657D+02 -.567717942394420D+01
 0.542288654625012D+02 0.238814193040539D+02 0.347081774332902D+02 -.341436682363402D+02
 0.216754072334117D+02 -.561714118077775D+01 -.190125404221495D+02 0.876323629634508D+01
 0.711904035169501D+02 0.000000000000000D+00 0.000000000000000D+00 0.711904035169501D+02
 0.711904035169501D+02 0.000000000000000D+00 0.000000000000000D+00 -.711904035169501D+02
 0.650876742704237D+02 0.849233779542997D+00 -.122468051154933D+02 0.398208476602844D+02
 0.281179565977848D+02 -.227007206710586D+02 -.155905868407134D+02 -.567717942394420D+01
 0.000000000000000D+00 -.000000000000000D+00 -.000000000000000D+00 0.000000000000000D+00
 0.491751761656918D+02 0.218514868915156D+02 0.278373919562066D+02 -.341436682363402D+02
 0.870965142183497D+02 0.000000000000000D+00 0.000000000000000D+00 0.870965142183497D+02
 0.783332779220046D+02 0.000000000000000D+00 0.000000000000000D+00 -.783332779220046D+02
 0.641137394756401D+02 0.338559631798169D+01 -.366188731917499D+01 0.398208476602844D+02
 0.254117799688013D+02 -.216498744412578D+02 -.120337496919657D+02 -.567717942394420D+01
 0.216754072334117D+02 -.561714118077775D+01 -.190125404221495D+02 0.876323629634508D+01
 0.542288654625012D+02 0.238814193040539D+02 0.347081774332902D+02 -.341436682363402D+02
0.446422659974D-06 0.000000000000D+00 0.000000000000D+00 0.365558149026D-06 0.000000000000D+00  6 22 -1 9900012 -11 -2 21 0 0.92282515D-01 0.12998606D-02 0.32725975D+04 0.32725975D+04 0.32725975D+04 0.12631162D+01  1  2  2  1  6  2       -1 0.576005201885D-04 0.100000000000D+01
0.386840958892D-08 0.000000000000D+00 -.857190280042D-09 0.365558149026D-06 0.000000000000D+00  6 22 -1 9900012 -11 -2 21 2 0.92282515D-01 0.12998606D-02 0.32725975D+04 0.32725975D+04 0.32725975D+04 0.12631162D+01  1  2  3  1  6  2       -1 0.796341283526D-06 0.100000000000D+01
-.531539975893D-07 0.000000000000D+00 0.000000000000D+00 0.365558149026D-06 0.000000000000D+00  6 22 -1 9900012 -11 -2 21 2 0.92282515D-01 0.12998606D-02 0.32725975D+04 0.32725975D+04 0.32725975D+04 0.12631162D+01  1  2 15  1  6  2       -1 -.109421512102D-04 0.100000000000D+01
0.741260846662D-07 0.000000000000D+00 0.000000000000D+00 0.365558149026D-06 0.000000000000D+00  6 22 -1 9900012 -11 -2 21 2 0.92282515D-01 0.17498505D-02 0.46904054D+04 0.46904054D+04 0.46904054D+04 0.12449845D+01  1  2 12  1  6  2       -1 0.102678725975D-04 0.100000000000D+01
-.126681505696D-07 0.000000000000D+00 0.000000000000D+00 0.365558149026D-06 0.000000000000D+00  6 22 -1 9900012 -11 -2 21 2 0.92282515D-01 0.12998606D-02 0.32725975D+04 0.32725975D+04 0.32725975D+04 0.12631162D+01  1  2  4  1  6  2       -1 -.260783431863D-05 0.100000000000D+01
0.284651572324D-08 0.000000000000D+00 0.000000000000D+00 0.365558149026D-06 0.000000000000D+00  6 22 21 9900012 -11 1 -2 2 0.92282515D-01 0.17498505D-02 0.46904054D+04 0.46904054D+04 0.46904054D+04 0.12449845D+01  3  4 12  3  5  2       -1 0.716481278760D-05 0.100000000000D+01
  </mgrwgt>
  </event>
  <event>
  6     66 0.83052089E-06 0.27064417E+03 0.78161638E-02 0.97195485E-01
       22 -1    0    0    0    0 0.00000000E+00 0.00000000E+00 0.16306152E+04 0.16306152E+04 0.00000000E+00 0.0000E+00 0.9000E+01
       -1 -1    0    0    0  501 0.00000000E+00 0.00000000E+00 -.48502837E+02 0.48502837E+02 0.00000000E+00 0.0000E+00 0.9000E+01
       24  2    1    2    0    0 0.17016288E+03 -.21045869E+03 0.64934827E+03 0.70788319E+03 0.78722157E+02 0.0000E+00 0.0000E+00
  9900012  1    3    3    0    0 0.12464579E+03 -.12425866E+03 0.38890479E+03 0.42979498E+03 0.50000000E+02 0.0000E+00 0.9000E+01
      -11  1    3    3    0    0 0.45517084E+02 -.86200028E+02 0.26044347E+03 0.27808821E+03 0.00000000E+00 0.0000E+00 0.9000E+01
       -2  1    1    2    0  501 -.17016288E+03 0.21045869E+03 0.93276411E+03 0.97123485E+03 0.00000000E+00 0.0000E+00 0.9000E+01
#aMCatNLO 1  0  0  2  2 0.38628336D+03 0.00000000D+00  -5  6  0 0.00000000D+00 0.00000000D+00 0.00000000D+00 0.00000000D+00 0.00000000D+00
  <mgrwgt>
 0.9263625385D-05    3    2    0
 0.281228491001673D+03 0.000000000000000D+00 0.000000000000000D+00 0.281228491001673D+03
 0.281228491001673D+03 0.000000000000000D+00 0.000000000000000D+00 -.281228491001673D+03
 0.189144112144811D+03 0.124645791181910D+03 -.124258663761039D+03 -.479448264154288D+02
 0.975934027988407D+02 0.455170840444341D+02 -.862000282801976D+02 -.471406983845524D+01
 0.275719467059694D+03 -.170162875226344D+03 0.210458692041237D+03 0.526588962538840D+02
 0.000000000000000D+00 0.000000000000000D+00 -.000000000000000D+00 0.000000000000000D+00
 0.506359146427720D+03 0.000000000000000D+00 0.000000000000000D+00 0.506359146427720D+03
 0.332724556686484D+03 0.000000000000000D+00 0.000000000000000D+00 -.332724556686484D+03
 0.155327037875122D+03 0.119422229795101D+03 -.711766348306801D+02 -.479448264154288D+02
 0.737548251409647D+02 0.429187590842374D+02 -.597957514862188D+02 -.471406983845524D+01
 0.361008459919651D+03 -.179818219115316D+03 0.308576662845843D+03 0.526588962538840D+02
 0.248993380178467D+03 0.174772302359774D+02 -.177604276528944D+03 0.173634589741236D+03
0.817667805897D-05 0.000000000000D+00 0.000000000000D+00 0.978821808041D-07 0.000000000000D+00  6 22 -1 9900012 -11 -2 21 0 0.25086388D+00 0.74619750D-02 0.75925125D+05 0.75925125D+05 0.75925125D+05 0.11274860D+01  1  2  2  1  6  2       -1 0.117196011321D-04 0.100000000000D+01
-.448029074076D-06 0.000000000000D+00 -.157002983576D-07 0.978821808041D-07 0.000000000000D+00  6 22 -1 9900012 -11 -2 21 2 0.25086388D+00 0.74619750D-02 0.75925125D+05 0.75925125D+05 0.75925125D+05 0.11274860D+01  1  2  3  1  6  2       -1 -.816327507080D-06 0.100000000000D+01
-.899896274861D-06 0.000000000000D+00 0.000000000000D+00 0.978821808041D-07 0.000000000000D+00  6 22 -1 9900012 -11 -2 21 2 0.25086388D+00 0.74619750D-02 0.75925125D+05 0.75925125D+05 0.75925125D+05 0.11274860D+01  1  2 15  1  6  2       -1 -.163964823980D-05 0.100000000000D+01
  </mgrwgt>
  </event>
  <event>
  6     66 0.83052089E-06 0.76251328E+02 0.78161638E-02 0.11340953E+00
       22 -1    0    0    0    0 0.00000000E+00 0.00000000E+00 0.42001216E+03 0.42001216E+03 0.00000000E+00 0.0000E+00 0.9000E+01
       -1 -1    0    0    0  501 0.00000000E+00 0.00000000E+00 -.76795182E+02 0.76795182E+02 0.00000000E+00 0.0000E+00 0.9000E+01
       24  2    1    2    0    0 0.76668918E+02 -.76224859E+02 0.36296484E+03 0.38690588E+03 0.79147534E+02 0.0000E+00 0.0000E+00
  9900012  1    3    3    0    0 0.25820402E+02 -.34392095E+02 0.14677488E+03 0.16091108E+03 0.50000000E+02 0.0000E+00 0.9000E+01
      -11  1    3    3    0    0 0.50848516E+02 -.41832764E+02 0.21618996E+03 0.22599481E+03 0.00000000E+00 0.0000E+00 0.9000E+01
       -2  1    1    2    0  501 -.76668918E+02 0.76224859E+02 -.19747867E+02 0.10990146E+03 0.00000000E+00 0.0000E+00 0.9000E+01
#aMCatNLO 1  0  0  5  2 0.70919383D+01 0.00000000D+00  -5  6  0 0.00000000D+00 0.00000000D+00 0.00000000D+00 0.00000000D+00 0.00000000D+00
  <mgrwgt>
 0.5684156483D-04    8    2    0
 0.179596520383474D+03 0.000000000000000D+00 0.000000000000000D+00 0.179596520383474D+03
 0.179596520383474D+03 -.000000000000000D+00 -.000000000000000D+00 -.179596520383474D+03
 0.823127691579948D+02 0.258204015688889D+02 -.343920952187700D+02 0.492532497987871D+02
 0.106003758948861D+03 0.508485164374074D+02 -.418327642567221D+02 0.830737330450751D+02
 0.170876512660092D+03 -.766689180062963D+02 0.762248594754920D+02 -.132326982843862D+03
 0.000000000000000D+00 -.000000000000000D+00 0.000000000000000D+00 0.000000000000000D+00
 0.179596520383474D+03 0.000000000000000D+00 0.000000000000000D+00 0.179596520383474D+03
 0.179596520383474D+03 -.000000000000000D+00 -.000000000000000D+00 -.179596520383474D+03
 0.817113486503988D+02 0.254782852481556D+02 -.340519604007721D+02 0.486627729578258D+02
 0.105024585896601D+03 0.504083601855487D+02 -.413951573448516D+02 0.823140438476413D+02
 0.164446035652166D+03 -.685166327691733D+02 0.723099882485632D+02 -.130840495547748D+03
 0.801107056778185D+01 -.737001266453102D+01 0.313712949706049D+01 -.136321257718952D+00
0.110813986873D-05 0.000000000000D+00 0.000000000000D+00 0.289115783965D-05 0.000000000000D+00  6 22 -1 9900012 -11 -2 21 0 0.64617255D-01 0.11814643D-01 0.14389010D+05 0.14389010D+05 0.14389010D+05 0.11932828D+01  1  2  2  2  6  5       -2 0.133673270171D-04 0.100000000000D+01
-.131930831027D-08 0.000000000000D+00 -.212777443793D-08 0.289115783965D-05 0.000000000000D+00  6 22 -1 9900012 -11 -2 21 2 0.64617255D-01 0.11814643D-01 0.14389010D+05 0.14389010D+05 0.14389010D+05 0.11932828D+01  1  2  3  2  6  5       -2 -.226612092501D-07 0.100000000000D+01
-.157777710905D-06 0.000000000000D+00 0.000000000000D+00 0.289115783965D-05 0.000000000000D+00  6 22 -1 9900012 -11 -2 21 2 0.64617255D-01 0.11814643D-01 0.14389010D+05 0.14389010D+05 0.14389010D+05 0.11932828D+01  1  2 15  2  6  5       -2 -.271008201343D-05 0.100000000000D+01
0.285452097464D-05 0.000000000000D+00 0.000000000000D+00 0.289115783965D-05 0.000000000000D+00  6 22 -1 9900012 -11 -2 21 2 0.64617255D-01 0.11814643D-01 0.14219730D+05 0.14219730D+05 0.14219730D+05 0.11937949D+01  1  2 12  2  6  5       -2 0.490302551969D-04 0.100000000000D+01
-.572136611630D-06 0.000000000000D+00 0.000000000000D+00 0.289115783965D-05 0.000000000000D+00  6 22 -1 9900012 -11 -2 21 2 0.64617255D-01 0.11814643D-01 0.14389010D+05 0.14389010D+05 0.14389010D+05 0.11932828D+01  1  2  4  2  6  5       -2 -.982735223820D-05 0.100000000000D+01
-.745603246539D-05 0.000000000000D+00 0.000000000000D+00 0.289115783965D-05 0.000000000000D+00  6 22 -1 9900012 -11 -2 21 2 0.64617255D-01 0.11814643D-01 0.14389010D+05 0.14389010D+05 0.14389010D+05 0.11932828D+01  1  2  5  2  6  5       -2 -.128069163636D-03 0.100000000000D+01
0.781377236237D-05 0.000000000000D+00 -.000000000000D+00 0.289115783965D-05 0.000000000000D+00  6 22 -1 9900012 -11 -2 21 2 0.64617255D-01 0.11814643D-01 0.14389010D+05 0.14389010D+05 0.14389010D+05 0.11932828D+01  1  2  6  2  6  5       -2 0.134213912820D-03 0.100000000000D+01
0.500297694082D-07 0.000000000000D+00 0.000000000000D+00 0.289115783965D-05 0.899739412311D-07  6 22 -1 9900012 -11 -2 21 2 0.64617255D-01 0.11814643D-01 0.14219730D+05 0.14219730D+05 0.14219730D+05 0.11937949D+01  1  2 11  2  6  5       -2 0.859328897325D-06 0.100000000000D+01
  </mgrwgt>
  </event>
  <event>
  6     66 0.83052089E-06 0.33907228E+02 0.78161638E-02 0.11988057E+00
       22 -1    0    0    0    0 0.00000000E+00 0.00000000E+00 0.40354991E+03 0.40354991E+03 0.00000000E+00 0.0000E+00 0.9000E+01
       -3 -1    0    0    0  501 0.00000000E+00 0.00000000E+00 -.13182220E+03 0.13182220E+03 0.00000000E+00 0.0000E+00 0.9000E+01
       24  2    1    2    0    0 -.55402473E+02 0.14720942E+02 0.39042208E+03 0.40355977E+03 0.84527786E+02 0.0000E+00 0.0000E+00
  9900012  1    3    3    0    0 -.54474546E+02 -.12245495E+02 0.27554769E+03 0.28555902E+03 0.50000000E+02 0.0000E+00 0.9000E+01
      -11  1    3    3    0    0 -.92792627E+00 0.26966436E+02 0.11487439E+03 0.11800074E+03 0.00000000E+00 0.0000E+00 0.9000E+01
       -4  1    1    2    0  501 0.55402473E+02 -.14720942E+02 -.11869436E+03 0.13181234E+03 0.00000000E+00 0.0000E+00 0.9000E+01
#aMCatNLO 1  0  0  5  2 0.11950899D+02 0.00000000D+00  -5  6  0 0.00000000D+00 0.00000000D+00 0.00000000D+00 0.00000000D+00 0.00000000D+00
  <mgrwgt>
 0.1920899352D-03    7    2    0
 0.230644390437514D+03 0.000000000000000D+00 0.000000000000000D+00 0.230644390437514D+03
 0.230644390437514D+03 -.000000000000000D+00 -.000000000000000D+00 -.230644390437514D+03
 0.169105332620486D+03 -.544745463220056D+02 -.122454945601231D+02 0.151588868940549D+03
 0.692836063311028D+02 -.927926270821999D+00 0.269664361703039D+02 0.638135438551415D+02
 0.222899841923440D+03 0.554024725928277D+02 -.147209416101808D+02 -.215402412795691D+03
 0.000000000000000D+00 0.000000000000000D+00 0.000000000000000D+00 0.000000000000000D+00
 0.230644390437514D+03 0.000000000000000D+00 0.000000000000000D+00 0.230644390437514D+03
 0.230644390437514D+03 -.000000000000000D+00 -.000000000000000D+00 -.230644390437514D+03
 0.168154318021041D+03 -.542234036944788D+02 -.123122254438297D+02 0.150612437286989D+03
 0.689032884250683D+02 -.825024486476279D+00 0.269390942289059D+02 0.634134661764438D+02
 0.194111318712590D+03 0.413077232865174D+02 -.223117153914817D+02 -.188348250338342D+03
 0.301198557163300D+02 0.137407048944378D+02 0.768484660640541D+01 -.256776531250916D+02
0.342000119152D-05 0.000000000000D+00 0.000000000000D+00 0.163249013454D-05 0.000000000000D+00  6 22 -3 9900012 -11 -4 21 0 0.62084601D-01 0.20280338D-01 0.63406794D+04 0.63406794D+04 0.63406794D+04 0.12304003D+01  1  2  2  2  6  5       -4 0.135898855777D-04 0.100000000000D+01
0.127831231385D-06 0.000000000000D+00 -.656685254122D-08 0.163249013454D-05 0.000000000000D+00  6 22 -3 9900012 -11 -4 21 2 0.62084601D-01 0.20280338D-01 0.63406794D+04 0.63406794D+04 0.63406794D+04 0.12304003D+01  1  2  3  2  6  5       -4 0.768987605454D-06 0.100000000000D+01
-.445417366934D-06 0.000000000000D+00 0.000000000000D+00 0.163249013454D-05 0.000000000000D+00  6 22 -3 9900012 -11 -4 21 2 0.62084601D-01 0.20280338D-01 0.63406794D+04 0.63406794D+04 0.63406794D+04 0.12304003D+01  1  2 15  2  6  5       -4 -.267947379303D-05 0.100000000000D+01
0.302079728482D-04 0.000000000000D+00 0.000000000000D+00 0.163249013454D-05 0.000000000000D+00  6 22 -3 9900012 -11 -4 21 2 0.62084601D-01 0.20280338D-01 0.67586338D+04 0.67586338D+04 0.67586338D+04 0.12273808D+01  1  2 12  2  6  5       -4 0.181729637351D-03 0.100000000000D+01
-.454439964377D-05 0.000000000000D+00 0.000000000000D+00 0.163249013454D-05 0.000000000000D+00  6 22 -3 9900012 -11 -4 21 2 0.62084601D-01 0.20280338D-01 0.63406794D+04 0.63406794D+04 0.63406794D+04 0.12304003D+01  1  2  4  2  6  5       -4 -.273375055723D-04 0.100000000000D+01
-.300018879233D-04 0.000000000000D+00 0.000000000000D+00 0.163249013454D-05 0.000000000000D+00  6 22 -3 9900012 -11 -4 21 2 0.62084601D-01 0.20280338D-01 0.63406794D+04 0.63406794D+04 0.63406794D+04 0.12304003D+01  1  2  5  2  6  5       -4 -.180480776906D-03 0.100000000000D+01
0.343270091671D-04 0.000000000000D+00 -.000000000000D+00 0.163249013454D-05 0.000000000000D+00  6 22 -3 9900012 -11 -4 21 2 0.62084601D-01 0.20280338D-01 0.63406794D+04 0.63406794D+04 0.63406794D+04 0.12304003D+01  1  2  6  2  6  5       -4 0.206499180958D-03 0.100000000000D+01
  </mgrwgt>
  </event>
  <event>
  6     66 0.83052089E-06 0.35667566E+02 0.78161638E-02 0.12509357E+00
       22 -1    0    0    0    0 0.00000000E+00 0.00000000E+00 0.44379842E+02 0.44379842E+02 0.00000000E+00 0.0000E+00 0.9000E+01
       -3 -1    0    0    0  501 0.00000000E+00 0.00000000E+00 -.11375542E+03 0.11375542E+03 0.00000000E+00 0.0000E+00 0.9000E+01
       24  2    1    2    0    0 0.16132750E+01 -.35631062E+02 -.13745605E+02 0.92052973E+02 0.83741464E+02 0.0000E+00 0.0000E+00
  9900012  1    3    3    0    0 -.22027750E+02 -.23817749E+02 0.47556488E+01 0.59792334E+02 0.50000000E+02 0.0000E+00 0.9000E+01
      -11  1    3    3    0    0 0.23641025E+02 -.11813313E+02 -.18501254E+02 0.32260639E+02 0.00000000E+00 0.0000E+00 0.9000E+01
       -4  1    1    2    0  501 -.16132750E+01 0.35631062E+02 -.55629974E+02 0.66082292E+02 0.00000000E+00 0.0000E+00 0.9000E+01
#aMCatNLO 1  0  0  2  5 0.43571690D+01 0.00000000D+00  -5  6  0 0.00000000D+00 0.00000000D+00 0.00000000D+00 0.00000000D+00 0.00000000D+00
  <mgrwgt>
 0.2839985540D-04   11    4    0
 0.710524292320161D+02 0.000000000000000D+00 0.000000000000000D+00 0.710524292320161D+02
 0.710524292320161D+02 0.000000000000000D+00 0.000000000000000D+00 -.710524292320161D+02
 0.688590276686687D+02 -.220277500150965D+02 -.238177494645415D+02 0.344827309126065D+02
 0.268675503903800D+02 0.236410250640393D+02 -.118133126742946D+02 -.483868179987312D+01
 0.463782804049836D+02 -.161327504894275D+01 0.356310621388361D+02 -.296440491127334D+02
 0.000000000000000D+00 -.000000000000000D+00 0.000000000000000D+00 -.000000000000000D+00
 0.720871371889052D+02 0.000000000000000D+00 0.000000000000000D+00 0.720871371889052D+02
 0.747376944866141D+02 0.000000000000000D+00 0.000000000000000D+00 -.747376944866141D+02
 0.693993294451166D+02 -.216623022929326D+02 -.256505917204693D+02 0.344827309126065D+02
 0.273156378870094D+02 0.237842433341599D+02 -.125316000828016D+02 -.483868179987312D+01
 0.454418329354645D+02 -.137057397850050D+01 0.344138352949213D+02 -.296440491127334D+02
 0.466803140792879D+01 -.751367062726808D+00 0.376835650834964D+01 -.265055729770889D+01
 0.710524292320161D+02 0.000000000000000D+00 0.000000000000000D+00 0.710524292320161D+02
 0.710524292320161D+02 0.000000000000000D+00 0.000000000000000D+00 -.710524292320161D+02
 0.688590276686687D+02 -.220277500150965D+02 -.238177494645415D+02 0.344827309126065D+02
 0.268675503903800D+02 0.236410250640393D+02 -.118133126742946D+02 -.483868179987312D+01
 0.000000000000000D+00 -.000000000000000D+00 0.000000000000000D+00 -.000000000000000D+00
 0.463782804049836D+02 -.161327504894275D+01 0.356310621388361D+02 -.296440491127334D+02
 0.720871371889052D+02 0.000000000000000D+00 0.000000000000000D+00 0.720871371889052D+02
 0.747376944866141D+02 0.000000000000000D+00 0.000000000000000D+00 -.747376944866141D+02
 0.693993294451166D+02 -.216623022929326D+02 -.256505917204693D+02 0.344827309126065D+02
 0.273156378870094D+02 0.237842433341599D+02 -.125316000828016D+02 -.483868179987312D+01
 0.466803140792879D+01 -.751367062726808D+00 0.376835650834964D+01 -.265055729770889D+01
 0.454418329354645D+02 -.137057397850050D+01 0.344138352949213D+02 -.296440491127334D+02
0.123304466974D-06 0.000000000000D+00 0.000000000000D+00 0.320105042997D-07 0.000000000000D+00  6 22 -3 9900012 -11 -4 21 0 0.68276680D-02 0.17500834D-01 0.37026450D+04 0.37026450D+04 0.37026450D+04 0.12568054D+01  1  2  2  1  6  2       -3 0.166040916330D-04 0.100000000000D+01
0.112466103133D-08 0.000000000000D+00 -.236760809996D-09 0.320105042997D-07 0.000000000000D+00  6 22 -3 9900012 -11 -4 21 2 0.68276680D-02 0.17500834D-01 0.37026450D+04 0.37026450D+04 0.37026450D+04 0.12568054D+01  1  2  3  1  6  2       -3 0.239218093343D-06 0.100000000000D+01
-.140964485407D-07 0.000000000000D+00 0.000000000000D+00 0.320105042997D-07 0.000000000000D+00  6 22 -3 9900012 -11 -4 21 2 0.68276680D-02 0.17500834D-01 0.37026450D+04 0.37026450D+04 0.37026450D+04 0.12568054D+01  1  2 15  1  6  2       -3 -.299834834574D-05 0.100000000000D+01
0.754075769724D-07 0.000000000000D+00 0.000000000000D+00 0.320105042997D-07 0.000000000000D+00  6 22 -3 9900012 -11 -4 21 2 0.68276680D-02 0.18676624D-01 0.39308900D+04 0.39308900D+04 0.39308900D+04 0.12537832D+01  1  2 12  1  6  2       -3 0.143961438067D-04 0.100000000000D+01
-.390498911603D-07 0.000000000000D+00 0.000000000000D+00 0.320105042997D-07 0.000000000000D+00  6 22 -3 9900012 -11 -4 21 2 0.68276680D-02 0.17500834D-01 0.37026450D+04 0.37026450D+04 0.37026450D+04 0.12568054D+01  1  2  4  1  6  2       -3 -.830600531926D-05 0.100000000000D+01
-.169837018994D-05 0.000000000000D+00 -.251827722394D-06 0.320105042997D-07 0.000000000000D+00  6 22 -3 9900012 -11 -4 21 2 0.68276680D-02 0.18656005D-01 0.37026450D+04 0.37026450D+04 0.37026450D+04 0.12568054D+01  1  2  5  1  6  2       -3 -.324182790855D-03 0.100000000000D+01
0.171148296972D-05 0.000000000000D+00 0.251314150035D-06 0.320105042997D-07 0.000000000000D+00  6 22 -3 9900012 -11 -4 21 2 0.68276680D-02 0.17500834D-01 0.37026450D+04 0.37026450D+04 0.37026450D+04 0.12568054D+01  1  2  6  1  6  2       -3 0.364036524249D-03 0.100000000000D+01
0.335604992901D-07 0.000000000000D+00 0.000000000000D+00 0.320105042997D-07 0.397111969395D-06  6 22 -3 9900012 -11 -4 21 2 0.69270966D-02 0.18408547D-01 0.39308900D+04 0.39308900D+04 0.39308900D+04 0.12537832D+01  1  2 11  1  6  2       -3 0.643677631238D-05 0.100000000000D+01
0.112557116954D-08 0.000000000000D+00 0.000000000000D+00 0.320105042997D-07 0.000000000000D+00  6 22 21 9900012 -11 3 -4 2 0.68276680D-02 0.18676624D-01 0.39308900D+04 0.39308900D+04 0.39308900D+04 0.12537832D+01  3  4 12  3  5  2       -3 0.365976645389D-05 0.100000000000D+01
-.181839728335D-07 0.000000000000D+00 -.274899393742D-08 0.320105042997D-07 0.000000000000D+00  6 22 21 9900012 -11 3 -4 2 0.68276680D-02 0.18656005D-01 0.37026450D+04 0.37026450D+04 0.37026450D+04 0.12568054D+01  3  4  5  3  5  2       -3 -.592102028882D-04 0.100000000000D+01
0.542290574078D-08 0.000000000000D+00 0.000000000000D+00 0.320105042997D-07 0.172743829995D-09  6 22 21 9900012 -11 3 -4 2 0.69270966D-02 0.18408547D-01 0.39308900D+04 0.39308900D+04 0.39308900D+04 0.12537832D+01  3  4 11  3  5  2       -3 0.177246822633D-04 0.100000000000D+01
  </mgrwgt>
  </event>
  <event>
  6     66 0.83052089E-06 0.45729740E+02 0.78161638E-02 0.12276583E+00
       22 -1    0    0    0    0 0.00000000E+00 0.00000000E+00 0.30640676E+03 0.30640676E+03 0.00000000E+00 0.0000E+00 0.9000E+01
       -1 -1    0    0    0  501 0.00000000E+00 0.00000000E+00 -.16592086E+02 0.16592086E+02 0.00000000E+00 0.0000E+00 0.9000E+01
       24  2    1    2    0    0 -.22565237E+02 -.41430650E+02 0.21525927E+03 0.23477075E+03 0.80963343E+02 0.0000E+00 0.0000E+00
  9900012  1    3    3    0    0 0.42460432E+01 -.13555395E+02 0.15181771E+03 0.16046930E+03 0.50000000E+02 0.0000E+00 0.9000E+01
      -11  1    3    3    0    0 -.26811280E+02 -.27875255E+02 0.63441556E+02 0.74301451E+02 0.00000000E+00 0.0000E+00 0.9000E+01
       -2  1    1    2    0  501 0.22565237E+02 0.41430650E+02 0.74555409E+02 0.88228100E+02 0.00000000E+00 0.0000E+00 0.9000E+01
#aMCatNLO 1  0  0  2  5 0.26697747D+02 0.00000000D+00  -5  6  0 0.00000000D+00 0.00000000D+00 0.00000000D+00 0.00000000D+00 0.00000000D+00
  <mgrwgt>
 0.6312362706D-04    6    4    0
 0.713016638391016D+02 0.000000000000000D+00 0.000000000000000D+00 0.713016638391016D+02
 0.713016638391016D+02 0.000000000000000D+00 0.000000000000000D+00 -.713016638391016D+02
 0.549243635579457D+02 0.424604316507778D+01 -.135553954697323D+02 0.177456497019650D+02
 0.393608555390905D+02 -.268112797396697D+02 -.278752549376454D+02 -.730769386685053D+01
 0.483181085811670D+02 0.225652365745920D+02 0.414306504073776D+02 -.104379558351145D+02
 0.000000000000000D+00 -.000000000000000D+00 -.000000000000000D+00 0.000000000000000D+00
 0.858379334223884D+02 0.000000000000000D+00 0.000000000000000D+00 0.858379334223884D+02
 0.715010726563509D+02 0.000000000000000D+00 0.000000000000000D+00 -.715010726563509D+02
 0.546561392033592D+02 0.449683824181006D+01 -.123354738498009D+02 0.177456497019650D+02
 0.386275535199923D+02 -.266327889631052D+02 -.270070371076682D+02 -.730769386685053D+01
 0.493564810033563D+02 0.227887827855726D+02 0.425180276373547D+02 -.104379558351145D+02
 0.146988323520315D+02 -.652832064277488D+00 -.317551667988564D+01 0.143368607660376D+02
 0.713016638391016D+02 0.000000000000000D+00 0.000000000000000D+00 0.713016638391016D+02
 0.713016638391016D+02 0.000000000000000D+00 0.000000000000000D+00 -.713016638391016D+02
 0.549243635579457D+02 0.424604316507778D+01 -.135553954697323D+02 0.177456497019650D+02
 0.393608555390905D+02 -.268112797396697D+02 -.278752549376454D+02 -.730769386685053D+01
 0.000000000000000D+00 -.000000000000000D+00 -.000000000000000D+00 0.000000000000000D+00
 0.483181085811670D+02 0.225652365745920D+02 0.414306504073776D+02 -.104379558351145D+02
 0.858379334223884D+02 0.000000000000000D+00 0.000000000000000D+00 0.858379334223884D+02
 0.715010726563509D+02 0.000000000000000D+00 0.000000000000000D+00 -.715010726563509D+02
 0.546561392033592D+02 0.449683824181006D+01 -.123354738498009D+02 0.177456497019650D+02
 0.386275535199923D+02 -.266327889631052D+02 -.270070371076682D+02 -.730769386685053D+01
 0.146988323520315D+02 -.652832064277488D+00 -.317551667988564D+01 0.143368607660376D+02
 0.493564810033563D+02 0.227887827855726D+02 0.425180276373547D+02 -.104379558351145D+02
0.289571104795D-06 0.000000000000D+00 0.000000000000D+00 0.161425397705D-06 0.000000000000D+00  6 22 -1 9900012 -11 -2 21 0 0.47139502D-01 0.25526286D-02 0.47494405D+04 0.47494405D+04 0.47494405D+04 0.12443683D+01  1  2  2  1  6  2       -1 0.494995406732D-04 0.100000000000D+01
-.638287452180D-08 0.000000000000D+00 -.556014644118D-09 0.161425397705D-06 0.000000000000D+00  6 22 -1 9900012 -11 -2 21 2 0.47139502D-01 0.25526286D-02 0.47494405D+04 0.47494405D+04 0.47494405D+04 0.12443683D+01  1  2  3  1  6  2       -1 -.168950764683D-05 0.100000000000D+01
-.319193915043D-07 0.000000000000D+00 0.000000000000D+00 0.161425397705D-06 0.000000000000D+00  6 22 -1 9900012 -11 -2 21 2 0.47139502D-01 0.25526286D-02 0.47494405D+04 0.47494405D+04 0.47494405D+04 0.12443683D+01  1  2 15  1  6  2       -1 -.844886670491D-05 0.100000000000D+01
0.928811871866D-07 0.000000000000D+00 0.000000000000D+00 0.161425397705D-06 0.000000000000D+00  6 22 -1 9900012 -11 -2 21 2 0.47139502D-01 0.30816272D-02 0.49778103D+04 0.49778103D+04 0.49778103D+04 0.12420632D+01  1  2 12  1  6  2       -1 0.188822441553D-04 0.100000000000D+01
-.148420415960D-07 0.000000000000D+00 0.000000000000D+00 0.161425397705D-06 0.000000000000D+00  6 22 -1 9900012 -11 -2 21 2 0.47139502D-01 0.25526286D-02 0.47494405D+04 0.47494405D+04 0.47494405D+04 0.12443683D+01  1  2  4  1  6  2       -1 -.392859716816D-05 0.100000000000D+01
0.253755971607D-08 0.000000000000D+00 0.000000000000D+00 0.161425397705D-06 0.000000000000D+00  6 22 21 9900012 -11 1 -2 2 0.47139502D-01 0.30816272D-02 0.49778103D+04 0.49778103D+04 0.49778103D+04 0.12420632D+01  3  4 12  3  5  2       -1 0.880881375591D-05 0.100000000000D+01
  </mgrwgt>
  </event>
  <event>
  6     66 -.83052089E-06 0.30081141E+02 0.78161638E-02 0.11965893E+00
       22 -1    0    0    0    0 0.00000000E+00 0.00000000E+00 0.24121990E+04 0.24121990E+04 0.00000000E+00 0.0000E+00 0.9000E+01
       -3 -1    0    0    0  501 0.00000000E+00 0.00000000E+00 -.18752478E+02 0.18752478E+02 0.00000000E+00 0.0000E+00 0.9000E+01
       24  2    1    2    0    0 0.44533011E+00 0.61819737E+02 0.23570151E+04 0.23591941E+04 0.80341293E+02 0.0000E+00 0.0000E+00
  9900012  1    3    3    0    0 0.21372518E+02 0.58164030E+02 0.17575273E+04 0.17593300E+04 0.50000000E+02 0.0000E+00 0.9000E+01
      -11  1    3    3    0    0 -.20927188E+02 0.36557070E+01 0.59948778E+03 0.59986408E+03 0.00000000E+00 0.0000E+00 0.9000E+01
       -4  1    1    2    0  501 -.44533011E+00 -.61819737E+02 0.36431490E+02 0.71757450E+02 0.00000000E+00 0.0000E+00 0.9000E+01
#aMCatNLO 1  0  0  2  5 0.44794187D+01 0.00000000D+00  -5  6  0 0.00000000D+00 0.00000000D+00 0.00000000D+00 0.00000000D+00 0.00000000D+00
  <mgrwgt>
 -.1409763813D-03   11    4    0
 0.212684531694755D+03 0.000000000000000D+00 0.000000000000000D+00 0.212684531694755D+03
 0.212684531694755D+03 0.000000000000000D+00 0.000000000000000D+00 -.212684531694755D+03
 0.165264160288387D+03 0.213725181847220D+02 0.581640300107196D+02 0.144818520069711D+03
 0.550075750240154D+02 -.209271880775579D+02 0.365570701074664D+01 0.507397468996523D+02
 0.205097328077107D+03 -.445330107164029D+00 -.618197370214662D+02 -.195558266969364D+03
 0.000000000000000D+00 -.000000000000000D+00 -.000000000000000D+00 -.000000000000000D+00
 0.212763194924423D+03 0.000000000000000D+00 0.000000000000000D+00 0.212763194924423D+03
 0.287604792454328D+03 0.000000000000000D+00 0.000000000000000D+00 -.287604792454328D+03
 0.165925010350567D+03 0.220343554776395D+02 0.597761865908102D+02 0.144818520069711D+03
 0.549625699522209D+02 -.207074274407219D+02 0.419101766868548D+01 0.507397468996523D+02
 0.204505039628417D+03 0.373205479889794D+00 -.598258821165997D+02 -.195558266969364D+03
 0.749753674475457D+02 -.170013351680737D+01 -.414132214289594D+01 -.748415975299050D+02
 0.212684531694755D+03 0.000000000000000D+00 0.000000000000000D+00 0.212684531694755D+03
 0.212684531694755D+03 0.000000000000000D+00 0.000000000000000D+00 -.212684531694755D+03
 0.165264160288387D+03 0.213725181847220D+02 0.581640300107196D+02 0.144818520069711D+03
 0.550075750240154D+02 -.209271880775579D+02 0.365570701074664D+01 0.507397468996523D+02
 0.000000000000000D+00 -.000000000000000D+00 -.000000000000000D+00 -.000000000000000D+00
 0.205097328077107D+03 -.445330107164029D+00 -.618197370214662D+02 -.195558266969364D+03
 0.212763194924423D+03 0.000000000000000D+00 0.000000000000000D+00 0.212763194924423D+03
 0.287604792454328D+03 0.000000000000000D+00 0.000000000000000D+00 -.287604792454328D+03
 0.165925010350567D+03 0.220343554776395D+02 0.597761865908102D+02 0.144818520069711D+03
 0.549625699522209D+02 -.207074274407219D+02 0.419101766868548D+01 0.507397468996523D+02
 0.749753674475457D+02 -.170013351680737D+01 -.414132214289594D+01 -.748415975299050D+02
 0.204505039628417D+03 0.373205479889794D+00 -.598258821165997D+02 -.195558266969364D+03
0.183265916618D-05 0.000000000000D+00 0.000000000000D+00 0.225716733480D-04 0.000000000000D+00  6 22 -3 9900012 -11 -4 21 0 0.37110755D+00 0.28849966D-02 0.66168900D+04 0.66168900D+04 0.66168900D+04 0.12283808D+01  1  2  2  1  6  2       -3 0.222223276903D-05 0.100000000000D+01
0.539021055271D-07 0.000000000000D+00 -.351894687418D-08 0.225716733480D-04 0.000000000000D+00  6 22 -3 9900012 -11 -4 21 2 0.37110755D+00 0.28849966D-02 0.66168900D+04 0.66168900D+04 0.66168900D+04 0.12283808D+01  1  2  3  1  6  2       -3 0.986233244705D-07 0.100000000000D+01
-.254204211136D-06 0.000000000000D+00 0.000000000000D+00 0.225716733480D-04 0.000000000000D+00  6 22 -3 9900012 -11 -4 21 2 0.37110755D+00 0.28849966D-02 0.66168900D+04 0.66168900D+04 0.66168900D+04 0.12283808D+01  1  2 15  1  6  2       -3 -.465111040681D-06 0.100000000000D+01
0.830623522989D-04 0.000000000000D+00 0.000000000000D+00 0.225716733480D-04 0.000000000000D+00  6 22 -3 9900012 -11 -4 21 2 0.37110755D+00 0.39027086D-02 0.69236448D+04 0.69236448D+04 0.69236448D+04 0.12262457D+01  1  2 12  1  6  2       -3 0.973643654899D-04 0.100000000000D+01
-.576611498763D-03 0.000000000000D+00 0.000000000000D+00 0.225716733480D-04 0.000000000000D+00  6 22 -3 9900012 -11 -4 21 2 0.37110755D+00 0.28849966D-02 0.66168900D+04 0.66168900D+04 0.66168900D+04 0.12283808D+01  1  2  4  1  6  2       -3 -.105501153211D-02 0.100000000000D+01
-.390439931977D-03 0.000000000000D+00 -.941981316858D-06 0.225716733480D-04 0.000000000000D+00  6 22 -3 9900012 -11 -4 21 2 0.37110755D+00 0.39019621D-02 0.66168900D+04 0.66168900D+04 0.66168900D+04 0.12283808D+01  1  2  5  1  6  2       -3 -.457639165052D-03 0.100000000000D+01
0.373603838365D-03 0.000000000000D+00 0.900610775996D-06 0.225716733480D-04 0.000000000000D+00  6 22 -3 9900012 -11 -4 21 2 0.37110755D+00 0.28849966D-02 0.66168900D+04 0.66168900D+04 0.66168900D+04 0.12283808D+01  1  2  6  1  6  2       -3 0.683573530463D-03 0.100000000000D+01
0.485800427577D-03 0.000000000000D+00 0.000000000000D+00 0.225716733480D-04 0.152730605786D-04  6 22 -3 9900012 -11 -4 21 2 0.37124480D+00 0.39012657D-02 0.69236448D+04 0.69236448D+04 0.69236448D+04 0.12262457D+01  1  2 11  1  6  2       -3 0.568946016059D-03 0.100000000000D+01
0.322738007891D-05 0.000000000000D+00 0.000000000000D+00 0.225716733480D-04 0.000000000000D+00  6 22 21 9900012 -11 3 -4 2 0.37110755D+00 0.39027086D-02 0.69236448D+04 0.69236448D+04 0.69236448D+04 0.12262457D+01  3  4 12  3  5  2       -3 0.701231002886D-04 0.100000000000D+01
-.151422361499D-04 0.000000000000D+00 -.365838609133D-07 0.225716733480D-04 0.000000000000D+00  6 22 21 9900012 -11 3 -4 2 0.37110755D+00 0.39019621D-02 0.66168900D+04 0.66168900D+04 0.66168900D+04 0.12283808D+01  3  4  5  3  5  2       -3 -.329119200874D-03 0.100000000000D+01
0.128486132277D-04 0.000000000000D+00 0.000000000000D+00 0.225716733480D-04 0.394810120875D-06  6 22 21 9900012 -11 3 -4 2 0.37124480D+00 0.39012657D-02 0.69236448D+04 0.69236448D+04 0.69236448D+04 0.12262457D+01  3  4 11  3  5  2       -3 0.278930759381D-03 0.100000000000D+01
  </mgrwgt>
  </event>
  <event>
  6     66 0.83052089E-06 0.99264992E+02 0.78161638E-02 0.11206233E+00
       22 -1    0    0    0    0 0.00000000E+00 0.00000000E+00 0.63672642E+02 0.63672642E+02 0.00000000E+00 0.0000E+00 0.9000E+01
       -3 -1    0    0    0  501 0.00000000E+00 0.00000000E+00 -.28102996E+03 0.28102996E+03 0.00000000E+00 0.0000E+00 0.9000E+01
       24  2    1    2    0    0 -.71809140E+02 -.68534561E+02 -.24959551E+02 0.12820678E+03 0.77204026E+02 0.0000E+00 0.0000E+00
  9900012  1    3    3    0    0 -.20858448E+02 -.39343997E+02 -.11042031E+02 0.67859792E+02 0.50000000E+02 0.0000E+00 0.9000E+01
      -11  1    3    3    0    0 -.50950692E+02 -.29190565E+02 -.13917520E+02 0.60346992E+02 0.00000000E+00 0.0000E+00 0.9000E+01
       -4  1    1    2    0  501 0.71809140E+02 0.68534561E+02 -.19239777E+03 0.21649582E+03 0.00000000E+00 0.0000E+00 0.9000E+01
#aMCatNLO 1  0  0  2  2 0.12800087D+03 0.00000000D+00  -5  6  0 0.00000000D+00 0.00000000D+00 0.00000000D+00 0.00000000D+00 0.00000000D+00
  <mgrwgt>
 0.3126665369D-04    4    2    0
 0.133768158372220D+03 0.000000000000000D+00 0.000000000000000D+00 0.133768158372220D+03
 0.133768158372220D+03 0.000000000000000D+00 0.000000000000000D+00 -.133768158372220D+03
 0.784617993172636D+02 -.208584480227184D+02 -.393439965349549D+02 0.409051223545849D+02
 0.664458963766791D+02 -.509506916023684D+02 -.291905646142617D+02 0.310965449534403D+02
 0.122628621050497D+03 0.718091396250868D+02 0.685345611492166D+02 -.720016673080252D+02
 0.000000000000000D+00 0.000000000000000D+00 0.000000000000000D+00 0.000000000000000D+00
 0.211140294021491D+03 0.000000000000000D+00 0.000000000000000D+00 0.211140294021491D+03
 0.138399490852010D+03 0.000000000000000D+00 0.000000000000000D+00 -.138399490852010D+03
 0.829048157189903D+02 -.304355320611543D+02 -.421148171397031D+02 0.409051223545849D+02
 0.740324287166391D+02 -.592880588124023D+02 -.316027131097955D+02 0.310965449534403D+02
 0.112649403060103D+03 0.578454247092219D+02 0.644946102776957D+02 -.720016673080252D+02
 0.799531373777683D+02 0.318781661643347D+02 0.922291997180286D+01 0.727408031694803D+02
0.228366626793D-05 0.000000000000D+00 0.000000000000D+00 0.156982153367D-06 0.000000000000D+00  6 22 -3 9900012 -11 -4 21 0 0.97957910D-02 0.43235379D-01 0.12649567D+05 0.12649567D+05 0.12649567D+05 0.11988917D+01  1  2  2  1  6  2       -3 0.403210442384D-04 0.100000000000D+01
-.275512028029D-07 0.000000000000D+00 -.438493988600D-08 0.156982153367D-06 0.000000000000D+00  6 22 -3 9900012 -11 -4 21 2 0.97957910D-02 0.43235379D-01 0.12649567D+05 0.12649567D+05 0.12649567D+05 0.11988917D+01  1  2  3  1  6  2       -3 -.699197134621D-06 0.100000000000D+01
-.285872712313D-06 0.000000000000D+00 0.000000000000D+00 0.156982153367D-06 0.000000000000D+00  6 22 -3 9900012 -11 -4 21 2 0.97957910D-02 0.43235379D-01 0.12649567D+05 0.12649567D+05 0.12649567D+05 0.11988917D+01  1  2 15  1  6  2       -3 -.725490581101D-05 0.100000000000D+01
-.433557939534D-07 0.000000000000D+00 0.000000000000D+00 0.156982153367D-06 0.000000000000D+00  6 22 -3 9900012 -11 -4 21 2 0.97957910D-02 0.43235379D-01 0.12649567D+05 0.12649567D+05 0.12649567D+05 0.11988917D+01  1  2  4  1  6  2       -3 -.110028760335D-05 0.100000000000D+01
  </mgrwgt>
  </event>
  <event>
  6     66 0.83052089E-06 0.26490791E+02 0.78161638E-02 0.12154876E+00
       22 -1    0    0    0    0 0.00000000E+00 0.00000000E+00 0.54401042E+02 0.54401042E+02 0.00000000E+00 0.0000E+00 0.9000E+01
       -1 -1    0    0    0  501 0.00000000E+00 0.00000000E+00 -.39847550E+03 0.39847550E+03 0.00000000E+00 0.0000E+00 0.9000E+01
       24  2    1    2    0    0 -.49729950E+02 -.89351607E+01 0.10606941E+02 0.94614349E+02 0.79287217E+02 0.0000E+00 0.0000E+00
  9900012  1    3    3    0    0 -.28129824E+02 0.17298635E+02 0.45178627E+01 0.60091105E+02 0.50000000E+02 0.0000E+00 0.9000E+01
      -11  1    3    3    0    0 -.21600125E+02 -.26233796E+02 0.60890786E+01 0.34523244E+02 0.00000000E+00 0.0000E+00 0.9000E+01
       -2  1    1    2    0  501 0.49729950E+02 0.89351607E+01 -.35468139E+03 0.35826219E+03 0.00000000E+00 0.0000E+00 0.9000E+01
#aMCatNLO 1  0  0  2  5 0.50508443D+01 0.00000000D+00  -5  6  0 0.00000000D+00 0.00000000D+00 0.00000000D+00 0.00000000D+00 0.00000000D+00
  <mgrwgt>
 0.1161612661D-03   11    4    0
 0.147232748991564D+03 0.000000000000000D+00 0.000000000000000D+00 0.147232748991564D+03
 0.147232748991564D+03 0.000000000000000D+00 0.000000000000000D+00 -.147232748991564D+03
 0.976967858849092D+02 -.281298244166336D+02 0.172986354810697D+02 0.771630232755575D+02
 0.602103253010704D+02 -.216001252127154D+02 -.262337961362419D+02 0.497041829621796D+02
 0.136558386797149D+03 0.497299496293490D+02 0.893516065517218D+01 -.126867206237737D+03
 0.000000000000000D+00 -.000000000000000D+00 -.000000000000000D+00 -.000000000000000D+00
 0.147420246632509D+03 0.000000000000000D+00 0.000000000000000D+00 0.147420246632509D+03
 0.185475405255054D+03 0.000000000000000D+00 0.000000000000000D+00 -.185475405255054D+03
 0.972454360365451D+02 -.264647367401647D+02 0.173827609483457D+02 0.771630232755575D+02
 0.598274708364558D+02 -.205748293425390D+02 -.261819949636108D+02 0.497041829621796D+02
 0.137435670121777D+03 0.520702539672426D+02 0.905340019221016D+01 -.126867206237737D+03
 0.383870748927841D+02 -.503068788453890D+01 -.254166176945094D+00 -.380551586225450D+02
 0.147232748991564D+03 0.000000000000000D+00 0.000000000000000D+00 0.147232748991564D+03
 0.147232748991564D+03 0.000000000000000D+00 0.000000000000000D+00 -.147232748991564D+03
 0.976967858849092D+02 -.281298244166336D+02 0.172986354810697D+02 0.771630232755575D+02
 0.602103253010704D+02 -.216001252127154D+02 -.262337961362419D+02 0.497041829621796D+02
 0.000000000000000D+00 -.000000000000000D+00 -.000000000000000D+00 -.000000000000000D+00
 0.136558386797149D+03 0.497299496293490D+02 0.893516065517218D+01 -.126867206237737D+03
 0.147420246632509D+03 0.000000000000000D+00 0.000000000000000D+00 0.147420246632509D+03
 0.185475405255054D+03 0.000000000000000D+00 0.000000000000000D+00 -.185475405255054D+03
 0.972454360365451D+02 -.264647367401647D+02 0.173827609483457D+02 0.771630232755575D+02
 0.598274708364558D+02 -.205748293425390D+02 -.261819949636108D+02 0.497041829621796D+02
 0.383870748927841D+02 -.503068788453890D+01 -.254166176945094D+00 -.380551586225450D+02
 0.137435670121777D+03 0.520702539672426D+02 0.905340019221016D+01 -.126867206237737D+03
0.268634211587D-06 0.000000000000D+00 0.000000000000D+00 0.530583603558D-05 0.000000000000D+00  6 22 -1 9900012 -11 -2 21 0 0.83693912D-02 0.61303922D-01 0.52149576D+04 0.52149576D+04 0.52149576D+04 0.12397925D+01  1  2  2  1  6  2       -1 0.486851236669D-05 0.100000000000D+01
0.901461884455D-08 0.000000000000D+00 -.515813052753D-09 0.530583603558D-05 0.000000000000D+00  6 22 -1 9900012 -11 -2 21 2 0.83693912D-02 0.61303922D-01 0.52149576D+04 0.52149576D+04 0.52149576D+04 0.12397925D+01  1  2  3  1  6  2       -1 0.251119426546D-06 0.100000000000D+01
-.371307928904D-07 0.000000000000D+00 0.000000000000D+00 0.530583603558D-05 0.000000000000D+00  6 22 -1 9900012 -11 -2 21 2 0.83693912D-02 0.61303922D-01 0.52149576D+04 0.52149576D+04 0.52149576D+04 0.12397925D+01  1  2 15  1  6  2       -1 -.103434915870D-05 0.100000000000D+01
0.617710828026D-05 0.000000000000D+00 0.000000000000D+00 0.530583603558D-05 0.000000000000D+00  6 22 -1 9900012 -11 -2 21 2 0.83693912D-02 0.77325526D-01 0.56527685D+04 0.56527685D+04 0.56527685D+04 0.12358911D+01  1  2 12  1  6  2       -1 0.111410150537D-03 0.100000000000D+01
-.739397914193D-05 0.000000000000D+00 0.000000000000D+00 0.530583603558D-05 0.000000000000D+00  6 22 -1 9900012 -11 -2 21 2 0.83693912D-02 0.61303922D-01 0.52149576D+04 0.52149576D+04 0.52149576D+04 0.12397925D+01  1  2  4  1  6  2       -1 -.205973412080D-03 0.100000000000D+01
-.149404717792D-04 0.000000000000D+00 -.160988575869D-06 0.530583603558D-05 0.000000000000D+00  6 22 -1 9900012 -11 -2 21 2 0.83693912D-02 0.77268446D-01 0.52149576D+04 0.52149576D+04 0.52149576D+04 0.12397925D+01  1  2  5  1  6  2       -1 -.270322263432D-03 0.100000000000D+01
0.145894569564D-04 0.000000000000D+00 0.156771053640D-06 0.530583603558D-05 0.000000000000D+00  6 22 -1 9900012 -11 -2 21 2 0.83693912D-02 0.61303922D-01 0.52149576D+04 0.52149576D+04 0.52149576D+04 0.12397925D+01  1  2  6  1  6  2       -1 0.406417190530D-03 0.100000000000D+01
0.422436175118D-05 0.000000000000D+00 0.000000000000D+00 0.530583603558D-05 0.872386732772D-06  6 22 -1 9900012 -11 -2 21 2 0.83800494D-02 0.77227179D-01 0.56527685D+04 0.56527685D+04 0.56527685D+04 0.12358911D+01  1  2 11  1  6  2       -1 0.762425829144D-04 0.100000000000D+01
0.197891397902D-06 0.000000000000D+00 0.000000000000D+00 0.530583603558D-05 0.000000000000D+00  6 22 21 9900012 -11 1 -2 2 0.83693912D-02 0.77325526D-01 0.56527685D+04 0.56527685D+04 0.56527685D+04 0.12358911D+01  3  4 12  3  5  2       -1 0.297128639189D-04 0.100000000000D+01
-.475124675439D-06 0.000000000000D+00 -.514521650095D-08 0.530583603558D-05 0.000000000000D+00  6 22 21 9900012 -11 1 -2 2 0.83693912D-02 0.77268446D-01 0.52149576D+04 0.52149576D+04 0.52149576D+04 0.12397925D+01  3  4  5  3  5  2       -1 -.717304470002D-04 0.100000000000D+01
0.241622856622D-06 0.000000000000D+00 0.000000000000D+00 0.530583603558D-05 0.489321092607D-07  6 22 21 9900012 -11 1 -2 2 0.83800494D-02 0.77227179D-01 0.56527685D+04 0.56527685D+04 0.56527685D+04 0.12358911D+01  3  4 11  3  5  2       -1 0.363193181085D-04 0.100000000000D+01
  </mgrwgt>
  </event>
  <event>
  7     66 -.83052089E-06 0.10747430E+03 0.78161638E-02 0.11302707E+00
       22 -1    0    0    0    0 0.00000000E+00 0.00000000E+00 0.33136643E+03 0.33136643E+03 0.00000000E+00 0.0000E+00 0.9000E+01
       -1 -1    0    0    0  502 0.00000000E+00 0.00000000E+00 -.10237171E+03 0.10237171E+03 0.00000000E+00 0.0000E+00 0.9000E+01
       24  2    1    2    0    0 0.10024419E+03 -.30928799E+02 0.24620152E+03 0.27866231E+03 0.77665982E+02 0.0000E+00 0.0000E+00
  9900012  1    3    3    0    0 0.53494493E+02 -.94411288E+01 0.10482965E+03 0.12821876E+03 0.50000000E+02 0.0000E+00 0.9000E+01
      -11  1    3    3    0    0 0.46749692E+02 -.21487670E+02 0.14137188E+03 0.15044355E+03 0.00000000E+00 0.0000E+00 0.9000E+01
       -2  1    1    2    0  501 -.10749314E+03 0.28718985E+02 0.23459240E+02 0.11370968E+03 0.00000000E+00 0.0000E+00 0.9000E+01
       21  1    1    2  501  502 0.72489582E+01 0.22098133E+01 -.40666042E+02 0.41366141E+02 0.00000000E+00 0.0000E+00 0.9000E+01
#aMCatNLO 2  0  0  2  5 0.75882865D+01 0.00000000D+00  -5  6  0 0.00000000D+00 0.00000000D+00 0.00000000D+00 0.00000000D+00 0.00000000D+00
  <mgrwgt>
 -.3491303237D-04    2    2    0
 0.142461768877289D+03 0.000000000000000D+00 0.000000000000000D+00 0.142461768877289D+03
 0.142461768877289D+03 0.000000000000000D+00 0.000000000000000D+00 -.142461768877289D+03
 0.786453953587539D+02 0.554782910267731D+02 -.883637679443008D+01 0.230038231829025D+02
 0.744016780061634D+02 0.486289301267522D+02 -.209147923380734D+02 0.522820074816905D+02
 0.131876464389661D+03 -.104107221153525D+03 0.297511691325035D+02 -.752858306645930D+02
 0.000000000000000D+00 0.000000000000000D+00 0.000000000000000D+00 -.000000000000000D+00
 0.142662857785081D+03 0.000000000000000D+00 0.000000000000000D+00 0.142662857785081D+03
 0.237781206856206D+03 0.000000000000000D+00 0.000000000000000D+00 -.237781206856206D+03
 0.773302762633607D+02 0.534944934792553D+02 -.944112881679689D+01 0.230038231829025D+02
 0.733529958549986D+02 0.467496924444155D+02 -.214876697419814D+02 0.522820074816905D+02
 0.134341030418514D+03 -.107493144149172D+03 0.287189852880594D+02 -.752858306645930D+02
 0.954197621044131D+02 0.724895822550128D+01 0.220981327071894D+01 -.951183490711244D+02
-.148818186567D-04 0.000000000000D+00 0.000000000000D+00 0.210091879504D-06 0.000000000000D+00  6 22 -1 9900012 -11 -2 21 2 0.50907593D-01 0.15771724D-01 0.14898977D+05 0.14898977D+05 0.14898977D+05 0.11917802D+01  1  2 13  1  6  2       -1 -.247971780983D-03 0.100000000000D+01
0.127891642698D-04 0.000000000000D+00 0.000000000000D+00 0.210091879504D-06 0.269873728326D-07  6 22 -1 9900012 -11 -2 21 2 0.50979451D-01 0.15749493D-01 0.14898977D+05 0.14898977D+05 0.14898977D+05 0.11917802D+01  1  2  1  1  6  2       -1 0.213058748616D-03 0.100000000000D+01
  </mgrwgt>
  </event>
  <event>
  6     66 -.83052089E-06 0.23096777E+02 0.78161638E-02 0.12871174E+00
       22 -1    0    0    0    0 0.00000000E+00 0.00000000E+00 0.24367203E+03 0.24367203E+03 0.00000000E+00 0.0000E+00 0.9000E+01
       -3 -1    0    0    0  501 0.00000000E+00 0.00000000E+00 -.71379451E+02 0.71379451E+02 0.00000000E+00 0.0000E+00 0.9000E+01
       24  2    1    2    0    0 -.19225010E+02 -.12800785E+02 0.23443066E+03 0.24875968E+03 0.79938603E+02 0.0000E+00 0.0000E+00
  9900012  1    3    3    0    0 0.10255578E+02 -.13118392E+02 0.16821992E+03 0.17628162E+03 0.50000000E+02 0.0000E+00 0.9000E+01
      -11  1    3    3    0    0 -.29480587E+02 0.31760685E+00 0.66210744E+02 0.72478056E+02 0.00000000E+00 0.0000E+00 0.9000E+01
       -4  1    1    2    0  501 0.19225010E+02 0.12800785E+02 -.62138087E+02 0.66291801E+02 0.00000000E+00 0.0000E+00 0.9000E+01
#aMCatNLO 1  0  0  5  2 0.19522468D+02 0.00000000D+00  -5  6  0 0.00000000D+00 0.00000000D+00 0.00000000D+00 0.00000000D+00 0.00000000D+00
  <mgrwgt>
 -.8969240886D-05    1    2    0
 0.131883189432240D+03 0.000000000000000D+00 0.000000000000000D+00 0.131883189432240D+03
 0.131883189432240D+03 -.000000000000000D+00 -.000000000000000D+00 -.131883189432240D+03
 0.100675236333588D+03 0.102555776780695D+02 -.131183919702223D+02 0.857801499732224D+02
 0.433212865971177D+02 -.294805871826491D+02 0.317606848286969D+00 0.317415812096020D+02
 0.119769855933775D+03 0.192250095045796D+02 0.128007851219353D+02 -.117521731182824D+03
 0.000000000000000D+00 0.000000000000000D+00 0.000000000000000D+00 0.000000000000000D+00
 0.131883189432240D+03 0.000000000000000D+00 0.000000000000000D+00 0.131883189432240D+03
 0.131883189432240D+03 -.000000000000000D+00 -.000000000000000D+00 -.131883189432240D+03
 0.701439579941271D+02 0.168637281380398D+02 -.871841942033369D+01 0.453847846660012D+02
 0.303216126369243D+02 -.266317073459174D+02 0.221450570909273D+01 0.143264901915820D+02
 0.105337104530501D+03 -.197213866160698D+02 0.423783520754940D+02 -.943983462576261D+02
 0.579637037029283D+02 0.294893658239473D+02 -.358744383642531D+02 0.346870714000429D+02
-.237050472085D-06 0.000000000000D+00 0.000000000000D+00 0.827802136208D-05 0.000000000000D+00  6 22 -3 9900012 -11 -4 21 2 0.37488004D-01 0.10981454D-01 0.27709104D+04 0.27709104D+04 0.27709104D+04 0.12717859D+01  1  2 14  2  6  5       -4 -.896924088587D-05 0.100000000000D+01
  </mgrwgt>
  </event>
  <event>
  7     66 0.83052089E-06 0.34303675E+02 0.78161638E-02 0.12498441E+00
       22 -1    0    0    0    0 0.00000000E+00 0.00000000E+00 0.46427616E+03 0.46427616E+03 0.00000000E+00 0.0000E+00 0.9000E+01
       -1 -1    0    0    0  502 0.00000000E+00 0.00000000E+00 -.93308306E+02 0.93308306E+02 0.00000000E+00 0.0000E+00 0.9000E+01
       24  2    1    2    0    0 -.29189865E+02 0.24900980E+02 0.45545410E+03 0.46372618E+03 0.78303388E+02 0.0000E+00 0.0000E+00
  9900012  1    3    3    0    0 0.16397603E+01 0.53242894E+01 0.28462055E+03 0.28903269E+03 0.50000000E+02 0.0000E+00 0.9000E+01
      -11  1    3    3    0    0 -.30829626E+02 0.19576690E+02 0.17083355E+03 0.17469348E+03 0.00000000E+00 0.0000E+00 0.9000E+01
       -2  1    1    2    0  501 0.24479406E+02 -.16201834E+02 -.49993041E+02 0.57974519E+02 0.00000000E+00 0.0000E+00 0.9000E+01
       21  1    1    2  501  502 0.47104599E+01 -.86991455E+01 -.34493207E+02 0.35883770E+02 0.00000000E+00 0.0000E+00 0.9000E+01
#aMCatNLO 2  0  0  2  5 0.99122240D+01 0.00000000D+00  -5  6  0 0.00000000D+00 0.00000000D+00 0.00000000D+00 0.00000000D+00 0.00000000D+00
  <mgrwgt>
 0.2221901177D-03    2    2    0
 0.164069406321707D+03 0.000000000000000D+00 0.000000000000000D+00 0.164069406321707D+03
 0.164069406321707D+03 0.000000000000000D+00 0.000000000000000D+00 -.164069406321707D+03
 0.107720910700194D+03 0.318624427863654D+01 0.246828608434375D+01 0.953286421453800D+02
 0.656912195096162D+02 -.298801542282229D+02 0.178232328550775D+02 0.557211366947219D+02
 0.154726682433604D+03 0.266939099495864D+02 -.202915189394213D+02 -.151049778840102D+03
 0.000000000000000D+00 0.000000000000000D+00 -.000000000000000D+00 -.000000000000000D+00
 0.164390132945760D+03 0.000000000000000D+00 0.000000000000000D+00 0.164390132945760D+03
 0.263524465332020D+03 0.000000000000000D+00 0.000000000000000D+00 -.263524465332020D+03
 0.107789549050120D+03 0.163976031574246D+01 0.532428936602094D+01 0.953286421453800D+02
 0.666225014746112D+02 -.308296257657530D+02 0.195766903057260D+02 0.557211366947219D+02
 0.153875847405559D+03 0.244794055405765D+02 -.162018342021901D+02 -.151049778840102D+03
 0.996267003474897D+02 0.471045990943404D+01 -.869914546955687D+01 -.991343323862606D+02
-.276839002485D-04 0.000000000000D+00 0.000000000000D+00 0.511134752530D-05 0.000000000000D+00  6 22 -1 9900012 -11 -2 21 2 0.71287746D-01 0.14383186D-01 0.39738817D+04 0.39738817D+04 0.39738817D+04 0.12532360D+01  1  2 13  1  6  2       -1 -.297817263490D-03 0.100000000000D+01
0.483642005450D-04 0.000000000000D+00 0.000000000000D+00 0.511134752530D-05 0.211026529992D-05  6 22 -1 9900012 -11 -2 21 2 0.71427101D-01 0.14355124D-01 0.39738817D+04 0.39738817D+04 0.39738817D+04 0.12532360D+01  1  2  1  1  6  2       -1 0.520007381222D-03 0.100000000000D+01
  </mgrwgt>
  </event>
  <event>
  7     66 -.83052089E-06 0.12180417E+03 0.78161638E-02 0.11077979E+00
       22 -1    0    0    0    0 0.00000000E+00 0.00000000E+00 0.45546552E+03 0.45546552E+03 0.00000000E+00 0.0000E+00 0.9000E+01
       -3 -1    0    0    0  501 0.00000000E+00 0.00000000E+00 -.15602008E+03 0.15602008E+03 0.00000000E+00 0.0000E+00 0.9000E+01
       24  2    1    2    0    0 -.35795748E+02 0.10996375E+03 0.37730003E+03 0.40271471E+03 0.80314769E+02 0.0000E+00 0.0000E+00
  9900012  1    3    3    0    0 -.39882803E+02 0.52206281E+02 0.23528392E+03 0.24934847E+03 0.50000000E+02 0.0000E+00 0.9000E+01
      -11  1    3    3    0    0 0.40870552E+01 0.57757472E+02 0.14201611E+03 0.15336624E+03 0.00000000E+00 0.0000E+00 0.9000E+01
       -4  1    1    2    0  502 0.40945963E+02 -.12131092E+03 -.11344415E+03 0.17106281E+03 0.00000000E+00 0.0000E+00 0.9000E+01
       21  1    1    2  502  501 -.51502148E+01 0.11347163E+02 0.35589561E+02 0.37708085E+02 0.00000000E+00 0.0000E+00 0.9000E+01
#aMCatNLO 2  0  0  5  2 0.42670428D+02 0.00000000D+00  -5  6  0 0.00000000D+00 0.00000000D+00 0.00000000D+00 0.00000000D+00 0.00000000D+00
  <mgrwgt>
 -.8862239830D-05    5    2    0
 0.266574132501453D+03 0.000000000000000D+00 0.000000000000000D+00 0.266574132501453D+03
 0.266574132501453D+03 -.000000000000000D+00 -.000000000000000D+00 -.266574132501453D+03
 0.167581269068660D+03 -.420966367683712D+02 0.590071301379498D+02 0.142581602979969D+03
 0.105042270776030D+03 0.270139626841012D+01 0.620141854367462D+02 0.847397304255957D+02
 0.260524725158216D+03 0.393952404999611D+02 -.121021315574696D+03 -.227321333405565D+03
 0.000000000000000D+00 -.000000000000000D+00 0.000000000000000D+00 0.000000000000000D+00
 0.266574132501453D+03 0.000000000000000D+00 0.000000000000000D+00 0.266574132501453D+03
 0.266574132501453D+03 -.000000000000000D+00 -.000000000000000D+00 -.266574132501453D+03
 0.153837695007167D+03 -.398828029047352D+02 0.522062810190999D+02 0.129807174916238D+03
 0.961368098621901D+02 0.408705520938965D+01 0.577574715330616D+02 0.767440986154758D+02
 0.259914152725764D+03 0.409459625440713D+02 -.121310915186209D+03 -.226191195220273D+03
 0.232596074077849D+02 -.515021484872579D+01 0.113471626340479D+02 0.196399216885586D+02
-.255955528295D-05 0.000000000000D+00 0.000000000000D+00 0.108119760233D-04 0.000000000000D+00  6 22 -3 9900012 -11 -4 21 2 0.70071619D-01 0.24003090D-01 0.19734325D+05 0.19734325D+05 0.19734325D+05 0.11798728D+01  1  2 13  2  6  5       -4 -.921719410036D-05 0.100000000000D+01
-.195087814788D-08 0.000000000000D+00 0.000000000000D+00 0.108119760233D-04 0.000000000000D+00  6 22 -3 9900012 -11 -4 21 2 0.70071619D-01 0.24003090D-01 0.19237904D+05 0.19237904D+05 0.19237904D+05 0.11809367D+01  1  2  8  2  6  5       -4 -.702656159337D-08 0.100000000000D+01
-.539605953552D-07 0.000000000000D+00 0.000000000000D+00 0.108119760233D-04 0.000000000000D+00  6 22 -3 9900012 -11 -4 21 2 0.70071619D-01 0.24003090D-01 0.19237904D+05 0.19237904D+05 0.19237904D+05 0.11809367D+01  1  2  9  2  6  5       -4 -.194352193288D-06 0.100000000000D+01
0.589923090023D-07 0.000000000000D+00 0.000000000000D+00 0.108119760233D-04 0.000000000000D+00  6 22 -3 9900012 -11 -4 21 2 0.70071619D-01 0.24003090D-01 0.19237904D+05 0.19237904D+05 0.19237904D+05 0.11809367D+01  1  2 10  2  6  5       -4 0.212475132386D-06 0.100000000000D+01
0.954871165064D-07 0.000000000000D+00 0.000000000000D+00 0.108119760233D-04 0.239651561507D-08  6 22 -3 9900012 -11 -4 21 2 0.70071619D-01 0.24003090D-01 0.19734325D+05 0.19734325D+05 0.19734325D+05 0.11798728D+01  1  2  1  2  6  5       -4 0.343857893121D-06 0.100000000000D+01
  </mgrwgt>
  </event>
  <event>
  7     66 -.83052089E-06 0.37901893E+02 0.78161638E-02 0.12479289E+00
       22 -1    0    0    0    0 0.00000000E+00 0.00000000E+00 0.16644483E+03 0.16644483E+03 0.00000000E+00 0.0000E+00 0.9000E+01
       -3 -1    0    0    0  501 0.00000000E+00 0.00000000E+00 -.28497034E+02 0.28497034E+02 0.00000000E+00 0.0000E+00 0.9000E+01
       24  2    1    2    0    0 0.12027493E+02 -.35903634E+02 0.11653459E+03 0.14572789E+03 0.78883306E+02 0.0000E+00 0.0000E+00
  9900012  1    3    3    0    0 0.29614453E+02 -.24378465E+02 0.10291159E+03 0.12067361E+03 0.50000000E+02 0.0000E+00 0.9000E+01
      -11  1    3    3    0    0 -.17586960E+02 -.11525169E+02 0.13622995E+02 0.25054274E+02 0.00000000E+00 0.0000E+00 0.9000E+01
       -4  1    1    2    0  502 -.95952512E+01 0.38505013E+02 0.16114525E+02 0.42829695E+02 0.00000000E+00 0.0000E+00 0.9000E+01
       21  1    1    2  502  501 -.24322417E+01 -.26013793E+01 0.52986849E+01 0.63842804E+01 0.00000000E+00 0.0000E+00 0.9000E+01
#aMCatNLO 2  0  0  5  2 0.61488740D+01 0.00000000D+00  -5  6  0 0.00000000D+00 0.00000000D+00 0.00000000D+00 0.00000000D+00 0.00000000D+00
  <mgrwgt>
 -.1193307315D-04    3    2    0
 0.688707768373207D+02 0.000000000000000D+00 0.000000000000000D+00 0.688707768373207D+02
 0.688707768373207D+02 -.000000000000000D+00 -.000000000000000D+00 -.688707768373207D+02
 0.695286201962194D+02 0.304599726869567D+02 -.269024521692682D+02 0.261280913497373D+02
 0.219300243429460D+02 -.173174679761029D+02 -.123296371809843D+02 -.538621551408268D+01
 0.462829091354760D+02 -.131425047108538D+02 0.392320893502526D+02 -.207418758356546D+02
 0.000000000000000D+00 0.000000000000000D+00 0.000000000000000D+00 0.000000000000000D+00
 0.688707768373207D+02 0.000000000000000D+00 0.000000000000000D+00 0.688707768373207D+02
 0.688707768373207D+02 -.000000000000000D+00 -.000000000000000D+00 -.688707768373207D+02
 0.677203907280712D+02 0.296144527438716D+02 -.243784649473241D+02 0.247936676563938D+02
 0.218152381472966D+02 -.175869598405754D+02 -.115251688441825D+02 -.581153526207496D+01
 0.444770456817941D+02 -.959525121234646D+01 0.385050130840676D+02 -.200873769852648D+02
 0.372887911747954D+01 -.243224169094977D+01 -.260137929256109D+01 0.110524459094589D+01
-.550610641812D-07 0.000000000000D+00 0.000000000000D+00 0.159493825137D-06 0.000000000000D+00  6 22 -3 9900012 -11 -4 21 2 0.25606897D-01 0.43841590D-02 0.40506366D+04 0.40506366D+04 0.40506366D+04 0.12522754D+01  1  2 13  2  6  5       -4 -.155501471309D-04 0.100000000000D+01
-.984796353191D-08 0.000000000000D+00 0.000000000000D+00 0.159493825137D-06 0.000000000000D+00  6 22 -3 9900012 -11 -4 21 2 0.25606897D-01 0.43841590D-02 0.40364243D+04 0.40364243D+04 0.40364243D+04 0.12524517D+01  1  2  8  2  6  5       -4 -.278078891775D-05 0.100000000000D+01
0.226540068516D-07 0.000000000000D+00 0.000000000000D+00 0.159493825137D-06 0.118495041426D-07  6 22 -3 9900012 -11 -4 21 2 0.25606897D-01 0.43841590D-02 0.40506366D+04 0.40506366D+04 0.40506366D+04 0.12522754D+01  1  2  1  2  6  5       -4 0.639786289794D-05 0.100000000000D+01
  </mgrwgt>
  </event>
  <event>
  7     66 0.83052089E-06 0.66668023E+02 0.78161638E-02 0.11812396E+00
       22 -1    0    0    0    0 0.00000000E+00 0.00000000E+00 0.35639996E+03 0.35639996E+03 0.00000000E+00 0.0000E+00 0.9000E+01
       -3 -1    0    0    0  501 0.00000000E+00 0.00000000E+00 -.23891725E+02 0.23891725E+02 0.00000000E+00 0.0000E+00 0.9000E+01
       24  2    1    2    0    0 -.52528364E+02 0.50085232E+02 0.18189225E+03 0.21127779E+03 0.79282744E+02 0.0000E+00 0.0000E+00
  9900012  1    3    3    0    0 -.19093266E+02 0.50484399E+02 0.11555227E+03 0.13698742E+03 0.50000000E+02 0.0000E+00 0.9000E+01
      -11  1    3    3    0    0 -.33435098E+02 -.39916701E+00 0.66339983E+02 0.74290365E+02 0.00000000E+00 0.0000E+00 0.9000E+01
       -4  1    1    2    0  502 0.47367467E+02 -.37148663E+02 0.13649540E+03 0.14918007E+03 0.00000000E+00 0.0000E+00 0.9000E+01
       21  1    1    2  502  501 0.51608962E+01 -.12936568E+02 0.14120581E+02 0.19833821E+02 0.00000000E+00 0.0000E+00 0.9000E+01
#aMCatNLO 2  0  0  5  2 0.99130151D+01 0.00000000D+00  -5  6  0 0.00000000D+00 0.00000000D+00 0.00000000D+00 0.00000000D+00 0.00000000D+00
  <mgrwgt>
 0.2893116822D-04    2    2    0
 0.922768115053230D+02 0.000000000000000D+00 0.000000000000000D+00 0.922768115053230D+02
 0.922768115053230D+02 -.000000000000000D+00 -.000000000000000D+00 -.922768115053230D+02
 0.752094224811364D+02 -.203008650120717D+02 0.516358314628874D+02 -.883589377731465D+01
 0.340970017180977D+02 -.339823378925236D+02 0.122620638995977D+00 0.279127241615848D+01
 0.752471988114120D+02 0.542832029045952D+02 -.517584521018834D+02 0.604462136115617D+01
 0.000000000000000D+00 0.000000000000000D+00 -.000000000000000D+00 0.000000000000000D+00
 0.922768115053230D+02 0.000000000000000D+00 0.000000000000000D+00 0.922768115053230D+02
 0.922768115053230D+02 -.000000000000000D+00 -.000000000000000D+00 -.922768115053230D+02
 0.740873948425282D+02 -.190932658567800D+02 0.504843986127056D+02 -.870142345759863D+01
 0.335589063029590D+02 -.334350977112436D+02 -.399167007926485D+00 0.285220949268400D+01
 0.614785932326166D+02 0.473674673219190D+02 -.371486631845334D+02 0.124866844666851D+02
 0.154287286325422D+02 0.516089624610460D+01 -.129365684202457D+02 -.663747050177049D+01
-.424264052624D-06 0.000000000000D+00 0.000000000000D+00 0.121987081691D-06 0.000000000000D+00  6 22 -3 9900012 -11 -4 21 2 0.54830763D-01 0.36756501D-02 0.82026814D+04 0.82026814D+04 0.82026814D+04 0.12183552D+01  1  2 13  2  6  5       -4 -.476141839174D-04 0.100000000000D+01
0.682053930893D-06 0.000000000000D+00 0.000000000000D+00 0.121987081691D-06 0.124770062592D-07  6 22 -3 9900012 -11 -4 21 2 0.54830763D-01 0.36756501D-02 0.82026814D+04 0.82026814D+04 0.82026814D+04 0.12183552D+01  1  2  1  2  6  5       -4 0.765453521369D-04 0.100000000000D+01
  </mgrwgt>
  </event>
  <event>
  6     66 0.83052089E-06 0.66084265E+02 0.78161638E-02 0.11554561E+00
       22 -1    0    0    0    0 0.00000000E+00 0.00000000E+00 0.64039291E+03 0.64039291E+03 0.00000000E+00 0.0000E+00 0.9000E+01
       -3 -1    0    0    0  501 0.00000000E+00 0.00000000E+00 -.22160593E+02 0.22160593E+02 0.00000000E+00 0.0000E+00 0.9000E+01
       24  2    1    2    0    0 -.51470352E+02 -.41447955E+02 0.57415168E+03 0.58311653E+03 0.77508737E+02 0.0000E+00 0.0000E+00
  9900012  1    3    3    0    0 -.25884249E+02 -.34329426E+02 0.50044935E+03 0.50477525E+03 0.50000000E+02 0.0000E+00 0.9000E+01
      -11  1    3    3    0    0 -.25586103E+02 -.71185286E+01 0.73702333E+02 0.78341279E+02 0.00000000E+00 0.0000E+00 0.9000E+01
       -4  1    1    2    0  501 0.51470352E+02 0.41447955E+02 0.44080633E+02 0.79436971E+02 0.00000000E+00 0.0000E+00 0.9000E+01
#aMCatNLO 1  0  0  2  2 0.68150351D+02 0.00000000D+00  -5  6  0 0.00000000D+00 0.00000000D+00 0.00000000D+00 0.00000000D+00 0.00000000D+00
  <mgrwgt>
 0.4798345521D-04    7    4    0
 0.119128026472393D+03 0.000000000000000D+00 0.000000000000000D+00 0.119128026472393D+03
 0.119128026472393D+03 0.000000000000000D+00 0.000000000000000D+00 -.119128026472393D+03
 0.105124929704369D+03 -.258842494114799D+02 -.343294264435915D+02 0.818703057146290D+02
 0.266105505189244D+02 -.255861027374891D+02 -.711852856868441D+01 0.167310987197670D+01
 0.106520572721493D+03 0.514703521489689D+02 0.414479550122759D+02 -.835434155866057D+02
 0.000000000000000D+00 0.000000000000000D+00 0.000000000000000D+00 -.000000000000000D+00
 0.144530983553814D+03 0.000000000000000D+00 0.000000000000000D+00 0.144530983553814D+03
 0.149092551188928D+03 0.000000000000000D+00 0.000000000000000D+00 -.149092551188928D+03
 0.115341446662697D+03 -.466925749289762D+02 -.438258577433332D+02 0.818703057146290D+02
 0.326919059082603D+02 -.311832592638406D+02 -.967293941648211D+01 0.167310987197670D+01
 0.954074859599450D+02 0.324117326651357D+02 0.327500484727056D+02 -.835434155866057D+02
 0.501826962118403D+02 0.454641015276811D+02 0.207487486871097D+02 -.456156763511374D+01
 0.119128026472393D+03 0.000000000000000D+00 0.000000000000000D+00 0.119128026472393D+03
 0.119128026472393D+03 0.000000000000000D+00 0.000000000000000D+00 -.119128026472393D+03
 0.105124929704369D+03 -.258842494114799D+02 -.343294264435915D+02 0.818703057146290D+02
 0.266105505189244D+02 -.255861027374891D+02 -.711852856868441D+01 0.167310987197670D+01
 0.000000000000000D+00 0.000000000000000D+00 0.000000000000000D+00 -.000000000000000D+00
 0.106520572721493D+03 0.514703521489689D+02 0.414479550122759D+02 -.835434155866057D+02
 0.144530983553814D+03 0.000000000000000D+00 0.000000000000000D+00 0.144530983553814D+03
 0.149092551188928D+03 0.000000000000000D+00 0.000000000000000D+00 -.149092551188928D+03
 0.115341446662697D+03 -.466925749289762D+02 -.438258577433332D+02 0.818703057146290D+02
 0.326919059082603D+02 -.311832592638406D+02 -.967293941648211D+01 0.167310987197670D+01
 0.501826962118403D+02 0.454641015276811D+02 0.207487486871097D+02 -.456156763511374D+01
 0.954074859599450D+02 0.324117326651357D+02 0.327500484727056D+02 -.835434155866057D+02
0.141160932147D-05 0.000000000000D+00 0.000000000000D+00 0.345167616379D-06 0.000000000000D+00  6 22 -3 9900012 -11 -4 21 0 0.98521985D-01 0.34093220D-02 0.62873286D+04 0.62873286D+04 0.62873286D+04 0.12308017D+01  1  2  2  1  6  2       -3 0.404903227688D-04 0.100000000000D+01
0.184687744465D-08 0.000000000000D+00 -.271047573985D-08 0.345167616379D-06 0.000000000000D+00  6 22 -3 9900012 -11 -4 21 2 0.98521985D-01 0.34093220D-02 0.62873286D+04 0.62873286D+04 0.62873286D+04 0.12308017D+01  1  2  3  1  6  2       -3 0.802510897916D-07 0.100000000000D+01
-.173323690049D-06 0.000000000000D+00 0.000000000000D+00 0.345167616379D-06 0.000000000000D+00  6 22 -3 9900012 -11 -4 21 2 0.98521985D-01 0.34093220D-02 0.62873286D+04 0.62873286D+04 0.62873286D+04 0.12308017D+01  1  2 15  1  6  2       -3 -.753131457285D-05 0.100000000000D+01
-.573963696806D-07 0.000000000000D+00 0.000000000000D+00 0.345167616379D-06 0.000000000000D+00  6 22 -3 9900012 -11 -4 21 2 0.98521985D-01 0.34093220D-02 0.62873286D+04 0.62873286D+04 0.62873286D+04 0.12308017D+01  1  2  4  1  6  2       -3 -.249400480270D-05 0.100000000000D+01
-.695037140221D-06 0.000000000000D+00 -.573837222932D-06 0.345167616379D-06 0.000000000000D+00  6 22 -3 9900012 -11 -4 21 2 0.98521985D-01 0.51901955D-02 0.62873286D+04 0.62873286D+04 0.62873286D+04 0.12308017D+01  1  2  5  1  6  2       -3 -.161303995978D-04 0.100000000000D+01
0.902512805834D-06 0.000000000000D+00 0.526641818058D-06 0.345167616379D-06 0.000000000000D+00  6 22 -3 9900012 -11 -4 21 2 0.98521985D-01 0.34093220D-02 0.62873286D+04 0.62873286D+04 0.62873286D+04 0.12308017D+01  1  2  6  1  6  2       -3 0.392162655021D-04 0.100000000000D+01
-.133908808698D-07 0.000000000000D+00 -.283288405767D-07 0.345167616379D-06 0.000000000000D+00  6 22 21 9900012 -11 3 -4 2 0.98521985D-01 0.51901955D-02 0.62873286D+04 0.62873286D+04 0.62873286D+04 0.12308017D+01  3  4  5  3  5  2       -3 -.564766517397D-05 0.100000000000D+01
  </mgrwgt>
  </event>
  <event>
  6     66 -.83052089E-06 0.37819369E+02 0.78161638E-02 0.12508115E+00
       22 -1    0    0    0    0 0.00000000E+00 0.00000000E+00 0.55333197E+02 0.55333197E+02 0.00000000E+00 0.0000E+00 0.9000E+01
       -3 -1    0    0    0  501 0.00000000E+00 0.00000000E+00 -.82991691E+02 0.82991691E+02 0.00000000E+00 0.0000E+00 0.9000E+01
       24  2    1    2    0    0 0.22545003E+02 -.30364906E+02 0.57437940E+01 0.87866811E+02 0.79102975E+02 0.0000E+00 0.0000E+00
  9900012  1    3    3    0    0 -.77610001E+01 -.26447218E+02 0.47802419E+01 0.57293448E+02 0.50000000E+02 0.0000E+00 0.9000E+01
      -11  1    3    3    0    0 0.30306003E+02 -.39176879E+01 0.96355211E+00 0.30573363E+02 0.00000000E+00 0.0000E+00 0.9000E+01
       -4  1    1    2    0  501 -.22545003E+02 0.30364906E+02 -.33402288E+02 0.50458077E+02 0.00000000E+00 0.0000E+00 0.9000E+01
#aMCatNLO 1  0  0  2  2 0.68150351D+02 0.00000000D+00  -5  6  0 0.00000000D+00 0.00000000D+00 0.00000000D+00 0.00000000D+00 0.00000000D+00
  <mgrwgt>
 -.2901771820D-05    1    2    0
 0.677657401364553D+02 0.000000000000000D+00 0.000000000000000D+00 0.677657401364553D+02
 0.677657401364553D+02 0.000000000000000D+00 0.000000000000000D+00 -.677657401364553D+02
 0.594498340513644D+02 -.776100013112844D+01 -.264472179438350D+02 0.165708873851305D+02
 0.314001393252236D+02 0.303060027414027D+02 -.391768792515777D+01 0.722264970787147D+01
 0.446815068963226D+02 -.225450026102743D+02 0.303649058689928D+02 -.237935370930019D+02
 0.000000000000000D+00 -.000000000000000D+00 -.000000000000000D+00 -.000000000000000D+00
 0.825365438637095D+02 0.000000000000000D+00 0.000000000000000D+00 0.825365438637095D+02
 0.637830056868332D+03 0.000000000000000D+00 0.000000000000000D+00 -.637830056868332D+03
 0.541702101294836D+02 0.125294017438813D+02 -.168269090511467D+01 0.165708873851305D+02
 0.467189670891340D+02 0.442566051609989D+02 0.131090852730622D+02 0.722264970787147D+01
 0.580201446305155D+02 -.420442020925096D+01 0.527496694421294D+02 -.237935370930019D+02
 0.561457278882909D+03 -.525815866956292D+02 -.641760638100770D+02 -.555293513004623D+03
-.109645751518D-07 0.000000000000D+00 0.000000000000D+00 0.179578309043D-06 0.000000000000D+00  6 22 -3 9900012 -11 -4 21 2 0.85127995D-02 0.12767952D-01 0.39357571D+04 0.39357571D+04 0.39357571D+04 0.12537209D+01  1  2 14  1  6  2       -3 -.290177182042D-05 0.100000000000D+01
  </mgrwgt>
  </event>
  <event>
  6     66 0.83052089E-06 0.85977210E+02 0.78161638E-02 0.96444947E-01
       22 -1    0    0    0    0 0.00000000E+00 0.00000000E+00 0.32721544E+04 0.32721544E+04 0.00000000E+00 0.0000E+00 0.9000E+01
       -1 -1    0    0    0  501 0.00000000E+00 0.00000000E+00 -.14966810E+03 0.14966810E+03 0.00000000E+00 0.0000E+00 0.9000E+01
       24  2    1    2    0    0 0.58687987E+02 -.62831527E+02 0.32586019E+04 0.32608270E+04 0.84348677E+02 0.0000E+00 0.0000E+00
  9900012  1    3    3    0    0 0.24755517E+02 -.31378163E+02 0.12006580E+04 0.12023631E+04 0.50000000E+02 0.0000E+00 0.9000E+01
      -11  1    3    3    0    0 0.33932470E+02 -.31453363E+02 0.20579438E+04 0.20584639E+04 0.00000000E+00 0.0000E+00 0.9000E+01
       -2  1    1    2    0  501 -.58687987E+02 0.62831527E+02 -.13611559E+03 0.16099545E+03 0.00000000E+00 0.0000E+00 0.9000E+01
#aMCatNLO 1  0  0  2  5 0.10132570D+02 0.00000000D+00  -5  6  0 0.00000000D+00 0.00000000D+00 0.00000000D+00 0.00000000D+00 0.00000000D+00
  <mgrwgt>
 0.6457951226D-03    6    4    0
 0.699812210982141D+03 0.000000000000000D+00 0.000000000000000D+00 0.699812210982141D+03
 0.699812210982141D+03 0.000000000000000D+00 0.000000000000000D+00 -.699812210982141D+03
 0.260952157539541D+03 0.247555174534056D+02 -.313781632881116D+02 0.252979453214723D+03
 0.441401699316491D+03 0.339324698305421D+02 -.314533632787149D+02 0.438970082795106D+03
 0.697270565108249D+03 -.586879872839477D+02 0.628315265668266D+02 -.691949536009829D+03
 0.000000000000000D+00 -.000000000000000D+00 -.000000000000000D+00 -.000000000000000D+00
 0.902194712739539D+03 0.000000000000000D+00 0.000000000000000D+00 0.902194712739539D+03
 0.927036901920472D+03 0.000000000000000D+00 0.000000000000000D+00 -.927036901920472D+03
 0.272258549470800D+03 0.873081157482533D+02 0.184578861566492D+01 0.252979453214723D+03
 0.461372752850670D+03 0.139839734847575D+03 0.247978233242920D+02 0.438970082795106D+03
 0.716272483988586D+03 0.107139122637372D+03 0.150908314335081D+03 -.691949536009829D+03
 0.379327828349954D+03 -.334286973233200D+03 -.177551926275038D+03 -.248421891809330D+02
 0.699812210982141D+03 0.000000000000000D+00 0.000000000000000D+00 0.699812210982141D+03
 0.699812210982141D+03 0.000000000000000D+00 0.000000000000000D+00 -.699812210982141D+03
 0.260952157539541D+03 0.247555174534056D+02 -.313781632881116D+02 0.252979453214723D+03
 0.441401699316491D+03 0.339324698305421D+02 -.314533632787149D+02 0.438970082795106D+03
 0.000000000000000D+00 -.000000000000000D+00 -.000000000000000D+00 -.000000000000000D+00
 0.697270565108249D+03 -.586879872839477D+02 0.628315265668266D+02 -.691949536009829D+03
 0.902194712739539D+03 0.000000000000000D+00 0.000000000000000D+00 0.902194712739539D+03
 0.927036901920472D+03 0.000000000000000D+00 0.000000000000000D+00 -.927036901920472D+03
 0.272258549470800D+03 0.873081157482533D+02 0.184578861566492D+01 0.252979453214723D+03
 0.461372752850670D+03 0.139839734847575D+03 0.247978233242920D+02 0.438970082795106D+03
 0.379327828349954D+03 -.334286973233200D+03 -.177551926275038D+03 -.248421891809330D+02
 0.716272483988586D+03 0.107139122637372D+03 0.150908314335081D+03 -.691949536009829D+03
0.256585907484D-01 0.000000000000D+00 0.000000000000D+00 0.147990864054D-03 0.000000000000D+00  6 22 -1 9900012 -11 -2 21 0 0.50340837D+00 0.23025862D-01 0.96291364D+04 0.96291364D+04 0.96291364D+04 0.12110348D+01  1  2  2  1  6  2       -1 0.389381322053D-03 0.100000000000D+01
0.454565206207D-03 0.000000000000D+00 -.492678722680D-04 0.147990864054D-03 0.000000000000D+00  6 22 -1 9900012 -11 -2 21 2 0.50340837D+00 0.23025862D-01 0.96291364D+04 0.96291364D+04 0.96291364D+04 0.12110348D+01  1  2  3  1  6  2       -1 0.101170003215D-04 0.100000000000D+01
-.367656731946D-02 0.000000000000D+00 0.000000000000D+00 0.147990864054D-03 0.000000000000D+00  6 22 -1 9900012 -11 -2 21 2 0.50340837D+00 0.23025862D-01 0.96291364D+04 0.96291364D+04 0.96291364D+04 0.12110348D+01  1  2 15  1  6  2       -1 -.818272763625D-04 0.100000000000D+01
-.258733653299D-04 0.000000000000D+00 0.000000000000D+00 0.147990864054D-03 0.000000000000D+00  6 22 -1 9900012 -11 -2 21 2 0.50340837D+00 0.23025862D-01 0.96291364D+04 0.96291364D+04 0.96291364D+04 0.12110348D+01  1  2  4  1  6  2       -1 -.575848837060D-06 0.100000000000D+01
0.259519033174D-01 0.000000000000D+00 -.788606999597D-02 0.147990864054D-03 0.000000000000D+00  6 22 -1 9900012 -11 -2 21 2 0.50340837D+00 0.49112918D-01 0.96291364D+04 0.96291364D+04 0.96291364D+04 0.12110348D+01  1  2  5  1  6  2       -1 0.167231492068D-03 0.100000000000D+01
0.261899237412D-02 0.000000000000D+00 -.646374624968D-03 0.147990864054D-03 0.000000000000D+00  6 22 21 9900012 -11 1 -2 2 0.50340837D+00 0.49112918D-01 0.96291364D+04 0.96291364D+04 0.96291364D+04 0.12110348D+01  3  4  5  3  5  2       -1 0.161468433334D-03 0.100000000000D+01
  </mgrwgt>
  </event>
  <event>
  6     66 0.83052089E-06 0.33808318E+02 0.78161638E-02 0.10286957E+00
       22 -1    0    0    0    0 0.00000000E+00 0.00000000E+00 0.48241467E+03 0.48241467E+03 0.00000000E+00 0.0000E+00 0.9000E+01
       -3 -1    0    0    0  501 0.00000000E+00 0.00000000E+00 -.70323618E+02 0.70323618E+02 0.00000000E+00 0.0000E+00 0.9000E+01
       24  2    1    2    0    0 0.10396996E+02 -.32169937E+02 0.47381541E+03 0.48236145E+03 0.83836265E+02 0.0000E+00 0.0000E+00
  9900012  1    3    3    0    0 0.27054041E+02 -.31638922E+01 0.30191202E+03 0.30723411E+03 0.50000000E+02 0.0000E+00 0.9000E+01
      -11  1    3    3    0    0 -.16657045E+02 -.29006045E+02 0.17190339E+03 0.17512733E+03 0.00000000E+00 0.0000E+00 0.9000E+01
       -4  1    1    2    0  501 -.10396996E+02 0.32169937E+02 -.61724362E+02 0.70376838E+02 0.00000000E+00 0.0000E+00 0.9000E+01
#aMCatNLO 1  0  0  2  5 0.95959823D+01 0.00000000D+00  -5  6  0 0.00000000D+00 0.00000000D+00 0.00000000D+00 0.00000000D+00 0.00000000D+00
  <mgrwgt>
 0.4674645498D-04    3    2    0
 0.184187797442671D+03 0.000000000000000D+00 0.000000000000000D+00 0.184187797442671D+03
 0.184187797442671D+03 0.000000000000000D+00 0.000000000000000D+00 -.184187797442671D+03
 0.123256848730572D+03 0.270540407903527D+02 -.316389217496036D+01 0.109317516538798D+03
 0.704708305646305D+02 -.166570452113332D+02 -.290060450419150D+02 0.620268502853632D+02
 0.174647915590140D+03 -.103969955790196D+02 0.321699372168753D+02 -.171344366824161D+03
 0.000000000000000D+00 0.000000000000000D+00 0.000000000000000D+00 0.000000000000000D+00
 0.417840262733729D+03 0.000000000000000D+00 0.000000000000000D+00 0.417840262733729D+03
 0.283569805068961D+03 0.000000000000000D+00 0.000000000000000D+00 -.283569805068961D+03
 0.141133500972249D+03 -.401934034901458D+00 -.739471711663477D+02 0.109317516538798D+03
 0.103834665694988D+03 -.347580361233947D+02 -.756715704112970D+02 0.620268502853632D+02
 0.189619340916197D+03 -.482248233932496D+02 -.653526496464382D+02 -.171344366824161D+03
 0.266822560219255D+03 0.833847935515457D+02 0.214971391224083D+03 0.134270457664768D+03
0.649371102914D-05 0.000000000000D+00 0.000000000000D+00 0.163381730676D-05 0.000000000000D+00  6 22 -3 9900012 -11 -4 21 0 0.74217641D-01 0.10819018D-01 0.38560910D+04 0.38560910D+04 0.38560910D+04 0.12547514D+01  1  2  2  1  6  2       -3 0.512944957954D-04 0.100000000000D+01
0.500942802256D-06 0.000000000000D+00 -.124687800926D-07 0.163381730676D-05 0.000000000000D+00  6 22 -3 9900012 -11 -4 21 2 0.74217641D-01 0.10819018D-01 0.38560910D+04 0.38560910D+04 0.38560910D+04 0.12547514D+01  1  2  3  1  6  2       -3 0.622990315979D-05 0.100000000000D+01
-.866648054999D-06 0.000000000000D+00 0.000000000000D+00 0.163381730676D-05 0.000000000000D+00  6 22 -3 9900012 -11 -4 21 2 0.74217641D-01 0.10819018D-01 0.38560910D+04 0.38560910D+04 0.38560910D+04 0.12547514D+01  1  2 15  1  6  2       -3 -.107779439727D-04 0.100000000000D+01
  </mgrwgt>
  </event>
  <event>
  7     66 -.83052089E-06 0.67794097E+02 0.78161638E-02 0.11644682E+00
       22 -1    0    0    0    0 0.00000000E+00 0.00000000E+00 0.33236215E+03 0.33236215E+03 0.00000000E+00 0.0000E+00 0.9000E+01
       -1 -1    0    0    0  502 0.00000000E+00 0.00000000E+00 -.67182498E+02 0.67182498E+02 0.00000000E+00 0.0000E+00 0.9000E+01
       24  2    1    2    0    0 0.62584369E+02 -.40721227E+02 0.28311906E+03 0.30438553E+03 0.83181264E+02 0.0000E+00 0.0000E+00
  9900012  1    3    3    0    0 0.65927817E+02 -.16060432E+02 0.18737467E+03 0.20545968E+03 0.50000000E+02 0.0000E+00 0.9000E+01
      -11  1    3    3    0    0 -.33434475E+01 -.24660795E+02 0.95744396E+02 0.98925845E+02 0.00000000E+00 0.0000E+00 0.9000E+01
       -2  1    1    2    0  501 -.69890630E+02 0.27799248E+02 -.24250121E+02 0.79028898E+02 0.00000000E+00 0.0000E+00 0.9000E+01
       21  1    1    2  501  502 0.73062611E+01 0.12921979E+02 0.63107070E+01 0.16130221E+02 0.00000000E+00 0.0000E+00 0.9000E+01
#aMCatNLO 2  0  0  2  5 0.17948647D+02 0.00000000D+00  -5  6  0 0.00000000D+00 0.00000000D+00 0.00000000D+00 0.00000000D+00 0.00000000D+00
  <mgrwgt>
 -.2260475982D-04    2    2    0
 0.141220689403598D+03 0.000000000000000D+00 0.000000000000000D+00 0.141220689403598D+03
 0.141220689403598D+03 0.000000000000000D+00 0.000000000000000D+00 -.141220689403598D+03
 0.108145898191100D+03 0.687089763578339D+02 -.111416256591866D+02 0.659581385508176D+02
 0.453235679000700D+02 -.215694344261979D+01 -.225623233732900D+02 0.392493944689174D+02
 0.128971912716026D+03 -.665520329152141D+02 0.337039490324766D+02 -.105207533019735D+03
 0.000000000000000D+00 0.000000000000000D+00 0.000000000000000D+00 -.000000000000000D+00
 0.146356564757704D+03 0.000000000000000D+00 0.000000000000000D+00 0.146356564757704D+03
 0.152565204564241D+03 0.000000000000000D+00 0.000000000000000D+00 -.152565204564241D+03
 0.107027522463953D+03 0.659278169079095D+02 -.160604321685424D+02 0.659581385508176D+02
 0.464741693330840D+02 -.334344753597129D+01 -.246607949506436D+02 0.392493944689174D+02
 0.129329514863445D+03 -.698906304708725D+02 0.277992478872985D+02 -.105207533019735D+03
 0.160905626614625D+02 0.730626109893430D+01 0.129219792318875D+02 -.620863980653724D+01
-.826155183604D-06 0.000000000000D+00 0.000000000000D+00 0.231151416874D-06 0.000000000000D+00  6 22 -1 9900012 -11 -2 21 2 0.49338316D-01 0.10711657D-01 0.99236401D+04 0.99236401D+04 0.99236401D+04 0.12096751D+01  1  2 13  1  6  2       -1 -.259824379286D-04 0.100000000000D+01
0.108079099456D-06 0.000000000000D+00 0.000000000000D+00 0.231151416874D-06 0.140850061728D-08  6 22 -1 9900012 -11 -2 21 2 0.51132638D-01 0.10335769D-01 0.99236401D+04 0.99236401D+04 0.99236401D+04 0.12096751D+01  1  2  1  1  6  2       -1 0.337767810843D-05 0.100000000000D+01
  </mgrwgt>
  </event>
  <event>
  6     66 0.83052089E-06 0.36127788E+02 0.78161638E-02 0.12630964E+00
       22 -1    0    0    0    0 0.00000000E+00 0.00000000E+00 0.34564178E+02 0.34564178E+02 0.00000000E+00 0.0000E+00 0.9000E+01
       -3 -1    0    0    0  501 -.00000000E+00 -.00000000E+00 -.11414232E+03 0.11414232E+03 0.00000000E+00 0.0000E+00 0.9000E+01
       24  2    1    2    0    0 -.15761234E+02 0.32508470E+02 -.66949825E+02 0.11043521E+03 0.80052729E+02 0.0000E+00 0.0000E+00
  9900012  1    3    3    0    0 0.21582681E+01 -.30128370E+00 -.33099205E+02 0.60002552E+02 0.50000000E+02 0.0000E+00 0.9000E+01
      -11  1    3    3    0    0 -.17919502E+02 0.32809753E+02 -.33850620E+02 0.50432658E+02 0.00000000E+00 0.0000E+00 0.9000E+01
       -4  1    1    2    0  501 0.15761234E+02 -.32508470E+02 -.12628315E+02 0.38271287E+02 0.00000000E+00 0.0000E+00 0.9000E+01
#aMCatNLO 1  0  0  5  2 0.18264002D+02 0.00000000D+00  -5  6  0 0.00000000D+00 0.00000000D+00 0.00000000D+00 0.00000000D+00 0.00000000D+00
  <mgrwgt>
 0.2266724923D-03    5    2    0
 0.628111094338050D+02 0.000000000000000D+00 0.000000000000000D+00 0.628111094338050D+02
 0.628111094338050D+02 -.000000000000000D+00 -.000000000000000D+00 -.628111094338050D+02
 0.500611772853737D+02 0.215826808558851D+01 -.301283698584997D+00 -.117157082641716D+01
 0.382567231521616D+02 -.179195015894981D+02 0.328097534952583D+02 -.812332473224485D+01
 0.373043184300747D+02 0.157612335039096D+02 -.325084697966733D+02 0.929489555866201D+01
 0.000000000000000D+00 0.000000000000000D+00 0.000000000000000D+00 -.000000000000000D+00
 0.628111094338050D+02 0.000000000000000D+00 0.000000000000000D+00 0.628111094338050D+02
 0.628111094338050D+02 -.000000000000000D+00 -.000000000000000D+00 -.628111094338050D+02
 0.512664757809960D+02 0.646946519325596D+01 -.919338094004443D+01 0.137087782385090D+01
 0.312708031867895D+02 -.149613074402719D+02 0.267083043206767D+02 -.637878451891179D+01
 0.276843337766603D+02 -.227464476208264D+01 -.237078339024794D+02 0.141133603197932D+02
 0.154006061231642D+02 0.107664870090986D+02 0.619291052184709D+01 -.910545362473235D+01
0.140458130149D-05 0.000000000000D+00 0.000000000000D+00 0.223202068836D-06 0.000000000000D+00  6 22 -3 9900012 -11 -4 21 0 0.53175659D-02 0.17560357D-01 0.38167430D+04 0.38167430D+04 0.38167430D+04 0.12552692D+01  1  2  2  2  6  5       -4 0.265983188780D-03 0.100000000000D+01
-.482934306542D-07 0.000000000000D+00 -.269698101623D-08 0.223202068836D-06 0.000000000000D+00  6 22 -3 9900012 -11 -4 21 2 0.53175659D-02 0.17560357D-01 0.38167430D+04 0.38167430D+04 0.38167430D+04 0.12552692D+01  1  2  3  2  6  5       -4 -.144101699086D-04 0.100000000000D+01
-.148257597084D-06 0.000000000000D+00 0.000000000000D+00 0.223202068836D-06 0.000000000000D+00  6 22 -3 9900012 -11 -4 21 2 0.53175659D-02 0.17560357D-01 0.38167430D+04 0.38167430D+04 0.38167430D+04 0.12552692D+01  1  2 15  2  6  5       -4 -.442382563275D-04 0.100000000000D+01
0.245250687374D-06 0.000000000000D+00 0.000000000000D+00 0.223202068836D-06 0.000000000000D+00  6 22 -3 9900012 -11 -4 21 2 0.53175659D-02 0.17560357D-01 0.34868241D+04 0.34868241D+04 0.34868241D+04 0.12598626D+01  1  2 12  2  6  5       -4 0.729160274604D-04 0.100000000000D+01
-.179559284841D-06 0.000000000000D+00 0.000000000000D+00 0.223202068836D-06 0.000000000000D+00  6 22 -3 9900012 -11 -4 21 2 0.53175659D-02 0.17560357D-01 0.38167430D+04 0.38167430D+04 0.38167430D+04 0.12552692D+01  1  2  4  2  6  5       -4 -.535782976726D-04 0.100000000000D+01
  </mgrwgt>
  </event>
  <event>
  7     66 -.83052089E-06 0.67259159E+02 0.78161638E-02 0.11672713E+00
       22 -1    0    0    0    0 0.00000000E+00 0.00000000E+00 0.74733251E+03 0.74733251E+03 0.00000000E+00 0.0000E+00 0.9000E+01
       -3 -1    0    0    0  501 0.00000000E+00 0.00000000E+00 -.38723383E+03 0.38723383E+03 0.00000000E+00 0.0000E+00 0.9000E+01
       24  2    1    2    0    0 0.69981426E+02 -.43947979E+02 0.73765296E+03 0.74651237E+03 0.79498429E+02 0.0000E+00 0.0000E+00
  9900012  1    3    3    0    0 0.43891807E+02 -.46735522E+02 0.64854669E+03 0.65362337E+03 0.50000000E+02 0.0000E+00 0.9000E+01
      -11  1    3    3    0    0 0.26089618E+02 0.27875431E+01 0.89106271E+02 0.92888999E+02 0.00000000E+00 0.0000E+00 0.9000E+01
       -4  1    1    2    0  502 -.56505470E+02 0.48308766E+02 -.33684743E+03 0.34495333E+03 0.00000000E+00 0.0000E+00 0.9000E+01
       21  1    1    2  502  501 -.13475955E+02 -.43607871E+01 -.40706854E+02 0.43100647E+02 0.00000000E+00 0.0000E+00 0.9000E+01
#aMCatNLO 2  0  0  5  2 0.10896151D+02 0.00000000D+00  -5  6  0 0.00000000D+00 0.00000000D+00 0.00000000D+00 0.00000000D+00 0.00000000D+00
  <mgrwgt>
 -.9275952663D-03    2    2    0
 0.537952074063929D+03 0.000000000000000D+00 0.000000000000000D+00 0.537952074063929D+03
 0.537952074063929D+03 -.000000000000000D+00 -.000000000000000D+00 -.537952074063929D+03
 0.472690126779204D+03 0.439568516302463D+02 -.467763699359422D+02 0.465634752101808D+03
 0.681990120008042D+02 0.260990032055228D+02 0.278164956274496D+01 0.629460856231270D+02
 0.535015009347850D+03 -.700558548357689D+02 0.439947203731971D+02 -.528580837724935D+03
 0.000000000000000D+00 -.000000000000000D+00 0.000000000000000D+00 0.000000000000000D+00
 0.537952074063929D+03 0.000000000000000D+00 0.000000000000000D+00 0.537952074063929D+03
 0.537952074063929D+03 -.000000000000000D+00 -.000000000000000D+00 -.537952074063929D+03
 0.472196594224748D+03 0.438918070269344D+02 -.467355222560273D+02 0.465143981830163D+03
 0.681303090734197D+02 0.260896184968462D+02 0.278754311204190D+01 0.628752767351941D+02
 0.476502253749520D+03 -.565054702782143D+02 0.483087662856643D+02 -.470667390794144D+03
 0.590749910801702D+02 -.134759552455659D+02 -.436078714167899D+01 -.573518677712126D+02
-.516834426363D-02 0.000000000000D+00 0.000000000000D+00 0.648356426783D-03 0.000000000000D+00  6 22 -3 9900012 -11 -4 21 2 0.11497423D+00 0.59574436D-01 0.96088443D+04 0.96088443D+04 0.96088443D+04 0.12111302D+01  1  2 13  2  6  5       -4 -.127008147628D-02 0.100000000000D+01
0.139367959612D-02 0.000000000000D+00 0.000000000000D+00 0.648356426783D-03 0.140050825272D-04  6 22 -3 9900012 -11 -4 21 2 0.11497423D+00 0.59574436D-01 0.96088443D+04 0.96088443D+04 0.96088443D+04 0.12111302D+01  1  2  1  2  6  5       -4 0.342486210013D-03 0.100000000000D+01
  </mgrwgt>
  </event>
  <event>
  7     66 0.83052089E-06 0.32391668E+02 0.78161638E-02 0.12314923E+00
       22 -1    0    0    0    0 0.00000000E+00 0.00000000E+00 0.11857973E+03 0.11857973E+03 0.00000000E+00 0.0000E+00 0.9000E+01
       21 -1    0    0  502  501 0.00000000E+00 0.00000000E+00 -.46680494E+02 0.46680494E+02 0.00000000E+00 0.0000E+00 0.9000E+01
       24  2    1    2    0    0 0.57376954E+01 0.45164611E+02 0.33188568E+02 0.91494583E+02 0.72090321E+02 0.0000E+00 0.0000E+00
  9900012  1    3    3    0    0 0.67682430E+00 0.16568497E+02 0.33545002E+02 0.62451904E+02 0.50000000E+02 0.0000E+00 0.9000E+01
      -11  1    3    3    0    0 0.50608711E+01 0.28596113E+02 -.35643353E+00 0.29042678E+02 0.00000000E+00 0.0000E+00 0.9000E+01
        3  1    1    2  502    0 -.15085968E+02 -.57882651E+01 0.27288928E+02 0.31713972E+02 0.00000000E+00 0.0000E+00 0.9000E+01
       -4  1    1    2    0  501 0.93482724E+01 -.39376346E+02 0.11421741E+02 0.42051670E+02 0.00000000E+00 0.0000E+00 0.9000E+01
#aMCatNLO 2  0  0  2  5 0.40392663D+02 0.00000000D+00  -5  6  0 0.00000000D+00 0.00000000D+00 0.00000000D+00 0.00000000D+00 0.00000000D+00
  <mgrwgt>
 0.1612468723D-04    2    2    0
 0.624168075652550D+02 0.000000000000000D+00 0.000000000000000D+00 0.624168075652550D+02
 0.624168075652550D+02 0.000000000000000D+00 0.000000000000000D+00 -.624168075652550D+02
 0.539730541356761D+02 -.584250668203313D+01 0.140671255086718D+02 0.134562873158347D+02
 0.292595182571076D+02 0.143853005613532D+01 0.272062741112442D+02 -.106709272745835D+02
 0.000000000000000D+00 -.000000000000000D+00 -.000000000000000D+00 0.000000000000000D+00
 0.416010427377264D+02 0.440397662589782D+01 -.412733996199160D+02 -.278536004125116D+01
 0.837815144950671D+02 0.000000000000000D+00 0.000000000000000D+00 0.837815144950671D+02
 0.660689940773806D+02 0.000000000000000D+00 0.000000000000000D+00 -.660689940773806D+02
 0.543695214770056D+02 0.676824296639988D+00 0.165684974027145D+02 0.134562873158347D+02
 0.309389528640529D+02 0.506087109270011D+01 0.285961133584218D+02 -.106709272745835D+02
 0.239754836365534D+02 -.150859677699466D+02 -.578826506855134D+01 0.177125204176865D+02
 0.405665505948357D+02 0.934827238060650D+01 -.393763456925850D+02 -.278536004125116D+01
-.287844111127D-08 0.000000000000D+00 0.000000000000D+00 0.398940204931D-08 0.000000000000D+00  6 22 21 9900012 -11 3 -4 2 0.13590970D-01 0.96398158D-02 0.47850155D+04 0.47850155D+04 0.47850155D+04 0.12440011D+01  1  2 13  3  5  2       -3 -.108909370210D-04 0.100000000000D+01
0.678458387378D-08 0.000000000000D+00 0.000000000000D+00 0.398940204931D-08 0.143954642770D-11  6 22 21 9900012 -11 3 -4 2 0.18243036D-01 0.71816144D-02 0.47850155D+04 0.47850155D+04 0.47850155D+04 0.12440011D+01  1  2  1  3  5  2       -3 0.270156242512D-04 0.100000000000D+01
  </mgrwgt>
  </event>
  <event>
  6     66 0.83052089E-06 0.68185781E+02 0.78161638E-02 0.11014890E+00
       22 -1    0    0    0    0 0.00000000E+00 0.00000000E+00 0.20794739E+03 0.20794739E+03 0.00000000E+00 0.0000E+00 0.9000E+01
       -3 -1    0    0    0  501 0.00000000E+00 0.00000000E+00 -.18397425E+03 0.18397425E+03 0.00000000E+00 0.0000E+00 0.9000E+01
       24  2    1    2    0    0 -.14037268E+03 -.42857703E+01 0.13700401E+03 0.21164730E+03 0.79382777E+02 0.0000E+00 0.0000E+00
  9900012  1    3    3    0    0 -.10298301E+03 0.19897193E+02 0.10696933E+03 0.15793618E+03 0.50000000E+02 0.0000E+00 0.9000E+01
      -11  1    3    3    0    0 -.37389669E+02 -.24182963E+02 0.30034683E+02 0.53711128E+02 0.00000000E+00 0.0000E+00 0.9000E+01
       -4  1    1    2    0  501 0.14037268E+03 0.42857703E+01 -.11303088E+03 0.18027434E+03 0.00000000E+00 0.0000E+00 0.9000E+01
#aMCatNLO 1  0  0  5  2 0.32716206D+02 0.00000000D+00  -5  6  0 0.00000000D+00 0.00000000D+00 0.00000000D+00 0.00000000D+00 0.00000000D+00
  <mgrwgt>
 0.1556558850D-04    7    2    0
 0.195593878234586D+03 0.000000000000000D+00 0.000000000000000D+00 0.195593878234586D+03
 0.195593878234586D+03 -.000000000000000D+00 -.000000000000000D+00 -.195593878234586D+03
 0.151677076685896D+03 -.102983010123709D+03 0.198971926173786D+02 0.974912147005374D+02
 0.519712782424086D+02 -.373896687690434D+02 -.241829629566790D+02 0.267994539893440D+02
 0.187539401540868D+03 0.140372678892752D+03 0.428577033930047D+01 -.124290668689881D+03
 0.000000000000000D+00 0.000000000000000D+00 0.000000000000000D+00 0.000000000000000D+00
 0.195593878234586D+03 0.000000000000000D+00 0.000000000000000D+00 0.195593878234586D+03
 0.195593878234586D+03 -.000000000000000D+00 -.000000000000000D+00 -.195593878234586D+03
 0.147365178128184D+03 -.995092532260849D+02 0.200032511780273D+02 0.944154340637538D+02
 0.505588739645790D+02 -.361986503838159D+02 -.241465995324769D+02 0.257448864432265D+02
 0.116906526548534D+03 0.626196621141207D+02 -.120320070984500D+01 -.987140626983221D+02
 0.763571778278756D+02 0.730882414957801D+02 0.534654906429455D+01 -.214462578086583D+02
0.985825281185D-06 0.000000000000D+00 0.000000000000D+00 0.144607799424D-05 0.000000000000D+00  6 22 -3 9900012 -11 -4 21 0 0.31991906D-01 0.28303731D-01 0.22674680D+05 0.22674680D+05 0.22674680D+05 0.11741237D+01  1  2  2  2  6  5       -4 0.703214101748D-05 0.100000000000D+01
-.968299856192D-08 0.000000000000D+00 -.189291432675D-08 0.144607799424D-05 0.000000000000D+00  6 22 -3 9900012 -11 -4 21 2 0.31991906D-01 0.28303731D-01 0.22674680D+05 0.22674680D+05 0.22674680D+05 0.11741237D+01  1  2  3  2  6  5       -4 -.952193431673D-07 0.100000000000D+01
-.118577753617D-06 0.000000000000D+00 0.000000000000D+00 0.144607799424D-05 0.000000000000D+00  6 22 -3 9900012 -11 -4 21 2 0.31991906D-01 0.28303731D-01 0.22674680D+05 0.22674680D+05 0.22674680D+05 0.11741237D+01  1  2 15  2  6  5       -4 -.116605364975D-05 0.100000000000D+01
0.965802143605D-06 0.000000000000D+00 0.000000000000D+00 0.144607799424D-05 0.000000000000D+00  6 22 -3 9900012 -11 -4 21 2 0.31991906D-01 0.28303731D-01 0.21400015D+05 0.21400015D+05 0.21400015D+05 0.11765084D+01  1  2 12  2  6  5       -4 0.949854209301D-05 0.100000000000D+01
-.415776972588D-06 0.000000000000D+00 0.000000000000D+00 0.144607799424D-05 0.000000000000D+00  6 22 -3 9900012 -11 -4 21 2 0.31991906D-01 0.28303731D-01 0.22674680D+05 0.22674680D+05 0.22674680D+05 0.11741237D+01  1  2  4  2  6  5       -4 -.408861056632D-05 0.100000000000D+01
-.929196644664D-06 0.000000000000D+00 0.000000000000D+00 0.144607799424D-05 0.000000000000D+00  6 22 -3 9900012 -11 -4 21 2 0.31991906D-01 0.28303731D-01 0.22674680D+05 0.22674680D+05 0.22674680D+05 0.11741237D+01  1  2  5  2  6  5       -4 -.913740651848D-05 0.100000000000D+01
0.137509244299D-05 0.000000000000D+00 -.000000000000D+00 0.144607799424D-05 0.000000000000D+00  6 22 -3 9900012 -11 -4 21 2 0.31991906D-01 0.28303731D-01 0.22674680D+05 0.22674680D+05 0.22674680D+05 0.11741237D+01  1  2  6  2  6  5       -4 0.135221954623D-04 0.100000000000D+01
  </mgrwgt>
  </event>
  <event>
  7     66 -.83052089E-06 0.26705857E+02 0.78161638E-02 0.12582317E+00
       22 -1    0    0    0    0 0.00000000E+00 0.00000000E+00 0.32511839E+03 0.32511839E+03 0.00000000E+00 0.0000E+00 0.9000E+01
       -1 -1    0    0    0  501 0.00000000E+00 0.00000000E+00 -.24613630E+02 0.24613630E+02 0.00000000E+00 0.0000E+00 0.9000E+01
       24  2    1    2    0    0 -.27326395E+02 -.22071587E+02 0.28703402E+03 0.30012358E+03 0.80322775E+02 0.0000E+00 0.0000E+00
  9900012  1    3    3    0    0 -.26090835E+02 0.58910794E+01 0.22554115E+03 0.23256020E+03 0.50000000E+02 0.0000E+00 0.9000E+01
      -11  1    3    3    0    0 -.12355608E+01 -.27962667E+02 0.61492874E+02 0.67563385E+02 0.00000000E+00 0.0000E+00 0.9000E+01
       -2  1    1    2    0  502 0.25197896E+02 0.16073653E+02 0.23301069E+02 0.37897706E+02 0.00000000E+00 0.0000E+00 0.9000E+01
       21  1    1    2  502  501 0.21284995E+01 0.59979341E+01 -.98303332E+01 0.11710729E+02 0.00000000E+00 0.0000E+00 0.9000E+01
#aMCatNLO 2  0  0  5  2 0.16139149D+02 0.00000000D+00  -5  6  0 0.00000000D+00 0.00000000D+00 0.00000000D+00 0.00000000D+00 0.00000000D+00
  <mgrwgt>
 -.1006855548D-04    2    2    0
 0.894558194219381D+02 0.000000000000000D+00 0.000000000000000D+00 0.894558194219381D+02
 0.894558194219381D+02 -.000000000000000D+00 -.000000000000000D+00 -.894558194219381D+02
 0.780217936089865D+02 -.274166250319340D+02 0.482023563260308D+01 0.530329546439552D+02
 0.294645694820782D+02 -.173769585901266D+01 -.283682421387819D+02 0.777072106185912D+01
 0.714252757528115D+02 0.291543208909467D+02 0.235480065061788D+02 -.608036757058143D+02
 0.000000000000000D+00 0.000000000000000D+00 0.000000000000000D+00 -.000000000000000D+00
 0.894558194219381D+02 0.000000000000000D+00 0.000000000000000D+00 0.894558194219381D+02
 0.894558194219381D+02 -.000000000000000D+00 -.000000000000000D+00 -.894558194219381D+02
 0.757779615979385D+02 -.260908345593511D+02 0.589107939504202D+01 0.502679122253603D+02
 0.287861510222235D+02 -.123556079279106D+01 -.279626665861701D+02 0.672347808743822D+01
 0.349443948096320D+02 0.251978958483043D+02 0.160736531088285D+02 -.181056468861650D+02
 0.394031314140821D+02 0.212849950383781D+01 0.599793408229959D+01 -.388857434266336D+02
-.113278721024D-06 0.000000000000D+00 0.000000000000D+00 0.114476857057D-05 0.000000000000D+00  6 22 -1 9900012 -11 -2 21 2 0.50018214D-01 0.37867123D-02 0.36570589D+04 0.36570589D+04 0.36570589D+04 0.12574341D+01  1  2 13  2  6  5       -2 -.154356839051D-04 0.100000000000D+01
0.393880470564D-07 0.000000000000D+00 0.000000000000D+00 0.114476857057D-05 0.135931164525D-06  6 22 -1 9900012 -11 -2 21 2 0.50018214D-01 0.37867123D-02 0.36570589D+04 0.36570589D+04 0.36570589D+04 0.12574341D+01  1  2  1  2  6  5       -2 0.536712842892D-05 0.100000000000D+01
  </mgrwgt>
  </event>
  <event>
  6     66 0.83052089E-06 0.59271846E+02 0.78161638E-02 0.12068056E+00
       22 -1    0    0    0    0 0.00000000E+00 0.00000000E+00 0.10472833E+02 0.10472833E+02 0.00000000E+00 0.0000E+00 0.9000E+01
       -1 -1    0    0    0  501 -.00000000E+00 -.00000000E+00 -.13411016E+04 0.13411016E+04 0.00000000E+00 0.0000E+00 0.9000E+01
       24  2    1    2    0    0 -.57925825E+02 -.12559877E+02 -.25478031E+03 0.27409447E+03 0.81863447E+02 0.0000E+00 0.0000E+00
  9900012  1    3    3    0    0 -.11889480E+02 -.67922346E+01 -.16622298E+03 0.17411942E+03 0.50000000E+02 0.0000E+00 0.9000E+01
      -11  1    3    3    0    0 -.46036345E+02 -.57676422E+01 -.88557331E+02 0.99975055E+02 0.00000000E+00 0.0000E+00 0.9000E+01
       -2  1    1    2    0  501 0.57925825E+02 0.12559877E+02 -.10758484E+04 0.10774799E+04 0.00000000E+00 0.0000E+00 0.9000E+01
#aMCatNLO 1  0  0  5  2 0.16357998D+01 0.00000000D+00  -5  6  0 0.00000000D+00 0.00000000D+00 0.00000000D+00 0.00000000D+00 0.00000000D+00
  <mgrwgt>
 0.1058092572D-03    8    2    0
 0.118512159807317D+03 0.000000000000000D+00 0.000000000000000D+00 0.118512159807317D+03
 0.118512159807317D+03 -.000000000000000D+00 -.000000000000000D+00 -.118512159807317D+03
 0.597165741089079D+02 -.118894795012318D+02 -.679223459510292D+01 0.296407666854210D+02
 0.729325822991670D+02 -.460363452375081D+02 -.576764215949864D+01 0.562721137146785D+02
 0.104375163206559D+03 0.579258247387400D+02 0.125598767546016D+02 -.859128804000995D+02
 0.000000000000000D+00 0.000000000000000D+00 0.000000000000000D+00 -.000000000000000D+00
 0.118512159807317D+03 0.000000000000000D+00 0.000000000000000D+00 0.118512159807317D+03
 0.118512159807317D+03 -.000000000000000D+00 -.000000000000000D+00 -.118512159807317D+03
 0.596583704509174D+02 -.118287717555425D+02 -.677907152306472D+01 0.295507277896730D+02
 0.727997226307280D+02 -.459622335406270D+02 -.575157275033444D+01 0.561621947039590D+02
 0.101379894113355D+03 0.574058117368618D+02 0.128539625219867D+02 -.825665268541100D+02
 0.318633241963304D+01 0.385193559307703D+00 -.323318248587501D+00 -.314639563952195D+01
0.343442576358D-05 0.000000000000D+00 0.000000000000D+00 0.674346182922D-06 0.000000000000D+00  6 22 -1 9900012 -11 -2 21 0 0.16112050D-02 0.20632332D+00 0.62022815D+04 0.62022815D+04 0.62022815D+04 0.12314495D+01  1  2  2  2  6  5       -2 0.307634848918D-04 0.100000000000D+01
0.448250230554D-07 0.000000000000D+00 -.659454961862D-08 0.674346182922D-06 0.000000000000D+00  6 22 -1 9900012 -11 -2 21 2 0.16112050D-02 0.20632332D+00 0.62022815D+04 0.62022815D+04 0.62022815D+04 0.12314495D+01  1  2  3  2  6  5       -2 0.608884774134D-06 0.100000000000D+01
-.444849079358D-06 0.000000000000D+00 0.000000000000D+00 0.674346182922D-06 0.000000000000D+00  6 22 -1 9900012 -11 -2 21 2 0.16112050D-02 0.20632332D+00 0.62022815D+04 0.62022815D+04 0.62022815D+04 0.12314495D+01  1  2 15  2  6  5       -2 -.604264789499D-05 0.100000000000D+01
0.449847730503D-08 0.000000000000D+00 0.000000000000D+00 0.674346182922D-06 0.000000000000D+00  6 22 -1 9900012 -11 -2 21 2 0.16112050D-02 0.20632332D+00 0.61996995D+04 0.61996995D+04 0.61996995D+04 0.12314693D+01  1  2 12  2  6  5       -2 0.611063661880D-07 0.100000000000D+01
-.487729952104D-04 0.000000000000D+00 0.000000000000D+00 0.674346182922D-06 0.000000000000D+00  6 22 -1 9900012 -11 -2 21 2 0.16112050D-02 0.20632332D+00 0.62022815D+04 0.62022815D+04 0.62022815D+04 0.12314495D+01  1  2  4  2  6  5       -2 -.662512412673D-03 0.100000000000D+01
-.110888244384D-03 0.000000000000D+00 0.000000000000D+00 0.674346182922D-06 0.000000000000D+00  6 22 -1 9900012 -11 -2 21 2 0.16112050D-02 0.20632332D+00 0.62022815D+04 0.62022815D+04 0.62022815D+04 0.12314495D+01  1  2  5  2  6  5       -2 -.150626054453D-02 0.100000000000D+01
0.114325051871D-03 0.000000000000D+00 -.000000000000D+00 0.674346182922D-06 0.000000000000D+00  6 22 -1 9900012 -11 -2 21 2 0.16112050D-02 0.20632332D+00 0.62022815D+04 0.62022815D+04 0.62022815D+04 0.12314495D+01  1  2  6  2  6  5       -2 0.155294473135D-02 0.100000000000D+01
0.512557033104D-04 0.000000000000D+00 0.000000000000D+00 0.674346182922D-06 0.270175703831D-04  6 22 -1 9900012 -11 -2 21 2 0.16112050D-02 0.20632332D+00 0.61996995D+04 0.61996995D+04 0.61996995D+04 0.12314693D+01  1  2 11  2  6  5       -2 0.696246654885D-03 0.100000000000D+01
  </mgrwgt>
  </event>
  <event>
  6     66 0.83052089E-06 0.50328816E+02 0.78161638E-02 0.12315272E+00
       22 -1    0    0    0    0 0.00000000E+00 0.00000000E+00 0.64028680E+02 0.64028680E+02 0.00000000E+00 0.0000E+00 0.9000E+01
       -3 -1    0    0    0  501 0.00000000E+00 0.00000000E+00 -.70361723E+03 0.70361723E+03 0.00000000E+00 0.0000E+00 0.9000E+01
       24  2    1    2    0    0 0.57915592E+01 -.49994475E+02 0.22015934E+02 0.10412991E+03 0.88460992E+02 0.0000E+00 0.0000E+00
  9900012  1    3    3    0    0 0.21708521E+02 -.29295706E+02 0.38845731E+02 0.73064965E+02 0.50000000E+02 0.0000E+00 0.9000E+01
      -11  1    3    3    0    0 -.15916962E+02 -.20698769E+02 -.16829797E+02 0.31064945E+02 0.00000000E+00 0.0000E+00 0.9000E+01
       -4  1    1    2    0  501 -.57915592E+01 0.49994475E+02 -.66160448E+03 0.66351600E+03 0.00000000E+00 0.0000E+00 0.9000E+01
#aMCatNLO 1  0  0  2  2 0.93729988D+02 0.00000000D+00  -5  6  0 0.00000000D+00 0.00000000D+00 0.00000000D+00 0.00000000D+00 0.00000000D+00
  <mgrwgt>
 0.5012226729D-04    5    4    0
 0.212253816754715D+03 0.000000000000000D+00 0.000000000000000D+00 0.212253816754715D+03
 0.212253816754715D+03 0.000000000000000D+00 0.000000000000000D+00 -.212253816754715D+03
 0.190652182289111D+03 0.217085214096181D+02 -.292957063490898D+02 0.180329576884427D+03
 0.308186031158105D+02 -.159169621910317D+02 -.206987689984848D+02 0.163706314651110D+02
 0.203036848104509D+03 -.579155921858643D+01 0.499944753475746D+02 -.196700208349538D+03
 0.000000000000000D+00 -.000000000000000D+00 -.000000000000000D+00 -.000000000000000D+00
 0.382309929520760D+03 0.000000000000000D+00 0.000000000000000D+00 0.382309929520760D+03
 0.406835195009830D+03 0.000000000000000D+00 0.000000000000000D+00 -.406835195009830D+03
 0.231827410089888D+03 0.133412641667148D+03 0.304345003747714D+02 0.180329576884427D+03
 0.212276545868115D+02 -.215586808319461D+01 -.133404639161598D+02 0.163706314651110D+02
 0.255314844031877D+03 0.115397188030332D+03 0.114796283097327D+03 -.196700208349538D+03
 0.280775215822014D+03 -.246653961614285D+03 -.131890319555939D+03 -.245252654890702D+02
 0.212253816754715D+03 0.000000000000000D+00 0.000000000000000D+00 0.212253816754715D+03
 0.212253816754715D+03 0.000000000000000D+00 0.000000000000000D+00 -.212253816754715D+03
 0.190652182289111D+03 0.217085214096181D+02 -.292957063490898D+02 0.180329576884427D+03
 0.308186031158105D+02 -.159169621910317D+02 -.206987689984848D+02 0.163706314651110D+02
 0.000000000000000D+00 -.000000000000000D+00 -.000000000000000D+00 -.000000000000000D+00
 0.203036848104509D+03 -.579155921858643D+01 0.499944753475746D+02 -.196700208349538D+03
 0.382309929520760D+03 0.000000000000000D+00 0.000000000000000D+00 0.382309929520760D+03
 0.406835195009830D+03 0.000000000000000D+00 0.000000000000000D+00 -.406835195009830D+03
 0.231827410089888D+03 0.133412641667148D+03 0.304345003747714D+02 0.180329576884427D+03
 0.212276545868115D+02 -.215586808319461D+01 -.133404639161598D+02 0.163706314651110D+02
 0.280775215822014D+03 -.246653961614285D+03 -.131890319555939D+03 -.245252654890702D+02
 0.255314844031877D+03 0.115397188030332D+03 0.114796283097327D+03 -.196700208349538D+03
0.237826831650D-04 0.000000000000D+00 0.000000000000D+00 0.437502558645D-06 0.000000000000D+00  6 22 -3 9900012 -11 -4 21 0 0.98505662D-02 0.10824880D+00 0.47833021D+04 0.47833021D+04 0.47833021D+04 0.12440188D+01  1  2  2  1  6  2       -3 0.513864060082D-04 0.100000000000D+01
0.809909483586D-06 0.000000000000D+00 -.456658827389D-07 0.437502558645D-06 0.000000000000D+00  6 22 -3 9900012 -11 -4 21 2 0.98505662D-02 0.10824880D+00 0.47833021D+04 0.47833021D+04 0.47833021D+04 0.12440188D+01  1  2  3  1  6  2       -3 0.270818133061D-05 0.100000000000D+01
-.323381409197D-05 0.000000000000D+00 0.000000000000D+00 0.437502558645D-06 0.000000000000D+00  6 22 -3 9900012 -11 -4 21 2 0.98505662D-02 0.10824880D+00 0.47833021D+04 0.47833021D+04 0.47833021D+04 0.12440188D+01  1  2 15  1  6  2       -3 -.108132515152D-04 0.100000000000D+01
0.159188529338D-04 0.000000000000D+00 -.668532973440D-05 0.437502558645D-06 0.000000000000D+00  6 22 -3 9900012 -11 -4 21 2 0.98505662D-02 0.30224383D+00 0.47833021D+04 0.47833021D+04 0.47833021D+04 0.12440188D+01  1  2  5  1  6  2       -3 0.161617163363D-05 0.100000000000D+01
0.220900786598D-05 0.000000000000D+00 -.770481561411D-06 0.437502558645D-06 0.000000000000D+00  6 22 21 9900012 -11 3 -4 2 0.98505662D-02 0.30224383D+00 0.47833021D+04 0.47833021D+04 0.47833021D+04 0.12440188D+01  3  4  5  3  5  2       -3 0.522475982801D-05 0.100000000000D+01
  </mgrwgt>
  </event>
  <event>
  6     66 0.83052089E-06 0.34063744E+02 0.78161638E-02 0.11405168E+00
       22 -1    0    0    0    0 0.00000000E+00 0.00000000E+00 0.53765051E+03 0.53765051E+03 0.00000000E+00 0.0000E+00 0.9000E+01
       -1 -1    0    0    0  501 0.00000000E+00 0.00000000E+00 -.16028110E+03 0.16028110E+03 0.00000000E+00 0.0000E+00 0.9000E+01
       24  2    1    2    0    0 -.78685157E+02 0.64279080E+02 0.51269325E+03 0.52871076E+03 0.79734260E+02 0.0000E+00 0.0000E+00
  9900012  1    3    3    0    0 -.55125469E+02 0.49886119E+02 0.27056917E+03 0.28501775E+03 0.50000000E+02 0.0000E+00 0.9000E+01
      -11  1    3    3    0    0 -.23559687E+02 0.14392961E+02 0.24212408E+03 0.24369301E+03 0.00000000E+00 0.0000E+00 0.9000E+01
       -2  1    1    2    0  501 0.78685157E+02 -.64279080E+02 -.13532384E+03 0.16922085E+03 0.00000000E+00 0.0000E+00 0.9000E+01
#aMCatNLO 1  0  0  2  5 0.10345527D+02 0.00000000D+00  -5  6  0 0.00000000D+00 0.00000000D+00 0.00000000D+00 0.00000000D+00 0.00000000D+00
  <mgrwgt>
 0.2123823956D-03    9    4    0
 0.293556156123420D+03 0.000000000000000D+00 0.000000000000000D+00 0.293556156123420D+03
 0.293556156123420D+03 0.000000000000000D+00 0.000000000000000D+00 -.293556156123420D+03
 0.164906048102640D+03 -.551254693733307D+02 0.498861189137069D+02 0.138443354722889D+03
 0.134064363655655D+03 -.235596874157678D+02 0.143929607082281D+02 0.131190843481237D+03
 0.288141900488544D+03 0.786851567890985D+02 -.642790796219351D+02 -.269634198204126D+03
 0.000000000000000D+00 -.000000000000000D+00 0.000000000000000D+00 -.000000000000000D+00
 0.293914835791306D+03 0.000000000000000D+00 0.000000000000000D+00 0.293914835791306D+03
 0.378596732382490D+03 0.000000000000000D+00 0.000000000000000D+00 -.378596732382490D+03
 0.163803546286974D+03 -.522975431219352D+02 0.492950940020428D+02 0.138443354722889D+03
 0.133627911027141D+03 -.212567001473950D+02 0.139116458768453D+02 0.131190843481237D+03
 0.289771566608458D+03 0.836570124712345D+02 -.653181769335750D+02 -.269634198204126D+03
 0.853085442512228D+02 -.101027692019043D+02 0.211143705468686D+01 -.846818965911840D+02
 0.293556156123420D+03 0.000000000000000D+00 0.000000000000000D+00 0.293556156123420D+03
 0.293556156123420D+03 0.000000000000000D+00 0.000000000000000D+00 -.293556156123420D+03
 0.164906048102640D+03 -.551254693733307D+02 0.498861189137069D+02 0.138443354722889D+03
 0.134064363655655D+03 -.235596874157678D+02 0.143929607082281D+02 0.131190843481237D+03
 0.000000000000000D+00 -.000000000000000D+00 0.000000000000000D+00 -.000000000000000D+00
 0.288141900488544D+03 0.786851567890985D+02 -.642790796219351D+02 -.269634198204126D+03
 0.293914835791306D+03 0.000000000000000D+00 0.000000000000000D+00 0.293914835791306D+03
 0.378596732382490D+03 0.000000000000000D+00 0.000000000000000D+00 -.378596732382490D+03
 0.163803546286974D+03 -.522975431219352D+02 0.492950940020428D+02 0.138443354722889D+03
 0.133627911027141D+03 -.212567001473950D+02 0.139116458768453D+02 0.131190843481237D+03
 0.853085442512228D+02 -.101027692019043D+02 0.211143705468686D+01 -.846818965911840D+02
 0.289771566608458D+03 0.836570124712345D+02 -.653181769335750D+02 -.269634198204126D+03
0.215540731369D-05 0.000000000000D+00 0.000000000000D+00 0.345989205369D-04 0.000000000000D+00  6 22 -1 9900012 -11 -2 21 0 0.82715463D-01 0.24658631D-01 0.11969146D+05 0.11969146D+05 0.11969146D+05 0.12013225D+01  1  2  2  1  6  2       -1 0.532001727058D-05 0.100000000000D+01
0.170504870467D-07 0.000000000000D+00 -.413866580817D-08 0.345989205369D-04 0.000000000000D+00  6 22 -1 9900012 -11 -2 21 2 0.82715463D-01 0.24658631D-01 0.11969146D+05 0.11969146D+05 0.11969146D+05 0.12013225D+01  1  2  3  1  6  2       -1 0.607350969726D-07 0.100000000000D+01
-.299876261432D-06 0.000000000000D+00 0.000000000000D+00 0.345989205369D-04 0.000000000000D+00  6 22 -1 9900012 -11 -2 21 2 0.82715463D-01 0.24658631D-01 0.11969146D+05 0.11969146D+05 0.11969146D+05 0.12013225D+01  1  2 15  1  6  2       -1 -.106818144068D-05 0.100000000000D+01
0.131117109356D-03 0.000000000000D+00 0.000000000000D+00 0.345989205369D-04 0.000000000000D+00  6 22 -1 9900012 -11 -2 21 2 0.82715463D-01 0.31840872D-01 0.13157482D+05 0.13157482D+05 0.13157482D+05 0.11971698D+01  1  2 12  1  6  2       -1 0.309473124397D-03 0.100000000000D+01
-.686500364735D-04 0.000000000000D+00 0.000000000000D+00 0.345989205369D-04 0.000000000000D+00  6 22 -1 9900012 -11 -2 21 2 0.82715463D-01 0.24658631D-01 0.11969146D+05 0.11969146D+05 0.11969146D+05 0.12013225D+01  1  2  4  1  6  2       -1 -.244536511536D-03 0.100000000000D+01
-.131131144051D-03 0.000000000000D+00 -.123911971750D-05 0.345989205369D-04 0.000000000000D+00  6 22 -1 9900012 -11 -2 21 2 0.82715463D-01 0.31819457D-01 0.11969146D+05 0.11969146D+05 0.11969146D+05 0.12013225D+01  1  2  5  1  6  2       -1 -.310544475809D-03 0.100000000000D+01
0.127325718949D-03 0.000000000000D+00 0.119991092428D-05 0.345989205369D-04 0.000000000000D+00  6 22 -1 9900012 -11 -2 21 2 0.82715463D-01 0.24658631D-01 0.11969146D+05 0.11969146D+05 0.11969146D+05 0.12013225D+01  1  2  6  1  6  2       -1 0.453543635809D-03 0.100000000000D+01
0.451072766756D-05 0.000000000000D+00 0.000000000000D+00 0.345989205369D-04 0.000000000000D+00  6 22 21 9900012 -11 1 -2 2 0.82715463D-01 0.31840872D-01 0.13157482D+05 0.13157482D+05 0.13157482D+05 0.11971698D+01  3  4 12  3  5  2       -1 0.115739027915D-03 0.100000000000D+01
-.448103292904D-05 0.000000000000D+00 -.425460033778D-07 0.345989205369D-04 0.000000000000D+00  6 22 21 9900012 -11 1 -2 2 0.82715463D-01 0.31819457D-01 0.11969146D+05 0.11969146D+05 0.11969146D+05 0.12013225D+01  3  4  5  3  5  2       -1 -.115604976110D-03 0.100000000000D+01
  </mgrwgt>
  </event>
  <event>
  7     66 0.83052089E-06 0.40677454E+02 0.78161638E-02 0.12350039E+00
       22 -1    0    0    0    0 0.00000000E+00 0.00000000E+00 0.20443962E+03 0.20443962E+03 0.00000000E+00 0.0000E+00 0.9000E+01
       -1 -1    0    0    0  501 -.00000000E+00 -.00000000E+00 -.47289453E+03 0.47289453E+03 0.00000000E+00 0.0000E+00 0.9000E+01
       24  2    1    2    0    0 -.35804309E+02 -.33244956E+02 0.19239534E+03 0.21361319E+03 0.78914196E+02 0.0000E+00 0.0000E+00
  9900012  1    3    3    0    0 -.76578323E+01 -.21545355E+02 0.15976528E+03 0.16896091E+03 0.50000000E+02 0.0000E+00 0.9000E+01
      -11  1    3    3    0    0 -.28146477E+02 -.11699601E+02 0.32630063E+02 0.44652277E+02 0.00000000E+00 0.0000E+00 0.9000E+01
       -2  1    1    2    0  502 0.13632887E+02 0.21154658E+02 -.18242943E+03 0.18415720E+03 0.00000000E+00 0.0000E+00 0.9000E+01
       21  1    1    2  502  501 0.22171422E+02 0.12090299E+02 -.27842082E+03 0.27956377E+03 0.00000000E+00 0.0000E+00 0.9000E+01
#aMCatNLO 2  0  0  5  2 0.79981420D+01 0.00000000D+00  -5  6  0 0.00000000D+00 0.00000000D+00 0.00000000D+00 0.00000000D+00 0.00000000D+00
  <mgrwgt>
 0.2650822229D-03    2    2    0
 0.310931469057687D+03 0.000000000000000D+00 0.000000000000000D+00 0.310931469057687D+03
 0.310931469057687D+03 -.000000000000000D+00 -.000000000000000D+00 -.310931469057687D+03
 0.253175793287235D+03 -.767864087825790D+01 -.215646765120987D+02 0.247131514598628D+03
 0.627627681138699D+02 -.281516354307943D+02 -.117043908371415D+02 0.548603474197756D+02
 0.305924376714269D+03 0.358302763090522D+02 0.332690673492402D+02 -.301991862018403D+03
 0.000000000000000D+00 0.000000000000000D+00 0.000000000000000D+00 -.000000000000000D+00
 0.310931469057687D+03 0.000000000000000D+00 0.000000000000000D+00 0.310931469057687D+03
 0.310931469057687D+03 -.000000000000000D+00 -.000000000000000D+00 -.310931469057687D+03
 0.253002323507685D+03 -.765783230757721D+01 -.215453553733655D+02 0.246956131664050D+03
 0.627215589299724D+02 -.281464768721724D+02 -.116996010210448D+02 0.548168690298765D+02
 0.121830513912969D+03 0.136328873782146D+02 0.211546575962226D+02 -.119202764078765D+03
 0.184308541764746D+03 0.221714218015350D+02 0.120902987981876D+02 -.182570236615162D+03
-.410700137903D-03 0.000000000000D+00 0.000000000000D+00 0.895555028349D-04 0.000000000000D+00  6 22 -1 9900012 -11 -2 21 2 0.31452249D-01 0.72753005D-01 0.46159950D+04 0.46159950D+04 0.46159950D+04 0.12457735D+01  1  2 13  2  6  5       -2 -.121064266310D-02 0.100000000000D+01
0.500627007994D-03 0.000000000000D+00 0.000000000000D+00 0.895555028349D-04 0.365271468424D-05  6 22 -1 9900012 -11 -2 21 2 0.31452249D-01 0.72753005D-01 0.46159950D+04 0.46159950D+04 0.46159950D+04 0.12457735D+01  1  2  1  2  6  5       -2 0.147572488597D-02 0.100000000000D+01
  </mgrwgt>
  </event>
  <event>
  6     66 0.83052089E-06 0.10608782E+03 0.78161638E-02 0.10114207E+00
       22 -1    0    0    0    0 0.00000000E+00 0.00000000E+00 0.38965669E+03 0.38965669E+03 0.00000000E+00 0.0000E+00 0.9000E+01
       -1 -1    0    0    0  501 0.00000000E+00 0.00000000E+00 -.32025041E+03 0.32025041E+03 0.00000000E+00 0.0000E+00 0.9000E+01
       24  2    1    2    0    0 -.38871693E+02 -.26643028E+03 0.25798473E+03 0.38118542E+03 0.79057600E+02 0.0000E+00 0.0000E+00
  9900012  1    3    3    0    0 -.44140915E+02 -.15898913E+03 0.17119950E+03 0.24297167E+03 0.50000000E+02 0.0000E+00 0.9000E+01
      -11  1    3    3    0    0 0.52692215E+01 -.10744116E+03 0.86785228E+02 0.13821376E+03 0.00000000E+00 0.0000E+00 0.9000E+01
       -2  1    1    2    0  501 0.38871693E+02 0.26643028E+03 -.18857845E+03 0.32872167E+03 0.00000000E+00 0.0000E+00 0.9000E+01
#aMCatNLO 1  0  0  5  2 0.39175171D+02 0.00000000D+00  -5  6  0 0.00000000D+00 0.00000000D+00 0.00000000D+00 0.00000000D+00 0.00000000D+00
  <mgrwgt>
 0.1416919717D-04    7    2    0
 0.353253043744611D+03 0.000000000000000D+00 0.000000000000000D+00 0.353253043744611D+03
 0.353253043744611D+03 -.000000000000000D+00 -.000000000000000D+00 -.353253043744611D+03
 0.227322869383403D+03 -.441409149376443D+02 -.158989126612846D+03 0.148154393090640D+03
 0.130353422914167D+03 0.526922148193823D+01 -.107441155585051D+03 0.736250518299492D+02
 0.348829795191652D+03 0.388716934557061D+02 0.266430282197898D+03 -.221779444920589D+03
 0.000000000000000D+00 0.000000000000000D+00 0.000000000000000D+00 0.000000000000000D+00
 0.353253043744611D+03 0.000000000000000D+00 0.000000000000000D+00 0.353253043744611D+03
 0.353253043744611D+03 -.000000000000000D+00 -.000000000000000D+00 -.353253043744611D+03
 0.223852713930514D+03 -.437421441373468D+02 -.156255913639333D+03 0.145879237086919D+03
 0.128334716025751D+03 0.549786256981552D+01 -.105874027833476D+03 0.723205577611934D+02
 0.258052540912384D+03 0.623355570099309D+02 0.180064726538331D+03 -.174017488949460D+03
 0.962661166205723D+02 -.240912754423996D+02 0.820652149344776D+02 -.441823058986520D+02
0.322597120672D-05 0.000000000000D+00 0.000000000000D+00 0.129806866375D-05 0.000000000000D+00  6 22 -1 9900012 -11 -2 21 0 0.59947182D-01 0.49269294D-01 0.75414354D+05 0.75414354D+05 0.75414354D+05 0.11277308D+01  1  2  2  2  6  5       -2 0.483227068503D-05 0.100000000000D+01
-.434145722429D-07 0.000000000000D+00 -.619428942576D-08 0.129806866375D-05 0.000000000000D+00  6 22 -1 9900012 -11 -2 21 2 0.59947182D-01 0.49269294D-01 0.75414354D+05 0.75414354D+05 0.75414354D+05 0.11277308D+01  1  2  3  2  6  5       -2 -.827060282023D-07 0.100000000000D+01
-.385763961611D-06 0.000000000000D+00 0.000000000000D+00 0.129806866375D-05 0.000000000000D+00  6 22 -1 9900012 -11 -2 21 2 0.59947182D-01 0.49269294D-01 0.75414354D+05 0.75414354D+05 0.75414354D+05 0.11277308D+01  1  2 15  2  6  5       -2 -.734891614501D-06 0.100000000000D+01
0.832031203245D-05 0.000000000000D+00 0.000000000000D+00 0.129806866375D-05 0.000000000000D+00  6 22 -1 9900012 -11 -2 21 2 0.59947182D-01 0.49269294D-01 0.76144578D+05 0.76144578D+05 0.76144578D+05 0.11273814D+01  1  2 12  2  6  5       -2 0.158457885150D-04 0.100000000000D+01
-.552535355935D-05 0.000000000000D+00 0.000000000000D+00 0.129806866375D-05 0.000000000000D+00  6 22 -1 9900012 -11 -2 21 2 0.59947182D-01 0.49269294D-01 0.75414354D+05 0.75414354D+05 0.75414354D+05 0.11277308D+01  1  2  4  2  6  5       -2 -.105259599185D-04 0.100000000000D+01
-.813037340569D-05 0.000000000000D+00 0.000000000000D+00 0.129806866375D-05 0.000000000000D+00  6 22 -1 9900012 -11 -2 21 2 0.59947182D-01 0.49269294D-01 0.75414354D+05 0.75414354D+05 0.75414354D+05 0.11277308D+01  1  2  5  2  6  5       -2 -.154885988148D-04 0.100000000000D+01
0.106682324097D-04 0.000000000000D+00 -.000000000000D+00 0.129806866375D-05 0.000000000000D+00  6 22 -1 9900012 -11 -2 21 2 0.59947182D-01 0.49269294D-01 0.75414354D+05 0.75414354D+05 0.75414354D+05 0.11277308D+01  1  2  6  2  6  5       -2 0.203232943447D-04 0.100000000000D+01
  </mgrwgt>
  </event>
  <event>
  6     66 0.83052089E-06 0.49518812E+02 0.78161638E-02 0.11669264E+00
       22 -1    0    0    0    0 0.00000000E+00 0.00000000E+00 0.16770946E+04 0.16770946E+04 0.00000000E+00 0.0000E+00 0.9000E+01
       -3 -1    0    0    0  501 0.00000000E+00 0.00000000E+00 -.53462233E+01 0.53462233E+01 0.00000000E+00 0.0000E+00 0.9000E+01
       24  2    1    2    0    0 0.18799853E+02 -.45811334E+02 0.15186070E+04 0.15214924E+04 0.79497146E+02 0.0000E+00 0.0000E+00
  9900012  1    3    3    0    0 0.14376180E+02 -.18993001E+02 0.13033370E+04 0.13045133E+04 0.50000000E+02 0.0000E+00 0.9000E+01
      -11  1    3    3    0    0 0.44236727E+01 -.26818333E+02 0.21526994E+03 0.21697912E+03 0.00000000E+00 0.0000E+00 0.9000E+01
       -4  1    1    2    0  501 -.18799853E+02 0.45811334E+02 0.15314136E+03 0.16094840E+03 0.00000000E+00 0.0000E+00 0.9000E+01
#aMCatNLO 1  0  0  2  2 0.24507485D+03 0.00000000D+00  -5  6  0 0.00000000D+00 0.00000000D+00 0.00000000D+00 0.00000000D+00 0.00000000D+00
  <mgrwgt>
 0.4288674310D-04    7    4    0
 0.946896083720683D+02 0.000000000000000D+00 0.000000000000000D+00 0.946896083720683D+02
 0.946896083720683D+02 0.000000000000000D+00 0.000000000000000D+00 -.946896083720683D+02
 0.840365920371971D+02 0.143761800587644D+02 -.189930011882906D+02 0.632039567907412D+02
 0.273385753960929D+02 0.442367273516104D+01 -.268183325901438D+02 -.293357483362565D+01
 0.780040493108465D+02 -.187998527939254D+02 0.458113337784343D+02 -.602703819571155D+02
 0.000000000000000D+00 0.000000000000000D+00 -.000000000000000D+00 -.000000000000000D+00
 0.121146765360822D+03 0.000000000000000D+00 0.000000000000000D+00 0.121146765360822D+03
 0.128687740891622D+03 0.000000000000000D+00 0.000000000000000D+00 -.128687740891622D+03
 0.808776704393886D+02 -.378551893675360D+01 -.566809210192994D+01 0.632039567907412D+02
 0.229690172597295D+02 -.111660826469426D+01 -.227535289253445D+02 -.293357483362565D+01
 0.927332471754867D+02 -.376028316238101D+02 0.596067382459794D+02 -.602703819571155D+02
 0.532545713778391D+02 0.425049588252580D+02 -.311851172187050D+02 -.754097553079942D+01
 0.946896083720683D+02 0.000000000000000D+00 0.000000000000000D+00 0.946896083720683D+02
 0.946896083720683D+02 0.000000000000000D+00 0.000000000000000D+00 -.946896083720683D+02
 0.840365920371971D+02 0.143761800587644D+02 -.189930011882906D+02 0.632039567907412D+02
 0.273385753960929D+02 0.442367273516104D+01 -.268183325901438D+02 -.293357483362565D+01
 0.000000000000000D+00 0.000000000000000D+00 -.000000000000000D+00 -.000000000000000D+00
 0.780040493108465D+02 -.187998527939254D+02 0.458113337784343D+02 -.602703819571155D+02
 0.121146765360822D+03 0.000000000000000D+00 0.000000000000000D+00 0.121146765360822D+03
 0.128687740891622D+03 0.000000000000000D+00 0.000000000000000D+00 -.128687740891622D+03
 0.808776704393886D+02 -.378551893675360D+01 -.566809210192994D+01 0.632039567907412D+02
 0.229690172597295D+02 -.111660826469426D+01 -.227535289253445D+02 -.293357483362565D+01
 0.532545713778391D+02 0.425049588252580D+02 -.311851172187050D+02 -.754097553079942D+01
 0.927332471754867D+02 -.376028316238101D+02 0.596067382459794D+02 -.602703819571155D+02
0.142173503611D-05 0.000000000000D+00 0.000000000000D+00 0.110933931646D-05 0.000000000000D+00  6 22 -3 9900012 -11 -4 21 0 0.25801455D+00 0.82249589D-03 0.43615279D+04 0.43615279D+04 0.43615279D+04 0.12485832D+01  1  2  2  1  6  2       -3 0.327385610950D-04 0.100000000000D+01
0.628615473774D-08 0.000000000000D+00 -.272991844506D-08 0.110933931646D-05 0.000000000000D+00  6 22 -3 9900012 -11 -4 21 2 0.25801455D+00 0.82249589D-03 0.43615279D+04 0.43615279D+04 0.43615279D+04 0.12485832D+01  1  2  3  1  6  2       -3 0.225663296847D-06 0.100000000000D+01
-.167230107993D-06 0.000000000000D+00 0.000000000000D+00 0.110933931646D-05 0.000000000000D+00  6 22 -3 9900012 -11 -4 21 2 0.25801455D+00 0.82249589D-03 0.43615279D+04 0.43615279D+04 0.43615279D+04 0.12485832D+01  1  2 15  1  6  2       -3 -.600330393958D-05 0.100000000000D+01
-.436978760242D-07 0.000000000000D+00 0.000000000000D+00 0.110933931646D-05 0.000000000000D+00  6 22 -3 9900012 -11 -4 21 2 0.25801455D+00 0.82249589D-03 0.43615279D+04 0.43615279D+04 0.43615279D+04 0.12485832D+01  1  2  4  1  6  2       -3 -.156868661053D-05 0.100000000000D+01
-.270769405013D-06 0.000000000000D+00 -.480758399250D-06 0.110933931646D-05 0.000000000000D+00  6 22 -3 9900012 -11 -4 21 2 0.25801455D+00 0.14926563D-02 0.43615279D+04 0.43615279D+04 0.43615279D+04 0.12485832D+01  1  2  5  1  6  2       -3 -.421006309972D-05 0.100000000000D+01
0.533958726347D-06 0.000000000000D+00 0.406420603733D-06 0.110933931646D-05 0.000000000000D+00  6 22 -3 9900012 -11 -4 21 2 0.25801455D+00 0.82249589D-03 0.43615279D+04 0.43615279D+04 0.43615279D+04 0.12485832D+01  1  2  6  1  6  2       -3 0.191682978856D-04 0.100000000000D+01
0.820422497124D-08 0.000000000000D+00 -.313683759766D-07 0.110933931646D-05 0.000000000000D+00  6 22 21 9900012 -11 3 -4 2 0.25801455D+00 0.14926563D-02 0.43615279D+04 0.43615279D+04 0.43615279D+04 0.12485832D+01  3  4  5  3  5  2       -3 0.253627447003D-05 0.100000000000D+01
  </mgrwgt>
  </event>
  <event>
  7     66 -.83052089E-06 0.26919953E+02 0.78161638E-02 0.12502738E+00
       22 -1    0    0    0    0 0.00000000E+00 0.00000000E+00 0.63019994E+03 0.63019994E+03 0.00000000E+00 0.0000E+00 0.9000E+01
       -3 -1    0    0    0  501 0.00000000E+00 0.00000000E+00 -.12101916E+02 0.12101916E+02 0.00000000E+00 0.0000E+00 0.9000E+01
       24  2    1    2    0    0 -.33188959E+02 -.45796721E+01 0.55507669E+03 0.56184421E+03 0.80226564E+02 0.0000E+00 0.0000E+00
  9900012  1    3    3    0    0 -.75894436E+01 0.22107607E+01 0.22118266E+03 0.22690143E+03 0.50000000E+02 0.0000E+00 0.9000E+01
      -11  1    3    3    0    0 -.25599515E+02 -.67904328E+01 0.33389403E+03 0.33494278E+03 0.00000000E+00 0.0000E+00 0.9000E+01
       -4  1    1    2    0  502 0.28792928E+02 0.18419579E+02 0.35142056E+02 0.49023236E+02 0.00000000E+00 0.0000E+00 0.9000E+01
       21  1    1    2  502  501 0.43960306E+01 -.13839906E+02 0.27879283E+02 0.31434416E+02 0.00000000E+00 0.0000E+00 0.9000E+01
#aMCatNLO 2  0  0  5  2 0.15687791D+02 0.00000000D+00  -5  6  0 0.00000000D+00 0.00000000D+00 0.00000000D+00 0.00000000D+00 0.00000000D+00
  <mgrwgt>
 -.2122644427D-04    2    2    0
 0.873305586902914D+02 0.000000000000000D+00 0.000000000000000D+00 0.873305586902914D+02
 0.873305586902914D+02 -.000000000000000D+00 -.000000000000000D+00 -.873305586902914D+02
 0.525343500747344D+02 -.924536192285317D+01 0.198226417013384D+01 0.130557209471560D+02
 0.532213214308451D+02 -.272416491001478D+02 -.701702732677734D+01 0.451792312533647D+02
 0.689054458750034D+02 0.364870110230010D+02 0.503476315664350D+01 -.582349522005207D+02
 0.000000000000000D+00 0.000000000000000D+00 0.000000000000000D+00 -.000000000000000D+00
 0.873305586902914D+02 0.000000000000000D+00 0.000000000000000D+00 0.873305586902914D+02
 0.873305586902914D+02 -.000000000000000D+00 -.000000000000000D+00 -.873305586902914D+02
 0.516808813669487D+02 -.758944359817497D+01 0.221076073199924D+01 0.104127989378741D+02
 0.501263891148998D+02 -.255995151688712D+02 -.679043284332530D+01 0.425583097716224D+02
 0.559167398438005D+02 0.287929281315330D+02 0.184195785504144D+02 -.442534542199449D+02
 0.169371070549339D+02 0.439603063551320D+01 -.138399064390884D+02 -.871765448955172D+01
-.235537057430D-06 0.000000000000D+00 0.000000000000D+00 0.113255512356D-05 0.000000000000D+00  6 22 -3 9900012 -11 -4 21 2 0.96953837D-01 0.18618332D-02 0.39568959D+04 0.39568959D+04 0.39568959D+04 0.12534514D+01  1  2 13  2  6  5       -4 -.249263873116D-04 0.100000000000D+01
0.349618934565D-07 0.000000000000D+00 0.000000000000D+00 0.113255512356D-05 0.629607767569D-08  6 22 -3 9900012 -11 -4 21 2 0.96953837D-01 0.18618332D-02 0.39568959D+04 0.39568959D+04 0.39568959D+04 0.12534514D+01  1  2  1  2  6  5       -4 0.369994304486D-05 0.100000000000D+01
  </mgrwgt>
  </event>
  <event>
  6     66 0.83052089E-06 0.41675038E+02 0.78161638E-02 0.12452022E+00
       22 -1    0    0    0    0 0.00000000E+00 0.00000000E+00 0.32693253E+02 0.32693253E+02 0.00000000E+00 0.0000E+00 0.9000E+01
       -1 -1    0    0    0  501 -.00000000E+00 -.00000000E+00 -.51241365E+03 0.51241365E+03 0.00000000E+00 0.0000E+00 0.9000E+01
       24  2    1    2    0    0 -.26865935E+02 -.31859541E+02 -.33329032E+02 0.96774371E+02 0.80731937E+02 0.0000E+00 0.0000E+00
  9900012  1    3    3    0    0 0.71908285E+00 -.15910031E+02 -.26504625E+01 0.52542089E+02 0.50000000E+02 0.0000E+00 0.9000E+01
      -11  1    3    3    0    0 -.27585018E+02 -.15949510E+02 -.30678570E+02 0.44232282E+02 0.00000000E+00 0.0000E+00 0.9000E+01
       -2  1    1    2    0  501 0.26865935E+02 0.31859541E+02 -.44639137E+03 0.44833253E+03 0.00000000E+00 0.0000E+00 0.9000E+01
#aMCatNLO 1  0  0  5  2 0.71249178D+01 0.00000000D+00  -5  6  0 0.00000000D+00 0.00000000D+00 0.00000000D+00 0.00000000D+00 0.00000000D+00
  <mgrwgt>
 0.1341954866D-03    8    2    0
 0.129431329232381D+03 0.000000000000000D+00 0.000000000000000D+00 0.129431329232381D+03
 0.129431329232381D+03 -.000000000000000D+00 -.000000000000000D+00 -.129431329232381D+03
 0.105730098932513D+03 0.719082847269569D+00 -.159100309339053D+02 0.917889299197890D+02
 0.362902333443428D+02 -.275850181327726D+02 -.159495095914776D+02 0.173683895221411D+02
 0.116842326187906D+03 0.268659352855031D+02 0.318595405253829D+02 -.109157319441930D+03
 0.000000000000000D+00 0.000000000000000D+00 0.000000000000000D+00 -.000000000000000D+00
 0.129431329232381D+03 0.000000000000000D+00 0.000000000000000D+00 0.129431329232381D+03
 0.129431329232381D+03 -.000000000000000D+00 -.000000000000000D+00 -.129431329232381D+03
 0.105298114488608D+03 0.835960375061773D+00 -.157714292327685D+02 0.913140520679213D+02
 0.361609785202121D+02 -.275448911829634D+02 -.159019241949514D+02 0.172053521950573D+02
 0.909166478658664D+02 0.271276092043941D+02 0.214890227929456D+02 -.840722997034331D+02
 0.264869175900752D+02 -.418678396492438D+00 0.101843306347743D+02 -.244471045595454D+02
0.654059307514D-06 0.000000000000D+00 0.000000000000D+00 0.360111956118D-05 0.000000000000D+00  6 22 -1 9900012 -11 -2 21 0 0.50297312D-02 0.78832869D-01 0.39699023D+04 0.39699023D+04 0.39699023D+04 0.12532864D+01  1  2  2  2  6  5       -2 0.147065547810D-04 0.100000000000D+01
0.244510525019D-07 0.000000000000D+00 -.125587997931D-08 0.360111956118D-05 0.000000000000D+00  6 22 -1 9900012 -11 -2 21 2 0.50297312D-02 0.78832869D-01 0.39699023D+04 0.39699023D+04 0.39699023D+04 0.12532864D+01  1  2  3  2  6  5       -2 0.863558957898D-06 0.100000000000D+01
-.870524088903D-07 0.000000000000D+00 0.000000000000D+00 0.360111956118D-05 0.000000000000D+00  6 22 -1 9900012 -11 -2 21 2 0.50297312D-02 0.78832869D-01 0.39699023D+04 0.39699023D+04 0.39699023D+04 0.12532864D+01  1  2 15  2  6  5       -2 -.307450517715D-05 0.100000000000D+01
0.529551013448D-05 0.000000000000D+00 0.000000000000D+00 0.360111956118D-05 0.000000000000D+00  6 22 -1 9900012 -11 -2 21 2 0.50297312D-02 0.78832869D-01 0.41629035D+04 0.41629035D+04 0.41629035D+04 0.12509066D+01  1  2 12  2  6  5       -2 0.186896676680D-03 0.100000000000D+01
-.332894355644D-05 0.000000000000D+00 0.000000000000D+00 0.360111956118D-05 0.000000000000D+00  6 22 -1 9900012 -11 -2 21 2 0.50297312D-02 0.78832869D-01 0.39699023D+04 0.39699023D+04 0.39699023D+04 0.12532864D+01  1  2  4  2  6  5       -2 -.117571177285D-03 0.100000000000D+01
-.544378668250D-05 0.000000000000D+00 0.000000000000D+00 0.360111956118D-05 0.000000000000D+00  6 22 -1 9900012 -11 -2 21 2 0.50297312D-02 0.78832869D-01 0.39699023D+04 0.39699023D+04 0.39699023D+04 0.12532864D+01  1  2  5  2  6  5       -2 -.192262920142D-03 0.100000000000D+01
0.681321037565D-05 0.000000000000D+00 -.000000000000D+00 0.360111956118D-05 0.000000000000D+00  6 22 -1 9900012 -11 -2 21 2 0.50297312D-02 0.78832869D-01 0.39699023D+04 0.39699023D+04 0.39699023D+04 0.12532864D+01  1  2  6  2  6  5       -2 0.240628040510D-03 0.100000000000D+01
0.113597887954D-06 0.000000000000D+00 0.000000000000D+00 0.360111956118D-05 0.310786673469D-06  6 22 -1 9900012 -11 -2 21 2 0.50297312D-02 0.78832869D-01 0.41629035D+04 0.41629035D+04 0.41629035D+04 0.12509066D+01  1  2 11  2  6  5       -2 0.400925825788D-05 0.100000000000D+01
  </mgrwgt>
  </event>
  <event>
  6     66 0.83052089E-06 0.37300752E+02 0.78161638E-02 0.12297833E+00
       22 -1    0    0    0    0 0.00000000E+00 0.00000000E+00 0.25105260E+03 0.25105260E+03 0.00000000E+00 0.0000E+00 0.9000E+01
       -3 -1    0    0    0  501 0.00000000E+00 0.00000000E+00 -.58156935E+02 0.58156935E+02 0.00000000E+00 0.0000E+00 0.9000E+01
       24  2    1    2    0    0 0.35925793E+02 -.10034117E+02 0.23623065E+03 0.25203202E+03 0.79522787E+02 0.0000E+00 0.0000E+00
  9900012  1    3    3    0    0 -.61908884E+00 -.11013773E+02 0.14295544E+03 0.15184843E+03 0.50000000E+02 0.0000E+00 0.9000E+01
      -11  1    3    3    0    0 0.36544882E+02 0.97965644E+00 0.93275210E+02 0.10018360E+03 0.00000000E+00 0.0000E+00 0.9000E+01
       -4  1    1    2    0  501 -.35925793E+02 0.10034117E+02 -.43334991E+02 0.57177509E+02 0.00000000E+00 0.0000E+00 0.9000E+01
#aMCatNLO 1  0  0  2  5 0.43299511D+02 0.00000000D+00  -5  6  0 0.00000000D+00 0.00000000D+00 0.00000000D+00 0.00000000D+00 0.00000000D+00
  <mgrwgt>
 0.2471924515D-04    4    2    0
 0.120832320272986D+03 0.000000000000000D+00 0.000000000000000D+00 0.120832320272986D+03
 0.120832320272986D+03 0.000000000000000D+00 0.000000000000000D+00 -.120832320272986D+03
 0.801834168591972D+02 -.619088843793822D+00 -.110137731676897D+02 0.617065139902584D+02
 0.537328897424047D+02 0.365448815730865D+02 0.979656442656118D+00 0.393793771425204D+02
 0.107748333944371D+03 -.359257927292927D+02 0.100341167250336D+02 -.101085891132779D+03
 0.000000000000000D+00 -.000000000000000D+00 -.000000000000000D+00 0.000000000000000D+00
 0.142447252852362D+03 0.000000000000000D+00 0.000000000000000D+00 0.142447252852362D+03
 0.124482512322482D+03 0.000000000000000D+00 0.000000000000000D+00 -.124482512322482D+03
 0.801094942771849D+02 0.473113718269340D+01 -.935166003845849D+01 0.617065139902584D+02
 0.563272317061851D+02 0.402184471854272D+02 0.212089451468066D+01 0.393793771425204D+02
 0.105819071228851D+03 -.287973808646225D+02 0.122486450257408D+02 -.101085891132779D+03
 0.246739679626232D+02 -.161522035034981D+02 -.501787950196299D+01 0.179647405298801D+02
0.898463375169D-06 0.000000000000D+00 0.000000000000D+00 0.391730078814D-05 0.000000000000D+00  6 22 -3 9900012 -11 -4 21 0 0.38623476D-01 0.89472208D-02 0.39100740D+04 0.39100740D+04 0.39100740D+04 0.12540505D+01  1  2  2  1  6  2       -3 0.287430663379D-04 0.100000000000D+01
0.458263503410D-07 0.000000000000D+00 -.172516796574D-08 0.391730078814D-05 0.000000000000D+00  6 22 -3 9900012 -11 -4 21 2 0.38623476D-01 0.89472208D-02 0.39100740D+04 0.39100740D+04 0.39100740D+04 0.12540505D+01  1  2  3  1  6  2       -3 0.230556858315D-05 0.100000000000D+01
-.119279662294D-06 0.000000000000D+00 0.000000000000D+00 0.391730078814D-05 0.000000000000D+00  6 22 -3 9900012 -11 -4 21 2 0.38623476D-01 0.89472208D-02 0.39100740D+04 0.39100740D+04 0.39100740D+04 0.12540505D+01  1  2 15  1  6  2       -3 -.600107667197D-05 0.100000000000D+01
-.652567491363D-08 0.000000000000D+00 0.000000000000D+00 0.391730078814D-05 0.000000000000D+00  6 22 -3 9900012 -11 -4 21 2 0.38623476D-01 0.89472208D-02 0.39100740D+04 0.39100740D+04 0.39100740D+04 0.12540505D+01  1  2  4  1  6  2       -3 -.328313098310D-06 0.100000000000D+01
  </mgrwgt>
  </event>
  <event>
  6     66 0.83052089E-06 0.30369549E+02 0.78161638E-02 0.11678984E+00
       22 -1    0    0    0    0 0.00000000E+00 0.00000000E+00 0.43188312E+02 0.43188312E+02 0.00000000E+00 0.0000E+00 0.9000E+01
       -1 -1    0    0    0  501 0.00000000E+00 0.00000000E+00 -.51228850E+03 0.51228850E+03 0.00000000E+00 0.0000E+00 0.9000E+01
       24  2    1    2    0    0 0.54025152E+02 0.57266959E+02 -.39584535E+02 0.11880541E+03 0.79684171E+02 0.0000E+00 0.0000E+00
  9900012  1    3    3    0    0 0.44107993E+02 0.31025634E+02 -.42134748E+01 0.73660426E+02 0.50000000E+02 0.0000E+00 0.9000E+01
      -11  1    3    3    0    0 0.99171597E+01 0.26241326E+02 -.35371060E+02 0.45144979E+02 0.00000000E+00 0.0000E+00 0.9000E+01
       -2  1    1    2    0  501 -.54025152E+02 -.57266959E+02 -.42951565E+03 0.43667141E+03 0.00000000E+00 0.0000E+00 0.9000E+01
#aMCatNLO 1  0  0  2  5 0.15748176D+02 0.00000000D+00  -5  6  0 0.00000000D+00 0.00000000D+00 0.00000000D+00 0.00000000D+00 0.00000000D+00
  <mgrwgt>
 0.1007794299D-03    9    4    0
 0.148744329675069D+03 0.000000000000000D+00 0.000000000000000D+00 0.148744329675069D+03
 0.148744329675069D+03 0.000000000000000D+00 0.000000000000000D+00 -.148744329675069D+03
 0.130896138671658D+03 0.441079926467021D+02 0.310256339618426D+02 0.108285244336863D+03
 0.285201391709923D+02 0.991715965753375D+01 0.262413255085374D+02 0.514209278550504D+01
 0.138072381507488D+03 -.540251523042358D+02 -.572669594703799D+02 -.113427337122368D+03
 0.000000000000000D+00 -.000000000000000D+00 0.000000000000000D+00 -.000000000000000D+00
 0.152514376885300D+03 0.000000000000000D+00 0.000000000000000D+00 0.152514376885300D+03
 0.162250533691081D+03 0.000000000000000D+00 0.000000000000000D+00 -.162250533691081D+03
 0.130758427303466D+03 0.470401792401223D+02 0.256767152657587D+02 0.108285244336863D+03
 0.277000781949734D+02 0.105471817900553D+02 0.250920339964783D+02 0.514209278550504D+01
 0.139353690720393D+03 -.509162250565104D+02 -.629382899093905D+02 -.113427337122368D+03
 0.169527143575484D+02 -.667113597366729D+01 0.121695406471536D+02 -.973615680578058D+01
 0.148744329675069D+03 0.000000000000000D+00 0.000000000000000D+00 0.148744329675069D+03
 0.148744329675069D+03 0.000000000000000D+00 0.000000000000000D+00 -.148744329675069D+03
 0.130896138671658D+03 0.441079926467021D+02 0.310256339618426D+02 0.108285244336863D+03
 0.285201391709923D+02 0.991715965753375D+01 0.262413255085374D+02 0.514209278550504D+01
 0.000000000000000D+00 -.000000000000000D+00 0.000000000000000D+00 -.000000000000000D+00
 0.138072381507488D+03 -.540251523042358D+02 -.572669594703799D+02 -.113427337122368D+03
 0.152514376885300D+03 0.000000000000000D+00 0.000000000000000D+00 0.152514376885300D+03
 0.162250533691081D+03 0.000000000000000D+00 0.000000000000000D+00 -.162250533691081D+03
 0.130758427303466D+03 0.470401792401223D+02 0.256767152657587D+02 0.108285244336863D+03
 0.277000781949734D+02 0.105471817900553D+02 0.250920339964783D+02 0.514209278550504D+01
 0.169527143575484D+02 -.667113597366729D+01 0.121695406471536D+02 -.973615680578058D+01
 0.139353690720393D+03 -.509162250565104D+02 -.629382899093905D+02 -.113427337122368D+03
0.134821924035D-05 0.000000000000D+00 0.000000000000D+00 0.371696432341D-05 0.000000000000D+00  6 22 -1 9900012 -11 -2 21 0 0.66443557D-02 0.78813616D-01 0.81289485D+04 0.81289485D+04 0.81289485D+04 0.12187718D+01  1  2  2  1  6  2       -1 0.216031446045D-04 0.100000000000D+01
0.266050313850D-08 0.000000000000D+00 -.258875843860D-08 0.371696432341D-05 0.000000000000D+00  6 22 -1 9900012 -11 -2 21 2 0.66443557D-02 0.78813616D-01 0.81289485D+04 0.81289485D+04 0.81289485D+04 0.12187718D+01  1  2  3  1  6  2       -1 0.633235163946D-07 0.100000000000D+01
-.174098886205D-06 0.000000000000D+00 0.000000000000D+00 0.371696432341D-05 0.000000000000D+00  6 22 -1 9900012 -11 -2 21 2 0.66443557D-02 0.78813616D-01 0.81289485D+04 0.81289485D+04 0.81289485D+04 0.12187718D+01  1  2 15  1  6  2       -1 -.414378525451D-05 0.100000000000D+01
0.358677637605D-05 0.000000000000D+00 0.000000000000D+00 0.371696432341D-05 0.000000000000D+00  6 22 -1 9900012 -11 -2 21 2 0.66443557D-02 0.88148988D-01 0.95400159D+04 0.95400159D+04 0.95400159D+04 0.12114555D+01  1  2 12  1  6  2       -1 0.679786383465D-04 0.100000000000D+01
-.585402998159D-06 0.000000000000D+00 0.000000000000D+00 0.371696432341D-05 0.000000000000D+00  6 22 -1 9900012 -11 -2 21 2 0.66443557D-02 0.78813616D-01 0.81289485D+04 0.81289485D+04 0.81289485D+04 0.12187718D+01  1  2  4  1  6  2       -1 -.139333706527D-04 0.100000000000D+01
-.813012927614D-05 0.000000000000D+00 -.161087699457D-05 0.371696432341D-05 0.000000000000D+00  6 22 -1 9900012 -11 -2 21 2 0.66443557D-02 0.87529650D-01 0.81289485D+04 0.81289485D+04 0.81289485D+04 0.12187718D+01  1  2  5  1  6  2       -1 -.156872672910D-03 0.100000000000D+01
0.826242383117D-05 0.000000000000D+00 0.160205576619D-05 0.371696432341D-05 0.000000000000D+00  6 22 -1 9900012 -11 -2 21 2 0.66443557D-02 0.78813616D-01 0.81289485D+04 0.81289485D+04 0.81289485D+04 0.12187718D+01  1  2  6  1  6  2       -1 0.196656686234D-03 0.100000000000D+01
0.641710620298D-07 0.000000000000D+00 0.000000000000D+00 0.371696432341D-05 0.000000000000D+00  6 22 21 9900012 -11 1 -2 2 0.66443557D-02 0.88148988D-01 0.95400159D+04 0.95400159D+04 0.95400159D+04 0.12114555D+01  3  4 12  3  5  2       -1 0.957895360079D-05 0.100000000000D+01
-.131787309668D-06 0.000000000000D+00 -.272626469030D-07 0.371696432341D-05 0.000000000000D+00  6 22 21 9900012 -11 1 -2 2 0.66443557D-02 0.87529650D-01 0.81289485D+04 0.81289485D+04 0.81289485D+04 0.12187718D+01  3  4  5  3  5  2       -1 -.201514875823D-04 0.100000000000D+01
  </mgrwgt>
  </event>
  <event>
  6     66 0.83052089E-06 0.64533530E+02 0.78161638E-02 0.11269195E+00
       22 -1    0    0    0    0 0.00000000E+00 0.00000000E+00 0.95049938E+02 0.95049938E+02 0.00000000E+00 0.0000E+00 0.9000E+01
       -3 -1    0    0    0  501 -.00000000E+00 -.00000000E+00 -.23912838E+03 0.23912838E+03 0.00000000E+00 0.0000E+00 0.9000E+01
       24  2    1    2    0    0 0.82457902E+02 0.63658638E+02 0.26532748E+02 0.13427858E+03 0.80467523E+02 0.0000E+00 0.0000E+00
  9900012  1    3    3    0    0 0.59809350E+02 0.71199519E+02 0.11817468E+02 0.10623645E+03 0.50000000E+02 0.0000E+00 0.9000E+01
      -11  1    3    3    0    0 0.22648552E+02 -.75408812E+01 0.14715279E+02 0.28042133E+02 0.00000000E+00 0.0000E+00 0.9000E+01
       -4  1    1    2    0  501 -.82457902E+02 -.63658638E+02 -.17061119E+03 0.19989974E+03 0.00000000E+00 0.0000E+00 0.9000E+01
#aMCatNLO 1  0  0  5  2 0.51122051D+02 0.00000000D+00  -5  6  0 0.00000000D+00 0.00000000D+00 0.00000000D+00 0.00000000D+00 0.00000000D+00
  <mgrwgt>
 0.2682865244D-04    7    2    0
 0.150761856848415D+03 0.000000000000000D+00 0.000000000000000D+00 0.150761856848415D+03
 0.150761856848415D+03 -.000000000000000D+00 -.000000000000000D+00 -.150761856848415D+03
 0.123388500361686D+03 0.598093499377870D+02 0.711995188769436D+02 0.638607249662642D+02
 0.381105257776444D+02 0.226485516751708D+02 -.754088120652659D+01 0.297084229250674D+02
 0.140024687557500D+03 -.824579016129578D+02 -.636586376704170D+02 -.935691478913315D+02
 0.000000000000000D+00 -.000000000000000D+00 0.000000000000000D+00 0.000000000000000D+00
 0.150761856848415D+03 0.000000000000000D+00 0.000000000000000D+00 0.150761856848415D+03
 0.150761856848415D+03 -.000000000000000D+00 -.000000000000000D+00 -.150761856848415D+03
 0.109243447696165D+03 0.503304999939016D+02 0.638817159459115D+02 0.531045949303310D+02
 0.343388852836232D+02 0.196965190687041D+02 -.981989110624959D+01 0.263586023483683D+02
 0.931994121313094D+02 -.932355317514504D+01 -.686592876243825D+02 -.623306024415311D+02
 0.647419685857325D+02 -.607034658874607D+02 0.145974627847206D+02 -.171325948371683D+02
0.163540753136D-05 0.000000000000D+00 0.000000000000D+00 0.103123883517D-05 0.000000000000D+00  6 22 -3 9900012 -11 -4 21 0 0.14623067D-01 0.36788981D-01 0.13644540D+05 0.13644540D+05 0.13644540D+05 0.11955864D+01  1  2  2  2  6  5       -4 0.223659056296D-04 0.100000000000D+01
-.128936068888D-07 0.000000000000D+00 -.314019776655D-08 0.103123883517D-05 0.000000000000D+00  6 22 -3 9900012 -11 -4 21 2 0.14623067D-01 0.36788981D-01 0.13644540D+05 0.13644540D+05 0.13644540D+05 0.11955864D+01  1  2  3  2  6  5       -4 -.252055874572D-06 0.100000000000D+01
-.202829896496D-06 0.000000000000D+00 0.000000000000D+00 0.103123883517D-05 0.000000000000D+00  6 22 -3 9900012 -11 -4 21 2 0.14623067D-01 0.36788981D-01 0.13644540D+05 0.13644540D+05 0.13644540D+05 0.11955864D+01  1  2 15  2  6  5       -4 -.396510203791D-05 0.100000000000D+01
0.345232838404D-06 0.000000000000D+00 0.000000000000D+00 0.103123883517D-05 0.000000000000D+00  6 22 -3 9900012 -11 -4 21 2 0.14623067D-01 0.36788981D-01 0.15525101D+05 0.15525101D+05 0.15525101D+05 0.11900121D+01  1  2 12  2  6  5       -4 0.675157871238D-05 0.100000000000D+01
-.101427318880D-06 0.000000000000D+00 0.000000000000D+00 0.103123883517D-05 0.000000000000D+00  6 22 -3 9900012 -11 -4 21 2 0.14623067D-01 0.36788981D-01 0.13644540D+05 0.13644540D+05 0.13644540D+05 0.11955864D+01  1  2  4  2  6  5       -4 -.198279285125D-05 0.100000000000D+01
-.362756008832D-06 0.000000000000D+00 0.000000000000D+00 0.103123883517D-05 0.000000000000D+00  6 22 -3 9900012 -11 -4 21 2 0.14623067D-01 0.36788981D-01 0.13644540D+05 0.13644540D+05 0.13644540D+05 0.11955864D+01  1  2  5  2  6  5       -4 -.709148214702D-05 0.100000000000D+01
0.562824462483D-06 0.000000000000D+00 -.000000000000D+00 0.103123883517D-05 0.000000000000D+00  6 22 -3 9900012 -11 -4 21 2 0.14623067D-01 0.36788981D-01 0.13644540D+05 0.13644540D+05 0.13644540D+05 0.11955864D+01  1  2  6  2  6  5       -4 0.110026010057D-04 0.100000000000D+01
  </mgrwgt>
  </event>
  <event>
  6     66 0.83052089E-06 0.39629482E+02 0.78161638E-02 0.12035351E+00
       22 -1    0    0    0    0 0.00000000E+00 0.00000000E+00 0.11524673E+03 0.11524673E+03 0.00000000E+00 0.0000E+00 0.9000E+01
       -1 -1    0    0    0  501 -.00000000E+00 -.00000000E+00 -.23403600E+03 0.23403600E+03 0.00000000E+00 0.0000E+00 0.9000E+01
       24  2    1    2    0    0 0.56338042E+02 -.14352752E+02 0.84724851E+02 0.13762742E+03 0.91558888E+02 0.0000E+00 0.0000E+00
  9900012  1    3    3    0    0 0.12418268E+02 -.55631598E+01 0.76016259E+02 0.91998010E+02 0.50000000E+02 0.0000E+00 0.9000E+01
      -11  1    3    3    0    0 0.43919775E+02 -.87895918E+01 0.87085915E+01 0.45629410E+02 0.00000000E+00 0.0000E+00 0.9000E+01
       -2  1    1    2    0  501 -.56338042E+02 0.14352752E+02 -.20351412E+03 0.21165532E+03 0.00000000E+00 0.0000E+00 0.9000E+01
#aMCatNLO 1  0  0  5  2 0.13536957D+02 0.00000000D+00  -5  6  0 0.00000000D+00 0.00000000D+00 0.00000000D+00 0.00000000D+00 0.00000000D+00
  <mgrwgt>
 0.1092347040D-03    7    2    0
 0.164231193806309D+03 0.000000000000000D+00 0.000000000000000D+00 0.164231193806309D+03
 0.164231193806309D+03 -.000000000000000D+00 -.000000000000000D+00 -.164231193806309D+03
 0.125320992626933D+03 0.124182676692518D+02 -.556315976915165D+01 0.114106043111123D+03
 0.516712208270197D+02 0.439197746889869D+02 -.878959178430141D+01 0.257625994280196D+02
 0.151470174158665D+03 -.563380423582388D+02 0.143527515534531D+02 -.139868642539143D+03
 0.000000000000000D+00 0.000000000000000D+00 0.000000000000000D+00 -.000000000000000D+00
 0.164231193806309D+03 0.000000000000000D+00 0.000000000000000D+00 0.164231193806309D+03
 0.164231193806309D+03 -.000000000000000D+00 -.000000000000000D+00 -.164231193806309D+03
 0.124422199332276D+03 0.120387808328454D+02 -.546648121851773D+01 0.113163903369523D+03
 0.513382866100699D+02 0.437632508943224D+02 -.874971558266242D+01 0.253740028462359D+02
 0.997743592692711D+02 -.444633543513902D+02 -.156167674335495D+01 -.893056216212930D+02
 0.529275424010017D+02 -.113386773757776D+02 0.157778735445351D+02 -.492322845944663D+02
0.142116376444D-05 0.000000000000D+00 0.000000000000D+00 0.652221153575D-07 0.000000000000D+00  6 22 -1 9900012 -11 -2 21 0 0.17730267D-01 0.36005539D-01 0.59866414D+04 0.59866414D+04 0.59866414D+04 0.12331377D+01  1  2  2  2  6  5       -2 0.220683387519D-04 0.100000000000D+01
0.327558092251D-07 0.000000000000D+00 -.272882152823D-08 0.652221153575D-07 0.000000000000D+00  6 22 -1 9900012 -11 -2 21 2 0.17730267D-01 0.36005539D-01 0.59866414D+04 0.59866414D+04 0.59866414D+04 0.12331377D+01  1  2  3  2  6  5       -2 0.773458492967D-06 0.100000000000D+01
-.188311376197D-06 0.000000000000D+00 0.000000000000D+00 0.652221153575D-07 0.000000000000D+00  6 22 -1 9900012 -11 -2 21 2 0.17730267D-01 0.36005539D-01 0.59866414D+04 0.59866414D+04 0.59866414D+04 0.12331377D+01  1  2 15  2  6  5       -2 -.444657105679D-05 0.100000000000D+01
0.544668681121D-05 0.000000000000D+00 0.000000000000D+00 0.652221153575D-07 0.000000000000D+00  6 22 -1 9900012 -11 -2 21 2 0.17730267D-01 0.36005539D-01 0.64214801D+04 0.64214801D+04 0.64214801D+04 0.12297995D+01  1  2 12  2  6  5       -2 0.128532680899D-03 0.100000000000D+01
-.377731200188D-05 0.000000000000D+00 0.000000000000D+00 0.652221153575D-07 0.000000000000D+00  6 22 -1 9900012 -11 -2 21 2 0.17730267D-01 0.36005539D-01 0.59866414D+04 0.59866414D+04 0.59866414D+04 0.12331377D+01  1  2  4  2  6  5       -2 -.891931574141D-04 0.100000000000D+01
-.538206279112D-05 0.000000000000D+00 0.000000000000D+00 0.652221153575D-07 0.000000000000D+00  6 22 -1 9900012 -11 -2 21 2 0.17730267D-01 0.36005539D-01 0.59866414D+04 0.59866414D+04 0.59866414D+04 0.12331377D+01  1  2  5  2  6  5       -2 -.127085920756D-03 0.100000000000D+01
0.756307534068D-05 0.000000000000D+00 -.000000000000D+00 0.652221153575D-07 0.000000000000D+00  6 22 -1 9900012 -11 -2 21 2 0.17730267D-01 0.36005539D-01 0.59866414D+04 0.59866414D+04 0.59866414D+04 0.12331377D+01  1  2  6  2  6  5       -2 0.178585875104D-03 0.100000000000D+01
  </mgrwgt>
  </event>
  <event>
  6     66 0.83052089E-06 0.67942128E+02 0.78161638E-02 0.11422367E+00
       22 -1    0    0    0    0 0.00000000E+00 0.00000000E+00 0.35313431E+03 0.35313431E+03 0.00000000E+00 0.0000E+00 0.9000E+01
       -1 -1    0    0    0  501 0.00000000E+00 0.00000000E+00 -.46610580E+02 0.46610580E+02 0.00000000E+00 0.0000E+00 0.9000E+01
       24  2    1    2    0    0 -.22802072E+02 -.96390440E+02 0.26226803E+03 0.29125702E+03 0.78962508E+02 0.0000E+00 0.0000E+00
  9900012  1    3    3    0    0 -.35642310E+01 -.85640034E+02 0.24100201E+03 0.26063171E+03 0.50000000E+02 0.0000E+00 0.9000E+01
      -11  1    3    3    0    0 -.19237841E+02 -.10750407E+02 0.21266023E+02 0.30625308E+02 0.00000000E+00 0.0000E+00 0.9000E+01
       -2  1    1    2    0  501 0.22802072E+02 0.96390440E+02 0.44255695E+02 0.10848787E+03 0.00000000E+00 0.0000E+00 0.9000E+01
#aMCatNLO 1  0  0  2  5 0.66731572D+01 0.00000000D+00  -5  6  0 0.00000000D+00 0.00000000D+00 0.00000000D+00 0.00000000D+00 0.00000000D+00
  <mgrwgt>
 0.5902711029D-04   11    4    0
 0.128295731708287D+03 0.000000000000000D+00 0.000000000000000D+00 0.128295731708287D+03
 0.128295731708287D+03 0.000000000000000D+00 0.000000000000000D+00 -.128295731708287D+03
 0.118138609563232D+03 -.356423103443374D+01 -.856400336715899D+02 0.641078151194997D+02
 0.223069371295194D+02 -.192378406450786D+02 -.107504065633873D+02 -.345451735221745D+01
 0.116145916723822D+03 0.228020716795124D+02 0.963904402349772D+02 -.606532977672823D+02
 0.000000000000000D+00 -.000000000000000D+00 -.000000000000000D+00 -.000000000000000D+00
 0.128746088554919D+03 0.000000000000000D+00 0.000000000000000D+00 0.128746088554919D+03
 0.155149333220895D+03 0.000000000000000D+00 0.000000000000000D+00 -.155149333220895D+03
 0.116212457328556D+03 -.207531372678188D+01 -.830133504436542D+02 0.641078151194997D+02
 0.218288252193933D+02 -.189574301424969D+02 -.102557185372066D+02 -.345451735221745D+01
 0.118635379166098D+03 0.242937223879977D+02 0.990219456099103D+02 -.606532977672823D+02
 0.272187600617669D+02 -.326097851871899D+01 -.575287662904954D+01 -.264032446659767D+02
 0.128295731708287D+03 0.000000000000000D+00 0.000000000000000D+00 0.128295731708287D+03
 0.128295731708287D+03 0.000000000000000D+00 0.000000000000000D+00 -.128295731708287D+03
 0.118138609563232D+03 -.356423103443374D+01 -.856400336715899D+02 0.641078151194997D+02
 0.223069371295194D+02 -.192378406450786D+02 -.107504065633873D+02 -.345451735221745D+01
 0.000000000000000D+00 -.000000000000000D+00 -.000000000000000D+00 -.000000000000000D+00
 0.116145916723822D+03 0.228020716795124D+02 0.963904402349772D+02 -.606532977672823D+02
 0.128746088554919D+03 0.000000000000000D+00 0.000000000000000D+00 0.128746088554919D+03
 0.155149333220895D+03 0.000000000000000D+00 0.000000000000000D+00 -.155149333220895D+03
 0.116212457328556D+03 -.207531372678188D+01 -.830133504436542D+02 0.641078151194997D+02
 0.218288252193933D+02 -.189574301424969D+02 -.102557185372066D+02 -.345451735221745D+01
 0.272187600617669D+02 -.326097851871899D+01 -.575287662904954D+01 -.264032446659767D+02
 0.118635379166098D+03 0.242937223879977D+02 0.990219456099103D+02 -.606532977672823D+02
0.169742773859D-06 0.000000000000D+00 0.000000000000D+00 0.433034718154D-06 0.000000000000D+00  6 22 -1 9900012 -11 -2 21 0 0.54328355D-01 0.71708584D-02 0.12135250D+05 0.12135250D+05 0.12135250D+05 0.12007152D+01  1  2  2  1  6  2       -1 0.571754537911D-05 0.100000000000D+01
-.302675728557D-08 0.000000000000D+00 -.325928472959D-09 0.433034718154D-06 0.000000000000D+00  6 22 -1 9900012 -11 -2 21 2 0.54328355D-01 0.71708584D-02 0.12135250D+05 0.12135250D+05 0.12135250D+05 0.12007152D+01  1  2  3  1  6  2       -1 -.146985998882D-06 0.100000000000D+01
-.213008542870D-07 0.000000000000D+00 0.000000000000D+00 0.433034718154D-06 0.000000000000D+00  6 22 -1 9900012 -11 -2 21 2 0.54328355D-01 0.71708584D-02 0.12135250D+05 0.12135250D+05 0.12135250D+05 0.12007152D+01  1  2 15  1  6  2       -1 -.103441638989D-05 0.100000000000D+01
0.322600923185D-05 0.000000000000D+00 0.000000000000D+00 0.433034718154D-06 0.000000000000D+00  6 22 -1 9900012 -11 -2 21 2 0.54328355D-01 0.87022326D-02 0.12888557D+05 0.12888557D+05 0.12888557D+05 0.11980722D+01  1  2 12  1  6  2       -1 0.117804697866D-03 0.100000000000D+01
-.226695692923D-05 0.000000000000D+00 0.000000000000D+00 0.433034718154D-06 0.000000000000D+00  6 22 -1 9900012 -11 -2 21 2 0.54328355D-01 0.71708584D-02 0.12135250D+05 0.12135250D+05 0.12135250D+05 0.12007152D+01  1  2  4  1  6  2       -1 -.110088420454D-03 0.100000000000D+01
-.378393214613D-05 0.000000000000D+00 -.125892671454D-06 0.433034718154D-06 0.000000000000D+00  6 22 -1 9900012 -11 -2 21 2 0.54328355D-01 0.86934880D-02 0.12135250D+05 0.12135250D+05 0.12135250D+05 0.12007152D+01  1  2  5  1  6  2       -1 -.138303519038D-03 0.100000000000D+01
0.374090911717D-05 0.000000000000D+00 0.123594447951D-06 0.433034718154D-06 0.000000000000D+00  6 22 -1 9900012 -11 -2 21 2 0.54328355D-01 0.71708584D-02 0.12135250D+05 0.12135250D+05 0.12135250D+05 0.12007152D+01  1  2  6  1  6  2       -1 0.181666784428D-03 0.100000000000D+01
0.181045016501D-06 0.000000000000D+00 0.000000000000D+00 0.433034718154D-06 0.511192066725D-07  6 22 -1 9900012 -11 -2 21 2 0.54519064D-01 0.86717920D-02 0.12888557D+05 0.12888557D+05 0.12888557D+05 0.11980722D+01  1  2 11  1  6  2       -1 0.660637060401D-05 0.100000000000D+01
0.900204596372D-07 0.000000000000D+00 0.000000000000D+00 0.433034718154D-06 0.000000000000D+00  6 22 21 9900012 -11 1 -2 2 0.54328355D-01 0.87022326D-02 0.12888557D+05 0.12888557D+05 0.12888557D+05 0.11980722D+01  3  4 12  3  5  2       -1 0.480554619671D-04 0.100000000000D+01
-.103807440147D-06 0.000000000000D+00 -.349888559612D-08 0.433034718154D-06 0.000000000000D+00  6 22 21 9900012 -11 1 -2 2 0.54328355D-01 0.86934880D-02 0.12135250D+05 0.12135250D+05 0.12135250D+05 0.12007152D+01  3  4  5  3  5  2       -1 -.555084379079D-04 0.100000000000D+01
0.797737416392D-08 0.000000000000D+00 0.000000000000D+00 0.433034718154D-06 0.222703924607D-08  6 22 21 9900012 -11 1 -2 2 0.54519064D-01 0.86717920D-02 0.12888557D+05 0.12888557D+05 0.12888557D+05 0.11980722D+01  3  4 11  3  5  2       -1 0.425802983215D-05 0.100000000000D+01
  </mgrwgt>
  </event>
  <event>
  6     66 0.83052089E-06 0.69360290E+02 0.78161638E-02 0.11311184E+00
       22 -1    0    0    0    0 0.00000000E+00 0.00000000E+00 0.15688770E+04 0.15688770E+04 0.00000000E+00 0.0000E+00 0.9000E+01
       -1 -1    0    0    0  501 0.00000000E+00 0.00000000E+00 -.12867191E+02 0.12867191E+02 0.00000000E+00 0.0000E+00 0.9000E+01
       24  2    1    2    0    0 -.10367735E+03 0.77607759E+01 0.12817377E+04 0.12884279E+04 0.79911575E+02 0.0000E+00 0.0000E+00
  9900012  1    3    3    0    0 -.83369074E+02 -.17398153E+02 0.95175373E+03 0.95686376E+03 0.50000000E+02 0.0000E+00 0.9000E+01
      -11  1    3    3    0    0 -.20308272E+02 0.25158929E+02 0.32998392E+03 0.33156415E+03 0.00000000E+00 0.0000E+00 0.9000E+01
       -2  1    1    2    0  501 0.10367735E+03 -.77607759E+01 0.27427214E+03 0.29331626E+03 0.00000000E+00 0.0000E+00 0.9000E+01
#aMCatNLO 1  0  0  5  2 0.40038582D+02 0.00000000D+00  -5  6  0 0.00000000D+00 0.00000000D+00 0.00000000D+00 0.00000000D+00 0.00000000D+00
  <mgrwgt>
 0.2001339512D-04    4    2    0
 0.142081104004290D+03 0.000000000000000D+00 0.000000000000000D+00 0.142081104004290D+03
 0.142081104004290D+03 -.000000000000000D+00 -.000000000000000D+00 -.142081104004290D+03
 0.114637197700125D+03 -.833690738984709D+02 -.173981531377093D+02 0.582115871733947D+02
 0.386801995351101D+02 -.203082718716387D+02 0.251589290260782D+02 0.212311144296361D+02
 0.130844810773345D+03 0.103677345770110D+03 -.776077588836884D+01 -.794427016030308D+02
 0.000000000000000D+00 0.000000000000000D+00 0.000000000000000D+00 0.000000000000000D+00
 0.142081104004290D+03 0.000000000000000D+00 0.000000000000000D+00 0.142081104004290D+03
 0.142081104004290D+03 -.000000000000000D+00 -.000000000000000D+00 -.142081104004290D+03
 0.100787454731566D+03 -.705608649113612D+02 -.183569126308464D+02 0.483973050168238D+02
 0.345190206166814D+02 -.159561659319766D+02 0.248331517929780D+02 0.178963159648298D+02
 0.289383792548610D+02 -.759973328696049D+01 -.274731706491578D+02 0.498986396082078D+01
 0.119917353405473D+03 0.941167641302982D+02 0.209969314870262D+02 -.712834849424744D+02
0.205545597737D-05 0.000000000000D+00 0.000000000000D+00 0.101011384686D-05 0.000000000000D+00  6 22 -1 9900012 -11 -2 21 0 0.24136569D+00 0.19795679D-02 0.13813041D+05 0.13813041D+05 0.13813041D+05 0.11950530D+01  1  2  2  2  6  5       -2 0.201300591434D-04 0.100000000000D+01
-.224507388186D-07 0.000000000000D+00 -.394674608354D-08 0.101011384686D-05 0.000000000000D+00  6 22 -1 9900012 -11 -2 21 2 0.24136569D+00 0.19795679D-02 0.13813041D+05 0.13813041D+05 0.13813041D+05 0.11950530D+01  1  2  3  2  6  5       -2 -.314008835384D-06 0.100000000000D+01
-.248907036998D-06 0.000000000000D+00 0.000000000000D+00 0.101011384686D-05 0.000000000000D+00  6 22 -1 9900012 -11 -2 21 2 0.24136569D+00 0.19795679D-02 0.13813041D+05 0.13813041D+05 0.13813041D+05 0.11950530D+01  1  2 15  2  6  5       -2 -.348135575573D-05 0.100000000000D+01
0.262699229200D-06 0.000000000000D+00 0.000000000000D+00 0.101011384686D-05 0.000000000000D+00  6 22 -1 9900012 -11 -2 21 2 0.24136569D+00 0.19795679D-02 0.14745247D+05 0.14745247D+05 0.14745247D+05 0.11922270D+01  1  2 12  2  6  5       -2 0.367870056436D-05 0.100000000000D+01
  </mgrwgt>
  </event>
  <event>
  6     66 0.83052089E-06 0.38183665E+02 0.78161638E-02 0.11991516E+00
       22 -1    0    0    0    0 0.00000000E+00 0.00000000E+00 0.69976657E+02 0.69976657E+02 0.00000000E+00 0.0000E+00 0.9000E+01
       -3 -1    0    0    0  501 0.00000000E+00 0.00000000E+00 -.10037257E+03 0.10037257E+03 0.00000000E+00 0.0000E+00 0.9000E+01
       24  2    1    2    0    0 -.50839963E+02 -.16297996E+01 0.21722823E+02 0.97522577E+02 0.80320694E+02 0.0000E+00 0.0000E+00
  9900012  1    3    3    0    0 -.98186116E+01 0.90290159E+01 0.18728280E+02 0.55033415E+02 0.50000000E+02 0.0000E+00 0.9000E+01
      -11  1    3    3    0    0 -.41021352E+02 -.10658815E+02 0.29945430E+01 0.42489163E+02 0.00000000E+00 0.0000E+00 0.9000E+01
       -4  1    1    2    0  501 0.50839963E+02 0.16297996E+01 -.52118735E+02 0.72826648E+02 0.00000000E+00 0.0000E+00 0.9000E+01
#aMCatNLO 1  0  0  2  5 0.19822177D+02 0.00000000D+00  -5  6  0 0.00000000D+00 0.00000000D+00 0.00000000D+00 0.00000000D+00 0.00000000D+00
  <mgrwgt>
 0.6091139547D-04    9    4    0
 0.838077371289226D+02 0.000000000000000D+00 0.000000000000000D+00 0.838077371289226D+02
 0.838077371289226D+02 0.000000000000000D+00 0.000000000000000D+00 -.838077371289226D+02
 0.593272357270503D+02 -.981861155105726D+01 0.902901587978807D+01 0.290136629618697D+02
 0.437251861973538D+02 -.410213518868608D+02 -.106588154445807D+02 0.107484999272441D+02
 0.645630523334412D+02 0.508399634379181D+02 0.162979956479262D+01 -.397621628891138D+02
 0.000000000000000D+00 -.000000000000000D+00 -.000000000000000D+00 -.000000000000000D+00
 0.882453334102747D+02 0.000000000000000D+00 0.000000000000000D+00 0.882453334102747D+02
 0.104375223500820D+03 0.000000000000000D+00 0.000000000000000D+00 -.104375223500820D+03
 0.606066857818246D+02 -.971311531402169D+01 0.153958797698725D+02 0.290136629618697D+02
 0.427651542053565D+02 -.409452732817621D+02 -.606735192681037D+01 0.107484999272441D+02
 0.651913026037259D+02 0.509540979214123D+02 0.851799521984353D+01 -.397621628891138D+02
 0.240574143201872D+02 -.295709325628462D+00 -.178465230629057D+02 -.161298900905450D+02
 0.838077371289226D+02 0.000000000000000D+00 0.000000000000000D+00 0.838077371289226D+02
 0.838077371289226D+02 0.000000000000000D+00 0.000000000000000D+00 -.838077371289226D+02
 0.593272357270503D+02 -.981861155105726D+01 0.902901587978807D+01 0.290136629618697D+02
 0.437251861973538D+02 -.410213518868608D+02 -.106588154445807D+02 0.107484999272441D+02
 0.000000000000000D+00 -.000000000000000D+00 -.000000000000000D+00 -.000000000000000D+00
 0.645630523334412D+02 0.508399634379181D+02 0.162979956479262D+01 -.397621628891138D+02
 0.882453334102747D+02 0.000000000000000D+00 0.000000000000000D+00 0.882453334102747D+02
 0.104375223500820D+03 0.000000000000000D+00 0.000000000000000D+00 -.104375223500820D+03
 0.606066857818246D+02 -.971311531402169D+01 0.153958797698725D+02 0.290136629618697D+02
 0.427651542053565D+02 -.409452732817621D+02 -.606735192681037D+01 0.107484999272441D+02
 0.240574143201872D+02 -.295709325628462D+00 -.178465230629057D+02 -.161298900905450D+02
 0.651913026037259D+02 0.509540979214123D+02 0.851799521984353D+01 -.397621628891138D+02
0.265720259334D-06 0.000000000000D+00 0.000000000000D+00 0.572108122754D-06 0.000000000000D+00  6 22 -3 9900012 -11 -4 21 0 0.10765640D-01 0.15441934D-01 0.52561260D+04 0.52561260D+04 0.52561260D+04 0.12394102D+01  1  2  2  1  6  2       -3 0.243061667015D-04 0.100000000000D+01
-.227518149527D-10 0.000000000000D+00 -.510217880797D-09 0.572108122754D-06 0.000000000000D+00  6 22 -3 9900012 -11 -4 21 2 0.10765640D-01 0.15441934D-01 0.52561260D+04 0.52561260D+04 0.52561260D+04 0.12394102D+01  1  2  3  1  6  2       -3 -.319696553862D-08 0.100000000000D+01
-.310311638469D-07 0.000000000000D+00 0.000000000000D+00 0.572108122754D-06 0.000000000000D+00  6 22 -3 9900012 -11 -4 21 2 0.10765640D-01 0.15441934D-01 0.52561260D+04 0.52561260D+04 0.52561260D+04 0.12394102D+01  1  2 15  1  6  2       -3 -.436033615991D-05 0.100000000000D+01
0.380356082746D-06 0.000000000000D+00 0.000000000000D+00 0.572108122754D-06 0.000000000000D+00  6 22 -3 9900012 -11 -4 21 2 0.10765640D-01 0.20249888D-01 0.67332857D+04 0.67332857D+04 0.67332857D+04 0.12275579D+01  1  2 12  1  6  2       -3 0.339397086420D-04 0.100000000000D+01
-.135624732833D-06 0.000000000000D+00 0.000000000000D+00 0.572108122754D-06 0.000000000000D+00  6 22 -3 9900012 -11 -4 21 2 0.10765640D-01 0.15441934D-01 0.52561260D+04 0.52561260D+04 0.52561260D+04 0.12394102D+01  1  2  4  1  6  2       -3 -.190572751208D-04 0.100000000000D+01
-.634182365217D-06 0.000000000000D+00 -.148740722252D-06 0.572108122754D-06 0.000000000000D+00  6 22 -3 9900012 -11 -4 21 2 0.10765640D-01 0.20159259D-01 0.52561260D+04 0.52561260D+04 0.52561260D+04 0.12394102D+01  1  2  5  1  6  2       -3 -.567001060650D-04 0.100000000000D+01
0.655535608007D-06 0.000000000000D+00 0.143607813879D-06 0.572108122754D-06 0.000000000000D+00  6 22 -3 9900012 -11 -4 21 2 0.10765640D-01 0.15441934D-01 0.52561260D+04 0.52561260D+04 0.52561260D+04 0.12394102D+01  1  2  6  1  6  2       -3 0.921124205912D-04 0.100000000000D+01
0.136593267788D-07 0.000000000000D+00 0.000000000000D+00 0.572108122754D-06 0.000000000000D+00  6 22 21 9900012 -11 3 -4 2 0.10765640D-01 0.20249888D-01 0.67332857D+04 0.67332857D+04 0.67332857D+04 0.12275579D+01  3  4 12  3  5  2       -3 0.203960066757D-04 0.100000000000D+01
-.197321126264D-07 0.000000000000D+00 -.527686745777D-08 0.572108122754D-06 0.000000000000D+00  6 22 21 9900012 -11 3 -4 2 0.10765640D-01 0.20159259D-01 0.52561260D+04 0.52561260D+04 0.52561260D+04 0.12394102D+01  3  4  5  3  5  2       -3 -.297219928257D-04 0.100000000000D+01
  </mgrwgt>
  </event>
  <event>
  7     66 -.83052089E-06 0.70356984E+02 0.78161638E-02 0.11778139E+00
       22 -1    0    0    0    0 0.00000000E+00 0.00000000E+00 0.59601090E+03 0.59601090E+03 0.00000000E+00 0.0000E+00 0.9000E+01
       -3 -1    0    0    0  501 0.00000000E+00 0.00000000E+00 -.27877770E+02 0.27877770E+02 0.00000000E+00 0.0000E+00 0.9000E+01
       24  2    1    2    0    0 0.62528935E+02 -.40686472E+02 0.52384801E+03 0.53505884E+03 0.79410170E+02 0.0000E+00 0.0000E+00
  9900012  1    3    3    0    0 0.21205443E+02 -.55335239E+01 0.27477878E+03 0.28014937E+03 0.50000000E+02 0.0000E+00 0.9000E+01
      -11  1    3    3    0    0 0.41323492E+02 -.35152948E+02 0.24906922E+03 0.25490947E+03 0.00000000E+00 0.0000E+00 0.9000E+01
       -4  1    1    2    0  502 -.50202264E+02 0.38551648E+02 0.30656722E+02 0.70330160E+02 0.00000000E+00 0.0000E+00 0.9000E+01
       21  1    1    2  502  501 -.12326672E+02 0.21348244E+01 0.13628399E+02 0.18499664E+02 0.00000000E+00 0.0000E+00 0.9000E+01
#aMCatNLO 2  0  0  5  2 0.63241565D+01 0.00000000D+00  -5  6  0 0.00000000D+00 0.00000000D+00 0.00000000D+00 0.00000000D+00 0.00000000D+00
  <mgrwgt>
 -.5682095656D-04    2    2    0
 0.128900949359255D+03 0.000000000000000D+00 0.000000000000000D+00 0.128900949359255D+03
 0.128900949359255D+03 -.000000000000000D+00 -.000000000000000D+00 -.128900949359255D+03
 0.727281918885160D+02 0.214436188217127D+02 -.568850086700140D+01 0.479291358683633D+02
 0.684030303824045D+02 0.415473127587814D+02 -.352985842345822D+02 0.413135004454267D+02
 0.116670676447590D+03 -.629909315804941D+02 0.409870851015836D+02 -.892426363137899D+02
 0.000000000000000D+00 -.000000000000000D+00 0.000000000000000D+00 0.000000000000000D+00
 0.128900949359255D+03 0.000000000000000D+00 0.000000000000000D+00 0.128900949359255D+03
 0.128900949359255D+03 -.000000000000000D+00 -.000000000000000D+00 -.128900949359255D+03
 0.724241708069633D+02 0.212054428099162D+02 -.553352394858280D+01 0.475916991188802D+02
 0.680004838153897D+02 0.413234924612446D+02 -.351529483255327D+02 0.409964022074494D+02
 0.102641178251150D+03 -.502022636211123D+02 0.385516478297431D+02 -.808004619399672D+02
 0.147360658450084D+02 -.123266716500485D+02 0.213482444437240D+01 -.778763938636251D+01
-.290421462909D-05 0.000000000000D+00 0.000000000000D+00 0.190035515530D-05 0.000000000000D+00  6 22 -3 9900012 -11 -4 21 2 0.91693984D-01 0.42888877D-02 0.85240765D+04 0.85240765D+04 0.85240765D+04 0.12165873D+01  1  2 13  2  6  5       -4 -.103743171835D-03 0.100000000000D+01
0.131355328368D-05 0.000000000000D+00 0.000000000000D+00 0.190035515530D-05 0.142034280054D-06  6 22 -3 9900012 -11 -4 21 2 0.91693984D-01 0.42888877D-02 0.85240765D+04 0.85240765D+04 0.85240765D+04 0.12165873D+01  1  2  1  2  6  5       -4 0.469222152725D-04 0.100000000000D+01
  </mgrwgt>
  </event>
  <event>
  6     66 0.83052089E-06 0.48010982E+02 0.78161638E-02 0.12142266E+00
       22 -1    0    0    0    0 0.00000000E+00 0.00000000E+00 0.20362084E+03 0.20362084E+03 0.00000000E+00 0.0000E+00 0.9000E+01
       -1 -1    0    0    0  501 0.00000000E+00 0.00000000E+00 -.60379453E+02 0.60379453E+02 0.00000000E+00 0.0000E+00 0.9000E+01
       24  2    1    2    0    0 -.37727922E+02 -.29692732E+02 0.18068719E+03 0.20311316E+03 0.79385405E+02 0.0000E+00 0.0000E+00
  9900012  1    3    3    0    0 -.44001224E+02 -.46335366E+01 0.12450294E+03 0.14127477E+03 0.50000000E+02 0.0000E+00 0.9000E+01
      -11  1    3    3    0    0 0.62733022E+01 -.25059195E+02 0.56184249E+02 0.61838398E+02 0.00000000E+00 0.0000E+00 0.9000E+01
       -2  1    1    2    0  501 0.37727922E+02 0.29692732E+02 -.37445802E+02 0.60887129E+02 0.00000000E+00 0.0000E+00 0.9000E+01
#aMCatNLO 1  0  0  5  2 0.19395302D+02 0.00000000D+00  -5  6  0 0.00000000D+00 0.00000000D+00 0.00000000D+00 0.00000000D+00 0.00000000D+00
  <mgrwgt>
 0.8899433821D-04    7    2    0
 0.110880634032571D+03 0.000000000000000D+00 0.000000000000000D+00 0.110880634032571D+03
 0.110880634032571D+03 -.000000000000000D+00 -.000000000000000D+00 -.110880634032571D+03
 0.877637743801069D+02 -.440012238091478D+02 -.463353659479313D+01 0.569640477438560D+02
 0.373259289693905D+02 0.627330222214313D+01 -.250591952344438D+02 0.269426685177929D+02
 0.966715647156443D+02 0.377279215870046D+02 0.296927318292369D+02 -.839067162616489D+02
 0.000000000000000D+00 0.000000000000000D+00 0.000000000000000D+00 -.000000000000000D+00
 0.110880634032571D+03 0.000000000000000D+00 0.000000000000000D+00 0.110880634032571D+03
 0.110880634032571D+03 -.000000000000000D+00 -.000000000000000D+00 -.110880634032571D+03
 0.853449210510165D+02 -.427718499900593D+02 -.366599145600523D+01 0.542299262794687D+02
 0.363082126529676D+02 0.679623312215441D+01 -.246476367301289D+02 0.257796727097543D+02
 0.557134655369889D+02 0.121833611512434D+02 0.334215105346482D+02 -.428784163278218D+02
 0.443946688241686D+02 0.237922557166615D+02 -.510788234851409D+01 -.371311826614011D+02
0.830689924341D-06 0.000000000000D+00 0.000000000000D+00 0.171214124778D-05 0.000000000000D+00  6 22 -1 9900012 -11 -2 21 0 0.31326283D-01 0.92891466D-02 0.49426921D+04 0.49426921D+04 0.49426921D+04 0.12424098D+01  1  2  2  2  6  5       -2 0.428940975140D-04 0.100000000000D+01
0.216575262783D-07 0.000000000000D+00 -.159503401757D-08 0.171214124778D-05 0.000000000000D+00  6 22 -1 9900012 -11 -2 21 2 0.31326283D-01 0.92891466D-02 0.49426921D+04 0.49426921D+04 0.49426921D+04 0.12424098D+01  1  2  3  2  6  5       -2 0.172622407056D-05 0.100000000000D+01
-.107473763084D-06 0.000000000000D+00 0.000000000000D+00 0.171214124778D-05 0.000000000000D+00  6 22 -1 9900012 -11 -2 21 2 0.31326283D-01 0.92891466D-02 0.49426921D+04 0.49426921D+04 0.49426921D+04 0.12424098D+01  1  2 15  2  6  5       -2 -.856625056831D-05 0.100000000000D+01
0.564484416487D-06 0.000000000000D+00 0.000000000000D+00 0.171214124778D-05 0.000000000000D+00  6 22 -1 9900012 -11 -2 21 2 0.31326283D-01 0.92891466D-02 0.57286127D+04 0.57286127D+04 0.57286127D+04 0.12352499D+01  1  2 12  2  6  5       -2 0.451099334778D-04 0.100000000000D+01
-.197652316165D-06 0.000000000000D+00 0.000000000000D+00 0.171214124778D-05 0.000000000000D+00  6 22 -1 9900012 -11 -2 21 2 0.31326283D-01 0.92891466D-02 0.49426921D+04 0.49426921D+04 0.49426921D+04 0.12424098D+01  1  2  4  2  6  5       -2 -.157539776880D-04 0.100000000000D+01
-.540471261661D-06 0.000000000000D+00 0.000000000000D+00 0.171214124778D-05 0.000000000000D+00  6 22 -1 9900012 -11 -2 21 2 0.31326283D-01 0.92891466D-02 0.49426921D+04 0.49426921D+04 0.49426921D+04 0.12424098D+01  1  2  5  2  6  5       -2 -.430785348861D-04 0.100000000000D+01
0.836364392009D-06 0.000000000000D+00 -.000000000000D+00 0.171214124778D-05 0.000000000000D+00  6 22 -1 9900012 -11 -2 21 2 0.31326283D-01 0.92891466D-02 0.49426921D+04 0.49426921D+04 0.49426921D+04 0.12424098D+01  1  2  6  2  6  5       -2 0.666628462869D-04 0.100000000000D+01
  </mgrwgt>
  </event>
  <event>
  6     66 0.83052089E-06 0.27278394E+02 0.78161638E-02 0.12481719E+00
       22 -1    0    0    0    0 0.00000000E+00 0.00000000E+00 0.17994041E+02 0.17994041E+02 0.00000000E+00 0.0000E+00 0.9000E+01
       -3 -1    0    0    0  501 0.00000000E+00 0.00000000E+00 -.35195576E+03 0.35195576E+03 0.00000000E+00 0.0000E+00 0.9000E+01
       24  2    1    2    0    0 -.22395200E+02 0.15574525E+02 -.96671169E+02 0.13109646E+03 0.84242848E+02 0.0000E+00 0.0000E+00
  9900012  1    3    3    0    0 0.99435188E+01 0.36472830E+01 -.40575922E+02 0.65257809E+02 0.50000000E+02 0.0000E+00 0.9000E+01
      -11  1    3    3    0    0 -.32338719E+02 0.11927242E+02 -.56095247E+02 0.65838656E+02 0.00000000E+00 0.0000E+00 0.9000E+01
       -4  1    1    2    0  501 0.22395200E+02 -.15574525E+02 -.23729055E+03 0.23885334E+03 0.00000000E+00 0.0000E+00 0.9000E+01
#aMCatNLO 1  0  0  2  5 0.13058623D+02 0.00000000D+00  -5  6  0 0.00000000D+00 0.00000000D+00 0.00000000D+00 0.00000000D+00 0.00000000D+00
  <mgrwgt>
 0.5366730407D-04    9    4    0
 0.795808161858143D+02 0.000000000000000D+00 0.000000000000000D+00 0.795808161858143D+02
 0.795808161858143D+02 0.000000000000000D+00 0.000000000000000D+00 -.795808161858143D+02
 0.665443601875719D+02 0.994351879323694D+01 0.364728301939226D+01 0.426142656085764D+02
 0.353309540374672D+02 -.323387185499772D+02 0.119272415323968D+02 0.776044490804790D+01
 0.572863181465896D+02 0.223951997567403D+02 -.155745245517890D+02 -.503747105166243D+02
 0.000000000000000D+00 -.000000000000000D+00 -.000000000000000D+00 -.000000000000000D+00
 0.816734287103677D+02 0.000000000000000D+00 0.000000000000000D+00 0.816734287103677D+02
 0.100565572706636D+03 0.000000000000000D+00 0.000000000000000D+00 -.100565572706636D+03
 0.675604197664168D+02 0.144953595987678D+02 0.619025328710796D+01 0.426142656085764D+02
 0.336923276032158D+02 -.299959013139957D+02 0.132360998225535D+02 0.776044490804790D+01
 0.583908121852963D+02 0.263215615336437D+02 -.133809897412507D+02 -.503747105166243D+02
 0.225954418620748D+02 -.108210198184158D+02 -.604536336841078D+01 -.188921439962682D+02
 0.795808161858143D+02 0.000000000000000D+00 0.000000000000000D+00 0.795808161858143D+02
 0.795808161858143D+02 0.000000000000000D+00 0.000000000000000D+00 -.795808161858143D+02
 0.665443601875719D+02 0.994351879323694D+01 0.364728301939226D+01 0.426142656085764D+02
 0.353309540374672D+02 -.323387185499772D+02 0.119272415323968D+02 0.776044490804790D+01
 0.000000000000000D+00 -.000000000000000D+00 -.000000000000000D+00 -.000000000000000D+00
 0.572863181465896D+02 0.223951997567403D+02 -.155745245517890D+02 -.503747105166243D+02
 0.816734287103677D+02 0.000000000000000D+00 0.000000000000000D+00 0.816734287103677D+02
 0.100565572706636D+03 0.000000000000000D+00 0.000000000000000D+00 -.100565572706636D+03
 0.675604197664168D+02 0.144953595987678D+02 0.619025328710796D+01 0.426142656085764D+02
 0.336923276032158D+02 -.299959013139957D+02 0.132360998225535D+02 0.776044490804790D+01
 0.225954418620748D+02 -.108210198184158D+02 -.604536336841078D+01 -.188921439962682D+02
 0.583908121852963D+02 0.263215615336437D+02 -.133809897412507D+02 -.503747105166243D+02
0.195519152491D-06 0.000000000000D+00 0.000000000000D+00 0.497403825377D-07 0.000000000000D+00  6 22 -3 9900012 -11 -4 21 0 0.27683140D-02 0.54147040D-01 0.31841178D+04 0.31841178D+04 0.31841178D+04 0.12645310D+01  1  2  2  1  6  2       -3 0.110066549647D-04 0.100000000000D+01
0.103044608272D-07 0.000000000000D+00 -.375422513470D-09 0.497403825377D-07 0.000000000000D+00  6 22 -3 9900012 -11 -4 21 2 0.27683140D-02 0.54147040D-01 0.31841178D+04 0.31841178D+04 0.31841178D+04 0.12645310D+01  1  2  3  1  6  2       -3 0.927577661721D-06 0.100000000000D+01
-.248331155708D-07 0.000000000000D+00 0.000000000000D+00 0.497403825377D-07 0.000000000000D+00  6 22 -3 9900012 -11 -4 21 2 0.27683140D-02 0.54147040D-01 0.31841178D+04 0.31841178D+04 0.31841178D+04 0.12645310D+01  1  2 15  1  6  2       -3 -.223540500184D-05 0.100000000000D+01
0.557196115798D-06 0.000000000000D+00 0.000000000000D+00 0.497403825377D-07 0.000000000000D+00  6 22 -3 9900012 -11 -4 21 2 0.27683140D-02 0.70224404D-01 0.40408052D+04 0.40408052D+04 0.40408052D+04 0.12523973D+01  1  2 12  1  6  2       -3 0.291208178338D-04 0.100000000000D+01
-.101727611123D-06 0.000000000000D+00 0.000000000000D+00 0.497403825377D-07 0.000000000000D+00  6 22 -3 9900012 -11 -4 21 2 0.27683140D-02 0.54147040D-01 0.31841178D+04 0.31841178D+04 0.31841178D+04 0.12645310D+01  1  2  4  1  6  2       -3 -.915722435555D-05 0.100000000000D+01
-.708341164775D-06 0.000000000000D+00 -.110636366430D-06 0.497403825377D-07 0.000000000000D+00  6 22 -3 9900012 -11 -4 21 2 0.27683140D-02 0.69550511D-01 0.31841178D+04 0.31841178D+04 0.31841178D+04 0.12645310D+01  1  2  5  1  6  2       -3 -.376610590600D-04 0.100000000000D+01
0.716836290392D-06 0.000000000000D+00 0.107257584602D-06 0.497403825377D-07 0.000000000000D+00  6 22 -3 9900012 -11 -4 21 2 0.27683140D-02 0.54147040D-01 0.31841178D+04 0.31841178D+04 0.31841178D+04 0.12645310D+01  1  2  6  1  6  2       -3 0.645275227134D-04 0.100000000000D+01
0.194088758519D-07 0.000000000000D+00 0.000000000000D+00 0.497403825377D-07 0.000000000000D+00  6 22 21 9900012 -11 3 -4 2 0.27683140D-02 0.70224404D-01 0.40408052D+04 0.40408052D+04 0.40408052D+04 0.12523973D+01  3  4 12  3  5  2       -3 0.166064387567D-04 0.100000000000D+01
-.221389134856D-07 0.000000000000D+00 -.374815795090D-08 0.497403825377D-07 0.000000000000D+00  6 22 21 9900012 -11 3 -4 2 0.27683140D-02 0.69550511D-01 0.31841178D+04 0.31841178D+04 0.31841178D+04 0.12645310D+01  3  4  5  3  5  2       -3 -.194680194458D-04 0.100000000000D+01
  </mgrwgt>
  </event>
  <event>
  6     66 0.83052089E-06 0.57278421E+02 0.78161638E-02 0.10410039E+00
       22 -1    0    0    0    0 0.00000000E+00 0.00000000E+00 0.49474111E+03 0.49474111E+03 0.00000000E+00 0.0000E+00 0.9000E+01
       -3 -1    0    0    0  501 0.00000000E+00 0.00000000E+00 -.14185239E+03 0.14185239E+03 0.00000000E+00 0.0000E+00 0.9000E+01
       24  2    1    2    0    0 0.50204718E+02 -.27573606E+02 0.48349417E+03 0.49398003E+03 0.83479602E+02 0.0000E+00 0.0000E+00
  9900012  1    3    3    0    0 0.20562649E+02 0.45428725E+01 0.20407972E+03 0.21116816E+03 0.50000000E+02 0.0000E+00 0.9000E+01
      -11  1    3    3    0    0 0.29642069E+02 -.32116479E+02 0.27941444E+03 0.28281187E+03 0.00000000E+00 0.0000E+00 0.9000E+01
       -4  1    1    2    0  501 -.50204718E+02 0.27573606E+02 -.13060545E+03 0.14261347E+03 0.00000000E+00 0.0000E+00 0.9000E+01
#aMCatNLO 1  0  0  2  5 0.17249394D+01 0.00000000D+00  -5  6  0 0.00000000D+00 0.00000000D+00 0.00000000D+00 0.00000000D+00 0.00000000D+00
  <mgrwgt>
 0.1216539705D-03    3    2    0
 0.264915474139767D+03 0.000000000000000D+00 0.000000000000000D+00 0.264915474139767D+03
 0.264915474139767D+03 0.000000000000000D+00 0.000000000000000D+00 -.264915474139767D+03
 0.117793889318093D+03 0.205626489848495D+02 0.454287249096625D+01 0.104555918708315D+03
 0.153698063624281D+03 0.296420688705219D+02 -.321164788402491D+02 0.147353229695967D+03
 0.258338995337160D+03 -.502047178553714D+02 0.275736063492828D+02 -.251909148404282D+03
 0.000000000000000D+00 0.000000000000000D+00 0.000000000000000D+00 0.000000000000000D+00
 0.504147489629082D+03 0.000000000000000D+00 0.000000000000000D+00 0.504147489629082D+03
 0.325457986146057D+03 0.000000000000000D+00 0.000000000000000D+00 -.325457986146057D+03
 0.123230641937884D+03 0.168396195198716D+02 -.383442067320375D+02 0.104555918708315D+03
 0.174687210959332D+03 0.245696057201165D+02 -.905482293900636D+02 0.147353229695967D+03
 0.266830191744340D+03 -.583168396689242D+02 -.658731993118578D+02 -.251909148404282D+03
 0.264857431133584D+03 0.169076144289361D+02 0.194765635433959D+03 0.178689503483025D+03
0.590061210831D-04 0.000000000000D+00 0.000000000000D+00 0.747617920715D-05 0.000000000000D+00  6 22 -3 9900012 -11 -4 21 0 0.76114016D-01 0.21823445D-01 0.60246324D+04 0.60246324D+04 0.60246324D+04 0.12328354D+01  1  2  2  1  6  2       -3 0.143571733501D-03 0.100000000000D+01
0.210714383768D-05 0.000000000000D+00 -.113299520814D-06 0.747617920715D-05 0.000000000000D+00  6 22 -3 9900012 -11 -4 21 2 0.76114016D-01 0.21823445D-01 0.60246324D+04 0.60246324D+04 0.60246324D+04 0.12328354D+01  1  2  3  1  6  2       -3 0.779248980088D-05 0.100000000000D+01
-.803386051537D-05 0.000000000000D+00 0.000000000000D+00 0.747617920715D-05 0.000000000000D+00  6 22 -3 9900012 -11 -4 21 2 0.76114016D-01 0.21823445D-01 0.60246324D+04 0.60246324D+04 0.60246324D+04 0.12328354D+01  1  2 15  1  6  2       -3 -.297102528115D-04 0.100000000000D+01
  </mgrwgt>
  </event>
  <event>
  6     66 0.83052089E-06 0.30498207E+02 0.78161638E-02 0.12449166E+00
       22 -1    0    0    0    0 0.00000000E+00 0.00000000E+00 0.30860232E+02 0.30860232E+02 0.00000000E+00 0.0000E+00 0.9000E+01
       -3 -1    0    0    0  501 -.00000000E+00 -.00000000E+00 -.21023608E+03 0.21023608E+03 0.00000000E+00 0.0000E+00 0.9000E+01
       24  2    1    2    0    0 -.38151955E+02 0.15686357E+02 -.37012984E+02 0.92877492E+02 0.74529418E+02 0.0000E+00 0.0000E+00
  9900012  1    3    3    0    0 -.18720063E+02 -.85885364E+01 -.22708153E+02 0.58650353E+02 0.50000000E+02 0.0000E+00 0.9000E+01
      -11  1    3    3    0    0 -.19431892E+02 0.24274893E+02 -.14304830E+02 0.34227139E+02 0.00000000E+00 0.0000E+00 0.9000E+01
       -4  1    1    2    0  501 0.38151955E+02 -.15686357E+02 -.14236286E+03 0.14821882E+03 0.00000000E+00 0.0000E+00 0.9000E+01
#aMCatNLO 1  0  0  5  2 0.23190176D+02 0.00000000D+00  -5  6  0 0.00000000D+00 0.00000000D+00 0.00000000D+00 0.00000000D+00 0.00000000D+00
  <mgrwgt>
 0.9645412224D-04    5    2    0
 0.805477134591154D+02 0.000000000000000D+00 0.000000000000000D+00 0.805477134591154D+02
 0.805477134591154D+02 -.000000000000000D+00 -.000000000000000D+00 -.805477134591154D+02
 0.624914671617472D+02 -.187200631399689D+02 -.858853638974855D+01 0.313205962067339D+02
 0.352964442785486D+02 -.194318915356913D+02 0.242748930331329D+02 0.167023991774766D+02
 0.633075154779350D+02 0.381519546756602D+02 -.156863566433844D+02 -.480229953842105D+02
 0.000000000000000D+00 0.000000000000000D+00 0.000000000000000D+00 -.000000000000000D+00
 0.805477134591154D+02 0.000000000000000D+00 0.000000000000000D+00 0.805477134591154D+02
 0.805477134591154D+02 -.000000000000000D+00 -.000000000000000D+00 -.805477134591154D+02
 0.589701316023080D+02 -.143151286938634D+02 -.103996460248840D+02 0.257759747483731D+02
 0.318814610070832D+02 -.169956131397126D+02 0.232732056457689D+02 0.136357833996125D+02
 0.283256293975704D+02 0.276258651993442D+02 0.589088781116751D+01 -.210957188841910D+01
 0.419182049112692D+02 0.368487663423184D+01 -.187644474320524D+02 -.373021862595665D+02
0.143538449407D-05 0.000000000000D+00 0.000000000000D+00 0.263901983751D-07 0.000000000000D+00  6 22 -3 9900012 -11 -4 21 0 0.47477280D-02 0.32344012D-01 0.39955851D+04 0.39955851D+04 0.39955851D+04 0.12529623D+01  1  2  2  2  6  5       -4 0.108660344290D-03 0.100000000000D+01
0.232429514713D-07 0.000000000000D+00 -.275612720132D-08 0.263901983751D-07 0.000000000000D+00  6 22 -3 9900012 -11 -4 21 2 0.47477280D-02 0.32344012D-01 0.39955851D+04 0.39955851D+04 0.39955851D+04 0.12529623D+01  1  2  3  2  6  5       -4 0.276229522668D-05 0.100000000000D+01
-.171282543023D-06 0.000000000000D+00 0.000000000000D+00 0.263901983751D-07 0.000000000000D+00  6 22 -3 9900012 -11 -4 21 2 0.47477280D-02 0.32344012D-01 0.39955851D+04 0.39955851D+04 0.39955851D+04 0.12529623D+01  1  2 15  2  6  5       -4 -.203559755133D-04 0.100000000000D+01
0.227876839354D-06 0.000000000000D+00 0.000000000000D+00 0.263901983751D-07 0.000000000000D+00  6 22 -3 9900012 -11 -4 21 2 0.47477280D-02 0.32344012D-01 0.41748726D+04 0.41748726D+04 0.41748726D+04 0.12507631D+01  1  2 12  2  6  5       -4 0.271140978733D-04 0.100000000000D+01
-.182815806860D-06 0.000000000000D+00 0.000000000000D+00 0.263901983751D-07 0.000000000000D+00  6 22 -3 9900012 -11 -4 21 2 0.47477280D-02 0.32344012D-01 0.39955851D+04 0.39955851D+04 0.39955851D+04 0.12529623D+01  1  2  5  2  6  5       -4 -.217266396342D-04 0.100000000000D+01
  </mgrwgt>
  </event>
  <event>
  6     66 0.83052089E-06 0.40203195E+02 0.78161638E-02 0.11602220E+00
       22 -1    0    0    0    0 0.00000000E+00 0.00000000E+00 0.18460568E+04 0.18460568E+04 0.00000000E+00 0.0000E+00 0.9000E+01
       -3 -1    0    0    0  501 0.00000000E+00 0.00000000E+00 -.57254420E+01 0.57254420E+01 0.00000000E+00 0.0000E+00 0.9000E+01
       24  2    1    2    0    0 0.19809909E+01 -.84798571E+02 0.88160725E+03 0.88931321E+03 0.80323847E+02 0.0000E+00 0.0000E+00
  9900012  1    3    3    0    0 0.24343116E+02 -.47195762E+02 0.57117717E+03 0.57581541E+03 0.50000000E+02 0.0000E+00 0.9000E+01
      -11  1    3    3    0    0 -.22362125E+02 -.37602809E+02 0.31043007E+03 0.31349779E+03 0.00000000E+00 0.0000E+00 0.9000E+01
       -4  1    1    2    0  501 -.19809909E+01 0.84798571E+02 0.95872411E+03 0.96246903E+03 0.00000000E+00 0.0000E+00 0.9000E+01
#aMCatNLO 1  0  0  2  5 0.64702455D+01 0.00000000D+00  -5  6  0 0.00000000D+00 0.00000000D+00 0.00000000D+00 0.00000000D+00 0.00000000D+00
  <mgrwgt>
 0.2400298047D-04    8    4    0
 0.102808030357393D+03 0.000000000000000D+00 0.000000000000000D+00 0.102808030357393D+03
 0.102808030357393D+03 0.000000000000000D+00 0.000000000000000D+00 -.102808030357393D+03
 0.735812878029405D+02 0.243431157172152D+02 -.471957620149204D+02 -.970457004449060D+01
 0.449159848470659D+02 -.223621248025759D+02 -.376028093218440D+02 -.101690609301409D+02
 0.871187880647799D+02 -.198099091463937D+01 0.847985713367644D+02 0.198736309746316D+02
 0.000000000000000D+00 -.000000000000000D+00 0.000000000000000D+00 0.000000000000000D+00
 0.105796005688620D+03 0.000000000000000D+00 0.000000000000000D+00 0.105796005688620D+03
 0.103417388434840D+03 0.000000000000000D+00 0.000000000000000D+00 -.103417388434840D+03
 0.742458952636641D+02 0.250226212832406D+02 -.478763272178440D+02 -.970457004449060D+01
 0.450604433790667D+02 -.219485372436275D+02 -.380170418389208D+02 -.101690609301409D+02
 0.863271277158091D+02 -.118372573828697D+01 0.840000628864187D+02 0.198736309746316D+02
 0.357992776491990D+01 -.189035830132615D+01 0.189330617034610D+01 0.237861725378025D+01
 0.102808030357393D+03 0.000000000000000D+00 0.000000000000000D+00 0.102808030357393D+03
 0.102808030357393D+03 0.000000000000000D+00 0.000000000000000D+00 -.102808030357393D+03
 0.735812878029405D+02 0.243431157172152D+02 -.471957620149204D+02 -.970457004449060D+01
 0.449159848470659D+02 -.223621248025759D+02 -.376028093218440D+02 -.101690609301409D+02
 0.000000000000000D+00 -.000000000000000D+00 0.000000000000000D+00 0.000000000000000D+00
 0.871187880647799D+02 -.198099091463937D+01 0.847985713367644D+02 0.198736309746316D+02
 0.105796005688620D+03 0.000000000000000D+00 0.000000000000000D+00 0.105796005688620D+03
 0.103417388434840D+03 0.000000000000000D+00 0.000000000000000D+00 -.103417388434840D+03
 0.742458952636641D+02 0.250226212832406D+02 -.478763272178440D+02 -.970457004449060D+01
 0.450604433790667D+02 -.219485372436275D+02 -.380170418389208D+02 -.101690609301409D+02
 0.357992776491990D+01 -.189035830132615D+01 0.189330617034610D+01 0.237861725378025D+01
 0.863271277158091D+02 -.118372573828697D+01 0.840000628864187D+02 0.198736309746316D+02
0.944685202556D-06 0.000000000000D+00 0.000000000000D+00 0.200207323730D-06 0.000000000000D+00  6 22 -3 9900012 -11 -4 21 0 0.28400874D+00 0.88083723D-03 0.10151562D+05 0.10151562D+05 0.10151562D+05 0.12086534D+01  1  2  2  1  6  2       -3 0.164146198882D-04 0.100000000000D+01
-.485328066752D-07 0.000000000000D+00 -.181391995957D-08 0.200207323730D-06 0.000000000000D+00  6 22 -3 9900012 -11 -4 21 2 0.28400874D+00 0.88083723D-03 0.10151562D+05 0.10151562D+05 0.10151562D+05 0.12086534D+01  1  2  3  1  6  2       -3 -.123192054916D-05 0.100000000000D+01
-.100871576992D-06 0.000000000000D+00 0.000000000000D+00 0.200207323730D-06 0.000000000000D+00  6 22 -3 9900012 -11 -4 21 2 0.28400874D+00 0.88083723D-03 0.10151562D+05 0.10151562D+05 0.10151562D+05 0.12086534D+01  1  2 15  1  6  2       -3 -.256044883935D-05 0.100000000000D+01
0.319752556830D-06 0.000000000000D+00 0.000000000000D+00 0.200207323730D-06 0.000000000000D+00  6 22 -3 9900012 -11 -4 21 2 0.28400874D+00 0.91181015D-03 0.10423469D+05 0.10423469D+05 0.10423469D+05 0.12074676D+01  1  2 12  1  6  2       -3 0.773790081163D-05 0.100000000000D+01
-.120373542513D-06 0.000000000000D+00 0.000000000000D+00 0.200207323730D-06 0.000000000000D+00  6 22 -3 9900012 -11 -4 21 2 0.28400874D+00 0.88083723D-03 0.10151562D+05 0.10151562D+05 0.10151562D+05 0.12086534D+01  1  2  4  1  6  2       -3 -.305547217965D-05 0.100000000000D+01
0.430527423569D-07 0.000000000000D+00 0.000000000000D+00 0.200207323730D-06 0.138861144770D-06  6 22 -3 9900012 -11 -4 21 2 0.29226306D+00 0.88605808D-03 0.10423469D+05 0.10423469D+05 0.10423469D+05 0.12074676D+01  1  2 11  1  6  2       -3 0.992264508133D-06 0.100000000000D+01
0.940749062370D-08 0.000000000000D+00 0.000000000000D+00 0.200207323730D-06 0.000000000000D+00  6 22 21 9900012 -11 3 -4 2 0.28400874D+00 0.91181015D-03 0.10423469D+05 0.10423469D+05 0.10423469D+05 0.12074676D+01  3  4 12  3  5  2       -3 0.468573617024D-05 0.100000000000D+01
0.214658006945D-08 0.000000000000D+00 0.000000000000D+00 0.200207323730D-06 0.433503680936D-09  6 22 21 9900012 -11 3 -4 2 0.29226306D+00 0.88605808D-03 0.10423469D+05 0.10423469D+05 0.10423469D+05 0.12074676D+01  3  4 11  3  5  2       -3 0.102030065706D-05 0.100000000000D+01
  </mgrwgt>
  </event>
  <event>
  6     66 0.83052089E-06 0.53469985E+02 0.78161638E-02 0.11027298E+00
       22 -1    0    0    0    0 0.00000000E+00 0.00000000E+00 0.21728393E+03 0.21728393E+03 0.00000000E+00 0.0000E+00 0.9000E+01
       -3 -1    0    0    0  501 0.00000000E+00 0.00000000E+00 -.83950294E+02 0.83950294E+02 0.00000000E+00 0.0000E+00 0.9000E+01
       24  2    1    2    0    0 0.96222565E+02 0.68554860E+02 0.30887474E+02 0.14485722E+03 0.77916801E+02 0.0000E+00 0.0000E+00
  9900012  1    3    3    0    0 0.40346732E+02 0.52200885E+02 0.24248590E+02 0.86259986E+02 0.50000000E+02 0.0000E+00 0.9000E+01
      -11  1    3    3    0    0 0.55875833E+02 0.16353976E+02 0.66388844E+01 0.58597236E+02 0.00000000E+00 0.0000E+00 0.9000E+01
       -4  1    1    2    0  501 -.96222565E+02 -.68554860E+02 0.10244616E+03 0.15637700E+03 0.00000000E+00 0.0000E+00 0.9000E+01
#aMCatNLO 1  0  0  2  5 0.35478041D+02 0.00000000D+00  -5  6  0 0.00000000D+00 0.00000000D+00 0.00000000D+00 0.00000000D+00 0.00000000D+00
  <mgrwgt>
 0.1353228294D-04    9    4    0
 0.135059430910069D+03 0.000000000000000D+00 0.000000000000000D+00 0.135059430910069D+03
 0.135059430910069D+03 0.000000000000000D+00 0.000000000000000D+00 -.135059430910069D+03
 0.842270223228356D+02 0.403467315548753D+02 0.522008846635714D+02 -.155370583622119D+02
 0.620701055713308D+02 0.558758330477328D+02 0.163539756860229D+02 -.215206125869829D+02
 0.123821733925972D+03 -.962225646026082D+02 -.685548603495944D+02 0.370576709491947D+02
 0.000000000000000D+00 0.000000000000000D+00 0.000000000000000D+00 -.000000000000000D+00
 0.145312222307682D+03 0.000000000000000D+00 0.000000000000000D+00 0.145312222307682D+03
 0.158822778120077D+03 0.000000000000000D+00 0.000000000000000D+00 -.158822778120077D+03
 0.783808117757431D+02 0.322788918762549D+02 0.485821429263339D+02 -.155370583622119D+02
 0.561471759694010D+02 0.500104448270475D+02 0.137231195950743D+02 -.215206125869829D+02
 0.137193061534580D+03 -.109172897132387D+03 -.743635911503318D+02 0.370576709491947D+02
 0.324139511480345D+02 0.268835604290842D+02 0.120583286289235D+02 -.135105558123945D+02
 0.135059430910069D+03 0.000000000000000D+00 0.000000000000000D+00 0.135059430910069D+03
 0.135059430910069D+03 0.000000000000000D+00 0.000000000000000D+00 -.135059430910069D+03
 0.842270223228356D+02 0.403467315548753D+02 0.522008846635714D+02 -.155370583622119D+02
 0.620701055713308D+02 0.558758330477328D+02 0.163539756860229D+02 -.215206125869829D+02
 0.000000000000000D+00 0.000000000000000D+00 0.000000000000000D+00 -.000000000000000D+00
 0.123821733925972D+03 -.962225646026082D+02 -.685548603495944D+02 0.370576709491947D+02
 0.145312222307682D+03 0.000000000000000D+00 0.000000000000000D+00 0.145312222307682D+03
 0.158822778120077D+03 0.000000000000000D+00 0.000000000000000D+00 -.158822778120077D+03
 0.783808117757431D+02 0.322788918762549D+02 0.485821429263339D+02 -.155370583622119D+02
 0.561471759694010D+02 0.500104448270475D+02 0.137231195950743D+02 -.215206125869829D+02
 0.324139511480345D+02 0.268835604290842D+02 0.120583286289235D+02 -.135105558123945D+02
 0.137193061534580D+03 -.109172897132387D+03 -.743635911503318D+02 0.370576709491947D+02
0.338670275586D-06 0.000000000000D+00 0.000000000000D+00 0.575841586026D-07 0.000000000000D+00  6 22 -3 9900012 -11 -4 21 0 0.33428297D-01 0.12915430D-01 0.16789400D+05 0.16789400D+05 0.16789400D+05 0.11866728D+01  1  2  2  1  6  2       -3 0.865440548086D-05 0.100000000000D+01
-.193442102393D-07 0.000000000000D+00 -.650291516090D-09 0.575841586026D-07 0.000000000000D+00  6 22 -3 9900012 -11 -4 21 2 0.33428297D-01 0.12915430D-01 0.16789400D+05 0.16789400D+05 0.16789400D+05 0.11866728D+01  1  2  3  1  6  2       -3 -.696102437206D-06 0.100000000000D+01
-.375401734141D-07 0.000000000000D+00 0.000000000000D+00 0.575841586026D-07 0.000000000000D+00  6 22 -3 9900012 -11 -4 21 2 0.33428297D-01 0.12915430D-01 0.16789400D+05 0.16789400D+05 0.16789400D+05 0.11866728D+01  1  2 15  1  6  2       -3 -.135088514255D-05 0.100000000000D+01
0.324915799118D-06 0.000000000000D+00 0.000000000000D+00 0.575841586026D-07 0.000000000000D+00  6 22 -3 9900012 -11 -4 21 2 0.33428297D-01 0.16340825D-01 0.21060106D+05 0.21060106D+05 0.21060106D+05 0.11771708D+01  1  2 12  1  6  2       -3 0.789103751442D-05 0.100000000000D+01
-.182842741264D-06 0.000000000000D+00 0.000000000000D+00 0.575841586026D-07 0.000000000000D+00  6 22 -3 9900012 -11 -4 21 2 0.33428297D-01 0.12915430D-01 0.16789400D+05 0.16789400D+05 0.16789400D+05 0.11866728D+01  1  2  4  1  6  2       -3 -.657960579651D-05 0.100000000000D+01
-.793938678587D-06 0.000000000000D+00 -.213027252494D-06 0.575841586026D-07 0.000000000000D+00  6 22 -3 9900012 -11 -4 21 2 0.33428297D-01 0.16287181D-01 0.16789400D+05 0.16789400D+05 0.16789400D+05 0.11866728D+01  1  2  5  1  6  2       -3 -.193527750753D-04 0.100000000000D+01
0.826619272037D-06 0.000000000000D+00 0.207422177172D-06 0.575841586026D-07 0.000000000000D+00  6 22 -3 9900012 -11 -4 21 2 0.33428297D-01 0.12915430D-01 0.16789400D+05 0.16789400D+05 0.16789400D+05 0.11866728D+01  1  2  6  1  6  2       -3 0.297459385929D-04 0.100000000000D+01
0.105113344810D-07 0.000000000000D+00 0.000000000000D+00 0.575841586026D-07 0.000000000000D+00  6 22 21 9900012 -11 3 -4 2 0.33428297D-01 0.16340825D-01 0.21060106D+05 0.21060106D+05 0.21060106D+05 0.11771708D+01  3  4 12  3  5  2       -3 0.420388096710D-05 0.100000000000D+01
-.222623401569D-07 0.000000000000D+00 -.681966430850D-08 0.575841586026D-07 0.000000000000D+00  6 22 21 9900012 -11 3 -4 2 0.33428297D-01 0.16287181D-01 0.16789400D+05 0.16789400D+05 0.16789400D+05 0.11866728D+01  3  4  5  3  5  2       -3 -.898361116556D-05 0.100000000000D+01
  </mgrwgt>
  </event>
  <event>
  6     66 0.83052089E-06 0.17471027E+03 0.78161638E-02 0.10109222E+00
       22 -1    0    0    0    0 0.00000000E+00 0.00000000E+00 0.19222881E+03 0.19222881E+03 0.00000000E+00 0.0000E+00 0.9000E+01
       -1 -1    0    0    0  501 0.00000000E+00 0.00000000E+00 -.32992815E+03 0.32992815E+03 0.00000000E+00 0.0000E+00 0.9000E+01
       24  2    1    2    0    0 0.18632863E+03 0.94060311E+02 0.63483633E+02 0.23225993E+03 0.79679358E+02 0.0000E+00 0.0000E+00
  9900012  1    3    3    0    0 0.71713889E+02 0.36055744E+02 0.33733411E+02 0.10040339E+03 0.50000000E+02 0.0000E+00 0.9000E+01
      -11  1    3    3    0    0 0.11461474E+03 0.58004568E+02 0.29750222E+02 0.13185653E+03 0.00000000E+00 0.0000E+00 0.9000E+01
       -2  1    1    2    0  501 -.18632863E+03 -.94060311E+02 -.20118297E+03 0.28989703E+03 0.00000000E+00 0.0000E+00 0.9000E+01
#aMCatNLO 1  0  0  2  5 0.11913006D+03 0.00000000D+00  -5  6  0 0.00000000D+00 0.00000000D+00 0.00000000D+00 0.00000000D+00 0.00000000D+00
  <mgrwgt>
 0.2005110040D-04    9    4    0
 0.251836644212151D+03 0.000000000000000D+00 0.000000000000000D+00 0.251836644212151D+03
 0.251836644212151D+03 0.000000000000000D+00 0.000000000000000D+00 -.251836644212151D+03
 0.113310355561050D+03 0.717138894858374D+02 0.360557436764786D+02 0.624206542750141D+02
 0.144828786953021D+03 0.114614743416813D+03 0.580045676138267D+02 0.668902702768855D+02
 0.245534145910231D+03 -.186328632902650D+03 -.940603112903053D+02 -.129310924551900D+03
 0.000000000000000D+00 -.000000000000000D+00 0.000000000000000D+00 -.000000000000000D+00
 0.277592374159750D+03 0.000000000000000D+00 0.000000000000000D+00 0.277592374159750D+03
 0.406457987045727D+03 0.000000000000000D+00 0.000000000000000D+00 -.406457987045727D+03
 0.108199576418113D+03 0.718164609460186D+02 0.123776489741488D+02 0.624206542750141D+02
 0.135740182469946D+03 0.114744662507203D+03 0.280134129546441D+02 0.668902702768855D+02
 0.271377074444659D+03 -.186089274160664D+03 -.149315047359708D+03 -.129310924551900D+03
 0.168733527872760D+03 -.471849292557344D+00 0.108923985430915D+03 -.128865612885976D+03
 0.251836644212151D+03 0.000000000000000D+00 0.000000000000000D+00 0.251836644212151D+03
 0.251836644212151D+03 0.000000000000000D+00 0.000000000000000D+00 -.251836644212151D+03
 0.113310355561050D+03 0.717138894858374D+02 0.360557436764786D+02 0.624206542750141D+02
 0.144828786953021D+03 0.114614743416813D+03 0.580045676138267D+02 0.668902702768855D+02
 0.000000000000000D+00 -.000000000000000D+00 0.000000000000000D+00 -.000000000000000D+00
 0.245534145910231D+03 -.186328632902650D+03 -.940603112903053D+02 -.129310924551900D+03
 0.277592374159750D+03 0.000000000000000D+00 0.000000000000000D+00 0.277592374159750D+03
 0.406457987045727D+03 0.000000000000000D+00 0.000000000000000D+00 -.406457987045727D+03
 0.108199576418113D+03 0.718164609460186D+02 0.123776489741488D+02 0.624206542750141D+02
 0.135740182469946D+03 0.114744662507203D+03 0.280134129546441D+02 0.668902702768855D+02
 0.168733527872760D+03 -.471849292557344D+00 0.108923985430915D+03 -.128865612885976D+03
 0.271377074444659D+03 -.186089274160664D+03 -.149315047359708D+03 -.129310924551900D+03
0.311045875467D-05 0.000000000000D+00 0.000000000000D+00 0.177327888615D-05 0.000000000000D+00  6 22 -1 9900012 -11 -2 21 0 0.29573663D-01 0.50758177D-01 0.46601448D+05 0.46601448D+05 0.46601448D+05 0.11456241D+01  1  2  2  1  6  2       -1 0.138692214109D-04 0.100000000000D+01
-.592296977065D-07 0.000000000000D+00 -.597249031026D-08 0.177327888615D-05 0.000000000000D+00  6 22 -1 9900012 -11 -2 21 2 0.29573663D-01 0.50758177D-01 0.46601448D+05 0.46601448D+05 0.46601448D+05 0.11456241D+01  1  2  3  1  6  2       -1 -.346618258912D-06 0.100000000000D+01
-.385799376265D-06 0.000000000000D+00 0.000000000000D+00 0.177327888615D-05 0.000000000000D+00  6 22 -1 9900012 -11 -2 21 2 0.29573663D-01 0.50758177D-01 0.46601448D+05 0.46601448D+05 0.46601448D+05 0.11456241D+01  1  2 15  1  6  2       -1 -.225773747407D-05 0.100000000000D+01
0.159481378131D-05 0.000000000000D+00 0.000000000000D+00 0.177327888615D-05 0.000000000000D+00  6 22 -1 9900012 -11 -2 21 2 0.29573663D-01 0.90300750D-01 0.76730788D+05 0.76730788D+05 0.76730788D+05 0.11271035D+01  1  2 12  1  6  2       -1 0.300780589555D-05 0.100000000000D+01
-.115095247544D-05 0.000000000000D+00 0.000000000000D+00 0.177327888615D-05 0.000000000000D+00  6 22 -1 9900012 -11 -2 21 2 0.29573663D-01 0.50758177D-01 0.46601448D+05 0.46601448D+05 0.46601448D+05 0.11456241D+01  1  2  4  1  6  2       -1 -.673549179844D-05 0.100000000000D+01
-.322018732025D-05 0.000000000000D+00 -.103891487648D-05 0.177327888615D-05 0.000000000000D+00  6 22 -1 9900012 -11 -2 21 2 0.29573663D-01 0.87647700D-01 0.46601448D+05 0.46601448D+05 0.46601448D+05 0.11456241D+01  1  2  5  1  6  2       -1 -.659575370941D-05 0.100000000000D+01
0.340477719345D-05 0.000000000000D+00 0.901098224446D-06 0.177327888615D-05 0.000000000000D+00  6 22 -1 9900012 -11 -2 21 2 0.29573663D-01 0.50758177D-01 0.46601448D+05 0.46601448D+05 0.46601448D+05 0.11456241D+01  1  2  6  1  6  2       -1 0.199251049469D-04 0.100000000000D+01
0.101039509114D-06 0.000000000000D+00 0.000000000000D+00 0.177327888615D-05 0.000000000000D+00  6 22 21 9900012 -11 1 -2 2 0.29573663D-01 0.90300750D-01 0.76730788D+05 0.76730788D+05 0.76730788D+05 0.11271035D+01  3  4 12  3  5  2       -1 0.141953750951D-05 0.100000000000D+01
-.143555380828D-06 0.000000000000D+00 -.629332434515D-07 0.177327888615D-05 0.000000000000D+00  6 22 21 9900012 -11 1 -2 2 0.29573663D-01 0.87647700D-01 0.46601448D+05 0.46601448D+05 0.46601448D+05 0.11456241D+01  3  4  5  3  5  2       -1 -.223496811803D-05 0.100000000000D+01
  </mgrwgt>
  </event>
  <event>
  6     66 0.83052089E-06 0.23069719E+02 0.78161638E-02 0.10366715E+00
       22 -1    0    0    0    0 0.00000000E+00 0.00000000E+00 0.86744010E+03 0.86744010E+03 0.00000000E+00 0.0000E+00 0.9000E+01
       -1 -1    0    0    0  501 0.00000000E+00 0.00000000E+00 -.41696492E+03 0.41696492E+03 0.00000000E+00 0.0000E+00 0.9000E+01
       24  2    1    2    0    0 -.17216596E+02 0.15355806E+02 0.86504416E+03 0.86919464E+03 0.81643839E+02 0.0000E+00 0.0000E+00
  9900012  1    3    3    0    0 0.25665887E+01 0.27001894E+02 0.73002451E+03 0.73223731E+03 0.50000000E+02 0.0000E+00 0.9000E+01
      -11  1    3    3    0    0 -.19783185E+02 -.11646088E+02 0.13501965E+03 0.13695734E+03 0.00000000E+00 0.0000E+00 0.9000E+01
       -2  1    1    2    0  501 0.17216596E+02 -.15355806E+02 -.41456898E+03 0.41521037E+03 0.00000000E+00 0.0000E+00 0.9000E+01
#aMCatNLO 1  0  0  2  5 0.12572709D+02 0.00000000D+00  -5  6  0 0.00000000D+00 0.00000000D+00 0.00000000D+00 0.00000000D+00 0.00000000D+00
  <mgrwgt>
 0.1083935868D-02    4    2    0
 0.601408420453914D+03 0.000000000000000D+00 0.000000000000000D+00 0.601408420453914D+03
 0.601408420453914D+03 0.000000000000000D+00 0.000000000000000D+00 -.601408420453914D+03
 0.508499153957131D+03 0.256658865509264D+01 0.270018935201912D+02 0.505307530068688D+03
 0.956801440733231D+02 -.197831846070954D+02 -.116460879163024D+02 0.928853282975261D+02
 0.598637542877374D+03 0.172165959520028D+02 -.153558056038888D+02 -.598192858366214D+03
 0.000000000000000D+00 0.000000000000000D+00 -.000000000000000D+00 0.000000000000000D+00
 0.954852120238912D+03 0.000000000000000D+00 0.000000000000000D+00 0.954852120238912D+03
 0.645643638707786D+03 0.000000000000000D+00 0.000000000000000D+00 -.645643638707786D+03
 0.519688800832645D+03 -.659271248583790D+02 0.888502333967818D+02 0.505307530068688D+03
 0.984789598143156D+02 -.327172770322798D+02 0.331174190996979D-01 0.928853282975261D+02
 0.604186350651055D+03 -.629106558667947D+02 0.569973674050683D+02 -.598192858366214D+03
 0.378141647648681D+03 0.161555057757454D+03 -.145880718220950D+03 0.309208481531126D+03
0.603643337748D-02 0.000000000000D+00 0.000000000000D+00 0.107520453859D-02 0.000000000000D+00  6 22 -1 9900012 -11 -2 21 0 0.13345232D+00 0.64148449D-01 0.26475886D+04 0.26475886D+04 0.26475886D+04 0.12741897D+01  1  2  2  1  6  2       -1 0.110870650683D-02 0.100000000000D+01
0.730227995653D-03 0.000000000000D+00 -.115907467995D-04 0.107520453859D-02 0.000000000000D+00  6 22 -1 9900012 -11 -2 21 2 0.13345232D+00 0.64148449D-01 0.26475886D+04 0.26475886D+04 0.26475886D+04 0.12741897D+01  1  2  3  1  6  2       -1 0.217752342829D-03 0.100000000000D+01
-.813084262700D-03 0.000000000000D+00 0.000000000000D+00 0.107520453859D-02 0.000000000000D+00  6 22 -1 9900012 -11 -2 21 2 0.13345232D+00 0.64148449D-01 0.26475886D+04 0.26475886D+04 0.26475886D+04 0.12741897D+01  1  2 15  1  6  2       -1 -.242459894956D-03 0.100000000000D+01
-.211560321441D-06 0.000000000000D+00 0.000000000000D+00 0.107520453859D-02 0.000000000000D+00  6 22 -1 9900012 -11 -2 21 2 0.13345232D+00 0.64148449D-01 0.26475886D+04 0.26475886D+04 0.26475886D+04 0.12741897D+01  1  2  4  1  6  2       -1 -.630868111298D-07 0.100000000000D+01
  </mgrwgt>
  </event>
  <event>
  6     66 0.83052089E-06 0.31898543E+02 0.78161638E-02 0.11913814E+00
       22 -1    0    0    0    0 0.00000000E+00 0.00000000E+00 0.32346576E+03 0.32346576E+03 0.00000000E+00 0.0000E+00 0.9000E+01
       -1 -1    0    0    0  501 0.00000000E+00 0.00000000E+00 -.13632120E+03 0.13632120E+03 0.00000000E+00 0.0000E+00 0.9000E+01
       24  2    1    2    0    0 -.31308369E+02 0.61076260E+01 0.31536589E+03 0.32765738E+03 0.82983109E+02 0.0000E+00 0.0000E+00
  9900012  1    3    3    0    0 -.23011149E+02 0.28771222E+02 0.25898857E+03 0.26633133E+03 0.50000000E+02 0.0000E+00 0.9000E+01
      -11  1    3    3    0    0 -.82972195E+01 -.22663596E+02 0.56377317E+02 0.61326049E+02 0.00000000E+00 0.0000E+00 0.9000E+01
       -2  1    1    2    0  501 0.31308369E+02 -.61076260E+01 -.12822133E+03 0.13212958E+03 0.00000000E+00 0.0000E+00 0.9000E+01
#aMCatNLO 1  0  0  5  5 0.57382016D+02 0.00000000D+00  -5  6  0 0.00000000D+00 0.00000000D+00 0.00000000D+00 0.00000000D+00 0.00000000D+00
  <mgrwgt>
 0.5059081114D-04    6    2    0
 0.209988669095627D+03 0.000000000000000D+00 0.000000000000000D+00 0.209988669095627D+03
 0.209988669095627D+03 -.000000000000000D+00 -.000000000000000D+00 -.209988669095627D+03
 0.176169911582350D+03 -.230111491584123D+02 0.287712222912890D+02 0.164859156643505D+03
 0.420170526464711D+02 -.829721953962341D+01 -.226635962812434D+02 0.343940440281225D+02
 0.201790373962433D+03 0.313083686980357D+02 -.610762601004563D+01 -.199253200671627D+03
 0.000000000000000D+00 0.000000000000000D+00 -.000000000000000D+00 0.000000000000000D+00
 0.209988669095627D+03 0.000000000000000D+00 0.000000000000000D+00 0.209988669095627D+03
 0.209988669095627D+03 -.000000000000000D+00 -.000000000000000D+00 -.209988669095627D+03
 0.159598696595935D+03 -.202869637216117D+02 0.282397891147328D+02 0.147521853868621D+03
 0.386228150421627D+02 -.764296554496094D+01 -.227912279299414D+02 0.302302307120721D+02
 0.162245136417032D+03 -.237606958317093D+02 0.177242528327630D+02 -.159514151366250D+03
 0.595106901361243D+02 0.516906250982820D+02 -.231728140175544D+02 -.182379332144434D+02
0.626939665848D-05 0.000000000000D+00 0.000000000000D+00 0.482517251267D-05 0.000000000000D+00  6 22 -1 9900012 -11 -2 21 0 0.49763963D-01 0.20972493D-01 0.34892856D+04 0.34892856D+04 0.34892856D+04 0.12598265D+01  1  2  2  2  6  5       -2 0.444909357420D-04 0.100000000000D+01
0.507690912598D-06 0.000000000000D+00 -.120380669693D-07 0.482517251267D-05 0.000000000000D+00  6 22 -1 9900012 -11 -2 21 2 0.49763963D-01 0.20972493D-01 0.34892856D+04 0.34892856D+04 0.34892856D+04 0.12598265D+01  1  2  3  2  6  5       -2 0.571829676784D-05 0.100000000000D+01
-.818259645612D-06 0.000000000000D+00 0.000000000000D+00 0.482517251267D-05 0.000000000000D+00  6 22 -1 9900012 -11 -2 21 2 0.49763963D-01 0.20972493D-01 0.34892856D+04 0.34892856D+04 0.34892856D+04 0.12598265D+01  1  2 15  2  6  5       -2 -.921633886020D-05 0.100000000000D+01
-.246862981693D-07 0.000000000000D+00 0.000000000000D+00 0.482517251267D-05 0.000000000000D+00  6 22 -1 9900012 -11 -2 21 2 0.49763963D-01 0.20972493D-01 0.34892856D+04 0.34892856D+04 0.34892856D+04 0.12598265D+01  1  2  4  2  6  5       -2 -.278050237907D-06 0.100000000000D+01
-.261057305917D-05 0.000000000000D+00 0.000000000000D+00 0.482517251267D-05 0.000000000000D+00  6 22 -1 9900012 -11 -2 21 2 0.49763963D-01 0.20972493D-01 0.34892856D+04 0.34892856D+04 0.34892856D+04 0.12598265D+01  1  2  5  2  6  5       -2 -.294037791814D-04 0.100000000000D+01
0.348739692298D-05 0.000000000000D+00 -.000000000000D+00 0.482517251267D-05 0.000000000000D+00  6 22 -1 9900012 -11 -2 21 2 0.49763963D-01 0.20972493D-01 0.34892856D+04 0.34892856D+04 0.34892856D+04 0.12598265D+01  1  2  6  2  6  5       -2 0.392797469050D-04 0.100000000000D+01
  </mgrwgt>
  </event>
  <event>
  6     66 0.83052089E-06 0.25963154E+02 0.78161638E-02 0.12398196E+00
       22 -1    0    0    0    0 0.00000000E+00 0.00000000E+00 0.60186091E+02 0.60186091E+02 0.00000000E+00 0.0000E+00 0.9000E+01
       -3 -1    0    0    0  501 -.00000000E+00 -.00000000E+00 -.84732791E+02 0.84732791E+02 0.00000000E+00 0.0000E+00 0.9000E+01
       24  2    1    2    0    0 -.66900921E+01 0.38698714E+02 -.98251912E+01 0.10297761E+03 0.94686352E+02 0.0000E+00 0.0000E+00
  9900012  1    3    3    0    0 0.22901919E+02 0.13867805E+02 0.12891282E+02 0.58163554E+02 0.50000000E+02 0.0000E+00 0.9000E+01
      -11  1    3    3    0    0 -.29592011E+02 0.24830909E+02 -.22716473E+02 0.44814053E+02 0.00000000E+00 0.0000E+00 0.9000E+01
       -4  1    1    2    0  501 0.66900921E+01 -.38698714E+02 -.14721509E+02 0.41941275E+02 0.00000000E+00 0.0000E+00 0.9000E+01
#aMCatNLO 1  0  0  5  2 0.52202744D+01 0.00000000D+00  -5  6  0 0.00000000D+00 0.00000000D+00 0.00000000D+00 0.00000000D+00 0.00000000D+00
  <mgrwgt>
 0.3819197035D-04    8    2    0
 0.714124322451841D+02 0.000000000000000D+00 0.000000000000000D+00 0.714124322451841D+02
 0.714124322451841D+02 -.000000000000000D+00 -.000000000000000D+00 -.714124322451841D+02
 0.612318850606268D+02 0.229019188423899D+02 0.138678045900709D+02 0.230766084437468D+02
 0.415669075725663D+02 -.295920109658257D+02 0.248309089523688D+02 -.153475292064845D+02
 0.400260718571751D+02 0.669009212343578D+01 -.386987135424397D+02 -.772907923726234D+01
 0.000000000000000D+00 0.000000000000000D+00 0.000000000000000D+00 0.000000000000000D+00
 0.714124322451841D+02 0.000000000000000D+00 0.000000000000000D+00 0.714124322451841D+02
 0.714124322451841D+02 -.000000000000000D+00 -.000000000000000D+00 -.714124322451841D+02
 0.608890845675069D+02 0.231660412780349D+02 0.123399932702007D+02 0.227714671697892D+02
 0.409081102226353D+02 -.294136345359114D+02 0.237990938089278D+02 -.155536079174245D+02
 0.366534760379000D+02 0.334738470878893D+01 -.350184632103393D+02 -.102946372281102D+02
 0.437419366232605D+01 0.290020854908750D+01 -.112062386878926D+01 0.307677797574556D+01
0.186275263857D-06 0.000000000000D+00 0.000000000000D+00 0.161336317851D-08 0.000000000000D+00  6 22 -3 9900012 -11 -4 21 0 0.92593986D-02 0.13035814D-01 0.45306021D+04 0.45306021D+04 0.45306021D+04 0.12466967D+01  1  2  2  2  6  5       -4 0.274076157612D-04 0.100000000000D+01
-.279156683649D-08 0.000000000000D+00 -.357673030308D-09 0.161336317851D-08 0.000000000000D+00  6 22 -3 9900012 -11 -4 21 2 0.92593986D-02 0.13035814D-01 0.45306021D+04 0.45306021D+04 0.45306021D+04 0.12466967D+01  1  2  3  2  6  5       -4 -.638389468958D-06 0.100000000000D+01
-.211987426251D-07 0.000000000000D+00 0.000000000000D+00 0.161336317851D-08 0.000000000000D+00  6 22 -3 9900012 -11 -4 21 2 0.92593986D-02 0.13035814D-01 0.45306021D+04 0.45306021D+04 0.45306021D+04 0.12466967D+01  1  2 15  2  6  5       -4 -.484783451004D-05 0.100000000000D+01
0.875857549172D-07 0.000000000000D+00 0.000000000000D+00 0.161336317851D-08 0.000000000000D+00  6 22 -3 9900012 -11 -4 21 2 0.92593986D-02 0.13035814D-01 0.43952870D+04 0.43952870D+04 0.43952870D+04 0.12482000D+01  1  2 12  2  6  5       -4 0.200075162932D-04 0.100000000000D+01
-.941081087919D-07 0.000000000000D+00 0.000000000000D+00 0.161336317851D-08 0.000000000000D+00  6 22 -3 9900012 -11 -4 21 2 0.92593986D-02 0.13035814D-01 0.45306021D+04 0.45306021D+04 0.45306021D+04 0.12466967D+01  1  2  4  2  6  5       -4 -.215211130935D-04 0.100000000000D+01
-.244042756486D-06 0.000000000000D+00 0.000000000000D+00 0.161336317851D-08 0.000000000000D+00  6 22 -3 9900012 -11 -4 21 2 0.92593986D-02 0.13035814D-01 0.45306021D+04 0.45306021D+04 0.45306021D+04 0.12466967D+01  1  2  5  2  6  5       -4 -.558089183750D-04 0.100000000000D+01
0.272160215413D-06 0.000000000000D+00 -.000000000000D+00 0.161336317851D-08 0.000000000000D+00  6 22 -3 9900012 -11 -4 21 2 0.92593986D-02 0.13035814D-01 0.45306021D+04 0.45306021D+04 0.45306021D+04 0.12466967D+01  1  2  6  2  6  5       -4 0.622389595399D-04 0.100000000000D+01
0.497043411632D-07 0.000000000000D+00 0.000000000000D+00 0.161336317851D-08 0.169326580965D-09  6 22 -3 9900012 -11 -4 21 2 0.92593986D-02 0.13035814D-01 0.43952870D+04 0.43952870D+04 0.43952870D+04 0.12482000D+01  1  2 11  2  6  5       -4 0.113541342037D-04 0.100000000000D+01
  </mgrwgt>
  </event>
  <event>
  7     66 -.83052089E-06 0.12204328E+03 0.78161638E-02 0.10657303E+00
       22 -1    0    0    0    0 0.00000000E+00 0.00000000E+00 0.78094757E+03 0.78094757E+03 0.00000000E+00 0.0000E+00 0.9000E+01
       -1 -1    0    0    0  501 0.00000000E+00 0.00000000E+00 -.50902970E+03 0.50902970E+03 0.00000000E+00 0.0000E+00 0.9000E+01
       24  2    1    2    0    0 0.21567888E+02 -.15412007E+03 0.73015041E+03 0.75039440E+03 0.75854857E+02 0.0000E+00 0.0000E+00
  9900012  1    3    3    0    0 0.18117078E+01 -.11368722E+03 0.59886502E+03 0.61161048E+03 0.50000000E+02 0.0000E+00 0.9000E+01
      -11  1    3    3    0    0 0.19756180E+02 -.40432853E+02 0.13128540E+03 0.13878392E+03 0.00000000E+00 0.0000E+00 0.9000E+01
       -2  1    1    2    0  502 -.69957895E+02 0.13131773E+03 -.46257289E+03 0.48591371E+03 0.00000000E+00 0.0000E+00 0.9000E+01
       21  1    1    2  502  501 0.48390008E+02 0.22802345E+02 0.43403539E+01 0.53669157E+02 0.00000000E+00 0.0000E+00 0.9000E+01
#aMCatNLO 2  0  0  5  2 0.65812265D+02 0.00000000D+00  -5  6  0 0.00000000D+00 0.00000000D+00 0.00000000D+00 0.00000000D+00 0.00000000D+00
  <mgrwgt>
 -.6954339179D-04    3    2    0
 0.630496236614679D+03 0.000000000000000D+00 0.000000000000000D+00 0.630496236614679D+03
 0.630496236614679D+03 -.000000000000000D+00 -.000000000000000D+00 -.630496236614679D+03
 0.514940809724095D+03 0.247127457715983D+01 -.118400359085931D+03 0.498637428689015D+03
 0.117836946982732D+03 0.199071384645622D+02 -.415115743046796D+02 0.108471383835143D+03
 0.628214716522531D+03 -.223784130417220D+02 0.159911933390611D+03 -.607108812524159D+03
 0.000000000000000D+00 0.000000000000000D+00 0.000000000000000D+00 0.000000000000000D+00
 0.630496236614679D+03 0.000000000000000D+00 0.000000000000000D+00 0.630496236614679D+03
 0.630496236614679D+03 -.000000000000000D+00 -.000000000000000D+00 -.630496236614679D+03
 0.496530725107016D+03 0.181170775427631D+01 -.113687218540578D+03 0.480743897549225D+03
 0.113663851337426D+03 0.197561799444408D+02 -.404328530937791D+02 0.104375997458976D+03
 0.596831061623565D+03 -.699578954457425D+02 0.131317727113376D+03 -.577986906018891D+03
 0.539668351613499D+02 0.483900077470255D+02 0.228023445209810D+02 -.713298898930980D+01
-.320369916005D-03 0.000000000000D+00 0.000000000000D+00 0.132851391585D-04 0.000000000000D+00  6 22 -1 9900012 -11 -2 21 2 0.12014578D+00 0.78312261D-01 0.34502031D+05 0.34502031D+05 0.34502031D+05 0.11572537D+01  1  2 13  2  6  5       -2 -.712907315895D-04 0.100000000000D+01
-.217725400160D-06 0.000000000000D+00 0.000000000000D+00 0.132851391585D-04 0.000000000000D+00  6 22 -1 9900012 -11 -2 21 2 0.12014578D+00 0.78312261D-01 0.28233560D+05 0.28233560D+05 0.28233560D+05 0.11652151D+01  1  2  8  2  6  5       -2 -.489489407142D-07 0.100000000000D+01
0.807225371701D-05 0.000000000000D+00 0.000000000000D+00 0.132851391585D-04 0.692522763090D-09  6 22 -1 9900012 -11 -2 21 2 0.12014578D+00 0.78312261D-01 0.34502031D+05 0.34502031D+05 0.34502031D+05 0.11572537D+01  1  2  1  2  6  5       -2 0.179628874096D-05 0.100000000000D+01
  </mgrwgt>
  </event>
  <event>
  6     66 0.83052089E-06 0.34585920E+02 0.78161638E-02 0.12575041E+00
       22 -1    0    0    0    0 0.00000000E+00 0.00000000E+00 0.16598489E+04 0.16598489E+04 0.00000000E+00 0.0000E+00 0.9000E+01
       -1 -1    0    0    0  501 0.00000000E+00 0.00000000E+00 -.93614302E+01 0.93614302E+01 0.00000000E+00 0.0000E+00 0.9000E+01
       24  2    1    2    0    0 -.18107178E+02 -.29467202E+02 0.16221897E+04 0.16245231E+04 0.79872389E+02 0.0000E+00 0.0000E+00
  9900012  1    3    3    0    0 0.10774762E+02 -.26572121E+02 0.11476128E+04 0.11490593E+04 0.50000000E+02 0.0000E+00 0.9000E+01
      -11  1    3    3    0    0 -.28881940E+02 -.28950810E+01 0.47457691E+03 0.47546376E+03 0.00000000E+00 0.0000E+00 0.9000E+01
       -2  1    1    2    0  501 0.18107178E+02 0.29467202E+02 0.28297723E+02 0.44687213E+02 0.00000000E+00 0.0000E+00 0.9000E+01
#aMCatNLO 1  0  0  5  5 0.14654602D+01 0.00000000D+00  -5  6  0 0.00000000D+00 0.00000000D+00 0.00000000D+00 0.00000000D+00 0.00000000D+00
  <mgrwgt>
 0.3787669204D-04    5    2    0
 0.124653758302489D+03 0.000000000000000D+00 0.000000000000000D+00 0.124653758302489D+03
 0.124653758302489D+03 -.000000000000000D+00 -.000000000000000D+00 -.124653758302489D+03
 0.958700900763580D+02 0.107747619075038D+02 -.265721207622934D+02 0.766087532549623D+02
 0.415783054338265D+02 -.288819395717252D+02 -.289508098493204D+01 0.297692384083715D+02
 0.111859121094794D+03 0.181071776642215D+02 0.294672017472255D+02 -.106377991663334D+03
 0.000000000000000D+00 0.000000000000000D+00 0.000000000000000D+00 0.000000000000000D+00
 0.124653758302489D+03 0.000000000000000D+00 0.000000000000000D+00 0.124653758302489D+03
 0.124653758302489D+03 -.000000000000000D+00 -.000000000000000D+00 -.124653758302489D+03
 0.954462337950417D+02 0.108590681876990D+02 -.264349226736052D+02 0.761134616673896D+02
 0.413951766515218D+02 -.288453761176095D+02 -.283557846615286D+01 0.295544315020037D+02
 0.111662318480074D+03 0.174960969097390D+02 0.294732864211555D+02 -.106271752355962D+03
 0.803787678340927D+00 0.490211020171495D+00 -.202785281397486D+00 0.603859186568907D+00
0.384399415319D-05 0.000000000000D+00 0.000000000000D+00 0.515758621769D-05 0.000000000000D+00  6 22 -1 9900012 -11 -2 21 0 0.25536137D+00 0.14402200D-02 0.36754447D+04 0.36754447D+04 0.36754447D+04 0.12571795D+01  1  2  2  2  6  5       -2 0.438719283030D-04 0.100000000000D+01
0.227876224273D-06 0.000000000000D+00 -.738097484757D-08 0.515758621769D-05 0.000000000000D+00  6 22 -1 9900012 -11 -2 21 2 0.25536137D+00 0.14402200D-02 0.36754447D+04 0.36754447D+04 0.36754447D+04 0.12571795D+01  1  2  3  2  6  5       -2 0.411052775906D-05 0.100000000000D+01
-.550684012167D-06 0.000000000000D+00 0.000000000000D+00 0.515758621769D-05 0.000000000000D+00  6 22 -1 9900012 -11 -2 21 2 0.25536137D+00 0.14402200D-02 0.36754447D+04 0.36754447D+04 0.36754447D+04 0.12571795D+01  1  2 15  2  6  5       -2 -.993347123293D-05 0.100000000000D+01
-.700930346610D-06 0.000000000000D+00 0.000000000000D+00 0.515758621769D-05 0.000000000000D+00  6 22 -1 9900012 -11 -2 21 2 0.25536137D+00 0.14402200D-02 0.36754447D+04 0.36754447D+04 0.36754447D+04 0.12571795D+01  1  2  4  2  6  5       -2 -.126436781902D-04 0.100000000000D+01
0.691331884675D-06 0.000000000000D+00 0.000000000000D+00 0.515758621769D-05 0.547611202239D-06  6 22 -1 9900012 -11 -2 21 2 0.25536137D+00 0.14402200D-02 0.36833431D+04 0.36833431D+04 0.36833431D+04 0.12570705D+01  1  2 11  2  6  5       -2 0.124713854049D-04 0.100000000000D+01
  </mgrwgt>
  </event>
  <event>
  6     66 0.83052089E-06 0.29436603E+02 0.78161638E-02 0.12648214E+00
       22 -1    0    0    0    0 0.00000000E+00 0.00000000E+00 0.21942205E+04 0.21942205E+04 0.00000000E+00 0.0000E+00 0.9000E+01
       -1 -1    0    0    0  501 0.00000000E+00 0.00000000E+00 -.51713077E+02 0.51713077E+02 0.00000000E+00 0.0000E+00 0.9000E+01
       24  2    1    2    0    0 0.30872053E+02 0.37675912E+01 0.21886356E+04 0.21903001E+04 0.79508274E+02 0.0000E+00 0.0000E+00
  9900012  1    3    3    0    0 0.11919762E+02 0.22720173E+02 0.17013799E+04 0.17023078E+04 0.50000000E+02 0.0000E+00 0.9000E+01
      -11  1    3    3    0    0 0.18952291E+02 -.18952582E+02 0.48725567E+03 0.48799229E+03 0.00000000E+00 0.0000E+00 0.9000E+01
       -2  1    1    2    0  501 -.30872053E+02 -.37675912E+01 -.46128147E+02 0.55633482E+02 0.00000000E+00 0.0000E+00 0.9000E+01
#aMCatNLO 1  0  0  2  5 0.38513060D+01 0.00000000D+00  -5  6  0 0.00000000D+00 0.00000000D+00 0.00000000D+00 0.00000000D+00 0.00000000D+00
  <mgrwgt>
 0.2770192584D-02    9    4    0
 0.336852927621314D+03 0.000000000000000D+00 0.000000000000000D+00 0.336852927621314D+03
 0.336852927621314D+03 0.000000000000000D+00 0.000000000000000D+00 -.336852927621314D+03
 0.264286239594520D+03 0.119197618595585D+02 0.227201732135402D+02 0.258241997834144D+03
 0.772583243160032D+02 0.189522907428320D+02 -.189525820130791D+02 0.724600509712311D+02
 0.332161291332105D+03 -.308720526023905D+02 -.376759120046119D+01 -.330702048805375D+03
 0.000000000000000D+00 -.000000000000000D+00 -.000000000000000D+00 -.000000000000000D+00
 0.336860280203246D+03 0.000000000000000D+00 0.000000000000000D+00 0.336860280203246D+03
 0.234279660745877D+04 0.000000000000000D+00 0.000000000000000D+00 -.234279660745877D+04
 0.264428124549198D+03 0.130423953420712D+02 0.237318252769847D+02 0.258241997834144D+03
 0.772675421077700D+02 0.192803996865762D+02 -.186569092978572D+02 0.724600509712311D+02
 0.332021196610847D+03 -.294617759955295D+02 -.249673186695440D+01 -.330702048805375D+03
 0.200594002439420D+04 -.286101903311792D+01 -.257818411217305D+01 -.200593632725552D+04
 0.336852927621314D+03 0.000000000000000D+00 0.000000000000000D+00 0.336852927621314D+03
 0.336852927621314D+03 0.000000000000000D+00 0.000000000000000D+00 -.336852927621314D+03
 0.264286239594520D+03 0.119197618595585D+02 0.227201732135402D+02 0.258241997834144D+03
 0.772583243160032D+02 0.189522907428320D+02 -.189525820130791D+02 0.724600509712311D+02
 0.000000000000000D+00 -.000000000000000D+00 -.000000000000000D+00 -.000000000000000D+00
 0.332161291332105D+03 -.308720526023905D+02 -.376759120046119D+01 -.330702048805375D+03
 0.336860280203246D+03 0.000000000000000D+00 0.000000000000000D+00 0.336860280203246D+03
 0.234279660745877D+04 0.000000000000000D+00 0.000000000000000D+00 -.234279660745877D+04
 0.264428124549198D+03 0.130423953420712D+02 0.237318252769847D+02 0.258241997834144D+03
 0.772675421077700D+02 0.192803996865762D+02 -.186569092978572D+02 0.724600509712311D+02
 0.200594002439420D+04 -.286101903311792D+01 -.257818411217305D+01 -.200593632725552D+04
 0.332021196610847D+03 -.294617759955295D+02 -.249673186695440D+01 -.330702048805375D+03
0.346082222264D-05 0.000000000000D+00 0.000000000000D+00 0.284495480259D-03 0.000000000000D+00  6 22 -1 9900012 -11 -2 21 0 0.33757239D+00 0.79558580D-02 0.32548469D+04 0.32548469D+04 0.32548469D+04 0.12633965D+01  1  2  2  1  6  2       -1 0.145012920363D-05 0.100000000000D+01
0.290513487575D-06 0.000000000000D+00 -.664523429517D-08 0.284495480259D-03 0.000000000000D+00  6 22 -1 9900012 -11 -2 21 2 0.33757239D+00 0.79558580D-02 0.32548469D+04 0.32548469D+04 0.32548469D+04 0.12633965D+01  1  2  3  1  6  2       -1 0.194300119040D-06 0.100000000000D+01
-.465932360855D-06 0.000000000000D+00 0.000000000000D+00 0.284495480259D-03 0.000000000000D+00  6 22 -1 9900012 -11 -2 21 2 0.33757239D+00 0.79558580D-02 0.32548469D+04 0.32548469D+04 0.32548469D+04 0.12633965D+01  1  2 15  1  6  2       -1 -.311623098585D-06 0.100000000000D+01
0.115660377171D-01 0.000000000000D+00 0.000000000000D+00 0.284495480259D-03 0.000000000000D+00  6 22 -1 9900012 -11 -2 21 2 0.33757239D+00 0.55333834D-01 0.34286980D+04 0.34286980D+04 0.34286980D+04 0.12607226D+01  1  2 12  1  6  2       -1 0.383813450825D-03 0.100000000000D+01
-.142608212356D+00 0.000000000000D+00 -.182814832136D-05 0.284495480259D-03 0.000000000000D+00  6 22 -1 9900012 -11 -2 21 2 0.33757239D+00 0.55332770D-01 0.32548469D+04 0.32548469D+04 0.32548469D+04 0.12633965D+01  1  2  5  1  6  2       -1 -.474760927301D-02 0.100000000000D+01
0.161150938737D+00 0.000000000000D+00 0.000000000000D+00 0.284495480259D-03 0.709767288279D-03  6 22 -1 9900012 -11 -2 21 2 0.33757976D+00 0.55332626D-01 0.34286980D+04 0.34286980D+04 0.34286980D+04 0.12607226D+01  1  2 11  1  6  2       -1 0.534751064429D-02 0.100000000000D+01
0.274260661841D-02 0.000000000000D+00 0.000000000000D+00 0.284495480259D-03 0.000000000000D+00  6 22 21 9900012 -11 1 -2 2 0.33757239D+00 0.55333834D-01 0.34286980D+04 0.34286980D+04 0.34286980D+04 0.12607226D+01  3  4 12  3  5  2       -1 0.858201989570D-03 0.100000000000D+01
-.338159521899D-01 0.000000000000D+00 -.433497235916D-06 0.284495480259D-03 0.000000000000D+00  6 22 21 9900012 -11 1 -2 2 0.33757239D+00 0.55332770D-01 0.32548469D+04 0.32548469D+04 0.32548469D+04 0.12633965D+01  3  4  5  3  5  2       -1 -.106293982350D-01 0.100000000000D+01
0.369324388545D-01 0.000000000000D+00 0.000000000000D+00 0.284495480259D-03 0.162655940004D-03  6 22 21 9900012 -11 1 -2 2 0.33757976D+00 0.55332626D-01 0.34286980D+04 0.34286980D+04 0.34286980D+04 0.12607226D+01  3  4 11  3  5  2       -1 0.115563412008D-01 0.100000000000D+01
  </mgrwgt>
  </event>
  <event>
  6     66 0.83052089E-06 0.32096815E+02 0.78161638E-02 0.11269042E+00
       22 -1    0    0    0    0 0.00000000E+00 0.00000000E+00 0.11094582E+04 0.11094582E+04 0.00000000E+00 0.0000E+00 0.9000E+01
       -1 -1    0    0    0  501 0.00000000E+00 0.00000000E+00 -.15178464E+02 0.15178464E+02 0.00000000E+00 0.0000E+00 0.9000E+01
       24  2    1    2    0    0 -.30519917E+02 0.99368116E+01 0.10885615E+04 0.10920345E+04 0.80889090E+02 0.0000E+00 0.0000E+00
  9900012  1    3    3    0    0 -.22811021E+02 -.15970642E+02 0.59915413E+03 0.60188128E+03 0.50000000E+02 0.0000E+00 0.9000E+01
      -11  1    3    3    0    0 -.77088964E+01 0.25907453E+02 0.48940733E+03 0.49015320E+03 0.00000000E+00 0.0000E+00 0.9000E+01
       -2  1    1    2    0  501 0.30519917E+02 -.99368116E+01 0.57183074E+01 0.32602218E+02 0.00000000E+00 0.0000E+00 0.9000E+01
#aMCatNLO 1  0  0  2  5 0.61599739D+03 0.00000000D+00  -5  6  0 0.00000000D+00 0.00000000D+00 0.00000000D+00 0.00000000D+00 0.00000000D+00
  <mgrwgt>
 0.7903498483D-04    5    4    0
 0.129768534016055D+03 0.000000000000000D+00 0.000000000000000D+00 0.129768534016055D+03
 0.129768534016055D+03 0.000000000000000D+00 0.000000000000000D+00 -.129768534016055D+03
 0.818978685045336D+02 -.228110205948248D+02 -.159706416757637D+02 0.585820519397598D+02
 0.604758877104629D+02 -.770889641381621D+01 0.259074532588407D+02 0.540990737082489D+02
 0.117163311817114D+03 0.305199170086410D+02 -.993681158307703D+01 -.112681125648009D+03
 0.000000000000000D+00 -.000000000000000D+00 -.000000000000000D+00 -.000000000000000D+00
 0.176352016977544D+03 0.000000000000000D+00 0.000000000000000D+00 0.176352016977544D+03
 0.194484389746804D+03 0.000000000000000D+00 0.000000000000000D+00 -.194484389746804D+03
 0.778149119036185D+02 -.806305453186389D+01 0.763484490421241D+01 0.585820519397598D+02
 0.706942574904021D+02 0.440342700170718D+01 0.452943495004548D+02 0.540990737082489D+02
 0.127286765934323D+03 0.530925717552007D+02 0.261928144561747D+02 -.112681125648009D+03
 0.950404713960050D+02 -.494329442250440D+02 -.791220088608419D+02 -.181323727692596D+02
 0.129768534016055D+03 0.000000000000000D+00 0.000000000000000D+00 0.129768534016055D+03
 0.129768534016055D+03 0.000000000000000D+00 0.000000000000000D+00 -.129768534016055D+03
 0.818978685045336D+02 -.228110205948248D+02 -.159706416757637D+02 0.585820519397598D+02
 0.604758877104629D+02 -.770889641381621D+01 0.259074532588407D+02 0.540990737082489D+02
 0.000000000000000D+00 -.000000000000000D+00 -.000000000000000D+00 -.000000000000000D+00
 0.117163311817114D+03 0.305199170086410D+02 -.993681158307703D+01 -.112681125648009D+03
 0.176352016977544D+03 0.000000000000000D+00 0.000000000000000D+00 0.176352016977544D+03
 0.194484389746804D+03 0.000000000000000D+00 0.000000000000000D+00 -.194484389746804D+03
 0.778149119036185D+02 -.806305453186389D+01 0.763484490421241D+01 0.585820519397598D+02
 0.706942574904021D+02 0.440342700170718D+01 0.452943495004548D+02 0.540990737082489D+02
 0.950404713960050D+02 -.494329442250440D+02 -.791220088608419D+02 -.181323727692596D+02
 0.127286765934323D+03 0.530925717552007D+02 0.261928144561747D+02 -.112681125648009D+03
0.355738018153D-05 0.000000000000D+00 0.000000000000D+00 0.360785969496D-05 0.000000000000D+00  6 22 -1 9900012 -11 -2 21 0 0.17068588D+00 0.23351484D-02 0.33847963D+04 0.33847963D+04 0.33847963D+04 0.12613831D+01  1  2  2  1  6  2       -1 0.573234292799D-04 0.100000000000D+01
0.234123854029D-06 0.000000000000D+00 -.683063828839D-08 0.360785969496D-05 0.000000000000D+00  6 22 -1 9900012 -11 -2 21 2 0.17068588D+00 0.23351484D-02 0.33847963D+04 0.33847963D+04 0.33847963D+04 0.12613831D+01  1  2  3  1  6  2       -1 0.600263001834D-05 0.100000000000D+01
-.487617347263D-06 0.000000000000D+00 0.000000000000D+00 0.360785969496D-05 0.000000000000D+00  6 22 -1 9900012 -11 -2 21 2 0.17068588D+00 0.23351484D-02 0.33847963D+04 0.33847963D+04 0.33847963D+04 0.12613831D+01  1  2 15  1  6  2       -1 -.125018723029D-04 0.100000000000D+01
0.867221202882D-06 0.000000000000D+00 -.112410969977D-05 0.360785969496D-05 0.000000000000D+00  6 22 -1 9900012 -11 -2 21 2 0.17068588D+00 0.48578374D-02 0.33847963D+04 0.33847963D+04 0.33847963D+04 0.12613831D+01  1  2  5  1  6  2       -1 0.791120248215D-05 0.100000000000D+01
0.137965185273D-06 0.000000000000D+00 -.890419913424D-07 0.360785969496D-05 0.000000000000D+00  6 22 21 9900012 -11 1 -2 2 0.17068588D+00 0.48578374D-02 0.33847963D+04 0.33847963D+04 0.33847963D+04 0.12613831D+01  3  4  5  3  5  2       -1 0.202995953489D-04 0.100000000000D+01
  </mgrwgt>
  </event>
  <event>
  6     66 0.83052089E-06 0.50268159E+02 0.78161638E-02 0.12225162E+00
       22 -1    0    0    0    0 0.00000000E+00 0.00000000E+00 0.76498483E+03 0.76498483E+03 0.00000000E+00 0.0000E+00 0.9000E+01
       -1 -1    0    0    0  501 0.00000000E+00 0.00000000E+00 -.24117625E+02 0.24117625E+02 0.00000000E+00 0.0000E+00 0.9000E+01
       24  2    1    2    0    0 0.43713522E+02 0.24819665E+02 0.73182819E+03 0.73802808E+03 0.81154608E+02 0.0000E+00 0.0000E+00
  9900012  1    3    3    0    0 0.10549129E+02 -.72547127E+00 0.31701800E+03 0.32111092E+03 0.50000000E+02 0.0000E+00 0.9000E+01
      -11  1    3    3    0    0 0.33164393E+02 0.25545137E+02 0.41481019E+03 0.41691717E+03 0.00000000E+00 0.0000E+00 0.9000E+01
       -2  1    1    2    0  501 -.43713522E+02 -.24819665E+02 0.90390212E+01 0.51074374E+02 0.00000000E+00 0.0000E+00 0.9000E+01
#aMCatNLO 1  0  0  5  2 0.10536783D+02 0.00000000D+00  -5  6  0 0.00000000D+00 0.00000000D+00 0.00000000D+00 0.00000000D+00 0.00000000D+00
  <mgrwgt>
 0.1340338291D-03    7    2    0
 0.135829368771444D+03 0.000000000000000D+00 0.000000000000000D+00 0.135829368771444D+03
 0.135829368771444D+03 -.000000000000000D+00 -.000000000000000D+00 -.135829368771444D+03
 0.681780955910797D+02 0.105491289334647D+02 -.725471271764361D+00 0.451269574490169D+02
 0.797732288017034D+02 0.331643928101890D+02 0.255451367526711D+02 0.679068263966720D+02
 0.123707413150106D+03 -.437135217436537D+02 -.248196654809067D+02 -.113033783845689D+03
 0.000000000000000D+00 0.000000000000000D+00 -.000000000000000D+00 0.000000000000000D+00
 0.135829368771444D+03 0.000000000000000D+00 0.000000000000000D+00 0.135829368771444D+03
 0.135829368771444D+03 -.000000000000000D+00 -.000000000000000D+00 -.135829368771444D+03
 0.678807474154776D+02 0.103888198776729D+02 -.816491555182488D+00 0.447124326420903D+02
 0.792488899786231D+02 0.329770276588445D+02 0.254387545580170D+02 0.674223403344076D+02
 0.667740120448233D+02 -.212331367099766D+02 -.333458668969148D+01 -.632202746089146D+02
 0.577550881039647D+02 -.221327108265408D+02 -.212876763131430D+02 -.489144983675832D+02
0.108608126553D-05 0.000000000000D+00 0.000000000000D+00 0.284183220192D-05 0.000000000000D+00  6 22 -1 9900012 -11 -2 21 0 0.11768997D+00 0.37104039D-02 0.51291437D+04 0.51291437D+04 0.51291437D+04 0.12406004D+01  1  2  2  2  6  5       -2 0.211825400666D-04 0.100000000000D+01
0.324807445229D-07 0.000000000000D+00 -.208541901570D-08 0.284183220192D-05 0.000000000000D+00  6 22 -1 9900012 -11 -2 21 2 0.11768997D+00 0.37104039D-02 0.51291437D+04 0.51291437D+04 0.51291437D+04 0.12406004D+01  1  2  3  2  6  5       -2 0.975002083545D-06 0.100000000000D+01
-.146762330781D-06 0.000000000000D+00 0.000000000000D+00 0.284183220192D-05 0.000000000000D+00  6 22 -1 9900012 -11 -2 21 2 0.11768997D+00 0.37104039D-02 0.51291437D+04 0.51291437D+04 0.51291437D+04 0.12406004D+01  1  2 15  2  6  5       -2 -.440548947998D-05 0.100000000000D+01
0.373175315691D-05 0.000000000000D+00 0.000000000000D+00 0.284183220192D-05 0.000000000000D+00  6 22 -1 9900012 -11 -2 21 2 0.11768997D+00 0.37104039D-02 0.52508249D+04 0.52508249D+04 0.52508249D+04 0.12394592D+01  1  2 12  2  6  5       -2 0.112077232124D-03 0.100000000000D+01
-.190914858611D-05 0.000000000000D+00 0.000000000000D+00 0.284183220192D-05 0.000000000000D+00  6 22 -1 9900012 -11 -2 21 2 0.11768997D+00 0.37104039D-02 0.51291437D+04 0.51291437D+04 0.51291437D+04 0.12406004D+01  1  2  4  2  6  5       -2 -.573085339205D-04 0.100000000000D+01
-.367668567871D-05 0.000000000000D+00 0.000000000000D+00 0.284183220192D-05 0.000000000000D+00  6 22 -1 9900012 -11 -2 21 2 0.11768997D+00 0.37104039D-02 0.51291437D+04 0.51291437D+04 0.51291437D+04 0.12406004D+01  1  2  5  2  6  5       -2 -.110366195417D-03 0.100000000000D+01
0.572590240677D-05 0.000000000000D+00 -.000000000000D+00 0.284183220192D-05 0.000000000000D+00  6 22 -1 9900012 -11 -2 21 2 0.11768997D+00 0.37104039D-02 0.51291437D+04 0.51291437D+04 0.51291437D+04 0.12406004D+01  1  2  6  2  6  5       -2 0.171879273668D-03 0.100000000000D+01
  </mgrwgt>
  </event>
  <event>
  6     66 0.83052089E-06 0.38253436E+02 0.78161638E-02 0.12488731E+00
       22 -1    0    0    0    0 0.00000000E+00 0.00000000E+00 0.71629110E+03 0.71629110E+03 0.00000000E+00 0.0000E+00 0.9000E+01
       -1 -1    0    0    0  501 0.00000000E+00 0.00000000E+00 -.78647927E+01 0.78647927E+01 0.00000000E+00 0.0000E+00 0.9000E+01
       24  2    1    2    0    0 0.35151780E+02 0.15088993E+02 0.27424972E+03 0.28829739E+03 0.80244320E+02 0.0000E+00 0.0000E+00
  9900012  1    3    3    0    0 0.33201372E+01 0.24316369E+02 0.17681921E+03 0.18538431E+03 0.50000000E+02 0.0000E+00 0.9000E+01
      -11  1    3    3    0    0 0.31831643E+02 -.92273754E+01 0.97430510E+02 0.10291308E+03 0.00000000E+00 0.0000E+00 0.9000E+01
       -2  1    1    2    0  501 -.35151780E+02 -.15088993E+02 0.43417658E+03 0.43585850E+03 0.00000000E+00 0.0000E+00 0.9000E+01
#aMCatNLO 1  0  0  5  2 0.41207764D+01 0.00000000D+00  -5  6  0 0.00000000D+00 0.00000000D+00 0.00000000D+00 0.00000000D+00 0.00000000D+00
  <mgrwgt>
 0.2626982328D-04    8    2    0
 0.750565184846031D+02 0.000000000000000D+00 0.000000000000000D+00 0.750565184846031D+02
 0.750565184846031D+02 -.000000000000000D+00 -.000000000000000D+00 -.750565184846031D+02
 0.598466335404085D+02 0.332013724110486D+01 0.243163688048521D+02 -.218931597300753D+02
 0.366575586644997D+02 0.318316425285209D+02 -.922737544448913D+01 -.156645677752098D+02
 0.536088447642980D+02 -.351517797696257D+02 -.150889933603629D+02 0.375577275052851D+02
 0.000000000000000D+00 0.000000000000000D+00 0.000000000000000D+00 0.000000000000000D+00
 0.750565184846031D+02 0.000000000000000D+00 0.000000000000000D+00 0.750565184846031D+02
 0.750565184846031D+02 -.000000000000000D+00 -.000000000000000D+00 -.750565184846031D+02
 0.597063800032274D+02 0.309284166057533D+01 0.242188015827106D+02 -.216503070058994D+02
 0.364885570448114D+02 0.316925762821685D+02 -.928706999428472D+01 -.155159832022546D+02
 0.409267345939528D+02 -.297167000953652D+02 -.113278593380620D+02 0.257603366201425D+02
 0.129913653272145D+02 -.506871784737858D+01 -.360387225036389D+01 0.114059535880116D+02
0.279368172020D-06 0.000000000000D+00 0.000000000000D+00 0.232513475333D-06 0.000000000000D+00  6 22 -1 9900012 -11 -2 21 0 0.11019863D+00 0.12099681D-02 0.40382148D+04 0.40382148D+04 0.40382148D+04 0.12524295D+01  1  2  2  2  6  5       -2 0.290375166908D-04 0.100000000000D+01
-.168000829931D-07 0.000000000000D+00 -.536423669943D-09 0.232513475333D-06 0.000000000000D+00  6 22 -1 9900012 -11 -2 21 2 0.11019863D+00 0.12099681D-02 0.40382148D+04 0.40382148D+04 0.40382148D+04 0.12524295D+01  1  2  3  2  6  5       -2 -.273905365090D-05 0.100000000000D+01
-.268956273829D-07 0.000000000000D+00 0.000000000000D+00 0.232513475333D-06 0.000000000000D+00  6 22 -1 9900012 -11 -2 21 2 0.11019863D+00 0.12099681D-02 0.40382148D+04 0.40382148D+04 0.40382148D+04 0.12524295D+01  1  2 15  2  6  5       -2 -.438501205061D-05 0.100000000000D+01
0.187851394062D-06 0.000000000000D+00 0.000000000000D+00 0.232513475333D-06 0.000000000000D+00  6 22 -1 9900012 -11 -2 21 2 0.11019863D+00 0.12099681D-02 0.40125826D+04 0.40125826D+04 0.40125826D+04 0.12527491D+01  1  2 12  2  6  5       -2 0.306179544736D-04 0.100000000000D+01
-.166009723941D-05 0.000000000000D+00 0.000000000000D+00 0.232513475333D-06 0.000000000000D+00  6 22 -1 9900012 -11 -2 21 2 0.11019863D+00 0.12099681D-02 0.40382148D+04 0.40382148D+04 0.40382148D+04 0.12524295D+01  1  2  4  2  6  5       -2 -.270659103667D-03 0.100000000000D+01
-.148041461222D-05 0.000000000000D+00 0.000000000000D+00 0.232513475333D-06 0.000000000000D+00  6 22 -1 9900012 -11 -2 21 2 0.11019863D+00 0.12099681D-02 0.40382148D+04 0.40382148D+04 0.40382148D+04 0.12524295D+01  1  2  5  2  6  5       -2 -.241363989101D-03 0.100000000000D+01
0.188102091384D-05 0.000000000000D+00 -.000000000000D+00 0.232513475333D-06 0.000000000000D+00  6 22 -1 9900012 -11 -2 21 2 0.11019863D+00 0.12099681D-02 0.40382148D+04 0.40382148D+04 0.40382148D+04 0.12524295D+01  1  2  6  2  6  5       -2 0.306678080315D-03 0.100000000000D+01
0.109873675784D-05 0.000000000000D+00 0.000000000000D+00 0.232513475333D-06 0.575861394480D-07  6 22 -1 9900012 -11 -2 21 2 0.11019863D+00 0.12099681D-02 0.40125826D+04 0.40125826D+04 0.40125826D+04 0.12527491D+01  1  2 11  2  6  5       -2 0.179083430272D-03 0.100000000000D+01
  </mgrwgt>
  </event>
  <event>
  6     66 0.83052089E-06 0.29788043E+02 0.78161638E-02 0.12021027E+00
       22 -1    0    0    0    0 0.00000000E+00 0.00000000E+00 0.17639559E+04 0.17639559E+04 0.00000000E+00 0.0000E+00 0.9000E+01
       -3 -1    0    0    0  501 0.00000000E+00 0.00000000E+00 -.21211924E+02 0.21211924E+02 0.00000000E+00 0.0000E+00 0.9000E+01
       24  2    1    2    0    0 0.64343460E+02 -.20767187E+02 0.17040205E+04 0.17072521E+04 0.80327467E+02 0.0000E+00 0.0000E+00
  9900012  1    3    3    0    0 0.26792195E+02 -.11639018E+02 0.13254268E+04 0.13266912E+04 0.50000000E+02 0.0000E+00 0.9000E+01
      -11  1    3    3    0    0 0.37551265E+02 -.91281690E+01 0.37859369E+03 0.38056091E+03 0.00000000E+00 0.0000E+00 0.9000E+01
       -4  1    1    2    0  501 -.64343460E+02 0.20767187E+02 0.38723527E+02 0.77915778E+02 0.00000000E+00 0.0000E+00 0.9000E+01
#aMCatNLO 1  0  0  5  2 0.27577776D+02 0.00000000D+00  -5  6  0 0.00000000D+00 0.00000000D+00 0.00000000D+00 0.00000000D+00 0.00000000D+00
  <mgrwgt>
 0.1762140996D-04    7    2    0
 0.193434483137749D+03 0.000000000000000D+00 0.000000000000000D+00 0.193434483137749D+03
 0.193434483137749D+03 -.000000000000000D+00 -.000000000000000D+00 -.193434483137749D+03
 0.151179967483069D+03 0.267921951751932D+02 -.116390175551612D+02 0.139649898375283D+03
 0.505939050599426D+02 0.375512647856900D+02 -.912816897630212D+01 0.326545903871042D+02
 0.185095093732486D+03 -.643434599608832D+02 0.207671865314633D+02 -.172304488762387D+03
 0.000000000000000D+00 -.000000000000000D+00 0.000000000000000D+00 0.000000000000000D+00
 0.193434483137749D+03 0.000000000000000D+00 0.000000000000000D+00 0.193434483137749D+03
 0.193434483137749D+03 -.000000000000000D+00 -.000000000000000D+00 -.193434483137749D+03
 0.144247034492706D+03 0.241913642040555D+02 -.107995858250792D+02 0.132685167987584D+03
 0.484046776923869D+02 0.366797175730147D+02 -.884687257807288D+01 0.303206857913055D+02
 0.170359079140975D+03 -.372256003735327D+02 0.223115668791999D+02 -.164738169547880D+03
 0.238581749494305D+02 -.236454814035376D+02 -.266510847604783D+01 0.173231576899036D+01
0.231756679029D-05 0.000000000000D+00 0.000000000000D+00 0.136856138397D-04 0.000000000000D+00  6 22 -3 9900012 -11 -4 21 0 0.27137784D+00 0.32633729D-02 0.67374712D+04 0.67374712D+04 0.67374712D+04 0.12275286D+01  1  2  2  2  6  5       -4 0.674846454990D-05 0.100000000000D+01
0.402512230099D-07 0.000000000000D+00 -.445003335203D-08 0.136856138397D-04 0.000000000000D+00  6 22 -3 9900012 -11 -4 21 2 0.27137784D+00 0.32633729D-02 0.67374712D+04 0.67374712D+04 0.67374712D+04 0.12275286D+01  1  2  3  2  6  5       -4 0.176609896044D-06 0.100000000000D+01
-.306783329735D-06 0.000000000000D+00 0.000000000000D+00 0.136856138397D-04 0.000000000000D+00  6 22 -3 9900012 -11 -4 21 2 0.27137784D+00 0.32633729D-02 0.67374712D+04 0.67374712D+04 0.67374712D+04 0.12275286D+01  1  2 15  2  6  5       -4 -.134607020411D-05 0.100000000000D+01
0.249784365607D-05 0.000000000000D+00 0.000000000000D+00 0.136856138397D-04 0.000000000000D+00  6 22 -3 9900012 -11 -4 21 2 0.27137784D+00 0.32633729D-02 0.65214958D+04 0.65214958D+04 0.65214958D+04 0.12290674D+01  1  2 12  2  6  5       -4 0.109535153344D-04 0.100000000000D+01
-.107584305543D-06 0.000000000000D+00 0.000000000000D+00 0.136856138397D-04 0.000000000000D+00  6 22 -3 9900012 -11 -4 21 2 0.27137784D+00 0.32633729D-02 0.67374712D+04 0.67374712D+04 0.67374712D+04 0.12275286D+01  1  2  4  2  6  5       -4 -.472046601247D-06 0.100000000000D+01
-.259436419390D-05 0.000000000000D+00 0.000000000000D+00 0.136856138397D-04 0.000000000000D+00  6 22 -3 9900012 -11 -4 21 2 0.27137784D+00 0.32633729D-02 0.67374712D+04 0.67374712D+04 0.67374712D+04 0.12275286D+01  1  2  5  2  6  5       -4 -.113832663040D-04 0.100000000000D+01
0.295011788606D-05 0.000000000000D+00 -.000000000000D+00 0.136856138397D-04 0.000000000000D+00  6 22 -3 9900012 -11 -4 21 2 0.27137784D+00 0.32633729D-02 0.67374712D+04 0.67374712D+04 0.67374712D+04 0.12275286D+01  1  2  6  2  6  5       -4 0.129442032866D-04 0.100000000000D+01
  </mgrwgt>
  </event>
  <event>
  6     66 0.83052089E-06 0.21047826E+02 0.78161638E-02 0.12916117E+00
       22 -1    0    0    0    0 0.00000000E+00 0.00000000E+00 0.16368886E+02 0.16368886E+02 0.00000000E+00 0.0000E+00 0.9000E+01
       -1 -1    0    0    0  501 0.00000000E+00 0.00000000E+00 -.18778185E+03 0.18778185E+03 0.00000000E+00 0.0000E+00 0.9000E+01
       24  2    1    2    0    0 0.46621154E+00 0.21042662E+02 -.15606925E+03 0.17810385E+03 0.83188686E+02 0.0000E+00 0.0000E+00
  9900012  1    3    3    0    0 0.11516682E+02 -.71087558E+01 -.71514621E+02 0.88303508E+02 0.50000000E+02 0.0000E+00 0.9000E+01
      -11  1    3    3    0    0 -.11050470E+02 0.28151418E+02 -.84554631E+02 0.89800339E+02 0.00000000E+00 0.0000E+00 0.9000E+01
       -2  1    1    2    0  501 -.46621154E+00 -.21042662E+02 -.15343714E+02 0.26046891E+02 0.00000000E+00 0.0000E+00 0.9000E+01
#aMCatNLO 1  0  0  2  2 0.17306134D+03 0.00000000D+00  -5  6  0 0.00000000D+00 0.00000000D+00 0.00000000D+00 0.00000000D+00 0.00000000D+00
  <mgrwgt>
 0.5165266411D-03    5    4    0
 0.554416782256406D+02 0.000000000000000D+00 0.000000000000000D+00 0.554416782256406D+02
 0.554416782256406D+02 0.000000000000000D+00 0.000000000000000D+00 -.554416782256406D+02
 0.520248755685650D+02 0.115166815949479D+02 -.710875576816731D+01 0.483935061695340D+01
 0.346223765948789D+02 -.110504700502942D+02 0.281514181885345D+02 -.168550801457429D+02
 0.242361042878373D+02 -.466211544653719D+00 -.210426624203672D+02 0.120157295287895D+02
 0.000000000000000D+00 -.000000000000000D+00 0.000000000000000D+00 -.000000000000000D+00
 0.120512259234346D+03 0.000000000000000D+00 0.000000000000000D+00 0.120512259234346D+03
 0.163388168323022D+03 0.000000000000000D+00 0.000000000000000D+00 -.163388168323022D+03
 0.887191638932231D+02 0.507145582198071D+02 -.526849533746454D+02 0.483935061695340D+01
 0.202440811134816D+02 0.423009634754090D+01 0.103843814596887D+02 -.168550801457429D+02
 0.514032410680271D+02 0.205997017159164D+02 -.455364439257607D+02 0.120157295287895D+02
 0.123533941482637D+03 -.755443562832644D+02 0.878370158407174D+02 -.428759090886757D+02
 0.554416782256406D+02 0.000000000000000D+00 0.000000000000000D+00 0.554416782256406D+02
 0.554416782256406D+02 0.000000000000000D+00 0.000000000000000D+00 -.554416782256406D+02
 0.520248755685650D+02 0.115166815949479D+02 -.710875576816731D+01 0.483935061695340D+01
 0.346223765948789D+02 -.110504700502942D+02 0.281514181885345D+02 -.168550801457429D+02
 0.000000000000000D+00 -.000000000000000D+00 0.000000000000000D+00 -.000000000000000D+00
 0.242361042878373D+02 -.466211544653719D+00 -.210426624203672D+02 0.120157295287895D+02
 0.120512259234346D+03 0.000000000000000D+00 0.000000000000000D+00 0.120512259234346D+03
 0.163388168323022D+03 0.000000000000000D+00 0.000000000000000D+00 -.163388168323022D+03
 0.887191638932231D+02 0.507145582198071D+02 -.526849533746454D+02 0.483935061695340D+01
 0.202440811134816D+02 0.423009634754090D+01 0.103843814596887D+02 -.168550801457429D+02
 0.123533941482637D+03 -.755443562832644D+02 0.878370158407174D+02 -.428759090886757D+02
 0.514032410680271D+02 0.205997017159164D+02 -.455364439257607D+02 0.120157295287895D+02
0.191221898120D-05 0.000000000000D+00 0.000000000000D+00 0.285443574335D-07 0.000000000000D+00  6 22 -1 9900012 -11 -2 21 0 0.25182901D-02 0.28889516D-01 0.26568737D+04 0.26568737D+04 0.26568737D+04 0.12740044D+01  1  2  2  1  6  2       -1 0.586366118171D-03 0.100000000000D+01
-.452470521506D-07 0.000000000000D+00 -.367171219331D-08 0.285443574335D-07 0.000000000000D+00  6 22 -1 9900012 -11 -2 21 2 0.25182901D-02 0.28889516D-01 0.26568737D+04 0.26568737D+04 0.26568737D+04 0.12740044D+01  1  2  3  1  6  2       -1 -.225197398935D-04 0.100000000000D+01
-.199658257819D-06 0.000000000000D+00 0.000000000000D+00 0.285443574335D-07 0.000000000000D+00  6 22 -1 9900012 -11 -2 21 2 0.25182901D-02 0.28889516D-01 0.26568737D+04 0.26568737D+04 0.26568737D+04 0.12740044D+01  1  2 15  1  6  2       -1 -.993711594447D-04 0.100000000000D+01
0.129812007327D-05 0.000000000000D+00 -.836054115552D-06 0.285443574335D-07 0.000000000000D+00  6 22 -1 9900012 -11 -2 21 2 0.25182901D-02 0.16099358D+00 0.26568737D+04 0.26568737D+04 0.26568737D+04 0.12740044D+01  1  2  5  1  6  2       -1 0.225098252816D-04 0.100000000000D+01
0.231716174888D-06 0.000000000000D+00 -.175838059802D-06 0.285443574335D-07 0.000000000000D+00  6 22 21 9900012 -11 1 -2 2 0.25182901D-02 0.16099358D+00 0.26568737D+04 0.26568737D+04 0.26568737D+04 0.12740044D+01  3  4  5  3  5  2       -1 0.295415970117D-04 0.100000000000D+01
  </mgrwgt>
  </event>
  <event>
  6     66 0.83052089E-06 0.33141383E+02 0.78161638E-02 0.96940807E-01
       22 -1    0    0    0    0 0.00000000E+00 0.00000000E+00 0.62947122E+03 0.62947122E+03 0.00000000E+00 0.0000E+00 0.9000E+01
       -1 -1    0    0    0  501 0.00000000E+00 0.00000000E+00 -.22983609E+03 0.22983609E+03 0.00000000E+00 0.0000E+00 0.9000E+01
       24  2    1    2    0    0 -.15640001E+02 0.29218858E+02 0.62510508E+03 0.63141468E+03 0.82642574E+02 0.0000E+00 0.0000E+00
  9900012  1    3    3    0    0 0.14559548E+02 0.20897456E+02 0.34073914E+03 0.34532860E+03 0.50000000E+02 0.0000E+00 0.9000E+01
      -11  1    3    3    0    0 -.30199549E+02 0.83214020E+01 0.28436594E+03 0.28608608E+03 0.00000000E+00 0.0000E+00 0.9000E+01
       -2  1    1    2    0  501 0.15640001E+02 -.29218858E+02 -.22546995E+03 0.22789263E+03 0.00000000E+00 0.0000E+00 0.9000E+01
#aMCatNLO 1  0  0  2  5 0.50411583D+01 0.00000000D+00  -5  6  0 0.00000000D+00 0.00000000D+00 0.00000000D+00 0.00000000D+00 0.00000000D+00
  <mgrwgt>
 0.7028955077D-03    3    2    0
 0.380361941206337D+03 0.000000000000000D+00 0.000000000000000D+00 0.380361941206337D+03
 0.380361941206337D+03 0.000000000000000D+00 0.000000000000000D+00 -.380361941206337D+03
 0.211077988010433D+03 0.145595478083218D+02 0.208974558656012D+02 0.203482758307663D+03
 0.173772963703581D+03 -.301995491297452D+02 0.832140199108396D+01 0.170926254319192D+03
 0.375872930698660D+03 0.156400013214235D+02 -.292188578566852D+02 -.374409012626855D+03
 0.000000000000000D+00 0.000000000000000D+00 0.000000000000000D+00 0.000000000000000D+00
 0.805820065793575D+03 0.000000000000000D+00 0.000000000000000D+00 0.805820065793575D+03
 0.516714485550207D+03 0.000000000000000D+00 0.000000000000000D+00 -.516714485550207D+03
 0.223043933023131D+03 -.275573941995858D+02 -.713018453818754D+02 0.203482758307663D+03
 0.196272138731259D+03 -.660999894540970D+02 -.702691925435454D+02 0.170926254319192D+03
 0.429136781882963D+03 -.624591356672873D+02 -.200187724899267D+03 -.374409012626855D+03
 0.474081697706430D+03 0.156116519320970D+03 0.341758762824688D+03 0.289105580243368D+03
0.794651433815D-03 0.000000000000D+00 0.000000000000D+00 0.700748417392D-04 0.000000000000D+00  6 22 -1 9900012 -11 -2 21 0 0.96841726D-01 0.35359399D-01 0.36348579D+04 0.36348579D+04 0.36348579D+04 0.12577435D+01  1  2  2  1  6  2       -1 0.769842186989D-03 0.100000000000D+01
0.658276518177D-04 0.000000000000D+00 -.152583537119D-05 0.700748417392D-04 0.000000000000D+00  6 22 -1 9900012 -11 -2 21 2 0.96841726D-01 0.35359399D-01 0.36348579D+04 0.36348579D+04 0.36348579D+04 0.12577435D+01  1  2  3  1  6  2       -1 0.100882902774D-03 0.100000000000D+01
-.109511393807D-03 0.000000000000D+00 0.000000000000D+00 0.700748417392D-04 0.000000000000D+00  6 22 -1 9900012 -11 -2 21 2 0.96841726D-01 0.35359399D-01 0.36348579D+04 0.36348579D+04 0.36348579D+04 0.12577435D+01  1  2 15  1  6  2       -1 -.167829582083D-03 0.100000000000D+01
  </mgrwgt>
  </event>
  <event>
  7     66 0.83052089E-06 0.16924827E+02 0.78161638E-02 0.12386909E+00
       22 -1    0    0    0    0 0.00000000E+00 0.00000000E+00 0.65589737E+03 0.65589737E+03 0.00000000E+00 0.0000E+00 0.9000E+01
       21 -1    0    0  502  501 0.00000000E+00 0.00000000E+00 -.87161597E+01 0.87161597E+01 0.00000000E+00 0.0000E+00 0.9000E+01
       24  2    1    2    0    0 0.51655408E+01 0.77412070E+01 0.25165369E+03 0.26394318E+03 0.79055760E+02 0.0000E+00 0.0000E+00
  9900012  1    3    3    0    0 -.62183446E+01 -.14675349E+02 0.14048257E+03 0.14996461E+03 0.50000000E+02 0.0000E+00 0.9000E+01
      -11  1    3    3    0    0 0.11383885E+02 0.22416556E+02 0.11117113E+03 0.11397857E+03 0.00000000E+00 0.0000E+00 0.9000E+01
        3  1    1    2  502    0 0.11438794E+02 -.27583755E+02 0.11026732E+03 0.11423918E+03 0.00000000E+00 0.0000E+00 0.9000E+01
       -4  1    1    2    0  501 -.16604335E+02 0.19842548E+02 0.28526020E+03 0.28643117E+03 0.00000000E+00 0.0000E+00 0.9000E+01
#aMCatNLO 2  0  0  2  5 0.11987360D+02 0.00000000D+00  -5  6  0 0.00000000D+00 0.00000000D+00 0.00000000D+00 0.00000000D+00 0.00000000D+00
  <mgrwgt>
 0.3216722474D-04    1    2    0
 0.586167299421822D+02 0.000000000000000D+00 0.000000000000000D+00 0.586167299421822D+02
 0.586167299421822D+02 0.000000000000000D+00 0.000000000000000D+00 -.586167299421822D+02
 0.634913041994145D+02 -.347458799862913D+00 -.288325301975418D+02 -.264520355309914D+02
 0.217808411375973D+02 0.136370911633000D+02 0.169831270996317D+02 -.904388348761627D-01
 0.000000000000000D+00 0.000000000000000D+00 -.000000000000000D+00 -.000000000000000D+00
 0.319613145473526D+02 -.132896323634371D+02 0.118494030979101D+02 0.265424743658675D+02
 0.729782430287261D+02 0.000000000000000D+00 0.000000000000000D+00 0.729782430287261D+02
 0.783371316396188D+02 0.000000000000000D+00 0.000000000000000D+00 -.783371316396188D+02
 0.587685619188919D+02 -.621834457921787D+01 -.146753492965554D+02 -.264520355309914D+02
 0.251416590637762D+02 0.113838853655981D+02 0.224165562760926D+02 -.904388348761627D-01
 0.303385435942334D+02 0.114387938911273D+02 -.275837549037754D+02 -.535888861089275D+01
 0.370666100914435D+02 -.166043346775075D+02 0.198425479242381D+02 0.265424743658675D+02
0.102254609237D-07 0.000000000000D+00 0.000000000000D+00 0.871223276494D-07 0.287897246796D-10  6 22 21 9900012 -11 3 -4 2 0.10090729D+00 0.13409476D-02 0.44459055D+04 0.44459055D+04 0.44459055D+04 0.12476317D+01  1  2  1  3  5  2       -3 0.321672247388D-04 0.100000000000D+01
  </mgrwgt>
  </event>
  <event>
  6     66 0.83052089E-06 0.30087522E+02 0.78161638E-02 0.12088274E+00
       22 -1    0    0    0    0 0.00000000E+00 0.00000000E+00 0.28074943E+02 0.28074943E+02 0.00000000E+00 0.0000E+00 0.9000E+01
       -1 -1    0    0    0  501 -.00000000E+00 -.00000000E+00 -.32529477E+03 0.32529477E+03 0.00000000E+00 0.0000E+00 0.9000E+01
       24  2    1    2    0    0 0.30081615E+02 -.59617325E+00 -.35448274E+02 0.89874732E+02 0.76913122E+02 0.0000E+00 0.0000E+00
  9900012  1    3    3    0    0 0.10884465E+02 0.19428824E+02 -.21289048E+02 0.58729672E+02 0.50000000E+02 0.0000E+00 0.9000E+01
      -11  1    3    3    0    0 0.19197151E+02 -.20024997E+02 -.14159226E+02 0.31145060E+02 0.00000000E+00 0.0000E+00 0.9000E+01
       -2  1    1    2    0  501 -.30081615E+02 0.59617325E+00 -.26177155E+03 0.26349498E+03 0.00000000E+00 0.0000E+00 0.9000E+01
#aMCatNLO 1  0  0  5  2 0.34141635D+02 0.00000000D+00  -5  6  0 0.00000000D+00 0.00000000D+00 0.00000000D+00 0.00000000D+00 0.00000000D+00
  <mgrwgt>
 0.6830274475D-04    4    2    0
 0.955648056521932D+02 0.000000000000000D+00 0.000000000000000D+00 0.955648056521932D+02
 0.955648056521932D+02 -.000000000000000D+00 -.000000000000000D+00 -.955648056521932D+02
 0.754763213713517D+02 0.108844647605967D+02 0.194288239753911D+02 0.519684934701801D+02
 0.355639208009719D+02 0.191971506798765D+02 -.200249972284677D+02 0.222544681920683D+02
 0.800893691320628D+02 -.300816154404732D+02 0.596173253076526D+00 -.742229616622485D+02
 0.000000000000000D+00 0.000000000000000D+00 0.000000000000000D+00 0.000000000000000D+00
 0.955648056521932D+02 0.000000000000000D+00 0.000000000000000D+00 0.955648056521932D+02
 0.955648056521932D+02 -.000000000000000D+00 -.000000000000000D+00 -.955648056521932D+02
 0.664962893539887D+02 0.556696455394154D+01 0.195342089871339D+02 0.388481670449395D+02
 0.306412176175051D+02 0.167174763580247D+02 -.199758537404807D+02 0.161361540845740D+02
 0.634550728547623D+02 -.488240301825427D+02 -.343466818198440D+01 -.403851879061743D+02
 0.305370314781303D+02 0.265395892705765D+02 0.387631293533112D+01 -.145991332233392D+02
0.125218525010D-05 0.000000000000D+00 0.000000000000D+00 0.214250899346D-06 0.000000000000D+00  6 22 -1 9900012 -11 -2 21 0 0.43192220D-02 0.50045349D-01 0.31676199D+04 0.31676199D+04 0.31676199D+04 0.12647997D+01  1  2  2  2  6  5       -2 0.774445971936D-04 0.100000000000D+01
0.733133398111D-07 0.000000000000D+00 -.240436053417D-08 0.214250899346D-06 0.000000000000D+00  6 22 -1 9900012 -11 -2 21 2 0.43192220D-02 0.50045349D-01 0.31676199D+04 0.31676199D+04 0.31676199D+04 0.12647997D+01  1  2  3  2  6  5       -2 0.725352436248D-05 0.100000000000D+01
-.154513894618D-06 0.000000000000D+00 0.000000000000D+00 0.214250899346D-06 0.000000000000D+00  6 22 -1 9900012 -11 -2 21 2 0.43192220D-02 0.50045349D-01 0.31676199D+04 0.31676199D+04 0.31676199D+04 0.12647997D+01  1  2 15  2  6  5       -2 -.152873992897D-04 0.100000000000D+01
-.111986295664D-07 0.000000000000D+00 0.000000000000D+00 0.214250899346D-06 0.000000000000D+00  6 22 -1 9900012 -11 -2 21 2 0.43192220D-02 0.50045349D-01 0.31676199D+04 0.31676199D+04 0.31676199D+04 0.12647997D+01  1  2  4  2  6  5       -2 -.110797751945D-05 0.100000000000D+01
  </mgrwgt>
  </event>
  <event>
  6     66 0.83052089E-06 0.41017438E+02 0.78161638E-02 0.12172317E+00
       22 -1    0    0    0    0 0.00000000E+00 0.00000000E+00 0.14491790E+03 0.14491790E+03 0.00000000E+00 0.0000E+00 0.9000E+01
       -1 -1    0    0    0  501 0.00000000E+00 0.00000000E+00 -.61080270E+02 0.61080270E+02 0.00000000E+00 0.0000E+00 0.9000E+01
       24  2    1    2    0    0 -.26222148E+02 -.49727277E+02 0.10758933E+03 0.14496910E+03 0.79247555E+02 0.0000E+00 0.0000E+00
  9900012  1    3    3    0    0 -.67221768E+01 -.19606274E+02 0.89966140E+02 0.10499286E+03 0.50000000E+02 0.0000E+00 0.9000E+01
      -11  1    3    3    0    0 -.19499971E+02 -.30121002E+02 0.17623187E+02 0.39976248E+02 0.00000000E+00 0.0000E+00 0.9000E+01
       -2  1    1    2    0  501 0.26222148E+02 0.49727277E+02 -.23751701E+02 0.61029062E+02 0.00000000E+00 0.0000E+00 0.9000E+01
#aMCatNLO 1  0  0  5  2 0.82099545D+01 0.00000000D+00  -5  6  0 0.00000000D+00 0.00000000D+00 0.00000000D+00 0.00000000D+00 0.00000000D+00
  <mgrwgt>
 0.4393470554D-04    6    2    0
 0.940830707525993D+02 0.000000000000000D+00 0.000000000000000D+00 0.940830707525993D+02
 0.940830707525993D+02 -.000000000000000D+00 -.000000000000000D+00 -.940830707525993D+02
 0.748582512584995D+02 -.672217676887897D+01 -.196062741820438D+02 0.517123209077596D+02
 0.359126647318895D+02 -.194999713185969D+02 -.301210023420341D+02 0.148183151207518D+01
 0.773952255148096D+02 0.262221480874758D+02 0.497272765240779D+02 -.531941524198348D+02
 0.000000000000000D+00 0.000000000000000D+00 0.000000000000000D+00 0.000000000000000D+00
 0.940830707525993D+02 0.000000000000000D+00 0.000000000000000D+00 0.940830707525993D+02
 0.940830707525993D+02 -.000000000000000D+00 -.000000000000000D+00 -.940830707525993D+02
 0.734934697735555D+02 -.602775706109924D+01 -.182893873763811D+02 0.503036236623720D+02
 0.351807824307318D+02 -.191671899362154D+02 -.294899208696641D+02 0.806752433205225D+00
 0.749772634460196D+01 0.138171566524737D+01 -.346747566336970D+01 -.650256677650354D+01
 0.719941629563095D+02 0.238132313320672D+02 0.512467839094148D+02 -.446078093190737D+02
0.581234662234D-06 0.000000000000D+00 0.000000000000D+00 0.661689073138D-06 0.000000000000D+00  6 22 -1 9900012 -11 -2 21 0 0.22295061D-01 0.93969646D-02 0.53454569D+04 0.53454569D+04 0.53454569D+04 0.12385921D+01  1  2  2  2  6  5       -2 0.498897437486D-04 0.100000000000D+01
-.111101230076D-08 0.000000000000D+00 -.111604707279D-08 0.661689073138D-06 0.000000000000D+00  6 22 -1 9900012 -11 -2 21 2 0.22295061D-01 0.93969646D-02 0.53454569D+04 0.53454569D+04 0.53454569D+04 0.12385921D+01  1  2  3  2  6  5       -2 -.146296937407D-06 0.100000000000D+01
-.681695721923D-07 0.000000000000D+00 0.000000000000D+00 0.661689073138D-06 0.000000000000D+00  6 22 -1 9900012 -11 -2 21 2 0.22295061D-01 0.93969646D-02 0.53454569D+04 0.53454569D+04 0.53454569D+04 0.12385921D+01  1  2 15  2  6  5       -2 -.897649794629D-05 0.100000000000D+01
0.850433494849D-07 0.000000000000D+00 0.000000000000D+00 0.661689073138D-06 0.000000000000D+00  6 22 -1 9900012 -11 -2 21 2 0.22295061D-01 0.93969646D-02 0.55497774D+04 0.55497774D+04 0.55497774D+04 0.12367775D+01  1  2 12  2  6  5       -2 0.112075004976D-04 0.100000000000D+01
-.611946413902D-07 0.000000000000D+00 0.000000000000D+00 0.661689073138D-06 0.000000000000D+00  6 22 -1 9900012 -11 -2 21 2 0.22295061D-01 0.93969646D-02 0.53454569D+04 0.53454569D+04 0.53454569D+04 0.12385921D+01  1  2  5  2  6  5       -2 -.805804635554D-05 0.100000000000D+01
0.138880972837D-09 0.000000000000D+00 0.000000000000D+00 0.661689073138D-06 0.221000633559D-08  6 22 -1 9900012 -11 -2 21 2 0.22295061D-01 0.93969646D-02 0.55497774D+04 0.55497774D+04 0.55497774D+04 0.12367775D+01  1  2 11  2  6  5       -2 0.183025313749D-07 0.100000000000D+01
  </mgrwgt>
  </event>
  <event>
  6     66 0.83052089E-06 0.42155324E+02 0.78161638E-02 0.12176737E+00
       22 -1    0    0    0    0 0.00000000E+00 0.00000000E+00 0.36501220E+02 0.36501220E+02 0.00000000E+00 0.0000E+00 0.9000E+01
       -1 -1    0    0    0  501 0.00000000E+00 0.00000000E+00 -.18357408E+03 0.18357408E+03 0.00000000E+00 0.0000E+00 0.9000E+01
       24  2    1    2    0    0 0.17954289E+01 -.57614132E+02 -.41278631E+02 0.99596960E+02 0.69950105E+02 0.0000E+00 0.0000E+00
  9900012  1    3    3    0    0 -.14732479E+01 -.21660874E+02 -.23610302E+02 0.59403790E+02 0.50000000E+02 0.0000E+00 0.9000E+01
      -11  1    3    3    0    0 0.32686769E+01 -.35953258E+02 -.17668329E+02 0.40193170E+02 0.00000000E+00 0.0000E+00 0.9000E+01
       -2  1    1    2    0  501 -.17954289E+01 0.57614132E+02 -.10579423E+03 0.12047834E+03 0.00000000E+00 0.0000E+00 0.9000E+01
#aMCatNLO 1  0  0  2  5 0.27779552D+01 0.00000000D+00  -5  6  0 0.00000000D+00 0.00000000D+00 0.00000000D+00 0.00000000D+00 0.00000000D+00
  <mgrwgt>
 0.2230369329D-03   10    4    0
 0.818576695990219D+02 0.000000000000000D+00 0.000000000000000D+00 0.818576695990219D+02
 0.818576695990219D+02 0.000000000000000D+00 0.000000000000000D+00 -.818576695990219D+02
 0.586436951577526D+02 -.147324794349930D+01 -.216608736953534D+02 0.216268137506739D+02
 0.381576481532411D+02 0.326867686530454D+01 -.359532584221766D+02 0.123565801484454D+02
 0.669139958870501D+02 -.179542892180525D+01 0.576141321175300D+02 -.339833938991193D+02
 0.000000000000000D+00 -.000000000000000D+00 0.000000000000000D+00 0.000000000000000D+00
 0.832432581226860D+02 0.000000000000000D+00 0.000000000000000D+00 0.832432581226860D+02
 0.818877730842953D+02 0.000000000000000D+00 0.000000000000000D+00 -.818877730842953D+02
 0.586945702077897D+02 -.143289302771074D+01 -.218009246694253D+02 0.216268137506739D+02
 0.382458395378608D+02 0.329495351343907D+01 -.360444510338987D+02 0.123565801484454D+02
 0.667754346396184D+02 -.174945052171626D+01 0.574545649472634D+02 -.339833938991193D+02
 0.141518682171235D+01 -.112609964012074D+00 0.390810756060591D+00 0.135548503839063D+01
 0.818576695990219D+02 0.000000000000000D+00 0.000000000000000D+00 0.818576695990219D+02
 0.818576695990219D+02 0.000000000000000D+00 0.000000000000000D+00 -.818576695990219D+02
 0.586436951577526D+02 -.147324794349930D+01 -.216608736953534D+02 0.216268137506739D+02
 0.381576481532411D+02 0.326867686530454D+01 -.359532584221766D+02 0.123565801484454D+02
 0.000000000000000D+00 -.000000000000000D+00 0.000000000000000D+00 0.000000000000000D+00
 0.669139958870501D+02 -.179542892180525D+01 0.576141321175300D+02 -.339833938991193D+02
 0.832432581226860D+02 0.000000000000000D+00 0.000000000000000D+00 0.832432581226860D+02
 0.818877730842953D+02 0.000000000000000D+00 0.000000000000000D+00 -.818877730842953D+02
 0.586945702077897D+02 -.143289302771074D+01 -.218009246694253D+02 0.216268137506739D+02
 0.382458395378608D+02 0.329495351343907D+01 -.360444510338987D+02 0.123565801484454D+02
 0.141518682171235D+01 -.112609964012074D+00 0.390810756060591D+00 0.135548503839063D+01
 0.667754346396184D+02 -.174945052171626D+01 0.574545649472634D+02 -.339833938991193D+02
0.911516231112D-06 0.000000000000D+00 0.000000000000D+00 0.528462326954D-08 0.000000000000D+00  6 22 -1 9900012 -11 -2 21 0 0.56155724D-02 0.28242167D-01 0.54948015D+04 0.54948015D+04 0.54948015D+04 0.12372582D+01  1  2  2  1  6  2       -1 0.105545038422D-03 0.100000000000D+01
-.105408378319D-07 0.000000000000D+00 -.175023116760D-08 0.528462326954D-08 0.000000000000D+00  6 22 -1 9900012 -11 -2 21 2 0.56155724D-02 0.28242167D-01 0.54948015D+04 0.54948015D+04 0.54948015D+04 0.12372582D+01  1  2  3  1  6  2       -1 -.186839738727D-05 0.100000000000D+01
-.100651656494D-06 0.000000000000D+00 0.000000000000D+00 0.528462326954D-08 0.000000000000D+00  6 22 -1 9900012 -11 -2 21 2 0.56155724D-02 0.28242167D-01 0.54948015D+04 0.54948015D+04 0.54948015D+04 0.12372582D+01  1  2 15  1  6  2       -1 -.178408296397D-04 0.100000000000D+01
0.138765165534D-08 0.000000000000D+00 0.000000000000D+00 0.528462326954D-08 0.000000000000D+00  6 22 -1 9900012 -11 -2 21 2 0.56155724D-02 0.28730778D-01 0.55240266D+04 0.55240266D+04 0.55240266D+04 0.12370020D+01  1  2 12  1  6  2       -1 0.239391044706D-06 0.100000000000D+01
-.375122279108D-06 0.000000000000D+00 0.000000000000D+00 0.528462326954D-08 0.000000000000D+00  6 22 -1 9900012 -11 -2 21 2 0.56155724D-02 0.28242167D-01 0.54948015D+04 0.54948015D+04 0.54948015D+04 0.12372582D+01  1  2  4  1  6  2       -1 -.664916297328D-04 0.100000000000D+01
0.211421780944D-07 0.000000000000D+00 0.000000000000D+00 0.528462326954D-08 0.000000000000D+00  6 22 -1 9900012 -11 -2 21 2 0.56155724D-02 0.28717402D-01 0.54948015D+04 0.54948015D+04 0.54948015D+04 0.12372582D+01  1  2  5  1  6  2       -1 0.364975843510D-05 0.100000000000D+01
-.211392348011D-07 0.000000000000D+00 0.000000000000D+00 0.528462326954D-08 0.000000000000D+00  6 22 -1 9900012 -11 -2 21 2 0.56155724D-02 0.28242167D-01 0.54948015D+04 0.54948015D+04 0.54948015D+04 0.12372582D+01  1  2  6  1  6  2       -1 -.374699731664D-05 0.100000000000D+01
0.370588996688D-06 0.000000000000D+00 0.000000000000D+00 0.528462326954D-08 0.218453962160D-08  6 22 -1 9900012 -11 -2 21 2 0.57106260D-02 0.28252553D-01 0.55240266D+04 0.55240266D+04 0.55240266D+04 0.12370020D+01  1  2 11  1  6  2       -1 0.641568427869D-04 0.100000000000D+01
0.107952632698D-09 0.000000000000D+00 0.000000000000D+00 0.528462326954D-08 0.000000000000D+00  6 22 21 9900012 -11 1 -2 2 0.56155724D-02 0.28730778D-01 0.55240266D+04 0.55240266D+04 0.55240266D+04 0.12370020D+01  3  4 12  3  5  2       -1 0.212039730053D-06 0.100000000000D+01
0.702905382897D-07 0.000000000000D+00 0.000000000000D+00 0.528462326954D-08 0.115702352975D-09  6 22 21 9900012 -11 1 -2 2 0.57106260D-02 0.28252553D-01 0.55240266D+04 0.55240266D+04 0.55240266D+04 0.12370020D+01  3  4 11  3  5  2       -1 0.139181716510D-03 0.100000000000D+01
  </mgrwgt>
  </event>
  <event>
  6     66 0.83052089E-06 0.52962456E+02 0.78161638E-02 0.11713537E+00
       22 -1    0    0    0    0 0.00000000E+00 0.00000000E+00 0.21069146E+04 0.21069146E+04 0.00000000E+00 0.0000E+00 0.9000E+01
       -1 -1    0    0    0  501 0.00000000E+00 0.00000000E+00 -.20200277E+02 0.20200277E+02 0.00000000E+00 0.0000E+00 0.9000E+01
       24  2    1    2    0    0 0.25440157E+02 0.67207459E+02 0.20360632E+04 0.20391968E+04 0.87214684E+02 0.0000E+00 0.0000E+00
  9900012  1    3    3    0    0 -.24874721E+01 0.44740193E+02 0.87160364E+03 0.87418578E+03 0.50000000E+02 0.0000E+00 0.9000E+01
      -11  1    3    3    0    0 0.27927629E+02 0.22467265E+02 0.11644595E+04 0.11650110E+04 0.00000000E+00 0.0000E+00 0.9000E+01
       -2  1    1    2    0  501 -.25440157E+02 -.67207459E+02 0.50651140E+02 0.87918042E+02 0.00000000E+00 0.0000E+00 0.9000E+01
#aMCatNLO 1  0  0  5  2 0.15188748D+02 0.00000000D+00  -5  6  0 0.00000000D+00 0.00000000D+00 0.00000000D+00 0.00000000D+00 0.00000000D+00
  <mgrwgt>
 0.5291477417D-04    5    2    0
 0.206301375857277D+03 0.000000000000000D+00 0.000000000000000D+00 0.206301375857277D+03
 0.206301375857277D+03 -.000000000000000D+00 -.000000000000000D+00 -.206301375857277D+03
 0.986560975251193D+02 -.248747206264538D+01 0.447401932366527D+02 0.722852209706133D+02
 0.116862862367923D+03 0.279276294852290D+02 0.224672653958850D+02 0.111230382979610D+03
 0.197083791821512D+03 -.254401574225836D+02 -.672074586325377D+02 -.183515603950223D+03
 0.000000000000000D+00 0.000000000000000D+00 0.000000000000000D+00 0.000000000000000D+00
 0.206301375857277D+03 0.000000000000000D+00 0.000000000000000D+00 0.206301375857277D+03
 0.206301375857277D+03 -.000000000000000D+00 -.000000000000000D+00 -.206301375857277D+03
 0.964392157658760D+02 -.283248568183685D+01 0.438287409938734D+02 0.697964241583432D+02
 0.113759551793442D+03 0.275197884539183D+02 0.213898365582736D+02 0.108288373151077D+03
 0.191141405263243D+03 -.309564246714397D+02 -.734904180899688D+02 -.173712103857303D+03
 0.112625788919922D+02 0.626912189935824D+01 0.827184053782181D+01 -.437269345211663D+01
0.946404124630D-05 0.000000000000D+00 0.000000000000D+00 0.477995789065D-06 0.000000000000D+00  6 22 -1 9900012 -11 -2 21 0 0.32414071D+00 0.31077349D-02 0.76427033D+04 0.76427033D+04 0.76427033D+04 0.12216284D+01  1  2  2  2  6  5       -2 0.188083224074D-04 0.100000000000D+01
0.164529357038D-06 0.000000000000D+00 -.181722051625D-07 0.477995789065D-06 0.000000000000D+00  6 22 -1 9900012 -11 -2 21 2 0.32414071D+00 0.31077349D-02 0.76427033D+04 0.76427033D+04 0.76427033D+04 0.12216284D+01  1  2  3  2  6  5       -2 0.487972233399D-06 0.100000000000D+01
-.141156619922D-05 0.000000000000D+00 0.000000000000D+00 0.477995789065D-06 0.000000000000D+00  6 22 -1 9900012 -11 -2 21 2 0.32414071D+00 0.31077349D-02 0.76427033D+04 0.76427033D+04 0.76427033D+04 0.12216284D+01  1  2 15  2  6  5       -2 -.418651797602D-05 0.100000000000D+01
0.132389991174D-04 0.000000000000D+00 0.000000000000D+00 0.477995789065D-06 0.000000000000D+00  6 22 -1 9900012 -11 -2 21 2 0.32414071D+00 0.31077349D-02 0.91708198D+04 0.91708198D+04 0.91708198D+04 0.12132463D+01  1  2 12  2  6  5       -2 0.393192857140D-04 0.100000000000D+01
-.510571809229D-06 0.000000000000D+00 0.000000000000D+00 0.477995789065D-06 0.000000000000D+00  6 22 -1 9900012 -11 -2 21 2 0.32414071D+00 0.31077349D-02 0.76427033D+04 0.76427033D+04 0.76427033D+04 0.12216284D+01  1  2  4  2  6  5       -2 -.151428821303D-05 0.100000000000D+01
  </mgrwgt>
  </event>
</LesHouchesEvents>
