<LesHouchesEvents version="3.0">
  <!--
  <scalesfunctionalform>
    muR  H_T/2 := sum_i mT(i)/2, i=final state
    muF1 H_T/2 := sum_i mT(i)/2, i=final state
    muF2 H_T/2 := sum_i mT(i)/2, i=final state
    QES  H_T/2 := sum_i mT(i)/2, i=final state
  </scalesfunctionalform>
PYTHIA8   
  -->
  <header>
        3
  </header>
  <init>
   2212   2212 0.65000000D+04 0.65000000D+04 -1 -1  82200  82200 -4   1
 0.17017167D-05 0.40665943D-07 0.86115261D-06     66
  </init>
  <event>
  6     66 -.86115261E-06 0.16976448E+02 0.78161638E-02 0.13200666E+00
       22 -1    0    0    0    0 0.00000000E+00 0.00000000E+00 0.57184269E+03 0.57184269E+03 0.00000000E+00 0.0000E+00 0.9000E+01
       -2 -1    0    0    0  501 0.00000000E+00 0.00000000E+00 -.56927206E+01 0.56927206E+01 0.00000000E+00 0.0000E+00 0.9000E+01
      -24  2    1    2    0    0 0.42917042E+01 0.16425013E+02 0.35904347E+03 0.36973430E+03 0.86620084E+02 0.0000E+00 0.0000E+00
  9900012  1    3    3    0    0 0.20232447E+02 0.19469755E+02 0.33960147E+03 0.34440903E+03 0.50000000E+02 0.0000E+00 0.9000E+01
       13  1    3    3    0    0 -.15940743E+02 -.30447421E+01 0.19441998E+02 0.25325265E+02 0.00000000E+00 0.0000E+00 0.9000E+01
       -1  1    1    2    0  501 -.42917042E+01 -.16425013E+02 0.20710650E+03 0.20780111E+03 0.00000000E+00 0.0000E+00 0.9000E+01
#aMCatNLO 1  0  0  5  2 0.44067164D+01 0.00000000D+00  -5  6  0 0.00000000D+00 0.00000000D+00 0.00000000D+00 0.00000000D+00 0.00000000D+00
  <mgrwgt>
 -.1591408561D-06    7    2    0
 0.570555926155405D+02 0.000000000000000D+00 0.000000000000000D+00 0.570555926155405D+02
 0.570555926155405D+02 -.000000000000000D+00 -.000000000000000D+00 -.570555926155405D+02
 0.582155918261369D+02 0.202324474091531D+02 0.194697550427960D+02 0.100315423578209D+02
 0.317160019184333D+02 -.159407432543552D+02 -.304474210378485D+01 -.272493491245247D+02
 0.241795914865108D+02 -.429170415479796D+01 -.164250129390111D+02 0.172178067667038D+02
 0.000000000000000D+00 0.000000000000000D+00 0.000000000000000D+00 0.000000000000000D+00
 0.570555926155405D+02 0.000000000000000D+00 0.000000000000000D+00 0.570555926155405D+02
 0.570555926155405D+02 -.000000000000000D+00 -.000000000000000D+00 -.570555926155405D+02
 0.580786639349810D+02 0.200795508985887D+02 0.188845965431021D+02 0.106449449781435D+02
 0.315045695932845D+02 -.160238617602244D+02 -.336284943018258D+01 -.269158875621304D+02
 0.141230927260873D+02 -.362856985827744D+01 -.120093659102986D+02 0.648616676981234D+01
 0.104048589767282D+02 -.427119280086835D+00 -.351238120262094D+01 0.978477581417456D+01
0.198417011022D-08 0.000000000000D+00 0.000000000000D+00 0.424386751002D-09 0.000000000000D+00  6 22 -2 9900012 13 -1 21 0 0.87975798D-01 0.87580317D-03 0.20498320D+04 0.20498320D+04 0.20498320D+04 0.12879614D+01  1  2  2  2  6  5       -1 0.456616916903D-06 0.100000000000D+01
-.671234359838D-10 0.000000000000D+00 -.380986783361D-11 0.424386751002D-09 0.000000000000D+00  6 22 -2 9900012 13 -1 21 2 0.87975798D-01 0.87580317D-03 0.20498320D+04 0.20498320D+04 0.20498320D+04 0.12879614D+01  1  2  3  2  6  5       -1 -.256243575552D-07 0.100000000000D+01
-.122521103351D-09 0.000000000000D+00 0.000000000000D+00 0.424386751002D-09 0.000000000000D+00  6 22 -2 9900012 13 -1 21 2 0.87975798D-01 0.87580317D-03 0.20498320D+04 0.20498320D+04 0.20498320D+04 0.12879614D+01  1  2 15  2  6  5       -1 -.467724054097D-07 0.100000000000D+01
0.510368604573D-09 0.000000000000D+00 0.000000000000D+00 0.424386751002D-09 0.000000000000D+00  6 22 -2 9900012 13 -1 21 2 0.87975798D-01 0.87580317D-03 0.20048705D+04 0.20048705D+04 0.20048705D+04 0.12891772D+01  1  2 12  2  6  5       -1 0.194579060040D-06 0.100000000000D+01
-.352328279145D-08 0.000000000000D+00 0.000000000000D+00 0.424386751002D-09 0.000000000000D+00  6 22 -2 9900012 13 -1 21 2 0.87975798D-01 0.87580317D-03 0.20498320D+04 0.20498320D+04 0.20498320D+04 0.12879614D+01  1  2  4  2  6  5       -1 -.134501246387D-05 0.100000000000D+01
-.257566285394D-08 0.000000000000D+00 0.000000000000D+00 0.424386751002D-09 0.000000000000D+00  6 22 -2 9900012 13 -1 21 2 0.87975798D-01 0.87580317D-03 0.20498320D+04 0.20498320D+04 0.20498320D+04 0.12879614D+01  1  2  5  2  6  5       -1 -.983258752234D-06 0.100000000000D+01
0.416589920918D-08 0.000000000000D+00 -.000000000000D+00 0.424386751002D-09 0.000000000000D+00  6 22 -2 9900012 13 -1 21 2 0.87975798D-01 0.87580317D-03 0.20498320D+04 0.20498320D+04 0.20498320D+04 0.12879614D+01  1  2  6  2  6  5       -1 0.159033114605D-05 0.100000000000D+01
  </mgrwgt>
  </event>
  <event>
  6     66 0.86115261E-06 0.52201126E+02 0.78161638E-02 0.11969609E+00
       22 -1    0    0    0    0 0.00000000E+00 0.00000000E+00 0.82104911E+02 0.82104911E+02 0.00000000E+00 0.0000E+00 0.9000E+01
       -2 -1    0    0    0  501 -.00000000E+00 -.00000000E+00 -.10605183E+03 0.10605183E+03 0.00000000E+00 0.0000E+00 0.9000E+01
      -24  2    1    2    0    0 -.52264685E+02 -.34986294E+02 -.57186157E+02 0.11701966E+03 0.80422049E+02 0.0000E+00 0.0000E+00
  9900012  1    3    3    0    0 -.44795196E+02 -.50990894E+02 -.49483987E+02 0.97751450E+02 0.50000000E+02 0.0000E+00 0.9000E+01
       13  1    3    3    0    0 -.74694887E+01 0.16004600E+02 -.77021699E+01 0.19268209E+02 0.00000000E+00 0.0000E+00 0.9000E+01
       -1  1    1    2    0  501 0.52264685E+02 0.34986294E+02 0.33239235E+02 0.71137085E+02 0.00000000E+00 0.0000E+00 0.9000E+01
#aMCatNLO 1  0  0  5  2 0.65514458D+01 0.00000000D+00  -5  6  0 0.00000000D+00 0.00000000D+00 0.00000000D+00 0.00000000D+00 0.00000000D+00
  <mgrwgt>
 0.1534513739D-05    8    2    0
 0.933133233512975D+02 0.000000000000000D+00 0.000000000000000D+00 0.933133233512975D+02
 0.933133233512975D+02 -.000000000000000D+00 -.000000000000000D+00 -.933133233512975D+02
 0.922033675787165D+02 -.447951962589844D+02 -.509908942606321D+02 -.373467547114340D+02
 0.184378831051450D+02 -.746948869619031D+01 0.160045997666436D+02 -.529292530894114D+01
 0.759853960187334D+02 0.522646849551747D+02 0.349862944939886D+02 0.426396800203752D+02
 0.000000000000000D+00 0.000000000000000D+00 0.000000000000000D+00 0.000000000000000D+00
 0.933133233512975D+02 0.000000000000000D+00 0.000000000000000D+00 0.933133233512975D+02
 0.933133233512975D+02 -.000000000000000D+00 -.000000000000000D+00 -.933133233512975D+02
 0.907308650418895D+02 -.435490403402846D+02 -.501567099927187D+02 -.363300894493277D+02
 0.184268653237110D+02 -.721836443263448D+01 0.161727038592423D+02 -.508804780412969D+01
 0.709084596237871D+02 0.456158719201009D+02 0.374511818288162D+02 0.393015375629521D+02
 0.656045671320733D+01 0.515153285281812D+01 -.346717569533988D+01 0.211659969050531D+01
0.164565233103D-07 0.000000000000D+00 0.000000000000D+00 0.959572938704D-07 0.000000000000D+00  6 22 -2 9900012 13 -1 21 0 0.12631525D-01 0.16315667D-01 0.67944438D+04 0.67944438D+04 0.67944438D+04 0.12271318D+01  1  2  2  2  6  5       -1 0.138776439309D-05 0.100000000000D+01
-.101654338123D-08 0.000000000000D+00 -.315986913069D-10 0.959572938704D-07 0.000000000000D+00  6 22 -2 9900012 13 -1 21 2 0.12631525D-01 0.16315667D-01 0.67944438D+04 0.67944438D+04 0.67944438D+04 0.12271318D+01  1  2  3  2  6  5       -1 -.129088044537D-06 0.100000000000D+01
-.790158348395D-09 0.000000000000D+00 0.000000000000D+00 0.959572938704D-07 0.000000000000D+00  6 22 -2 9900012 13 -1 21 2 0.12631525D-01 0.16315667D-01 0.67944438D+04 0.67944438D+04 0.67944438D+04 0.12271318D+01  1  2 15  2  6  5       -1 -.100340032657D-06 0.100000000000D+01
0.526465104824D-07 0.000000000000D+00 0.000000000000D+00 0.959572938704D-07 0.000000000000D+00  6 22 -2 9900012 13 -1 21 2 0.12631525D-01 0.16315667D-01 0.68956559D+04 0.68956559D+04 0.68956559D+04 0.12264361D+01  1  2 12  2  6  5       -1 0.668702230046D-05 0.100000000000D+01
-.622478360857D-07 0.000000000000D+00 0.000000000000D+00 0.959572938704D-07 0.000000000000D+00  6 22 -2 9900012 13 -1 21 2 0.12631525D-01 0.16315667D-01 0.67944438D+04 0.67944438D+04 0.67944438D+04 0.12271318D+01  1  2  4  2  6  5       -1 -.790468128108D-05 0.100000000000D+01
-.670356026353D-07 0.000000000000D+00 0.000000000000D+00 0.959572938704D-07 0.000000000000D+00  6 22 -2 9900012 13 -1 21 2 0.12631525D-01 0.16315667D-01 0.67944438D+04 0.67944438D+04 0.67944438D+04 0.12271318D+01  1  2  5  2  6  5       -1 -.851266657025D-05 0.100000000000D+01
0.730721858368D-07 0.000000000000D+00 -.000000000000D+00 0.959572938704D-07 0.000000000000D+00  6 22 -2 9900012 13 -1 21 2 0.12631525D-01 0.16315667D-01 0.67944438D+04 0.67944438D+04 0.67944438D+04 0.12271318D+01  1  2  6  2  6  5       -1 0.927923564695D-05 0.100000000000D+01
0.651302418798D-08 0.000000000000D+00 0.000000000000D+00 0.959572938704D-07 0.176730391633D-07  6 22 -2 9900012 13 -1 21 2 0.12631525D-01 0.16315667D-01 0.68956559D+04 0.68956559D+04 0.68956559D+04 0.12264361D+01  1  2 11  2  6  5       -1 0.827267326730D-06 0.100000000000D+01
  </mgrwgt>
  </event>
  <event>
  6     66 -.86115261E-06 0.21912640E+02 0.78161638E-02 0.12893525E+00
       22 -1    0    0    0    0 0.00000000E+00 0.00000000E+00 0.72639877E+01 0.72639877E+01 0.00000000E+00 0.0000E+00 0.9000E+01
       -2 -1    0    0    0  501 -.00000000E+00 -.00000000E+00 -.38749366E+03 0.38749366E+03 0.00000000E+00 0.0000E+00 0.9000E+01
      -24  2    1    2    0    0 -.21165890E+01 0.23577268E+02 -.31961329E+03 0.32968297E+03 0.77316492E+02 0.0000E+00 0.0000E+00
  9900012  1    3    3    0    0 -.23269674E+02 0.12165386E+02 -.20963643E+03 0.21711036E+03 0.50000000E+02 0.0000E+00 0.9000E+01
       13  1    3    3    0    0 0.21153085E+02 0.11411881E+02 -.10997686E+03 0.11257262E+03 0.00000000E+00 0.0000E+00 0.9000E+01
       -1  1    1    2    0  501 0.21165890E+01 -.23577268E+02 -.60616382E+02 0.65074674E+02 0.00000000E+00 0.0000E+00 0.9000E+01
#aMCatNLO 1  0  0  5  2 0.52002331D+01 0.00000000D+00  -5  6  0 0.00000000D+00 0.00000000D+00 0.00000000D+00 0.00000000D+00 0.00000000D+00
  <mgrwgt>
 -.6121516119D-05    7    2    0
 0.530542095677648D+02 0.000000000000000D+00 0.000000000000000D+00 0.530542095677648D+02
 0.530542095677648D+02 -.000000000000000D+00 -.000000000000000D+00 -.530542095677648D+02
 0.565080772279908D+02 -.232696744249250D+02 0.121653862383961D+02 -.192052644689103D+01
 0.247146788355116D+02 0.211530854585406D+02 0.114118814156505D+02 -.575597846428357D+01
 0.248856630720272D+02 0.211658896638439D+01 -.235772676540466D+02 0.767650491117460D+01
 0.000000000000000D+00 0.000000000000000D+00 -.000000000000000D+00 0.000000000000000D+00
 0.530542095677648D+02 0.000000000000000D+00 0.000000000000000D+00 0.530542095677648D+02
 0.530542095677648D+02 -.000000000000000D+00 -.000000000000000D+00 -.530542095677648D+02
 0.561740952507091D+02 -.231501947180820D+02 0.108344688651109D+02 -.148719405645867D+01
 0.244533309974271D+02 0.212052195208476D+02 0.108311457317614D+02 -.556689716805868D+01
 0.175720510873624D+02 0.154211400956859D+01 -.143477640983774D+02 0.100269900356827D+02
 0.790894180003108D+01 0.402861187665765D+00 -.731785049849498D+01 -.297289881116532D+01
0.695640909504D-08 0.000000000000D+00 0.000000000000D+00 0.563516953523D-08 0.000000000000D+00  6 22 -2 9900012 13 -1 21 0 0.11175366D-02 0.59614409D-01 0.27135021D+04 0.27135021D+04 0.27135021D+04 0.12728897D+01  1  2  2  2  6  5       -1 0.157635808448D-05 0.100000000000D+01
-.139568396393D-09 0.000000000000D+00 -.133572212948D-10 0.563516953523D-08 0.000000000000D+00  6 22 -2 9900012 13 -1 21 2 0.11175366D-02 0.59614409D-01 0.27135021D+04 0.27135021D+04 0.27135021D+04 0.12728897D+01  1  2  3  2  6  5       -1 -.512434506897D-07 0.100000000000D+01
-.501008793840D-09 0.000000000000D+00 0.000000000000D+00 0.563516953523D-08 0.000000000000D+00  6 22 -2 9900012 13 -1 21 2 0.11175366D-02 0.59614409D-01 0.27135021D+04 0.27135021D+04 0.27135021D+04 0.12728897D+01  1  2 15  2  6  5       -1 -.183948659479D-06 0.100000000000D+01
0.401964053822D-08 0.000000000000D+00 0.000000000000D+00 0.563516953523D-08 0.000000000000D+00  6 22 -2 9900012 13 -1 21 2 0.11175366D-02 0.59614409D-01 0.25869926D+04 0.25869926D+04 0.25869926D+04 0.12754173D+01  1  2 12  2  6  5       -1 0.147415866414D-05 0.100000000000D+01
-.275008154622D-07 0.000000000000D+00 0.000000000000D+00 0.563516953523D-08 0.000000000000D+00  6 22 -2 9900012 13 -1 21 2 0.11175366D-02 0.59614409D-01 0.27135021D+04 0.27135021D+04 0.27135021D+04 0.12728897D+01  1  2  4  2  6  5       -1 -.100971044841D-04 0.100000000000D+01
-.805050318107D-08 0.000000000000D+00 0.000000000000D+00 0.563516953523D-08 0.000000000000D+00  6 22 -2 9900012 13 -1 21 2 0.11175366D-02 0.59614409D-01 0.27135021D+04 0.27135021D+04 0.27135021D+04 0.12728897D+01  1  2  5  2  6  5       -1 -.295579496109D-05 0.100000000000D+01
0.112106367318D-07 0.000000000000D+00 -.000000000000D+00 0.563516953523D-08 0.000000000000D+00  6 22 -2 9900012 13 -1 21 2 0.11175366D-02 0.59614409D-01 0.27135021D+04 0.27135021D+04 0.27135021D+04 0.12728897D+01  1  2  6  2  6  5       -1 0.411605868814D-05 0.100000000000D+01
  </mgrwgt>
  </event>
</LesHouchesEvents>
