<LesHouchesEvents version="3.0">
  <!--
  <scalesfunctionalform>
    muR  H_T/2 := sum_i mT(i)/2, i=final state
    muF1 H_T/2 := sum_i mT(i)/2, i=final state
    muF2 H_T/2 := sum_i mT(i)/2, i=final state
    QES  H_T/2 := sum_i mT(i)/2, i=final state
  </scalesfunctionalform>
PYTHIA8   
  -->
  <header>
      132
  </header>
  <init>
   2212   2212 0.65000000D+04 0.65000000D+04 -1 -1  82200  82200 -4   1
 0.52302930D-04 0.18288772D-06 0.80203028D-06     66
  </init>
  <event>
  6     66 0.80203028E-06 0.40195283E+02 0.78161638E-02 0.11403832E+00
        2 -1    0    0  501    0 0.00000000E+00 0.00000000E+00 0.11375227E+04 0.11375227E+04 0.00000000E+00 0.0000E+00 0.9000E+01
       22 -1    0    0    0    0 0.00000000E+00 0.00000000E+00 -.20965847E+02 0.20965847E+02 0.00000000E+00 0.0000E+00 0.9000E+01
       24  2    1    2    0    0 0.98016637E+02 0.11246717E+02 0.20091846E+03 0.23755021E+03 0.79549519E+02 0.0000E+00 0.0000E+00
  9900012  1    3    3    0    0 0.63267063E+02 -.63362943E+01 0.16838053E+03 0.18680170E+03 0.50000000E+02 0.0000E+00 0.9000E+01
      -13  1    3    3    0    0 0.34749574E+02 0.17583011E+02 0.32537928E+02 0.50748516E+02 0.00000000E+00 0.0000E+00 0.9000E+01
        1  1    1    2  501    0 -.98016637E+02 -.11246717E+02 0.91563842E+03 0.92093836E+03 0.00000000E+00 0.0000E+00 0.9000E+01
#aMCatNLO 1  0  0  5  1 0.36922043D+02 0.00000000D+00  -5  6  0 0.00000000D+00 0.00000000D+00 0.00000000D+00 0.00000000D+00 0.00000000D+00
  <mgrwgt>
 0.1259371662D-03    7    2    0
 0.154431626411868D+03 0.000000000000000D+00 0.000000000000000D+00 0.154431626411868D+03
 0.154431626411868D+03 -.000000000000000D+00 -.000000000000000D+00 -.154431626411868D+03
 0.919539247550600D+02 0.632670631206156D+02 -.633629430809677D+01 -.437339041979156D+02
 0.727219211298738D+02 0.347495739445294D+02 0.175830108338902D+02 -.614148406617535D+02
 0.144187406938802D+03 -.980166370651450D+02 -.112467165257934D+02 0.105148744859669D+03
 0.000000000000000D+00 0.000000000000000D+00 0.000000000000000D+00 0.000000000000000D+00
 0.154431626411868D+03 0.000000000000000D+00 0.000000000000000D+00 0.154431626411868D+03
 0.154431626411868D+03 -.000000000000000D+00 -.000000000000000D+00 -.154431626411868D+03
 0.870289325026877D+02 0.590659174213338D+02 -.681834609214211D+01 -.392270652522122D+02
 0.680708759439644D+02 0.314448381559795D+02 0.172038157531432D+02 -.578696382281309D+02
 0.983774311208125D+02 -.736616759818914D+02 -.386309228464589D+02 0.525331157033351D+02
 0.553860132562712D+02 -.168490795954219D+02 0.282454531854578D+02 0.445635877770080D+02
0.115972843873D-05 0.000000000000D+00 0.000000000000D+00 0.177791381611D-05 0.000000000000D+00  6 2 22 9900012 -13 1 21 0 0.17500350D+00 0.32255149D-02 0.11934748D+05 0.11934748D+05 0.11934748D+05 0.12014495D+01  1  2  2  2  6  5        1 0.803958065452D-04 0.100000000000D+01
-.638353050940D-08 0.000000000000D+00 -.222683128412D-08 0.177791381611D-05 0.000000000000D+00  6 2 22 9900012 -13 1 21 2 0.17500350D+00 0.32255149D-02 0.11934748D+05 0.11934748D+05 0.11934748D+05 0.12014495D+01  1  2  3  2  6  5        1 -.638776671657D-06 0.100000000000D+01
-.156640410401D-06 0.000000000000D+00 0.000000000000D+00 0.177791381611D-05 0.000000000000D+00  6 2 22 9900012 -13 1 21 2 0.17500350D+00 0.32255149D-02 0.11934748D+05 0.11934748D+05 0.11934748D+05 0.12014495D+01  1  2 15  2  6  5        1 -.156744359341D-04 0.100000000000D+01
0.595258699533D-06 0.000000000000D+00 0.000000000000D+00 0.177791381611D-05 0.000000000000D+00  6 2 22 9900012 -13 1 21 2 0.17500350D+00 0.32255149D-02 0.13178631D+05 0.13178631D+05 0.13178631D+05 0.11970998D+01  1  2 12  2  6  5        1 0.594697333599D-04 0.100000000000D+01
-.243387405818D-06 0.000000000000D+00 0.000000000000D+00 0.177791381611D-05 0.000000000000D+00  6 2 22 9900012 -13 1 21 2 0.17500350D+00 0.32255149D-02 0.11934748D+05 0.11934748D+05 0.11934748D+05 0.12014495D+01  1  2  4  2  6  5        1 -.243548921373D-04 0.100000000000D+01
-.593810318297D-06 0.000000000000D+00 0.000000000000D+00 0.177791381611D-05 0.000000000000D+00  6 2 22 9900012 -13 1 21 2 0.17500350D+00 0.32255149D-02 0.11934748D+05 0.11934748D+05 0.11934748D+05 0.12014495D+01  1  2  5  2  6  5        1 -.594204379785D-04 0.100000000000D+01
0.861030297347D-06 0.000000000000D+00 -.000000000000D+00 0.177791381611D-05 0.000000000000D+00  6 2 22 9900012 -13 1 21 2 0.17500350D+00 0.32255149D-02 0.11934748D+05 0.11934748D+05 0.11934748D+05 0.12014495D+01  1  2  6  2  6  5        1 0.861601690045D-04 0.100000000000D+01
  </mgrwgt>
  </event>
  <event>
  6     66 0.80203028E-06 0.75870920E+02 0.78161638E-02 0.11790111E+00
        2 -1    0    0  501    0 0.00000000E+00 0.00000000E+00 0.92819612E+03 0.92819612E+03 0.00000000E+00 0.0000E+00 0.9000E+01
       22 -1    0    0    0    0 0.00000000E+00 0.00000000E+00 -.12908100E+02 0.12908100E+02 0.00000000E+00 0.0000E+00 0.9000E+01
       24  2    1    2    0    0 0.23795647E+02 0.72042791E+02 0.27888198E+03 0.30019156E+03 0.81138244E+02 0.0000E+00 0.0000E+00
  9900012  1    3    3    0    0 -.50541123E+01 0.52627151E+02 0.22094555E+03 0.23262007E+03 0.50000000E+02 0.0000E+00 0.9000E+01
      -13  1    3    3    0    0 0.28849759E+02 0.19415640E+02 0.57936432E+02 0.67571486E+02 0.00000000E+00 0.0000E+00 0.9000E+01
        1  1    1    2  501    0 -.23795647E+02 -.72042791E+02 0.63640604E+03 0.64091267E+03 0.00000000E+00 0.0000E+00 0.9000E+01
#aMCatNLO 1  0  0  1  5 0.18914282D+02 0.00000000D+00  -5  6  0 0.00000000D+00 0.00000000D+00 0.00000000D+00 0.00000000D+00 0.00000000D+00
  <mgrwgt>
 0.8779076347D-05    1    2    0
 0.109458889223414D+03 0.000000000000000D+00 0.000000000000000D+00 0.109458889223414D+03
 0.109458889223414D+03 0.000000000000000D+00 0.000000000000000D+00 -.109458889223414D+03
 0.762428482141563D+02 -.505411229704488D+01 0.526271511504804D+02 -.227554568066700D+02
 0.482523131360218D+02 0.288497589697469D+02 0.194156395973305D+02 -.334516078745219D+02
 0.944226170966503D+02 -.237956466727021D+02 -.720427907478109D+02 0.562070646811920D+02
 0.000000000000000D+00 0.000000000000000D+00 0.000000000000000D+00 0.000000000000000D+00
 0.180164669207723D+03 0.000000000000000D+00 0.000000000000000D+00 0.180164669207723D+03
 0.167084193698958D+03 0.000000000000000D+00 0.000000000000000D+00 -.167084193698958D+03
 0.712930545791579D+02 -.316404988099097D+02 0.326154511206984D+02 -.227554568066700D+02
 0.369204775672099D+02 0.135013814484615D+02 0.786284257652485D+01 -.334516078745219D+02
 0.134171232286656D+03 -.649889041720799D+02 -.103049152290333D+03 0.562070646811920D+02
 0.104864098473658D+03 0.831280215335281D+02 0.625708585931096D+02 0.130804755087652D+02
0.345166555564D-07 0.000000000000D+00 0.000000000000D+00 0.305569109496D-06 0.000000000000D+00  6 2 22 9900012 -13 1 21 2 0.14279940D+00 0.19858615D-02 0.84101205D+04 0.84101205D+04 0.84101205D+04 0.12172054D+01  1  2 14  1  6  1        2 0.877907634666D-05 0.100000000000D+01
  </mgrwgt>
  </event>
  <event>
  6     66 0.80203028E-06 0.26289573E+02 0.78161638E-02 0.12576592E+00
        4 -1    0    0  501    0 0.00000000E+00 0.00000000E+00 0.14140209E+03 0.14140209E+03 0.00000000E+00 0.0000E+00 0.9000E+01
       22 -1    0    0    0    0 0.00000000E+00 0.00000000E+00 -.36916840E+03 0.36916840E+03 0.00000000E+00 0.0000E+00 0.9000E+01
       24  2    1    2    0    0 0.31046786E+02 0.37234074E+01 -.36284169E+03 0.37192301E+03 0.75464346E+02 0.0000E+00 0.0000E+00
  9900012  1    3    3    0    0 0.67940112E+01 -.13129180E+02 -.23486698E+03 0.24058477E+03 0.50000000E+02 0.0000E+00 0.9000E+01
      -13  1    3    3    0    0 0.24252775E+02 0.16852587E+02 -.12797471E+03 0.13133824E+03 0.00000000E+00 0.0000E+00 0.9000E+01
        3  1    1    2  501    0 -.31046786E+02 -.37234074E+01 0.13507537E+03 0.13864748E+03 0.00000000E+00 0.0000E+00 0.9000E+01
#aMCatNLO 1  0  0  1  5 0.10387643D+02 0.00000000D+00  -5  6  0 0.00000000D+00 0.00000000D+00 0.00000000D+00 0.00000000D+00 0.00000000D+00
  <mgrwgt>
 0.1261520225D-03    9    2    0
 0.228475779249477D+03 0.000000000000000D+00 0.000000000000000D+00 0.228475779249477D+03
 0.228475779249477D+03 0.000000000000000D+00 0.000000000000000D+00 -.228475779249477D+03
 0.151746274758800D+03 0.679401118907773D+01 -.131291798971260D+02 -.142507536468655D+03
 0.829608734203383D+02 0.242527751174576D+02 0.168525873335552D+02 -.775261228098782D+02
 0.222244410319816D+03 -.310467863065353D+02 -.372340743642919D+01 0.220033659278533D+03
 0.000000000000000D+00 -.000000000000000D+00 0.000000000000000D+00 0.000000000000000D+00
 0.242716617322016D+03 0.000000000000000D+00 0.000000000000000D+00 0.242716617322016D+03
 0.230217448102525D+03 0.000000000000000D+00 0.000000000000000D+00 -.230217448102525D+03
 0.152079506688407D+03 0.917295303069884D+01 -.153504181350505D+02 -.142507536468655D+03
 0.831133128972383D+02 0.255531283289664D+02 0.156384364763644D+02 -.775261228098782D+02
 0.221863628055055D+03 -.275694408697596D+02 -.697023445653618D+01 0.220033659278533D+03
 0.158776177838415D+02 -.715664048990567D+01 0.668221611522233D+01 0.124991692194908D+02
0.410792640556D-05 0.000000000000D+00 0.000000000000D+00 0.381356124578D-05 0.000000000000D+00  6 4 22 9900012 -13 3 21 0 0.21754167D-01 0.56795138D-01 0.31889722D+04 0.31889722D+04 0.31889722D+04 0.12644522D+01  1  2  2  1  6  1        4 0.116276543092D-04 0.100000000000D+01
0.324817462571D-06 0.000000000000D+00 -.788775951960D-08 0.381356124578D-05 0.000000000000D+00  6 4 22 9900012 -13 3 21 2 0.21754167D-01 0.56795138D-01 0.31889722D+04 0.31889722D+04 0.31889722D+04 0.12644522D+01  1  2  3  1  6  1        4 0.146998762871D-05 0.100000000000D+01
-.587475158662D-06 0.000000000000D+00 0.000000000000D+00 0.381356124578D-05 0.000000000000D+00  6 4 22 9900012 -13 3 21 2 0.21754167D-01 0.56795138D-01 0.31889722D+04 0.31889722D+04 0.31889722D+04 0.12644522D+01  1  2 15  1  6  1        4 -.265866622002D-05 0.100000000000D+01
0.263698188654D-04 0.000000000000D+00 0.000000000000D+00 0.381356124578D-05 0.000000000000D+00  6 4 22 9900012 -13 3 21 2 0.23286267D-01 0.56795138D-01 0.36777244D+04 0.36777244D+04 0.36777244D+04 0.12571480D+01  1  2 12  1  6  1        4 0.105999855130D-03 0.100000000000D+01
-.598703250774D-06 0.000000000000D+00 0.000000000000D+00 0.381356124578D-05 0.000000000000D+00  6 4 22 9900012 -13 3 21 2 0.21754167D-01 0.56795138D-01 0.31889722D+04 0.31889722D+04 0.31889722D+04 0.12644522D+01  1  2  4  1  6  1        4 -.270947985660D-05 0.100000000000D+01
-.478530574363D-04 0.000000000000D+00 -.747127231096D-05 0.381356124578D-05 0.000000000000D+00  6 4 22 9900012 -13 3 21 2 0.23256530D-01 0.56795138D-01 0.31889722D+04 0.31889722D+04 0.31889722D+04 0.12644522D+01  1  2  5  1  6  1        4 -.192167860085D-03 0.100000000000D+01
0.482609687425D-04 0.000000000000D+00 0.745464358590D-05 0.381356124578D-05 0.000000000000D+00  6 4 22 9900012 -13 3 21 2 0.21754167D-01 0.56795138D-01 0.31889722D+04 0.31889722D+04 0.31889722D+04 0.12644522D+01  1  2  6  1  6  1        4 0.218408907082D-03 0.100000000000D+01
0.387065227291D-06 0.000000000000D+00 0.000000000000D+00 0.381356124578D-05 0.000000000000D+00  6 21 22 9900012 -13 3 -4 2 0.23286267D-01 0.56795138D-01 0.36777244D+04 0.36777244D+04 0.36777244D+04 0.12571480D+01  1  2 12  3  6  1        4 0.360467173837D-04 0.100000000000D+01
-.532069922318D-06 0.000000000000D+00 -.848636918911D-07 0.381356124578D-05 0.000000000000D+00  6 21 22 9900012 -13 3 -4 2 0.23256530D-01 0.56795138D-01 0.31889722D+04 0.31889722D+04 0.31889722D+04 0.12644522D+01  1  2  5  3  6  1        4 -.498650929210D-04 0.100000000000D+01
  </mgrwgt>
  </event>
  <event>
  6     66 0.80203028E-06 0.81471125E+02 0.78161638E-02 0.98590933E-01
        2 -1    0    0  501    0 0.00000000E+00 0.00000000E+00 0.13377064E+04 0.13377064E+04 0.00000000E+00 0.0000E+00 0.9000E+01
       22 -1    0    0    0    0 0.00000000E+00 0.00000000E+00 -.20929140E+02 0.20929140E+02 0.00000000E+00 0.0000E+00 0.9000E+01
       24  2    1    2    0    0 0.49305687E+02 -.64857486E+02 0.14687420E+03 0.18589912E+03 0.79680034E+02 0.0000E+00 0.0000E+00
  9900012  1    3    3    0    0 0.46345695E+02 -.41880581E+02 0.72403427E+02 0.10790812E+03 0.50000000E+02 0.0000E+00 0.9000E+01
      -13  1    3    3    0    0 0.29599923E+01 -.22976905E+02 0.74470774E+02 0.77990999E+02 0.00000000E+00 0.0000E+00 0.9000E+01
        1  1    1    2  501    0 -.49305687E+02 0.64857486E+02 0.11699031E+04 0.11727364E+04 0.00000000E+00 0.0000E+00 0.9000E+01
#aMCatNLO 1  0  0  1  5 0.47145110D+03 0.00000000D+00  -5  6  0 0.00000000D+00 0.00000000D+00 0.00000000D+00 0.00000000D+00 0.00000000D+00
  <mgrwgt>
 0.3281367405D-03    5    2    0
 0.167323175898764D+03 0.000000000000000D+00 0.000000000000000D+00 0.167323175898764D+03
 0.167323175898764D+03 0.000000000000000D+00 0.000000000000000D+00 -.167323175898764D+03
 0.153202397009442D+03 0.463456946539446D+02 -.418805812440710D+02 -.130648643127822D+03
 0.236067748085329D+02 0.295999230816746D+01 -.229769048199443D+02 -.453653031419324D+01
 0.157837179979552D+03 -.493056869621121D+02 0.648574860640153D+02 0.135185173442015D+03
 0.000000000000000D+00 -.000000000000000D+00 0.000000000000000D+00 0.000000000000000D+00
 0.404698356802635D+03 0.000000000000000D+00 0.000000000000000D+00 0.404698356802635D+03
 0.402252638823364D+03 0.000000000000000D+00 0.000000000000000D+00 -.402252638823364D+03
 0.277961622979835D+03 0.156861073676134D+03 -.181901620288587D+03 -.130648643127822D+03
 0.531929782260365D+02 0.226452012354733D+02 -.479177178741738D+02 -.453653031419324D+01
 0.141706893924158D+03 0.274730453220487D+02 -.324198156660034D+02 0.135185173442015D+03
 0.334089500495970D+03 -.206979320233656D+03 0.262239153828764D+03 0.244571797927094D+01
0.760604391360D-05 0.000000000000D+00 0.000000000000D+00 0.515219389954D-05 0.000000000000D+00  6 2 22 9900012 -13 1 21 0 0.20580099D+00 0.32198678D-02 0.85238890D+04 0.85238890D+04 0.85238890D+04 0.12165883D+01  1  2  2  1  6  1        2 0.406126276859D-03 0.100000000000D+01
0.330992755765D-07 0.000000000000D+00 -.146046056728D-07 0.515219389954D-05 0.000000000000D+00  6 2 22 9900012 -13 1 21 2 0.20580099D+00 0.32198678D-02 0.85238890D+04 0.85238890D+04 0.85238890D+04 0.12165883D+01  1  2  3  1  6  1        2 0.261582086097D-05 0.100000000000D+01
-.106797574595D-05 0.000000000000D+00 0.000000000000D+00 0.515219389954D-05 0.000000000000D+00  6 2 22 9900012 -13 1 21 2 0.20580099D+00 0.32198678D-02 0.85238890D+04 0.85238890D+04 0.85238890D+04 0.12165883D+01  1  2 15  1  6  1        2 -.844016428338D-04 0.100000000000D+01
0.317512394413D-05 0.000000000000D+00 -.184799483069D-05 0.515219389954D-05 0.000000000000D+00  6 2 22 9900012 -13 1 21 2 0.65737682D+00 0.32198678D-02 0.85238890D+04 0.85238890D+04 0.85238890D+04 0.12165883D+01  1  2  5  1  6  1        2 0.375633928531D-05 0.100000000000D+01
0.504806664798D-06 0.000000000000D+00 -.247077715655D-06 0.515219389954D-05 0.000000000000D+00  6 21 22 9900012 -13 1 -2 2 0.65737682D+00 0.32198678D-02 0.85238890D+04 0.85238890D+04 0.85238890D+04 0.12165883D+01  1  2  5  3  6  1        2 0.399463380417D-07 0.100000000000D+01
  </mgrwgt>
  </event>
  <event>
  7     66 -.80203028E-06 0.80783840E+02 0.78161638E-02 0.11699451E+00
        2 -1    0    0  502    0 0.00000000E+00 0.00000000E+00 0.32824566E+04 0.32824566E+04 0.00000000E+00 0.0000E+00 0.9000E+01
       22 -1    0    0    0    0 0.00000000E+00 0.00000000E+00 -.23466651E+02 0.23466651E+02 0.00000000E+00 0.0000E+00 0.9000E+01
       24  2    1    2    0    0 0.12484833E+02 -.76251064E+02 0.11140236E+03 0.15697553E+03 0.79124801E+02 0.0000E+00 0.0000E+00
  9900012  1    3    3    0    0 0.21527781E+02 -.51655116E+02 0.10654914E+03 0.13032427E+03 0.50000000E+02 0.0000E+00 0.9000E+01
      -13  1    3    3    0    0 -.90429482E+01 -.24595949E+02 0.48532188E+01 0.26651254E+02 0.00000000E+00 0.0000E+00 0.9000E+01
        1  1    1    2  501    0 -.12060024E+02 0.83598041E+02 0.29832347E+04 0.29844301E+04 0.00000000E+00 0.0000E+00 0.9000E+01
       21  1    1    2  502  501 -.42480858E+00 -.73469768E+01 0.16435288E+03 0.16451756E+03 0.00000000E+00 0.0000E+00 0.9000E+01
#aMCatNLO 2  0  0  1  5 0.76126184D+01 0.00000000D+00  -5  6  0 0.00000000D+00 0.00000000D+00 0.00000000D+00 0.00000000D+00 0.00000000D+00
  <mgrwgt>
 -.1018537704D-03    3    2    0
 0.269998592488112D+03 0.000000000000000D+00 0.000000000000000D+00 0.269998592488112D+03
 0.269998592488112D+03 0.000000000000000D+00 0.000000000000000D+00 -.269998592488112D+03
 0.148224568272184D+03 0.214114553193949D+02 -.536669448873131D+02 -.127011539818408D+03
 0.127571030414309D+03 -.914316294157335D+01 -.263291414039784D+02 -.124489142841140D+03
 0.264201586289730D+03 -.122682923778215D+02 0.799960862912915D+02 0.251500682659547D+03
 0.000000000000000D+00 -.000000000000000D+00 -.000000000000000D+00 0.000000000000000D+00
 0.284263913786732D+03 0.000000000000000D+00 0.000000000000000D+00 0.284263913786732D+03
 0.270974465111688D+03 0.000000000000000D+00 0.000000000000000D+00 -.270974465111688D+03
 0.147525006574919D+03 0.215277810402960D+02 -.516551155391990D+02 -.127011539818408D+03
 0.127217460663089D+03 -.904294824162923D+01 -.245959488400458D+02 -.124489142841140D+03
 0.265304862458216D+03 -.120600242191799D+02 0.835980411348701D+02 0.251500682659547D+03
 0.151910492021956D+02 -.424808579486864D+00 -.734697675562529D+01 0.132894486750439D+02
-.201263142171D-04 0.000000000000D+00 0.000000000000D+00 0.272474739125D-04 0.000000000000D+00  6 2 22 9900012 -13 1 21 2 0.50681855D+00 0.35972522D-02 0.93192940D+04 0.93192940D+04 0.93192940D+04 0.12125165D+01  1  2 13  1  6  1        2 -.112290435705D-03 0.100000000000D+01
-.177694889893D-05 0.000000000000D+00 0.000000000000D+00 0.272474739125D-04 0.000000000000D+00  6 2 22 9900012 -13 1 21 2 0.47965105D+00 0.35972522D-02 0.85760144D+04 0.85760144D+04 0.85760144D+04 0.12163086D+01  1  2  8  1  6  1        2 -.129474408578D-04 0.100000000000D+01
0.413727534682D-05 0.000000000000D+00 0.000000000000D+00 0.272474739125D-04 0.550674544047D-06  6 2 22 9900012 -13 1 21 2 0.50499332D+00 0.36102540D-02 0.93192940D+04 0.93192940D+04 0.93192940D+04 0.12125165D+01  1  2  1  1  6  1        2 0.233841061749D-04 0.100000000000D+01
  </mgrwgt>
  </event>
  <event>
  7     66 -.80203028E-06 0.36319579E+02 0.78161638E-02 0.12460041E+00
        2 -1    0    0  502    0 0.00000000E+00 0.00000000E+00 0.70622106E+03 0.70622106E+03 0.00000000E+00 0.0000E+00 0.9000E+01
       22 -1    0    0    0    0 0.00000000E+00 0.00000000E+00 -.10371658E+03 0.10371658E+03 0.00000000E+00 0.0000E+00 0.9000E+01
       24  2    1    2    0    0 0.37802738E+02 -.66168729E+01 -.82681619E+02 0.12325743E+03 0.82965745E+02 0.0000E+00 0.0000E+00
  9900012  1    3    3    0    0 0.44712721E+01 0.22689643E+01 -.25190124E+02 0.56211056E+02 0.50000000E+02 0.0000E+00 0.9000E+01
      -13  1    3    3    0    0 0.33331466E+02 -.88858372E+01 -.57491495E+02 0.67046378E+02 0.00000000E+00 0.0000E+00 0.9000E+01
        1  1    1    2  501    0 -.38766122E+02 0.17399726E+01 0.64834000E+03 0.64950026E+03 0.00000000E+00 0.0000E+00 0.9000E+01
       21  1    1    2  502  501 0.96338418E+00 0.48769004E+01 0.36846106E+02 0.37179938E+02 0.00000000E+00 0.0000E+00 0.9000E+01
#aMCatNLO 2  0  0  1  5 0.50468905D+01 0.00000000D+00  -5  6  0 0.00000000D+00 0.00000000D+00 0.00000000D+00 0.00000000D+00 0.00000000D+00
  <mgrwgt>
 -.4014922021D-03    5    2    0
 0.263230101250422D+03 0.000000000000000D+00 0.000000000000000D+00 0.263230101250422D+03
 0.263230101250422D+03 0.000000000000000D+00 0.000000000000000D+00 -.263230101250422D+03
 0.109603543289673D+03 0.467180297299953D+01 0.328410374719685D+01 -.973669637054082D+02
 0.160163913282079D+03 0.336245609076069D+02 -.740211515978450D+01 -.156419553486005D+03
 0.256692745929092D+03 -.382963638806064D+02 0.411801141258765D+01 0.253786517191413D+03
 0.000000000000000D+00 0.000000000000000D+00 0.000000000000000D+00 0.000000000000000D+00
 0.277801397916781D+03 0.000000000000000D+00 0.000000000000000D+00 0.277801397916781D+03
 0.263666166627851D+03 0.000000000000000D+00 0.000000000000000D+00 -.263666166627851D+03
 0.109569457851450D+03 0.447127205521252D+01 0.226896427005202D+01 -.973669637054082D+02
 0.160178092902314D+03 0.333314660639381D+02 -.888583721940152D+01 -.156419553486005D+03
 0.256736121437219D+03 -.387661222972693D+02 0.173997256083281D+01 0.253786517191413D+03
 0.149838923536481D+02 0.963384178118754D+00 0.487690038851669D+01 0.141352312889302D+02
-.223382862308D-04 0.000000000000D+00 0.000000000000D+00 0.156569918135D-04 0.000000000000D+00  6 2 22 9900012 -13 1 21 2 0.10882938D+00 0.15930007D-01 0.41295176D+04 0.41295176D+04 0.41295176D+04 0.12513093D+01  1  2 13  1  6  1        2 -.444146636442D-03 0.100000000000D+01
-.140771055964D-05 0.000000000000D+00 0.000000000000D+00 0.156569918135D-04 0.000000000000D+00  6 2 22 9900012 -13 1 21 2 0.10295049D+00 0.15930007D-01 0.37989879D+04 0.37989879D+04 0.37989879D+04 0.12555048D+01  1  2  8  1  6  1        2 -.298314492402D-04 0.100000000000D+01
-.509969166092D-05 0.000000000000D+00 0.000000000000D+00 0.156569918135D-04 0.000000000000D+00  6 2 22 9900012 -13 1 21 2 0.10873346D+00 0.15930007D-01 0.37989879D+04 0.37989879D+04 0.37989879D+04 0.12555048D+01  1  2  9  1  6  1        2 -.101733860051D-03 0.100000000000D+01
0.509208533472D-05 0.000000000000D+00 0.000000000000D+00 0.156569918135D-04 0.000000000000D+00  6 2 22 9900012 -13 1 21 2 0.10295049D+00 0.15930007D-01 0.37989879D+04 0.37989879D+04 0.37989879D+04 0.12555048D+01  1  2 10  1  6  1        2 0.107908748819D-03 0.100000000000D+01
0.333693833605D-05 0.000000000000D+00 0.000000000000D+00 0.156569918135D-04 0.774425637997D-06  6 2 22 9900012 -13 1 21 2 0.10864939D+00 0.15956396D-01 0.41295176D+04 0.41295176D+04 0.41295176D+04 0.12513093D+01  1  2  1  1  6  1        2 0.663109948579D-04 0.100000000000D+01
  </mgrwgt>
  </event>
  <event>
  6     66 0.80203028E-06 0.17341451E+03 0.78161638E-02 0.10257761E+00
        2 -1    0    0  501    0 0.00000000E+00 0.00000000E+00 0.33127713E+04 0.33127713E+04 0.00000000E+00 0.0000E+00 0.9000E+01
       22 -1    0    0    0    0 0.00000000E+00 0.00000000E+00 -.38179350E+02 0.38179350E+02 0.00000000E+00 0.0000E+00 0.9000E+01
       24  2    1    2    0    0 0.23163629E+02 0.24236231E+03 0.46722318E+03 0.53304443E+03 0.81011252E+02 0.0000E+00 0.0000E+00
  9900012  1    3    3    0    0 0.29755109E+02 0.14655436E+03 0.32772719E+03 0.36368758E+03 0.50000000E+02 0.0000E+00 0.9000E+01
      -13  1    3    3    0    0 -.65914794E+01 0.95807949E+02 0.13949599E+03 0.16935684E+03 0.00000000E+00 0.0000E+00 0.9000E+01
        1  1    1    2  501    0 -.23163629E+02 -.24236231E+03 0.28073688E+04 0.28179062E+04 0.00000000E+00 0.0000E+00 0.9000E+01
#aMCatNLO 1  0  0  5  1 0.29294436D+02 0.00000000D+00  -5  6  0 0.00000000D+00 0.00000000D+00 0.00000000D+00 0.00000000D+00 0.00000000D+00
  <mgrwgt>
 0.2458752838D-04    7    2    0
 0.355639499626901D+03 0.000000000000000D+00 0.000000000000000D+00 0.355639499626901D+03
 0.355639499626901D+03 -.000000000000000D+00 -.000000000000000D+00 -.355639499626901D+03
 0.204598088344960D+03 0.297551087478853D+02 0.146554359972105D+03 -.130371894329186D+03
 0.155654807028099D+03 -.659147935733808D+01 0.958079489844332D+02 -.122498196975436D+03
 0.351026103880744D+03 -.231636293905473D+02 -.242362308956538D+03 0.252870091304622D+03
 0.000000000000000D+00 0.000000000000000D+00 -.000000000000000D+00 0.000000000000000D+00
 0.355639499626901D+03 0.000000000000000D+00 0.000000000000000D+00 0.355639499626901D+03
 0.355639499626901D+03 -.000000000000000D+00 -.000000000000000D+00 -.355639499626901D+03
 0.202806510918873D+03 0.296323252341474D+02 0.145269669417373D+03 -.129031505143790D+03
 0.154254956927242D+03 -.668487989780547D+01 0.948306940705422D+02 -.121478572511684D+03
 0.264577345517522D+03 -.310153396358251D+02 -.162388628339223D+03 0.206565132233100D+03
 0.896401858901660D+02 0.806789429948322D+01 -.777117351486923D+02 0.439449454223735D+02
0.243272660790D-05 0.000000000000D+00 0.000000000000D+00 0.164945359474D-05 0.000000000000D+00  6 2 22 9900012 -13 1 21 0 0.50965712D+00 0.58737461D-02 0.61797717D+05 0.61797717D+05 0.61797717D+05 0.11350257D+01  1  2  2  2  6  5        1 0.448323971063D-05 0.100000000000D+01
-.211679378023D-07 0.000000000000D+00 -.467115536298D-08 0.164945359474D-05 0.000000000000D+00  6 2 22 9900012 -13 1 21 2 0.50965712D+00 0.58737461D-02 0.61797717D+05 0.61797717D+05 0.61797717D+05 0.11350257D+01  1  2  3  2  6  5        1 -.502560812541D-07 0.100000000000D+01
-.333642559581D-06 0.000000000000D+00 0.000000000000D+00 0.164945359474D-05 0.000000000000D+00  6 2 22 9900012 -13 1 21 2 0.50965712D+00 0.58737461D-02 0.61797717D+05 0.61797717D+05 0.61797717D+05 0.11350257D+01  1  2 15  2  6  5        1 -.792120977523D-06 0.100000000000D+01
0.121438780942D-04 0.000000000000D+00 0.000000000000D+00 0.164945359474D-05 0.000000000000D+00  6 2 22 9900012 -13 1 21 2 0.50965712D+00 0.58737461D-02 0.61252435D+05 0.61252435D+05 0.61252435D+05 0.11353538D+01  1  2 12  2  6  5        1 0.288506933195D-04 0.100000000000D+01
-.676152152264D-05 0.000000000000D+00 0.000000000000D+00 0.164945359474D-05 0.000000000000D+00  6 2 22 9900012 -13 1 21 2 0.50965712D+00 0.58737461D-02 0.61797717D+05 0.61797717D+05 0.61797717D+05 0.11350257D+01  1  2  4  2  6  5        1 -.160529371456D-04 0.100000000000D+01
-.119758629122D-04 0.000000000000D+00 0.000000000000D+00 0.164945359474D-05 0.000000000000D+00  6 2 22 9900012 -13 1 21 2 0.50965712D+00 0.58737461D-02 0.61797717D+05 0.61797717D+05 0.61797717D+05 0.11350257D+01  1  2  5  2  6  5        1 -.284326203725D-04 0.100000000000D+01
0.154081960007D-04 0.000000000000D+00 -.000000000000D+00 0.164945359474D-05 0.000000000000D+00  6 2 22 9900012 -13 1 21 2 0.50965712D+00 0.58737461D-02 0.61797717D+05 0.61797717D+05 0.61797717D+05 0.11350257D+01  1  2  6  2  6  5        1 0.365815299261D-04 0.100000000000D+01
  </mgrwgt>
  </event>
  <event>
  6     66 0.80203028E-06 0.53381199E+02 0.78161638E-02 0.12164965E+00
        4 -1    0    0  501    0 0.00000000E+00 0.00000000E+00 0.66736907E+02 0.66736907E+02 0.00000000E+00 0.0000E+00 0.9000E+01
       22 -1    0    0    0    0 0.00000000E+00 0.00000000E+00 -.19148274E+04 0.19148274E+04 0.00000000E+00 0.0000E+00 0.9000E+01
       24  2    1    2    0    0 0.50581032E+02 0.17061993E+02 -.19027370E+04 0.19051719E+04 0.80139225E+02 0.0000E+00 0.0000E+00
  9900012  1    3    3    0    0 0.44616086E+02 0.36185960E+02 -.15405775E+04 0.15424587E+04 0.50000000E+02 0.0000E+00 0.9000E+01
      -13  1    3    3    0    0 0.59649455E+01 -.19123968E+02 -.36215954E+03 0.36271316E+03 0.00000000E+00 0.0000E+00 0.9000E+01
        3  1    1    2  501    0 -.50581032E+02 -.17061993E+02 0.54646538E+02 0.76392385E+02 0.00000000E+00 0.0000E+00 0.9000E+01
#aMCatNLO 1  0  0  1  5 0.20286698D+03 0.00000000D+00  -5  6  0 0.00000000D+00 0.00000000D+00 0.00000000D+00 0.00000000D+00 0.00000000D+00
  <mgrwgt>
 0.2529668466D-03    3    2    0
 0.357476793150675D+03 0.000000000000000D+00 0.000000000000000D+00 0.357476793150675D+03
 0.357476793150675D+03 0.000000000000000D+00 0.000000000000000D+00 -.357476793150675D+03
 0.292822654410855D+03 0.446160864689034D+02 0.361859604293552D+02 -.282745624249471D+03
 0.691455459125009D+02 0.596494552244420D+01 -.191239675853123D+02 -.661800559704203D+02
 0.352985385977995D+03 -.505810319913476D+02 -.170619928440430D+02 0.348925680219892D+03
 0.000000000000000D+00 0.000000000000000D+00 -.000000000000000D+00 -.000000000000000D+00
 0.429428159456126D+03 0.000000000000000D+00 0.000000000000000D+00 0.429428159456126D+03
 0.932252533580331D+03 0.000000000000000D+00 0.000000000000000D+00 -.932252533580331D+03
 0.325718344933448D+03 0.257222922274497D+01 0.153755441629840D+03 -.282745624249471D+03
 0.665959718391289D+02 -.326176216674104D+01 0.667716740225244D+01 -.661800559704203D+02
 0.383381703573160D+03 -.100633838234875D+03 0.122903339742504D+03 0.348925680219892D+03
 0.585984672690720D+03 0.101323371178871D+03 -.283335948774596D+03 -.502824374124205D+03
0.102951117652D-02 0.000000000000D+00 0.000000000000D+00 0.270837942454D-03 0.000000000000D+00  6 4 22 9900012 -13 3 21 0 0.10267217D-01 0.29458883D+00 0.55929230D+04 0.55929230D+04 0.55929230D+04 0.12364039D+01  1  2  2  1  6  1        4 0.303287435999D-03 0.100000000000D+01
0.437159902529D-04 0.000000000000D+00 -.197679699718D-05 0.270837942454D-03 0.000000000000D+00  6 4 22 9900012 -13 3 21 2 0.10267217D-01 0.29458883D+00 0.55929230D+04 0.55929230D+04 0.55929230D+04 0.12364039D+01  1  2  3  1  6  1        4 0.196872205940D-04 0.100000000000D+01
-.155454180189D-03 0.000000000000D+00 0.000000000000D+00 0.270837942454D-03 0.000000000000D+00  6 4 22 9900012 -13 3 21 2 0.10267217D-01 0.29458883D+00 0.55929230D+04 0.55929230D+04 0.55929230D+04 0.12364039D+01  1  2 15  1  6  1        4 -.700078099554D-04 0.100000000000D+01
  </mgrwgt>
  </event>
  <event>
  6     66 0.80203028E-06 0.88451500E+02 0.78161638E-02 0.10700238E+00
        2 -1    0    0  501    0 0.00000000E+00 0.00000000E+00 0.82142846E+03 0.82142846E+03 0.00000000E+00 0.0000E+00 0.9000E+01
       22 -1    0    0    0    0 0.00000000E+00 0.00000000E+00 -.44263578E+02 0.44263578E+02 0.00000000E+00 0.0000E+00 0.9000E+01
       24  2    1    2    0    0 0.69907180E+02 -.15108647E+03 0.23922099E+03 0.30257770E+03 0.81316918E+02 0.0000E+00 0.0000E+00
  9900012  1    3    3    0    0 0.33103163E+02 -.12358749E+03 0.15889466E+03 0.21004095E+03 0.50000000E+02 0.0000E+00 0.9000E+01
      -13  1    3    3    0    0 0.36804016E+02 -.27498987E+02 0.80326331E+02 0.92536746E+02 0.00000000E+00 0.0000E+00 0.9000E+01
        1  1    1    2  501    0 -.69907180E+02 0.15108647E+03 0.53794389E+03 0.56311434E+03 0.00000000E+00 0.0000E+00 0.9000E+01
#aMCatNLO 1  0  0  1  5 0.16886534D+02 0.00000000D+00  -5  6  0 0.00000000D+00 0.00000000D+00 0.00000000D+00 0.00000000D+00 0.00000000D+00
  <mgrwgt>
 0.5101990286D-04    6    2    0
 0.190681311051271D+03 0.000000000000000D+00 0.000000000000000D+00 0.190681311051271D+03
 0.190681311051271D+03 0.000000000000000D+00 0.000000000000000D+00 -.190681311051271D+03
 0.152986741132778D+03 0.331031634736861D+02 -.123587486308613D+03 -.673443149670444D+02
 0.463640628393027D+02 0.368040161645833D+02 -.274989871611758D+02 -.623669962667636D+01
 0.182011818130461D+03 -.699071796382694D+02 0.151086473469789D+03 0.735810145937208D+02
 0.000000000000000D+00 -.000000000000000D+00 -.000000000000000D+00 -.000000000000000D+00
 0.195218095240852D+03 0.000000000000000D+00 0.000000000000000D+00 0.195218095240852D+03
 0.197285812290967D+03 0.000000000000000D+00 0.000000000000000D+00 -.197285812290967D+03
 0.152817943167332D+03 0.372024656939070D+02 -.122204924376259D+03 -.673443149670444D+02
 0.471208363884677D+02 0.380571783123071D+02 -.270763361373104D+02 -.623669962667636D+01
 0.181576519736596D+03 -.650332893508265D+02 0.152730278881513D+03 0.735810145937208D+02
 0.109886082394231D+02 -.102263546553876D+02 -.344901836794368D+01 -.206771705011535D+01
0.703210782434D-06 0.000000000000D+00 0.000000000000D+00 0.204819765413D-06 0.000000000000D+00  6 2 22 9900012 -13 1 21 0 0.12637361D+00 0.68097812D-02 0.30587437D+05 0.30587437D+05 0.30587437D+05 0.11620147D+01  1  2  2  1  6  1        2 0.279476711629D-04 0.100000000000D+01
-.178314907118D-07 0.000000000000D+00 -.135025728210D-08 0.204819765413D-06 0.000000000000D+00  6 2 22 9900012 -13 1 21 2 0.12637361D+00 0.68097812D-02 0.30587437D+05 0.30587437D+05 0.30587437D+05 0.11620147D+01  1  2  3  1  6  1        2 -.956909758032D-06 0.100000000000D+01
-.918976066208D-07 0.000000000000D+00 0.000000000000D+00 0.204819765413D-06 0.000000000000D+00  6 2 22 9900012 -13 1 21 2 0.12637361D+00 0.68097812D-02 0.30587437D+05 0.30587437D+05 0.30587437D+05 0.11620147D+01  1  2 15  1  6  1        2 -.493159646248D-05 0.100000000000D+01
0.778352107170D-06 0.000000000000D+00 0.000000000000D+00 0.204819765413D-06 0.000000000000D+00  6 2 22 9900012 -13 1 21 2 0.13386161D+00 0.68097812D-02 0.32522003D+05 0.32522003D+05 0.32522003D+05 0.11595825D+01  1  2 12  1  6  1        2 0.388422531449D-04 0.100000000000D+01
-.195078521620D-06 0.000000000000D+00 0.000000000000D+00 0.204819765413D-06 0.000000000000D+00  6 2 22 9900012 -13 1 21 2 0.12637361D+00 0.68097812D-02 0.30587437D+05 0.30587437D+05 0.30587437D+05 0.11620147D+01  1  2  4  1  6  1        2 -.104687007911D-04 0.100000000000D+01
0.125119188269D-07 0.000000000000D+00 0.000000000000D+00 0.204819765413D-06 0.000000000000D+00  6 21 22 9900012 -13 1 -2 2 0.13386161D+00 0.68097812D-02 0.32522003D+05 0.32522003D+05 0.32522003D+05 0.11595825D+01  1  2 12  3  6  1        2 0.587185559685D-06 0.100000000000D+01
  </mgrwgt>
  </event>
  <event>
  7     66 -.80203028E-06 0.29634674E+02 0.78161638E-02 0.12719240E+00
        2 -1    0    0  501    0 0.00000000E+00 0.00000000E+00 0.27983770E+04 0.27983770E+04 0.00000000E+00 0.0000E+00 0.9000E+01
       22 -1    0    0    0    0 0.00000000E+00 0.00000000E+00 -.20505250E+01 0.20505250E+01 0.00000000E+00 0.0000E+00 0.9000E+01
       24  2    1    2    0    0 0.26188007E+02 -.23009731E+02 0.10124077E+04 0.10160874E+04 0.79049942E+02 0.0000E+00 0.0000E+00
  9900012  1    3    3    0    0 0.17625225E+02 -.23961252E+01 0.43154131E+03 0.43479224E+03 0.50000000E+02 0.0000E+00 0.9000E+01
      -13  1    3    3    0    0 0.85627828E+01 -.20613606E+02 0.58086643E+03 0.58129515E+03 0.00000000E+00 0.0000E+00 0.9000E+01
        1  1    1    2  502    0 -.27093601E+02 0.17666367E+02 0.13493119E+04 0.13496995E+04 0.00000000E+00 0.0000E+00 0.9000E+01
       21  1    1    2  501  502 0.90559311E+00 0.53433635E+01 0.43460686E+03 0.43464065E+03 0.00000000E+00 0.0000E+00 0.9000E+01
#aMCatNLO 2  0  0  5  1 0.70454882D+01 0.00000000D+00  -5  6  0 0.00000000D+00 0.00000000D+00 0.00000000D+00 0.00000000D+00 0.00000000D+00
  <mgrwgt>
 -.8262388520D-04    2    2    0
 0.757505248348910D+02 0.000000000000000D+00 0.000000000000000D+00 0.757505248348910D+02
 0.757505248348910D+02 -.000000000000000D+00 -.000000000000000D+00 -.757505248348910D+02
 0.725963573912311D+02 0.182453766262481D+02 -.294101308638033D+01 -.492817185198269D+02
 0.237774349187289D+02 0.876650419741540D+01 -.207926028593864D+02 0.749549743532223D+01
 0.551272573598221D+02 -.270118808236635D+02 0.237336159457667D+02 0.417862210845047D+02
 0.000000000000000D+00 0.000000000000000D+00 0.000000000000000D+00 0.000000000000000D+00
 0.757505248348910D+02 0.000000000000000D+00 0.000000000000000D+00 0.757505248348910D+02
 0.757505248348910D+02 -.000000000000000D+00 -.000000000000000D+00 -.757505248348910D+02
 0.717735425631810D+02 0.176252246977717D+02 -.239612516115331D+01 -.483223700850228D+02
 0.236484287380248D+02 0.856278277892247D+01 -.206136058492188D+02 0.781064573204272D+01
 0.436899223975013D+02 -.270936005888359D+02 0.176663674687877D+02 0.293708288390041D+02
 0.123891559710749D+02 0.905593112141643D+00 0.534336354158448D+01 0.111408955139759D+02
-.112901626441D-05 0.000000000000D+00 0.000000000000D+00 0.178113062509D-06 0.000000000000D+00  6 2 22 9900012 -13 1 21 2 0.43051954D+00 0.31546539D-03 0.32010147D+04 0.32010147D+04 0.32010147D+04 0.12642574D+01  1  2 13  2  6  5        1 -.339686310485D-03 0.100000000000D+01
0.854399044517D-06 0.000000000000D+00 0.000000000000D+00 0.178113062509D-06 0.410691184534D-07  6 2 22 9900012 -13 1 21 2 0.43051954D+00 0.31546539D-03 0.32010147D+04 0.32010147D+04 0.32010147D+04 0.12642574D+01  1  2  1  2  6  5        1 0.257062425284D-03 0.100000000000D+01
  </mgrwgt>
  </event>
  <event>
  7     66 -.80203028E-06 0.62760984E+02 0.78161638E-02 0.11506386E+00
        2 -1    0    0  501    0 0.00000000E+00 0.00000000E+00 0.15020458E+04 0.15020458E+04 0.00000000E+00 0.0000E+00 0.9000E+01
       22 -1    0    0    0    0 0.00000000E+00 0.00000000E+00 -.61798955E+02 0.61798955E+02 0.00000000E+00 0.0000E+00 0.9000E+01
       24  2    1    2    0    0 0.81018035E+02 -.29605328E+02 -.16551957E+01 0.11652848E+03 0.78331022E+02 0.0000E+00 0.0000E+00
  9900012  1    3    3    0    0 0.53375792E+02 -.11203158E+02 0.20294311E+02 0.76722519E+02 0.50000000E+02 0.0000E+00 0.9000E+01
      -13  1    3    3    0    0 0.27642243E+02 -.18402170E+02 -.21949507E+02 0.39805958E+02 0.00000000E+00 0.0000E+00 0.9000E+01
        1  1    1    2  502    0 -.78096576E+02 -.93771273E+00 0.12891211E+04 0.12914849E+04 0.00000000E+00 0.0000E+00 0.9000E+01
       21  1    1    2  501  502 -.29214595E+01 0.30543040E+02 0.15278095E+03 0.15583142E+03 0.00000000E+00 0.0000E+00 0.9000E+01
#aMCatNLO 2  0  0  5  1 0.30126750D+02 0.00000000D+00  -5  6  0 0.00000000D+00 0.00000000D+00 0.00000000D+00 0.00000000D+00 0.00000000D+00
  <mgrwgt>
 -.2481507158D-03    2    2    0
 0.304671730476002D+03 0.000000000000000D+00 0.000000000000000D+00 0.304671730476002D+03
 0.304671730476002D+03 -.000000000000000D+00 -.000000000000000D+00 -.304671730476002D+03
 0.152143722187080D+03 0.543228621693239D+02 -.115492332246932D+02 -.132526805056916D+03
 0.157562729585464D+03 0.286224132185012D+02 -.187603399700245D+02 -.153801238162053D+03
 0.299637009179460D+03 -.829452753878251D+02 0.303095731947177D+02 0.286328043218969D+03
 0.000000000000000D+00 0.000000000000000D+00 0.000000000000000D+00 0.000000000000000D+00
 0.304671730476002D+03 0.000000000000000D+00 0.000000000000000D+00 0.304671730476002D+03
 0.304671730476002D+03 -.000000000000000D+00 -.000000000000000D+00 -.304671730476002D+03
 0.148936190646111D+03 0.533757916000597D+02 -.112031580009332D+02 -.129257506575239D+03
 0.154039644753986D+03 0.276422434181558D+02 -.184021697407027D+02 -.150417680754558D+03
 0.267549017103502D+03 -.780965755146156D+02 -.937712728147691D+00 0.255895529739735D+03
 0.388186084484048D+02 -.292145950359994D+01 0.305430404697836D+02 0.237796575900612D+02
-.185108674803D-04 0.000000000000D+00 0.000000000000D+00 0.183478058439D-04 0.000000000000D+00  6 2 22 9900012 -13 1 21 2 0.23108398D+00 0.95075315D-02 0.11662040D+05 0.11662040D+05 0.11662040D+05 0.12024704D+01  1  2 13  2  6  5        1 -.265499472099D-03 0.100000000000D+01
0.120957125126D-05 0.000000000000D+00 0.000000000000D+00 0.183478058439D-04 0.130361619462D-07  6 2 22 9900012 -13 1 21 2 0.23108398D+00 0.95075315D-02 0.11662040D+05 0.11662040D+05 0.11662040D+05 0.12024704D+01  1  2  1  2  6  5        1 0.173487562923D-04 0.100000000000D+01
  </mgrwgt>
  </event>
  <event>
  6     66 0.80203028E-06 0.79366343E+02 0.78161638E-02 0.11798520E+00
        4 -1    0    0  501    0 0.00000000E+00 0.00000000E+00 0.62987574E+03 0.62987574E+03 0.00000000E+00 0.0000E+00 0.9000E+01
       22 -1    0    0    0    0 0.00000000E+00 0.00000000E+00 -.45149730E+02 0.45149730E+02 0.00000000E+00 0.0000E+00 0.9000E+01
       24  2    1    2    0    0 0.56973798E+02 0.55253984E+02 0.31966014E+02 0.11659675E+03 0.79208337E+02 0.0000E+00 0.0000E+00
  9900012  1    3    3    0    0 0.29866436E+02 0.27564889E+02 0.41563269E+02 0.76676805E+02 0.50000000E+02 0.0000E+00 0.9000E+01
      -13  1    3    3    0    0 0.27107362E+02 0.27689095E+02 -.95972547E+01 0.39919950E+02 0.00000000E+00 0.0000E+00 0.9000E+01
        3  1    1    2  501    0 -.56973798E+02 -.55253984E+02 0.55275999E+03 0.55842871E+03 0.00000000E+00 0.0000E+00 0.9000E+01
#aMCatNLO 1  0  0  1  5 0.41565526D+01 0.00000000D+00  -5  6  0 0.00000000D+00 0.00000000D+00 0.00000000D+00 0.00000000D+00 0.00000000D+00
  <mgrwgt>
 0.2024267659D-04    3    2    0
 0.168637834145294D+03 0.000000000000000D+00 0.000000000000000D+00 0.168637834145294D+03
 0.168637834145294D+03 0.000000000000000D+00 0.000000000000000D+00 -.168637834145294D+03
 0.814042465464510D+02 0.298664358906928D+02 0.275648888848841D+02 -.497476056081748D+02
 0.965345263700245D+02 0.271073618906880D+02 0.276890954088521D+02 -.884161733409206D+02
 0.159336895374112D+03 -.569737977813808D+02 -.552539842937362D+02 0.138163778949095D+03
 0.000000000000000D+00 0.000000000000000D+00 0.000000000000000D+00 -.000000000000000D+00
 0.217583040834238D+03 0.000000000000000D+00 0.000000000000000D+00 0.217583040834238D+03
 0.374019032488390D+03 0.000000000000000D+00 0.000000000000000D+00 -.374019032488390D+03
 0.719789261472632D+02 -.100495121498528D+01 0.143224166474154D+02 -.497476056081748D+02
 0.897777880989625D+02 -.103916641205443D+02 0.116036565140599D+02 -.884161733409206D+02
 0.209502692966939D+03 -.131210035770231D+03 -.870980772467430D+02 0.138163778949095D+03
 0.220342666109463D+03 0.142606651105761D+03 0.611720040852677D+02 -.156435991654152D+03
0.816681329439D-05 0.000000000000D+00 0.000000000000D+00 0.464277825502D-05 0.000000000000D+00  6 4 22 9900012 -13 3 21 0 0.96903959D-01 0.69461122D-02 0.83311390D+04 0.83311390D+04 0.83311390D+04 0.12176394D+01  1  2  2  1  6  1        4 0.252239555498D-04 0.100000000000D+01
0.541926777425D-07 0.000000000000D+00 -.156813567109D-07 0.464277825502D-05 0.000000000000D+00  6 4 22 9900012 -13 3 21 2 0.96903959D-01 0.69461122D-02 0.83311390D+04 0.83311390D+04 0.83311390D+04 0.12176394D+01  1  2  3  1  6  1        4 0.248163872280D-06 0.100000000000D+01
-.114197730434D-05 0.000000000000D+00 0.000000000000D+00 0.464277825502D-05 0.000000000000D+00  6 4 22 9900012 -13 3 21 2 0.96903959D-01 0.69461122D-02 0.83311390D+04 0.83311390D+04 0.83311390D+04 0.12176394D+01  1  2 15  1  6  1        4 -.522944282710D-05 0.100000000000D+01
  </mgrwgt>
  </event>
  <event>
  7     66 -.80203028E-06 0.36537128E+02 0.78161638E-02 0.12371415E+00
       21 -1    0    0  501  502 0.00000000E+00 0.00000000E+00 0.48390784E+02 0.48390784E+02 0.00000000E+00 0.0000E+00 0.9000E+01
       22 -1    0    0    0    0 0.00000000E+00 0.00000000E+00 -.18058345E+04 0.18058345E+04 0.00000000E+00 0.0000E+00 0.9000E+01
       24  2    1    2    0    0 -.29691649E+02 0.14178108E+02 -.17923782E+04 0.17944911E+04 0.80597296E+02 0.0000E+00 0.0000E+00
  9900012  1    3    3    0    0 -.31174331E+02 -.12510823E+02 -.12033600E+04 0.12048667E+04 0.50000000E+02 0.0000E+00 0.9000E+01
      -13  1    3    3    0    0 0.14826823E+01 0.26688931E+02 -.58901822E+03 0.58962442E+03 0.00000000E+00 0.0000E+00 0.9000E+01
        3  1    1    2  501    0 0.36320702E+02 -.17165285E+02 0.24627587E+02 0.47120680E+02 0.00000000E+00 0.0000E+00 0.9000E+01
       -4  1    1    2    0  502 -.66290534E+01 0.29871776E+01 0.10306938E+02 0.12613507E+02 0.00000000E+00 0.0000E+00 0.9000E+01
#aMCatNLO 2  0  0  1  5 0.72808066D+01 0.00000000D+00  -5  6  0 0.00000000D+00 0.00000000D+00 0.00000000D+00 0.00000000D+00 0.00000000D+00
  <mgrwgt>
 -.8237977403D-04    2    2    0
 0.258136928071998D+03 0.000000000000000D+00 0.000000000000000D+00 0.258136928071998D+03
 0.258136928071998D+03 0.000000000000000D+00 0.000000000000000D+00 -.258136928071998D+03
 0.177861950052161D+03 -.334557805818449D+02 -.114827585297190D+02 -.166984221645535D+03
 0.865661393103506D+02 0.372136071955497D+00 0.271893642690010D+02 -.821845268921744D+02
 0.251845766781485D+03 0.330836445098894D+02 -.157066057392820D+02 0.249168748537709D+03
 0.000000000000000D+00 -.000000000000000D+00 0.000000000000000D+00 0.000000000000000D+00
 0.338275038753244D+03 0.000000000000000D+00 0.000000000000000D+00 0.338275038753244D+03
 0.258327506509809D+03 0.000000000000000D+00 0.000000000000000D+00 -.258327506509809D+03
 0.177516449620214D+03 -.311743309760502D+02 -.125108231302538D+02 -.166984221645535D+03
 0.864221837589878D+02 0.148268230053182D+01 0.266889310085174D+02 -.821845268921744D+02
 0.252386421325928D+03 0.363207020458771D+02 -.171652854551043D+02 0.249168748537709D+03
 0.802774905579244D+02 -.662905337035877D+01 0.298717757684065D+01 0.799475322434345D+02
-.128379846759D-04 0.000000000000D+00 0.000000000000D+00 0.710623192194D-04 0.000000000000D+00  6 21 22 9900012 -13 3 -4 2 0.74502324D-02 0.27761573D+00 0.45164846D+04 0.45164846D+04 0.45164846D+04 0.12468512D+01  1  2 13  3  6  1        4 -.269273337656D-03 0.100000000000D+01
0.891967069020D-05 0.000000000000D+00 0.000000000000D+00 0.710623192194D-04 0.297065337434D-06  6 21 22 9900012 -13 3 -4 2 0.74447360D-02 0.27782069D+00 0.45164846D+04 0.45164846D+04 0.45164846D+04 0.12468512D+01  1  2  1  3  6  1        4 0.186893563626D-03 0.100000000000D+01
  </mgrwgt>
  </event>
  <event>
  6     66 -.80203028E-06 0.21998511E+02 0.78161638E-02 0.13031811E+00
        2 -1    0    0  501    0 0.00000000E+00 0.00000000E+00 0.16787088E+04 0.16787088E+04 0.00000000E+00 0.0000E+00 0.9000E+01
       22 -1    0    0    0    0 0.00000000E+00 0.00000000E+00 -.10436952E+02 0.10436952E+02 0.00000000E+00 0.0000E+00 0.9000E+01
       24  2    1    2    0    0 -.21700477E+02 0.36088493E+01 0.16294260E+03 0.18365578E+03 0.81824311E+02 0.0000E+00 0.0000E+00
  9900012  1    3    3    0    0 -.84428294E+01 0.20119192E+02 0.72297449E+02 0.90570328E+02 0.50000000E+02 0.0000E+00 0.9000E+01
      -13  1    3    3    0    0 -.13257647E+02 -.16510343E+02 0.90645156E+02 0.93085449E+02 0.00000000E+00 0.0000E+00 0.9000E+01
        1  1    1    2  501    0 0.21700477E+02 -.36088493E+01 0.15053293E+04 0.15054900E+04 0.00000000E+00 0.0000E+00 0.9000E+01
#aMCatNLO 1  0  0  1  5 0.72808066D+01 0.00000000D+00  -5  6  0 0.00000000D+00 0.00000000D+00 0.00000000D+00 0.00000000D+00 0.00000000D+00
  <mgrwgt>
 -.5103602481D-04    1    2    0
 0.132365419657182D+03 0.000000000000000D+00 0.000000000000000D+00 0.132365419657182D+03
 0.132365419657182D+03 0.000000000000000D+00 0.000000000000000D+00 -.132365419657182D+03
 0.122292844897693D+03 -.844282941240111D+01 0.201191920567710D+02 -.109450795591749D+03
 0.227179050453110D+02 -.132576471270851D+02 -.165103427375375D+02 -.823083136690976D+01
 0.119720089371361D+03 0.217004765394862D+02 -.360884931923356D+01 0.117681626958659D+03
 0.000000000000000D+00 0.000000000000000D+00 -.000000000000000D+00 -.000000000000000D+00
 0.152201777212693D+03 0.000000000000000D+00 0.000000000000000D+00 0.152201777212693D+03
 0.749191901337863D+03 0.000000000000000D+00 0.000000000000000D+00 -.749191901337863D+03
 0.144134606605097D+03 -.508620230959304D+02 0.608963280676930D+02 -.109450795591749D+03
 0.241727142941718D+02 -.207233277560249D+02 -.933366048630013D+01 -.823083136690976D+01
 0.123571680048536D+03 -.170351741242111D+02 0.336273345500146D+02 0.117681626958659D+03
 0.609514677602751D+03 0.886205249761664D+02 -.851900021314074D+02 -.596990124125169D+03
-.366454622783D-06 0.000000000000D+00 0.000000000000D+00 0.176787615775D-05 0.000000000000D+00  6 2 22 9900012 -13 1 21 2 0.25826290D+00 0.16056850D-02 0.23876050D+04 0.23876050D+04 0.23876050D+04 0.12796975D+01  1  2 14  1  6  1        2 -.510360248098D-04 0.100000000000D+01
  </mgrwgt>
  </event>
  <event>
  7     66 -.80203028E-06 0.65744737E+02 0.78161638E-02 0.11775692E+00
        2 -1    0    0  501    0 0.00000000E+00 0.00000000E+00 0.13855019E+04 0.13855019E+04 0.00000000E+00 0.0000E+00 0.9000E+01
       22 -1    0    0    0    0 0.00000000E+00 0.00000000E+00 -.11166421E+02 0.11166421E+02 0.00000000E+00 0.0000E+00 0.9000E+01
       24  2    1    2    0    0 0.58879715E+02 -.91858876E+01 0.25442608E+03 0.27283882E+03 0.78467783E+02 0.0000E+00 0.0000E+00
  9900012  1    3    3    0    0 0.45105881E+02 0.12585724E+02 0.14424432E+03 0.15968521E+03 0.50000000E+02 0.0000E+00 0.9000E+01
      -13  1    3    3    0    0 0.13773834E+02 -.21771611E+02 0.11018175E+03 0.11315361E+03 0.00000000E+00 0.0000E+00 0.9000E+01
        1  1    1    2  502    0 0.15125417E+02 0.68295192E+01 0.34256157E+03 0.34296334E+03 0.00000000E+00 0.0000E+00 0.9000E+01
       21  1    1    2  501  502 -.74005132E+02 0.23563685E+01 0.77734783E+03 0.78086616E+03 0.00000000E+00 0.0000E+00 0.9000E+01
#aMCatNLO 2  0  0  5  1 0.32126731D+02 0.00000000D+00  -5  6  0 0.00000000D+00 0.00000000D+00 0.00000000D+00 0.00000000D+00 0.00000000D+00
  <mgrwgt>
 -.3529635250D-04    2    2    0
 0.124382866739074D+03 0.000000000000000D+00 0.000000000000000D+00 0.124382866739074D+03
 0.124382866739074D+03 -.000000000000000D+00 -.000000000000000D+00 -.124382866739074D+03
 0.108501566774987D+03 0.513026641620083D+02 0.116189568340400D+02 -.806574639112573D+02
 0.282567846443783D+02 0.154063292787090D+02 -.220262986312415D+02 -.871395806749929D+01
 0.112007382058784D+03 -.667089934407173D+02 0.104073417972015D+02 0.893714219787566D+02
 0.000000000000000D+00 -.000000000000000D+00 0.000000000000000D+00 0.000000000000000D+00
 0.124382866739074D+03 0.000000000000000D+00 0.000000000000000D+00 0.124382866739074D+03
 0.124382866739074D+03 -.000000000000000D+00 -.000000000000000D+00 -.124382866739074D+03
 0.996406549090376D+02 0.451058812402834D+02 0.125857236009042D+02 -.723555053170179D+02
 0.265767111930309D+02 0.137738336332097D+02 -.217716112302053D+02 -.652686979518018D+01
 0.330089966249107D+02 0.151254171017826D+02 0.682951916602474D+01 0.285337218680173D+02
 0.895393707511698D+02 -.740051319752756D+02 0.235636846327633D+01 0.503486532441808D+02
-.356629508554D-06 0.000000000000D+00 0.000000000000D+00 0.631505750111D-06 0.000000000000D+00  6 2 22 9900012 -13 1 21 2 0.21315414D+00 0.17179109D-02 0.85475825D+04 0.85475825D+04 0.85475825D+04 0.12164609D+01  1  2 13  2  6  5        1 -.622014162469D-04 0.100000000000D+01
0.154259183155D-06 0.000000000000D+00 0.000000000000D+00 0.631505750111D-06 0.324348557813D-09  6 2 22 9900012 -13 1 21 2 0.21315414D+00 0.17179109D-02 0.85475825D+04 0.85475825D+04 0.85475825D+04 0.12164609D+01  1  2  1  2  6  5        1 0.269050637460D-04 0.100000000000D+01
  </mgrwgt>
  </event>
  <event>
  6     66 0.80203028E-06 0.32423406E+02 0.78161638E-02 0.12783101E+00
        2 -1    0    0  501    0 0.00000000E+00 0.00000000E+00 0.28423427E+03 0.28423427E+03 0.00000000E+00 0.0000E+00 0.9000E+01
       22 -1    0    0    0    0 0.00000000E+00 0.00000000E+00 -.18708655E+03 0.18708655E+03 0.00000000E+00 0.0000E+00 0.9000E+01
       24  2    1    2    0    0 0.32303319E+02 -.27879816E+01 -.17617364E+03 0.19608302E+03 0.79750363E+02 0.0000E+00 0.0000E+00
  9900012  1    3    3    0    0 0.20134119E+02 -.18915194E+02 -.16094838E+03 0.17078509E+03 0.50000000E+02 0.0000E+00 0.9000E+01
      -13  1    3    3    0    0 0.12169200E+02 0.16127212E+02 -.15225267E+02 0.25297928E+02 0.00000000E+00 0.0000E+00 0.9000E+01
        1  1    1    2  501    0 -.32303319E+02 0.27879816E+01 0.27332137E+03 0.27523780E+03 0.00000000E+00 0.0000E+00 0.9000E+01
#aMCatNLO 1  0  0  1  5 0.20678355D+02 0.00000000D+00  -5  6  0 0.00000000D+00 0.00000000D+00 0.00000000D+00 0.00000000D+00 0.00000000D+00
  <mgrwgt>
 0.5661394468D-03    9    2    0
 0.230600105895546D+03 0.000000000000000D+00 0.000000000000000D+00 0.230600105895546D+03
 0.230600105895546D+03 0.000000000000000D+00 0.000000000000000D+00 -.230600105895546D+03
 0.208435155364823D+03 0.201341192788356D+02 -.189151940072012D+02 -.200454600018292D+03
 0.290601342584322D+02 0.121692000742393D+02 0.161272123988420D+02 -.208881543682987D+02
 0.223704922167837D+03 -.323033193530749D+02 0.278798160835915D+01 0.221342754386591D+03
 0.000000000000000D+00 -.000000000000000D+00 0.000000000000000D+00 0.000000000000000D+00
 0.426337079231180D+03 0.000000000000000D+00 0.000000000000000D+00 0.426337079231180D+03
 0.231374580534919D+03 0.000000000000000D+00 0.000000000000000D+00 -.231374580534919D+03
 0.209854219196837D+03 0.255371976947818D+02 -.265442683100887D+02 -.200454600018292D+03
 0.288151439446312D+02 0.129167798252276D+02 0.150716398106687D+02 -.208881543682987D+02
 0.222991820625977D+03 -.265333006142724D+02 -.535920751209866D+01 0.221342754386591D+03
 0.196050475998655D+03 -.119206769057370D+02 0.168318360115187D+02 0.194962498696261D+03
0.252216634132D-05 0.000000000000D+00 0.000000000000D+00 0.734799410732D-04 0.000000000000D+00  6 2 22 9900012 -13 1 21 0 0.43728349D-01 0.28782546D-01 0.30113162D+04 0.30113162D+04 0.30113162D+04 0.12674273D+01  1  2  2  1  6  1        2 0.342174249108D-04 0.100000000000D+01
0.170109736877D-06 0.000000000000D+00 -.484289142616D-08 0.734799410732D-04 0.000000000000D+00  6 2 22 9900012 -13 1 21 2 0.43728349D-01 0.28782546D-01 0.30113162D+04 0.30113162D+04 0.30113162D+04 0.12674273D+01  1  2  3  1  6  1        2 0.370722424061D-05 0.100000000000D+01
-.362457180461D-06 0.000000000000D+00 0.000000000000D+00 0.734799410732D-04 0.000000000000D+00  6 2 22 9900012 -13 1 21 2 0.43728349D-01 0.28782546D-01 0.30113162D+04 0.30113162D+04 0.30113162D+04 0.12674273D+01  1  2 15  1  6  1        2 -.789907779683D-05 0.100000000000D+01
0.672154571774D-04 0.000000000000D+00 0.000000000000D+00 0.734799410732D-04 0.000000000000D+00  6 2 22 9900012 -13 1 21 2 0.81117177D-01 0.28782546D-01 0.42020698D+04 0.42020698D+04 0.42020698D+04 0.12504387D+01  1  2 12  1  6  1        2 0.761643532357D-03 0.100000000000D+01
-.326607312228D-04 0.000000000000D+00 0.000000000000D+00 0.734799410732D-04 0.000000000000D+00  6 2 22 9900012 -13 1 21 2 0.43728349D-01 0.28782546D-01 0.30113162D+04 0.30113162D+04 0.30113162D+04 0.12674273D+01  1  2  4  1  6  1        2 -.711779682504D-03 0.100000000000D+01
-.715830910505D-04 0.000000000000D+00 -.751663838126D-06 0.734799410732D-04 0.000000000000D+00  6 2 22 9900012 -13 1 21 2 0.80937892D-01 0.28782546D-01 0.30113162D+04 0.30113162D+04 0.30113162D+04 0.12674273D+01  1  2  5  1  6  1        2 -.820810248124D-03 0.100000000000D+01
0.603621532648D-04 0.000000000000D+00 0.628692954375D-06 0.734799410732D-04 0.000000000000D+00  6 2 22 9900012 -13 1 21 2 0.43728349D-01 0.28782546D-01 0.30113162D+04 0.30113162D+04 0.30113162D+04 0.12674273D+01  1  2  6  1  6  1        2 0.131548047694D-02 0.100000000000D+01
0.452846710046D-05 0.000000000000D+00 0.000000000000D+00 0.734799410732D-04 0.000000000000D+00  6 21 22 9900012 -13 1 -2 2 0.81117177D-01 0.28782546D-01 0.42020698D+04 0.42020698D+04 0.42020698D+04 0.12504387D+01  1  2 12  3  6  1        2 0.102874224790D-03 0.100000000000D+01
-.476567234457D-05 0.000000000000D+00 -.504788226482D-07 0.734799410732D-04 0.000000000000D+00  6 21 22 9900012 -13 1 -2 2 0.80937892D-01 0.28782546D-01 0.30113162D+04 0.30113162D+04 0.30113162D+04 0.12674273D+01  1  2  5  3  6  1        2 -.111294428009D-03 0.100000000000D+01
  </mgrwgt>
  </event>
  <event>
  6     66 0.80203028E-06 0.52579389E+02 0.78161638E-02 0.10512292E+00
        2 -1    0    0  501    0 0.00000000E+00 0.00000000E+00 0.23237636E+03 0.23237636E+03 0.00000000E+00 0.0000E+00 0.9000E+01
       22 -1    0    0    0    0 0.00000000E+00 0.00000000E+00 -.85957364E+02 0.85957364E+02 0.00000000E+00 0.0000E+00 0.9000E+01
       24  2    1    2    0    0 0.52286717E+02 0.55399828E+01 -.56293046E+02 0.10891366E+03 0.76997961E+02 0.0000E+00 0.0000E+00
  9900012  1    3    3    0    0 0.29357030E+02 -.11660684E+02 -.54120083E+02 0.80167264E+02 0.50000000E+02 0.0000E+00 0.9000E+01
      -13  1    3    3    0    0 0.22929687E+02 0.17200667E+02 -.21729622E+01 0.28746395E+02 0.00000000E+00 0.0000E+00 0.9000E+01
        1  1    1    2  501    0 -.52286717E+02 -.55399828E+01 0.20271204E+03 0.20942006E+03 0.00000000E+00 0.0000E+00 0.9000E+01
#aMCatNLO 1  0  0  1  5 0.20945583D+02 0.00000000D+00  -5  6  0 0.00000000D+00 0.00000000D+00 0.00000000D+00 0.00000000D+00 0.00000000D+00
  <mgrwgt>
 0.3168865353D-03    3    2    0
 0.141331027495682D+03 0.000000000000000D+00 0.000000000000000D+00 0.141331027495682D+03
 0.141331027495682D+03 0.000000000000000D+00 0.000000000000000D+00 -.141331027495682D+03
 0.118318504901601D+03 0.293570302214510D+02 -.116606839548419D+02 -.102476640403715D+03
 0.334997561424389D+02 0.229296866662534D+02 0.172006667780393D+02 -.173378255090184D+02
 0.130843793947324D+03 -.522867168877043D+02 -.553998282319740D+01 0.119814465912733D+03
 0.000000000000000D+00 0.000000000000000D+00 -.000000000000000D+00 -.000000000000000D+00
 0.188497141703894D+03 0.000000000000000D+00 0.000000000000000D+00 0.188497141703894D+03
 0.570322918882881D+03 0.000000000000000D+00 0.000000000000000D+00 -.570322918882881D+03
 0.120507548483406D+03 -.385707297503007D+02 0.573639430107581D+01 -.102476640403715D+03
 0.282885439775924D+02 0.535563743616406D+01 0.217015823073657D+02 -.173378255090184D+02
 0.187195813952373D+03 -.142744679244490D+03 0.176273386172018D+02 0.119814465912733D+03
 0.422828154173404D+03 0.175959771558627D+03 -.450653152256434D+02 -.381825777178987D+03
0.713742089711D-05 0.000000000000D+00 0.000000000000D+00 0.611448013940D-06 0.000000000000D+00  6 2 22 9900012 -13 1 21 0 0.35750209D-01 0.13224210D-01 0.49270430D+04 0.49270430D+04 0.49270430D+04 0.12425651D+01  1  2  2  1  6  1        2 0.391182626601D-03 0.100000000000D+01
0.169439504296D-06 0.000000000000D+00 -.137047877855D-07 0.611448013940D-06 0.000000000000D+00  6 2 22 9900012 -13 1 21 2 0.35750209D-01 0.13224210D-01 0.49270430D+04 0.49270430D+04 0.49270430D+04 0.12425651D+01  1  2  3  1  6  1        2 0.143380884178D-04 0.100000000000D+01
-.104742913011D-05 0.000000000000D+00 0.000000000000D+00 0.611448013940D-06 0.000000000000D+00  6 2 22 9900012 -13 1 21 2 0.35750209D-01 0.13224210D-01 0.49270430D+04 0.49270430D+04 0.49270430D+04 0.12425651D+01  1  2 15  1  6  1        2 -.886341797410D-04 0.100000000000D+01
  </mgrwgt>
  </event>
  <event>
  7     66 -.80203028E-06 0.77234315E+02 0.78161638E-02 0.11579327E+00
        2 -1    0    0  501    0 0.00000000E+00 0.00000000E+00 0.38804589E+02 0.38804589E+02 0.00000000E+00 0.0000E+00 0.9000E+01
       22 -1    0    0    0    0 -.00000000E+00 -.00000000E+00 -.38264837E+03 0.38264837E+03 0.00000000E+00 0.0000E+00 0.9000E+01
       24  2    1    2    0    0 -.27843046E+02 0.80366243E+02 -.27826302E+03 0.30144283E+03 0.78762318E+02 0.0000E+00 0.0000E+00
  9900012  1    3    3    0    0 -.12357465E+01 0.50765993E+02 -.13377638E+03 0.15157452E+03 0.50000000E+02 0.0000E+00 0.9000E+01
      -13  1    3    3    0    0 -.26607299E+02 0.29600249E+02 -.14448664E+03 0.14986831E+03 0.00000000E+00 0.0000E+00 0.9000E+01
        1  1    1    2  502    0 0.38519462E+02 -.74021356E+02 -.42136337E+02 0.93479308E+02 0.00000000E+00 0.0000E+00 0.9000E+01
       21  1    1    2  501  502 -.10676417E+02 -.63448862E+01 -.23444424E+02 0.26530821E+02 0.00000000E+00 0.0000E+00 0.9000E+01
#aMCatNLO 2  0  0  5  1 0.16843224D+02 0.00000000D+00  -5  6  0 0.00000000D+00 0.00000000D+00 0.00000000D+00 0.00000000D+00 0.00000000D+00
  <mgrwgt>
 -.4565155214D-04    2    2    0
 0.121854472900387D+03 0.000000000000000D+00 0.000000000000000D+00 0.121854472900387D+03
 0.121854472900387D+03 -.000000000000000D+00 -.000000000000000D+00 -.121854472900387D+03
 0.762875274606882D+02 -.237781524190171D+01 0.540624635474573D+02 -.197833989981623D+02
 0.582942228906913D+02 -.274742446583292D+02 0.321026030492359D+02 -.401597457704485D+02
 0.109127195449394D+03 0.298520599002309D+02 -.861650665966932D+02 0.599431447686108D+02
 0.000000000000000D+00 0.000000000000000D+00 0.000000000000000D+00 -.000000000000000D+00
 0.121854472900387D+03 0.000000000000000D+00 0.000000000000000D+00 0.121854472900387D+03
 0.121854472900387D+03 -.000000000000000D+00 -.000000000000000D+00 -.121854472900387D+03
 0.733799517483581D+02 -.123574646639119D+01 0.507659931387567D+02 -.174901169206461D+02
 0.553184962830864D+02 -.266072992153049D+02 0.296002493730224D+02 -.384189132660460D+02
 0.102207218612809D+03 0.385194623517123D+02 -.740213563196696D+02 0.590203809314890D+02
 0.128032791565196D+02 -.106764166700162D+02 -.634488619210945D+01 -.311135074479687D+01
-.846038763193D-06 0.000000000000D+00 0.000000000000D+00 0.285062630399D-06 0.000000000000D+00  6 2 22 9900012 -13 1 21 2 0.59699367D-02 0.58868980D-01 0.10704972D+05 0.10704972D+05 0.10704972D+05 0.12062757D+01  1  2 13  2  6  5        1 -.586174848851D-04 0.100000000000D+01
0.187140095189D-06 0.000000000000D+00 0.000000000000D+00 0.285062630399D-06 0.211714811649D-08  6 2 22 9900012 -13 1 21 2 0.59699367D-02 0.58868980D-01 0.10704972D+05 0.10704972D+05 0.10704972D+05 0.12062757D+01  1  2  1  2  6  5        1 0.129659327425D-04 0.100000000000D+01
  </mgrwgt>
  </event>
  <event>
  6     66 0.80203028E-06 0.53156458E+02 0.78161638E-02 0.11691841E+00
        2 -1    0    0  501    0 0.00000000E+00 0.00000000E+00 0.10601385E+04 0.10601385E+04 0.00000000E+00 0.0000E+00 0.9000E+01
       22 -1    0    0    0    0 0.00000000E+00 0.00000000E+00 -.13705307E+02 0.13705307E+02 0.00000000E+00 0.0000E+00 0.9000E+01
       24  2    1    2    0    0 0.40566124E+02 -.64615614E+02 0.23967498E+03 0.26348610E+03 0.78485948E+02 0.0000E+00 0.0000E+00
  9900012  1    3    3    0    0 0.29054163E+02 -.16734028E+02 0.13007105E+03 0.14332707E+03 0.50000000E+02 0.0000E+00 0.9000E+01
      -13  1    3    3    0    0 0.11511961E+02 -.47881586E+02 0.10960393E+03 0.12015903E+03 0.00000000E+00 0.0000E+00 0.9000E+01
        1  1    1    2  501    0 -.40566124E+02 0.64615614E+02 0.80675825E+03 0.81035774E+03 0.00000000E+00 0.0000E+00 0.9000E+01
#aMCatNLO 1  0  0  1  5 0.81730300D+01 0.00000000D+00  -5  6  0 0.00000000D+00 0.00000000D+00 0.00000000D+00 0.00000000D+00 0.00000000D+00
  <mgrwgt>
 0.1346962155D-03   11    2    0
 0.120538473669452D+03 0.000000000000000D+00 0.000000000000000D+00 0.120538473669452D+03
 0.120538473669452D+03 0.000000000000000D+00 0.000000000000000D+00 -.120538473669452D+03
 0.738362881192897D+02 0.290541625670917D+02 -.167340278641871D+02 -.427507355749626D+02
 0.594782807015514D+02 0.115119611545269D+02 -.478815858084582D+02 -.333540757038247D+02
 0.107762378518062D+03 -.405661237216186D+02 0.646156136726453D+02 0.761048112787873D+02
 0.000000000000000D+00 0.000000000000000D+00 -.000000000000000D+00 0.000000000000000D+00
 0.131035222707431D+03 0.000000000000000D+00 0.000000000000000D+00 0.131035222707431D+03
 0.121997800559624D+03 0.000000000000000D+00 0.000000000000000D+00 -.121997800559624D+03
 0.733271041364116D+02 0.290138457249452D+02 -.144026235485366D+02 -.427507355749626D+02
 0.579843550234453D+02 0.114797811234060D+02 -.460207093251198D+02 -.333540757038247D+02
 0.109886564771601D+03 -.406257507657869D+02 0.680636701349523D+02 0.761048112787873D+02
 0.118349993355967D+02 0.132123917435670D+00 -.764033726129596D+01 0.903742214780682D+01
0.156547375146D-06 0.000000000000D+00 0.000000000000D+00 0.361584948545D-06 0.000000000000D+00  6 2 22 9900012 -13 1 21 0 0.16309824D+00 0.21085087D-02 0.86249498D+04 0.86249498D+04 0.86249498D+04 0.12160478D+01  1  2  2  1  6  1        2 0.208802470095D-04 0.100000000000D+01
-.142878466071D-09 0.000000000000D+00 -.300591570215D-09 0.361584948545D-06 0.000000000000D+00  6 2 22 9900012 -13 1 21 2 0.16309824D+00 0.21085087D-02 0.86249498D+04 0.86249498D+04 0.86249498D+04 0.12160478D+01  1  2  3  1  6  1        2 -.281810971403D-07 0.100000000000D+01
-.213652780360D-07 0.000000000000D+00 0.000000000000D+00 0.361584948545D-06 0.000000000000D+00  6 2 22 9900012 -13 1 21 2 0.16309824D+00 0.21085087D-02 0.86249498D+04 0.86249498D+04 0.86249498D+04 0.12160478D+01  1  2 15  1  6  1        2 -.421404983072D-05 0.100000000000D+01
0.724279778304D-06 0.000000000000D+00 0.000000000000D+00 0.361584948545D-06 0.000000000000D+00  6 2 22 9900012 -13 1 21 2 0.17944772D+00 0.21085087D-02 0.94006577D+04 0.94006577D+04 0.94006577D+04 0.12121222D+01  1  2 12  1  6  1        2 0.124878723748D-03 0.100000000000D+01
-.205633961486D-06 0.000000000000D+00 0.000000000000D+00 0.361584948545D-06 0.000000000000D+00  6 2 22 9900012 -13 1 21 2 0.16309824D+00 0.21085087D-02 0.86249498D+04 0.86249498D+04 0.86249498D+04 0.12160478D+01  1  2  4  1  6  1        2 -.405588805878D-04 0.100000000000D+01
-.139960531924D-05 0.000000000000D+00 -.184514233757D-06 0.361584948545D-06 0.000000000000D+00  6 2 22 9900012 -13 1 21 2 0.17833307D+00 0.21085087D-02 0.86249498D+04 0.86249498D+04 0.86249498D+04 0.12160478D+01  1  2  5  1  6  1        2 -.243712698443D-03 0.100000000000D+01
0.141118524619D-05 0.000000000000D+00 0.183780962420D-06 0.361584948545D-06 0.000000000000D+00  6 2 22 9900012 -13 1 21 2 0.16309824D+00 0.21085087D-02 0.86249498D+04 0.86249498D+04 0.86249498D+04 0.12160478D+01  1  2  6  1  6  1        2 0.278339693862D-03 0.100000000000D+01
0.659029260264D-09 0.000000000000D+00 0.000000000000D+00 0.361584948545D-06 0.141335370722D-07  6 2 22 9900012 -13 1 21 2 0.17730118D+00 0.21340358D-02 0.94006577D+04 0.94006577D+04 0.94006577D+04 0.12121222D+01  1  2 11  1  6  1        2 0.113753390725D-06 0.100000000000D+01
0.114146829412D-07 0.000000000000D+00 0.000000000000D+00 0.361584948545D-06 0.000000000000D+00  6 21 22 9900012 -13 1 -2 2 0.17944772D+00 0.21085087D-02 0.94006577D+04 0.94006577D+04 0.94006577D+04 0.12121222D+01  1  2 12  3  6  1        2 0.125264640701D-05 0.100000000000D+01
-.201081216722D-07 0.000000000000D+00 -.271580036754D-08 0.361584948545D-06 0.000000000000D+00  6 21 22 9900012 -13 1 -2 2 0.17833307D+00 0.21085087D-02 0.86249498D+04 0.86249498D+04 0.86249498D+04 0.12160478D+01  1  2  5  3  6  1        2 -.225911530323D-05 0.100000000000D+01
0.364167795177D-10 0.000000000000D+00 0.000000000000D+00 0.361584948545D-06 0.676028035317D-09  6 21 22 9900012 -13 1 -2 2 0.17730118D+00 0.21340358D-02 0.94006577D+04 0.94006577D+04 0.94006577D+04 0.12121222D+01  1  2 11  3  6  1        2 0.407630441905D-08 0.100000000000D+01
  </mgrwgt>
  </event>
  <event>
  6     66 -.80203028E-06 0.20862850E+02 0.78161638E-02 0.12985139E+00
        2 -1    0    0  501    0 0.00000000E+00 0.00000000E+00 0.51974133E+03 0.51974133E+03 0.00000000E+00 0.0000E+00 0.9000E+01
       22 -1    0    0    0    0 0.00000000E+00 0.00000000E+00 -.56349312E+01 0.56349312E+01 0.00000000E+00 0.0000E+00 0.9000E+01
       24  2    1    2    0    0 0.19820539E+02 0.65118925E+01 0.45874071E+03 0.46621024E+03 0.80459249E+02 0.0000E+00 0.0000E+00
  9900012  1    3    3    0    0 0.26591180E+02 -.13191211E+02 0.26229892E+03 0.26866675E+03 0.50000000E+02 0.0000E+00 0.9000E+01
      -13  1    3    3    0    0 -.67706414E+01 0.19703104E+02 0.19644179E+03 0.19754349E+03 0.00000000E+00 0.0000E+00 0.9000E+01
        1  1    1    2  501    0 -.19820539E+02 -.65118925E+01 0.55365685E+02 0.59166017E+02 0.00000000E+00 0.0000E+00 0.9000E+01
#aMCatNLO 1  0  0  5  1 0.40445770D+01 0.00000000D+00  -5  6  0 0.00000000D+00 0.00000000D+00 0.00000000D+00 0.00000000D+00 0.00000000D+00
  <mgrwgt>
 -.2682375387D-03    7    2    0
 0.541175259769594D+02 0.000000000000000D+00 0.000000000000000D+00 0.541175259769594D+02
 0.541175259769594D+02 -.000000000000000D+00 -.000000000000000D+00 -.541175259769594D+02
 0.582212426180328D+02 0.265911799155410D+02 -.131912111762574D+02 -.293499410400508D+01
 0.258019868523733D+02 -.677064137546177D+01 0.197031036527520D+02 0.152213221286405D+02
 0.242118224835128D+02 -.198205385400792D+02 -.651189247649452D+01 -.122863280246354D+02
 0.000000000000000D+00 0.000000000000000D+00 0.000000000000000D+00 -.000000000000000D+00
 0.541175259769594D+02 0.000000000000000D+00 0.000000000000000D+00 0.541175259769594D+02
 0.541175259769594D+02 -.000000000000000D+00 -.000000000000000D+00 -.541175259769594D+02
 0.579303891813490D+02 0.257381364755078D+02 -.134714723380842D+02 -.346377749212133D+01
 0.256719061237506D+02 -.714867710389730D+01 0.195789027885389D+02 0.149869858640028D+02
 0.188554917218637D+02 -.171977274823832D+02 -.234342708956730D+01 -.736723061881693D+01
 0.577726492695554D+01 -.139173188922725D+01 -.376400336088740D+01 -.415597775306449D+01
0.503223640284D-06 0.000000000000D+00 0.000000000000D+00 0.234480034705D-07 0.000000000000D+00  6 2 22 9900012 -13 1 21 0 0.79960204D-01 0.86691249D-03 0.24922074D+04 0.24922074D+04 0.24922074D+04 0.12774039D+01  1  2  2  2  6  5        1 0.444693584215D-03 0.100000000000D+01
-.132061277665D-07 0.000000000000D+00 -.966255640258D-09 0.234480034705D-07 0.000000000000D+00  6 2 22 9900012 -13 1 21 2 0.79960204D-01 0.86691249D-03 0.24922074D+04 0.24922074D+04 0.24922074D+04 0.12774039D+01  1  2  3  2  6  5        1 -.190428433984D-04 0.100000000000D+01
-.551581230412D-07 0.000000000000D+00 0.000000000000D+00 0.234480034705D-07 0.000000000000D+00  6 2 22 9900012 -13 1 21 2 0.79960204D-01 0.86691249D-03 0.24922074D+04 0.24922074D+04 0.24922074D+04 0.12774039D+01  1  2 15  2  6  5        1 -.795363726442D-04 0.100000000000D+01
0.705930697574D-07 0.000000000000D+00 0.000000000000D+00 0.234480034705D-07 0.000000000000D+00  6 2 22 9900012 -13 1 21 2 0.79960204D-01 0.86691249D-03 0.25019809D+04 0.25019809D+04 0.25019809D+04 0.12771952D+01  1  2 12  2  6  5        1 0.101805012723D-03 0.100000000000D+01
-.681400717181D-06 0.000000000000D+00 0.000000000000D+00 0.234480034705D-07 0.000000000000D+00  6 2 22 9900012 -13 1 21 2 0.79960204D-01 0.86691249D-03 0.24922074D+04 0.24922074D+04 0.24922074D+04 0.12774039D+01  1  2  4  2  6  5        1 -.982559564640D-03 0.100000000000D+01
-.616570753586D-06 0.000000000000D+00 0.000000000000D+00 0.234480034705D-07 0.000000000000D+00  6 2 22 9900012 -13 1 21 2 0.79960204D-01 0.86691249D-03 0.24922074D+04 0.24922074D+04 0.24922074D+04 0.12774039D+01  1  2  5  2  6  5        1 -.889076685625D-03 0.100000000000D+01
0.801319811002D-06 0.000000000000D+00 -.000000000000D+00 0.234480034705D-07 0.000000000000D+00  6 2 22 9900012 -13 1 21 2 0.79960204D-01 0.86691249D-03 0.24922074D+04 0.24922074D+04 0.24922074D+04 0.12774039D+01  1  2  6  2  6  5        1 0.115547933071D-02 0.100000000000D+01
  </mgrwgt>
  </event>
  <event>
  6     66 0.80203028E-06 0.21576305E+02 0.78161638E-02 0.12356504E+00
        2 -1    0    0  501    0 0.00000000E+00 0.00000000E+00 0.59307696E+03 0.59307696E+03 0.00000000E+00 0.0000E+00 0.9000E+01
       22 -1    0    0    0    0 0.00000000E+00 0.00000000E+00 -.70134663E+02 0.70134663E+02 0.00000000E+00 0.0000E+00 0.9000E+01
       24  2    1    2    0    0 -.43146030E+02 -.12153611E+02 -.37740884E+02 0.10073947E+03 0.81943742E+02 0.0000E+00 0.0000E+00
  9900012  1    3    3    0    0 -.25305568E+02 0.12190008E+02 -.40832211E+02 0.70400551E+02 0.50000000E+02 0.0000E+00 0.9000E+01
      -13  1    3    3    0    0 -.17840462E+02 -.24343619E+02 0.30913273E+01 0.30338922E+02 0.00000000E+00 0.0000E+00 0.9000E+01
        1  1    1    2  501    0 0.43146030E+02 0.12153611E+02 0.56068318E+03 0.56247215E+03 0.00000000E+00 0.0000E+00 0.9000E+01
#aMCatNLO 1  0  0  5  1 0.10641535D+02 0.00000000D+00  -5  6  0 0.00000000D+00 0.00000000D+00 0.00000000D+00 0.00000000D+00 0.00000000D+00
  <mgrwgt>
 0.4709847723D-03    7    2    0
 0.203949141617391D+03 0.000000000000000D+00 0.000000000000000D+00 0.203949141617391D+03
 0.203949141617391D+03 -.000000000000000D+00 -.000000000000000D+00 -.203949141617391D+03
 0.166814512866980D+03 -.253055675603305D+02 0.121900077673304D+02 -.156646460745623D+03
 0.453655739525374D+02 -.178404619681171D+02 -.243436190957011D+02 -.338694763191096D+02
 0.195718196415264D+03 0.431460295284475D+02 0.121536113283707D+02 0.190515937064732D+03
 0.000000000000000D+00 0.000000000000000D+00 0.000000000000000D+00 0.000000000000000D+00
 0.203949141617391D+03 0.000000000000000D+00 0.000000000000000D+00 0.203949141617391D+03
 0.203949141617391D+03 -.000000000000000D+00 -.000000000000000D+00 -.203949141617391D+03
 0.166342642843545D+03 -.251952354838830D+02 0.122210867145441D+02 -.156159277587348D+03
 0.452503639246452D+02 -.178104525734099D+02 -.243351658840509D+02 -.337369666069561D+02
 0.121008007026779D+03 0.232415544464646D+02 -.252093597373196D+01 0.118728315044565D+03
 0.752972694398128D+02 0.197641336108282D+02 0.146350151432387D+02 0.711679291497391D+02
0.960545717013D-06 0.000000000000D+00 0.000000000000D+00 0.625287526157D-05 0.000000000000D+00  6 2 22 9900012 -13 1 21 0 0.91242609D-01 0.10789948D-01 0.43795045D+04 0.43795045D+04 0.43795045D+04 0.12483787D+01  1  2  2  2  6  5        1 0.259114121888D-04 0.100000000000D+01
0.429891566586D-07 0.000000000000D+00 -.184437423541D-08 0.625287526157D-05 0.000000000000D+00  6 2 22 9900012 -13 1 21 2 0.91242609D-01 0.10789948D-01 0.43795045D+04 0.43795045D+04 0.43795045D+04 0.12483787D+01  1  2  3  2  6  5        1 0.180727686144D-05 0.100000000000D+01
-.139747299484D-06 0.000000000000D+00 0.000000000000D+00 0.625287526157D-05 0.000000000000D+00  6 2 22 9900012 -13 1 21 2 0.91242609D-01 0.10789948D-01 0.43795045D+04 0.43795045D+04 0.43795045D+04 0.12483787D+01  1  2 15  2  6  5        1 -.587501780533D-05 0.100000000000D+01
0.101953821309D-04 0.000000000000D+00 0.000000000000D+00 0.625287526157D-05 0.000000000000D+00  6 2 22 9900012 -13 1 21 2 0.91242609D-01 0.10789948D-01 0.45856370D+04 0.45856370D+04 0.45856370D+04 0.12460995D+01  1  2 12  2  6  5        1 0.428269668850D-03 0.100000000000D+01
-.407305776451D-05 0.000000000000D+00 0.000000000000D+00 0.625287526157D-05 0.000000000000D+00  6 2 22 9900012 -13 1 21 2 0.91242609D-01 0.10789948D-01 0.43795045D+04 0.43795045D+04 0.43795045D+04 0.12483787D+01  1  2  4  2  6  5        1 -.171232553166D-03 0.100000000000D+01
-.101368516248D-04 0.000000000000D+00 0.000000000000D+00 0.625287526157D-05 0.000000000000D+00  6 2 22 9900012 -13 1 21 2 0.91242609D-01 0.10789948D-01 0.43795045D+04 0.43795045D+04 0.43795045D+04 0.12483787D+01  1  2  5  2  6  5        1 -.426156240628D-03 0.100000000000D+01
0.147063719327D-04 0.000000000000D+00 -.000000000000D+00 0.625287526157D-05 0.000000000000D+00  6 2 22 9900012 -13 1 21 2 0.91242609D-01 0.10789948D-01 0.43795045D+04 0.43795045D+04 0.43795045D+04 0.12483787D+01  1  2  6  2  6  5        1 0.618260225961D-03 0.100000000000D+01
  </mgrwgt>
  </event>
  <event>
  6     66 0.80203028E-06 0.54611248E+02 0.78161638E-02 0.11074795E+00
        2 -1    0    0  501    0 0.00000000E+00 0.00000000E+00 0.37272345E+03 0.37272345E+03 0.00000000E+00 0.0000E+00 0.9000E+01
       22 -1    0    0    0    0 -.00000000E+00 -.00000000E+00 -.86495546E+03 0.86495546E+03 0.00000000E+00 0.0000E+00 0.9000E+01
  9900012  1    1    2    0    0 -.10623888E+02 0.86464903E+02 -.27152237E+03 0.28950551E+03 0.50000000E+02 0.0000E+00 0.9000E+01
      -13  1    1    2    0    0 -.84926075E+01 0.23221651E+02 -.56654569E+03 0.56708499E+03 0.00000000E+00 0.0000E+00 0.9000E+01
        1  1    1    2  502    0 0.60195989E+02 -.31267386E+02 0.19158485E+03 0.20323868E+03 0.00000000E+00 0.0000E+00 0.9000E+01
       21  1    1    2  501  502 -.41079494E+02 -.78419168E+02 0.15425120E+03 0.17784972E+03 0.00000000E+00 0.0000E+00 0.9000E+01
#aMCatNLO 2  0  0  5  1 0.57335827D+02 0.00000000D+00  -5  6  0 0.00000000D+00 0.00000000D+00 0.00000000D+00 0.00000000D+00 0.00000000D+00
  <mgrwgt>
 0.2133518699D-03    1    2    0
 0.567793256335405D+03 0.000000000000000D+00 0.000000000000000D+00 0.567793256335405D+03
 0.567793256335405D+03 -.000000000000000D+00 -.000000000000000D+00 -.567793256335405D+03
 0.199780508371697D+03 -.106957758247209D+02 0.868773814483373D+02 -.172482383150979D+03
 0.376375230792599D+03 -.862799975746099D+01 0.239985041866462D+02 -.375510244562210D+03
 0.559430773506515D+03 0.193237755821819D+02 -.110875885634984D+03 0.547992627713189D+03
 0.000000000000000D+00 0.000000000000000D+00 -.000000000000000D+00 0.000000000000000D+00
 0.567793256335405D+03 0.000000000000000D+00 0.000000000000000D+00 0.567793256335405D+03
 0.567793256335405D+03 -.000000000000000D+00 -.000000000000000D+00 -.567793256335405D+03
 0.197838618517186D+03 -.106238878941132D+02 0.864649031550196D+02 -.170443751734099D+03
 0.372492282120193D+03 -.849260753872182D+01 0.232216512317489D+02 -.371670728966344D+03
 0.304554887821631D+03 0.601959890340827D+02 -.312673860714640D+02 0.296904821733351D+03
 0.260700724211800D+03 -.410794936012476D+02 -.784191683153048D+02 0.245209658967093D+03
0.202470103236D-03 0.000000000000D+00 0.000000000000D+00 0.167323283291D-05 0.454975446466D-09  6 2 22 9900012 -13 1 21 2 0.57342069D-01 0.13307007D+00 0.19814739D+05 0.19814739D+05 0.19814739D+05 0.11797033D+01  1  2  1  2  6  5        1 0.213351869944D-03 0.100000000000D+01
  </mgrwgt>
  </event>
  <event>
  6     66 0.80203028E-06 0.60858727E+02 0.78161638E-02 0.11754484E+00
        2 -1    0    0  501    0 0.00000000E+00 0.00000000E+00 0.12758564E+04 0.12758564E+04 0.00000000E+00 0.0000E+00 0.9000E+01
       22 -1    0    0    0    0 0.00000000E+00 0.00000000E+00 -.86862058E+01 0.86862058E+01 0.00000000E+00 0.0000E+00 0.9000E+01
       24  2    1    2    0    0 -.42945831E+01 0.63759105E+02 0.35028557E+03 0.36543375E+03 0.82208159E+02 0.0000E+00 0.0000E+00
  9900012  1    3    3    0    0 0.22025814E+02 0.34450660E+02 0.22669597E+03 0.23571815E+03 0.50000000E+02 0.0000E+00 0.9000E+01
      -13  1    3    3    0    0 -.26320397E+02 0.29308444E+02 0.12358960E+03 0.12971560E+03 0.00000000E+00 0.0000E+00 0.9000E+01
        1  1    1    2  501    0 0.42945831E+01 -.63759105E+02 0.91688466E+03 0.91910889E+03 0.00000000E+00 0.0000E+00 0.9000E+01
#aMCatNLO 1  0  0  1  5 0.20173810D+02 0.00000000D+00  -5  6  0 0.00000000D+00 0.00000000D+00 0.00000000D+00 0.00000000D+00 0.00000000D+00
  <mgrwgt>
 0.1453641957D-03    9    2    0
 0.105272748371861D+03 0.000000000000000D+00 0.000000000000000D+00 0.105272748371861D+03
 0.105272748371861D+03 0.000000000000000D+00 0.000000000000000D+00 -.105272748371861D+03
 0.737495395537058D+02 0.220258136819057D+02 0.344506604741976D+02 -.355950854602872D+02
 0.475724272950921D+02 -.263203967583638D+02 0.293084441289544D+02 -.266718513787306D+02
 0.892235298949247D+02 0.429458307645812D+01 -.637591046031520D+02 0.622669368390178D+02
 0.000000000000000D+00 -.000000000000000D+00 0.000000000000000D+00 0.000000000000000D+00
 0.122862950725518D+03 0.000000000000000D+00 0.000000000000000D+00 0.122862950725518D+03
 0.110207006586504D+03 0.000000000000000D+00 0.000000000000000D+00 -.110207006586504D+03
 0.734716526948946D+02 0.266519809070909D+02 0.303437893896284D+02 -.355950854602872D+02
 0.444455778959739D+02 -.234288926668672D+02 0.267415169155081D+02 -.266718513787306D+02
 0.933730605610374D+02 0.100323600180518D+02 -.688528050822123D+02 0.622669368390178D+02
 0.217796661601170D+02 -.132554482582755D+02 0.117674987770759D+02 0.126559441390140D+02
0.269350076138D-06 0.000000000000D+00 0.000000000000D+00 0.141699689647D-06 0.000000000000D+00  6 2 22 9900012 -13 1 21 0 0.19628561D+00 0.13363393D-02 0.70464869D+04 0.70464869D+04 0.70464869D+04 0.12254201D+01  1  2  2  1  6  1        2 0.500191845748D-04 0.100000000000D+01
0.605449120112D-09 0.000000000000D+00 -.517187606936D-09 0.141699689647D-06 0.000000000000D+00  6 2 22 9900012 -13 1 21 2 0.19628561D+00 0.13363393D-02 0.70464869D+04 0.70464869D+04 0.70464869D+04 0.12254201D+01  1  2  3  1  6  1        2 0.168836810186D-06 0.100000000000D+01
-.356386354977D-07 0.000000000000D+00 0.000000000000D+00 0.141699689647D-06 0.000000000000D+00  6 2 22 9900012 -13 1 21 2 0.19628561D+00 0.13363393D-02 0.70464869D+04 0.70464869D+04 0.70464869D+04 0.12254201D+01  1  2 15  1  6  1        2 -.993826456580D-05 0.100000000000D+01
0.348975663765D-06 0.000000000000D+00 0.000000000000D+00 0.141699689647D-06 0.000000000000D+00  6 2 22 9900012 -13 1 21 2 0.23982071D+00 0.13363393D-02 0.87545517D+04 0.87545517D+04 0.87545517D+04 0.12153650D+01  1  2 12  1  6  1        2 0.694311193250D-04 0.100000000000D+01
-.739021385153D-07 0.000000000000D+00 0.000000000000D+00 0.141699689647D-06 0.000000000000D+00  6 2 22 9900012 -13 1 21 2 0.19628561D+00 0.13363393D-02 0.70464869D+04 0.70464869D+04 0.70464869D+04 0.12254201D+01  1  2  4  1  6  1        2 -.206085051879D-04 0.100000000000D+01
-.730030226482D-06 0.000000000000D+00 -.162490127354D-06 0.141699689647D-06 0.000000000000D+00  6 2 22 9900012 -13 1 21 2 0.23427538D+00 0.13363393D-02 0.70464869D+04 0.70464869D+04 0.70464869D+04 0.12254201D+01  1  2  5  1  6  1        2 -.151984196272D-03 0.100000000000D+01
0.749527634829D-06 0.000000000000D+00 0.159979668097D-06 0.141699689647D-06 0.000000000000D+00  6 2 22 9900012 -13 1 21 2 0.19628561D+00 0.13363393D-02 0.70464869D+04 0.70464869D+04 0.70464869D+04 0.12254201D+01  1  2  6  1  6  1        2 0.209014846676D-03 0.100000000000D+01
0.999885521682D-08 0.000000000000D+00 0.000000000000D+00 0.141699689647D-06 0.000000000000D+00  6 21 22 9900012 -13 1 -2 2 0.23982071D+00 0.13363393D-02 0.87545517D+04 0.87545517D+04 0.87545517D+04 0.12153650D+01  1  2 12  3  6  1        2 0.801659148512D-06 0.100000000000D+01
-.174833871091D-07 0.000000000000D+00 -.422803823541D-08 0.141699689647D-06 0.000000000000D+00  6 21 22 9900012 -13 1 -2 2 0.23427538D+00 0.13363393D-02 0.70464869D+04 0.70464869D+04 0.70464869D+04 0.12254201D+01  1  2  5  3  6  1        2 -.154048480302D-05 0.100000000000D+01
  </mgrwgt>
  </event>
  <event>
  6     66 0.80203028E-06 0.37376794E+02 0.78161638E-02 0.10890985E+00
        2 -1    0    0  501    0 0.00000000E+00 0.00000000E+00 0.12487811E+04 0.12487811E+04 0.00000000E+00 0.0000E+00 0.9000E+01
       22 -1    0    0    0    0 0.00000000E+00 0.00000000E+00 -.13525256E+03 0.13525256E+03 0.00000000E+00 0.0000E+00 0.9000E+01
       24  2    1    2    0    0 -.13642366E+03 0.34802119E+01 -.78726407E+02 0.18399392E+03 0.95038879E+02 0.0000E+00 0.0000E+00
  9900012  1    3    3    0    0 -.87366051E+02 -.31994289E+02 -.46438129E+02 0.11538181E+03 0.50000000E+02 0.0000E+00 0.9000E+01
      -13  1    3    3    0    0 -.49057612E+02 0.35474501E+02 -.32288278E+02 0.68612116E+02 0.00000000E+00 0.0000E+00 0.9000E+01
        1  1    1    2  501    0 0.13642366E+03 -.34802119E+01 0.11922550E+04 0.12000398E+04 0.00000000E+00 0.0000E+00 0.9000E+01
#aMCatNLO 1  0  0  5  1 0.21854997D+02 0.00000000D+00  -5  6  0 0.00000000D+00 0.00000000D+00 0.00000000D+00 0.00000000D+00 0.00000000D+00
  <mgrwgt>
 0.2830608359D-03    7    2    0
 0.410975482129511D+03 0.000000000000000D+00 0.000000000000000D+00 0.410975482129511D+03
 0.410975482129511D+03 -.000000000000000D+00 -.000000000000000D+00 -.410975482129511D+03
 0.257195986248263D+03 -.873660510249960D+02 -.319942892192158D+02 -.234506532804252D+03
 0.159273977237165D+03 -.490576117851512D+02 0.354745011149881D+02 -.147319755367449D+03
 0.405481000773594D+03 0.136423662810147D+03 -.348021189577230D+01 0.381826288171702D+03
 0.000000000000000D+00 0.000000000000000D+00 0.000000000000000D+00 0.000000000000000D+00
 0.410975482129511D+03 0.000000000000000D+00 0.000000000000000D+00 0.410975482129511D+03
 0.410975482129511D+03 -.000000000000000D+00 -.000000000000000D+00 -.410975482129511D+03
 0.254794057481411D+03 -.865342518774926D+02 -.320155086853143D+02 -.232178470542520D+03
 0.157779276773612D+03 -.485425146077174D+02 0.354613608188880D+02 -.145878087263427D+03
 0.376156352172996D+03 0.128479667340395D+03 -.239023283999668D+02 0.352725466981415D+03
 0.332212778310038D+02 0.659709914481501D+01 0.204564762663931D+02 0.253310908245326D+02
0.684631755420D-05 0.000000000000D+00 0.000000000000D+00 0.301590232334D-06 0.000000000000D+00  6 2 22 9900012 -13 1 21 0 0.19212017D+00 0.20808087D-01 0.22896559D+05 0.22896559D+05 0.22896559D+05 0.11737237D+01  1  2  2  2  6  5        1 0.300178742126D-04 0.100000000000D+01
0.825352809828D-07 0.000000000000D+00 -.131458310425D-07 0.301590232334D-06 0.000000000000D+00  6 2 22 9900012 -13 1 21 2 0.19212017D+00 0.20808087D-01 0.22896559D+05 0.22896559D+05 0.22896559D+05 0.11737237D+01  1  2  3  2  6  5        1 0.498533442896D-06 0.100000000000D+01
-.953592896029D-06 0.000000000000D+00 0.000000000000D+00 0.301590232334D-06 0.000000000000D+00  6 2 22 9900012 -13 1 21 2 0.19212017D+00 0.20808087D-01 0.22896559D+05 0.22896559D+05 0.22896559D+05 0.11737237D+01  1  2 15  2  6  5        1 -.575993616206D-05 0.100000000000D+01
0.444071340484D-04 0.000000000000D+00 0.000000000000D+00 0.301590232334D-06 0.000000000000D+00  6 2 22 9900012 -13 1 21 2 0.19212017D+00 0.20808087D-01 0.25159879D+05 0.25159879D+05 0.25159879D+05 0.11698724D+01  1  2 12  2  6  5        1 0.267086482915D-03 0.100000000000D+01
-.541974930904D-05 0.000000000000D+00 0.000000000000D+00 0.301590232334D-06 0.000000000000D+00  6 2 22 9900012 -13 1 21 2 0.19212017D+00 0.20808087D-01 0.22896559D+05 0.22896559D+05 0.22896559D+05 0.11737237D+01  1  2  4  2  6  5        1 -.327366218482D-04 0.100000000000D+01
-.465063976993D-04 0.000000000000D+00 0.000000000000D+00 0.301590232334D-06 0.000000000000D+00  6 2 22 9900012 -13 1 21 2 0.19212017D+00 0.20808087D-01 0.22896559D+05 0.22896559D+05 0.22896559D+05 0.11737237D+01  1  2  5  2  6  5        1 -.280910106389D-03 0.100000000000D+01
0.504722132103D-04 0.000000000000D+00 -.000000000000D+00 0.301590232334D-06 0.000000000000D+00  6 2 22 9900012 -13 1 21 2 0.19212017D+00 0.20808087D-01 0.22896559D+05 0.22896559D+05 0.22896559D+05 0.11737237D+01  1  2  6  2  6  5        1 0.304864609688D-03 0.100000000000D+01
  </mgrwgt>
  </event>
  <event>
  6     66 0.80203028E-06 0.10736466E+03 0.78161638E-02 0.10279080E+00
        2 -1    0    0  501    0 0.00000000E+00 0.00000000E+00 0.65217585E+03 0.65217585E+03 0.00000000E+00 0.0000E+00 0.9000E+01
       22 -1    0    0    0    0 0.00000000E+00 0.00000000E+00 -.73372940E+02 0.73372940E+02 0.00000000E+00 0.0000E+00 0.9000E+01
       24  2    1    2    0    0 -.75549613E+02 -.76285158E+02 -.30366293E+01 0.13388637E+03 0.79932280E+02 0.0000E+00 0.0000E+00
  9900012  1    3    3    0    0 -.52445438E+02 -.24166646E+02 -.72102649E+01 0.76723782E+02 0.50000000E+02 0.0000E+00 0.9000E+01
      -13  1    3    3    0    0 -.23104175E+02 -.52118512E+02 0.41736356E+01 0.57162588E+02 0.00000000E+00 0.0000E+00 0.9000E+01
        1  1    1    2  501    0 0.75549613E+02 0.76285158E+02 0.58183954E+03 0.59166242E+03 0.00000000E+00 0.0000E+00 0.9000E+01
#aMCatNLO 1  0  0  1  5 0.54211005D+01 0.00000000D+00  -5  6  0 0.00000000D+00 0.00000000D+00 0.00000000D+00 0.00000000D+00 0.00000000D+00
  <mgrwgt>
 0.2320880063D-03    3    2    0
 0.218751134889765D+03 0.000000000000000D+00 0.000000000000000D+00 0.218751134889765D+03
 0.218751134889765D+03 0.000000000000000D+00 0.000000000000000D+00 -.218751134889765D+03
 0.136776819615207D+03 -.524454380706331D+02 -.241666461252964D+02 -.113460775709868D+03
 0.892761852697417D+02 -.231041751652792D+02 -.521185119452290D+02 -.687029479634198D+02
 0.211449264894582D+03 0.755496132359123D+02 0.762851580705254D+02 0.182163723673288D+03
 0.000000000000000D+00 0.000000000000000D+00 -.000000000000000D+00 -.000000000000000D+00
 0.242358820116892D+03 0.000000000000000D+00 0.000000000000000D+00 0.242358820116892D+03
 0.213997732031029D+04 0.000000000000000D+00 0.000000000000000D+00 -.213997732031029D+04
 0.142232072412863D+03 -.618978194467188D+02 0.320199117099705D+02 -.113460775709868D+03
 0.767750438777887D+02 -.287297290121880D+02 -.186792658971989D+02 -.687029479634198D+02
 0.256571814683624D+03 0.596937969425179D+02 0.170534818949431D+03 0.182163723673288D+03
 0.190675720945291D+04 0.309337515163889D+02 -.183875464762203D+03 -.189761850019340D+04
0.118107855801D-04 0.000000000000D+00 0.000000000000D+00 0.735346543740D-05 0.000000000000D+00  6 2 22 9900012 -13 1 21 0 0.10033475D+00 0.11288145D-01 0.14491213D+05 0.14491213D+05 0.14491213D+05 0.11929770D+01  1  2  2  1  6  1        2 0.288310813904D-03 0.100000000000D+01
0.744925160687D-07 0.000000000000D+00 -.226782632395D-07 0.735346543740D-05 0.000000000000D+00  6 2 22 9900012 -13 1 21 2 0.10033475D+00 0.11288145D-01 0.14491213D+05 0.14491213D+05 0.14491213D+05 0.11929770D+01  1  2  3  1  6  1        2 0.258796803146D-05 0.100000000000D+01
-.169281946005D-05 0.000000000000D+00 0.000000000000D+00 0.735346543740D-05 0.000000000000D+00  6 2 22 9900012 -13 1 21 2 0.10033475D+00 0.11288145D-01 0.14491213D+05 0.14491213D+05 0.14491213D+05 0.11929770D+01  1  2 15  1  6  1        2 -.588107755901D-04 0.100000000000D+01
  </mgrwgt>
  </event>
  <event>
  6     66 0.80203028E-06 0.34277796E+02 0.78161638E-02 0.12258705E+00
        2 -1    0    0  501    0 0.00000000E+00 0.00000000E+00 0.34103428E+02 0.34103428E+02 0.00000000E+00 0.0000E+00 0.9000E+01
       22 -1    0    0    0    0 -.00000000E+00 -.00000000E+00 -.25510989E+03 0.25510989E+03 0.00000000E+00 0.0000E+00 0.9000E+01
       24  2    1    2    0    0 -.31304765E+02 0.13963487E+02 -.23630910E+03 0.25167483E+03 0.79518954E+02 0.0000E+00 0.0000E+00
  9900012  1    3    3    0    0 0.70100417E+00 -.18877246E+01 -.15471323E+03 0.16260454E+03 0.50000000E+02 0.0000E+00 0.9000E+01
      -13  1    3    3    0    0 -.32005769E+02 0.15851211E+02 -.81595871E+02 0.89070289E+02 0.00000000E+00 0.0000E+00 0.9000E+01
        1  1    1    2  501    0 0.31304765E+02 -.13963487E+02 0.15302635E+02 0.37538486E+02 0.00000000E+00 0.0000E+00 0.9000E+01
#aMCatNLO 1  0  0  5  1 0.42530972D+02 0.00000000D+00  -5  6  0 0.00000000D+00 0.00000000D+00 0.00000000D+00 0.00000000D+00 0.00000000D+00
  <mgrwgt>
 0.1294856187D-03    4    2    0
 0.932744425861767D+02 0.000000000000000D+00 0.000000000000000D+00 0.932744425861767D+02
 0.932744425861767D+02 -.000000000000000D+00 -.000000000000000D+00 -.932744425861767D+02
 0.688011423121904D+02 0.701004173535573D+00 -.188772460667429D+01 -.472180291035142D+02
 0.414213082487597D+02 -.320057691401044D+02 0.158512111548128D+02 -.209784323464515D+02
 0.763264346114033D+02 0.313047649665688D+02 -.139634865481385D+02 0.681964614499657D+02
 0.000000000000000D+00 0.000000000000000D+00 0.000000000000000D+00 -.000000000000000D+00
 0.932744425861767D+02 0.000000000000000D+00 0.000000000000000D+00 0.932744425861767D+02
 0.932744425861767D+02 -.000000000000000D+00 -.000000000000000D+00 -.932744425861767D+02
 0.584751584624818D+02 0.941349914407096D+01 -.577393191254981D+01 -.282381285028978D+02
 0.318559653752431D+02 -.269896909384451D+02 0.136137900922979D+02 -.100510612553480D+02
 0.557225299218769D+02 -.765789296328306D+01 0.211840726055535D+02 0.509665781085998D+02
 0.404952314127515D+02 0.252340847576572D+02 -.290239307853016D+02 -.126773883503541D+02
0.157599111042D-05 0.000000000000D+00 0.000000000000D+00 0.997758602957D-06 0.000000000000D+00  6 2 22 9900012 -13 1 21 0 0.52466812D-02 0.39247675D-01 0.36020579D+04 0.36020579D+04 0.36020579D+04 0.12582045D+01  1  2  2  2  6  5        1 0.155718107601D-03 0.100000000000D+01
0.693907982064D-07 0.000000000000D+00 -.302611041600D-08 0.997758602957D-06 0.000000000000D+00  6 2 22 9900012 -13 1 21 2 0.52466812D-02 0.39247675D-01 0.36020579D+04 0.36020579D+04 0.36020579D+04 0.12582045D+01  1  2  3  2  6  5        1 0.108539979674D-04 0.100000000000D+01
-.227253110008D-06 0.000000000000D+00 0.000000000000D+00 0.997758602957D-06 0.000000000000D+00  6 2 22 9900012 -13 1 21 2 0.52466812D-02 0.39247675D-01 0.36020579D+04 0.36020579D+04 0.36020579D+04 0.12582045D+01  1  2 15  2  6  5        1 -.355465689670D-04 0.100000000000D+01
-.984486370961D-08 0.000000000000D+00 0.000000000000D+00 0.997758602957D-06 0.000000000000D+00  6 2 22 9900012 -13 1 21 2 0.52466812D-02 0.39247675D-01 0.36020579D+04 0.36020579D+04 0.36020579D+04 0.12582045D+01  1  2  4  2  6  5        1 -.153991787753D-05 0.100000000000D+01
  </mgrwgt>
  </event>
  <event>
  6     66 0.80203028E-06 0.50542652E+02 0.78161638E-02 0.11551446E+00
        2 -1    0    0  501    0 0.00000000E+00 0.00000000E+00 0.11438689E+04 0.11438689E+04 0.00000000E+00 0.0000E+00 0.9000E+01
       22 -1    0    0    0    0 0.00000000E+00 0.00000000E+00 -.93186107E+01 0.93186107E+01 0.00000000E+00 0.0000E+00 0.9000E+01
       24  2    1    2    0    0 0.29937787E+02 -.60226031E+02 0.34878993E+03 0.36455402E+03 0.81986399E+02 0.0000E+00 0.0000E+00
  9900012  1    3    3    0    0 -.13965108E+01 -.54756373E+02 0.25015845E+03 0.26092041E+03 0.50000000E+02 0.0000E+00 0.9000E+01
      -13  1    3    3    0    0 0.31334298E+02 -.54696588E+01 0.98631484E+02 0.10363361E+03 0.00000000E+00 0.0000E+00 0.9000E+01
        1  1    1    2  501    0 -.29937787E+02 0.60226031E+02 0.78576036E+03 0.78863349E+03 0.00000000E+00 0.0000E+00 0.9000E+01
#aMCatNLO 1  0  0  1  5 0.45724897D+02 0.00000000D+00  -5  6  0 0.00000000D+00 0.00000000D+00 0.00000000D+00 0.00000000D+00 0.00000000D+00
  <mgrwgt>
 0.1422039683D-03    9    2    0
 0.103243735743723D+03 0.000000000000000D+00 0.000000000000000D+00 0.103243735743723D+03
 0.103243735743723D+03 0.000000000000000D+00 0.000000000000000D+00 -.103243735743723D+03
 0.826820971013457D+02 -.139651082661048D+01 -.547563727063766D+02 -.365529559218935D+02
 0.368380975279438D+02 0.313342982497206D+02 -.546965875055503D+01 -.185819809446768D+02
 0.869672768581570D+02 -.299377874231101D+02 0.602260314569316D+02 0.551349368665702D+02
 0.000000000000000D+00 0.000000000000000D+00 -.000000000000000D+00 0.000000000000000D+00
 0.121929494753263D+03 0.000000000000000D+00 0.000000000000000D+00 0.121929494753263D+03
 0.120256654129690D+03 0.000000000000000D+00 0.000000000000000D+00 -.120256654129690D+03
 0.784086589863456D+02 -.113627487263826D+02 -.467192375664484D+02 -.365529559218935D+02
 0.328554186880040D+02 0.270225538669351D+02 -.199251194332648D+01 -.185819809446768D+02
 0.978486413301444D+02 -.413718352422586D+02 0.694468616681990D+02 0.551349368665702D+02
 0.330734298784589D+02 0.257120301017061D+02 -.207351121584241D+02 0.167284062357222D+01
0.430350231699D-06 0.000000000000D+00 0.000000000000D+00 0.123630134234D-06 0.000000000000D+00  6 2 22 9900012 -13 1 21 0 0.17597983D+00 0.14336324D-02 0.75019916D+04 0.75019916D+04 0.75019916D+04 0.12224929D+01  1  2  2  1  6  1        2 0.858539821850D-04 0.100000000000D+01
-.145919664432D-08 0.000000000000D+00 -.826329101771D-09 0.123630134234D-06 0.000000000000D+00  6 2 22 9900012 -13 1 21 2 0.17597983D+00 0.14336324D-02 0.75019916D+04 0.75019916D+04 0.75019916D+04 0.12224929D+01  1  2  3  1  6  1        2 -.435055744092D-06 0.100000000000D+01
-.537304321480D-07 0.000000000000D+00 0.000000000000D+00 0.123630134234D-06 0.000000000000D+00  6 2 22 9900012 -13 1 21 2 0.17597983D+00 0.14336324D-02 0.75019916D+04 0.75019916D+04 0.75019916D+04 0.12224929D+01  1  2 15  1  6  1        2 -.160195907999D-04 0.100000000000D+01
0.113791754706D-06 0.000000000000D+00 0.000000000000D+00 0.123630134234D-06 0.000000000000D+00  6 2 22 9900012 -13 1 21 2 0.24207691D+00 0.14336324D-02 0.11059716D+05 0.11059716D+05 0.11059716D+05 0.12048226D+01  1  2 12  1  6  1        2 0.201787837419D-04 0.100000000000D+01
-.267758764506D-07 0.000000000000D+00 0.000000000000D+00 0.123630134234D-06 0.000000000000D+00  6 2 22 9900012 -13 1 21 2 0.17597983D+00 0.14336324D-02 0.75019916D+04 0.75019916D+04 0.75019916D+04 0.12224929D+01  1  2  4  1  6  1        2 -.798315901992D-05 0.100000000000D+01
-.494580701414D-06 0.000000000000D+00 -.188977590157D-06 0.123630134234D-06 0.000000000000D+00  6 2 22 9900012 -13 1 21 2 0.22938412D+00 0.14336324D-02 0.75019916D+04 0.75019916D+04 0.75019916D+04 0.12224929D+01  1  2  5  1  6  1        2 -.972170324834D-04 0.100000000000D+01
0.532308816760D-06 0.000000000000D+00 0.182529528948D-06 0.123630134234D-06 0.000000000000D+00  6 2 22 9900012 -13 1 21 2 0.17597983D+00 0.14336324D-02 0.75019916D+04 0.75019916D+04 0.75019916D+04 0.12224929D+01  1  2  6  1  6  1        2 0.158706511054D-03 0.100000000000D+01
0.459670181722D-08 0.000000000000D+00 0.000000000000D+00 0.123630134234D-06 0.000000000000D+00  6 21 22 9900012 -13 1 -2 2 0.24207691D+00 0.14336324D-02 0.11059716D+05 0.11059716D+05 0.11059716D+05 0.12048226D+01  1  2 12  3  6  1        2 0.319743716124D-06 0.100000000000D+01
-.139892691214D-07 0.000000000000D+00 -.667584656616D-08 0.123630134234D-06 0.000000000000D+00  6 21 22 9900012 -13 1 -2 2 0.22938412D+00 0.14336324D-02 0.75019916D+04 0.75019916D+04 0.75019916D+04 0.12224929D+01  1  2  5  3  6  1        2 -.120021435711D-05 0.100000000000D+01
  </mgrwgt>
  </event>
  <event>
  7     66 -.80203028E-06 0.41373343E+02 0.78161638E-02 0.12171499E+00
        2 -1    0    0  501    0 0.00000000E+00 0.00000000E+00 0.16003985E+03 0.16003985E+03 0.00000000E+00 0.0000E+00 0.9000E+01
       22 -1    0    0    0    0 -.00000000E+00 -.00000000E+00 -.21789432E+03 0.21789432E+03 0.00000000E+00 0.0000E+00 0.9000E+01
       24  2    1    2    0    0 -.35496846E+01 0.52145371E+02 -.19236915E+03 0.21656436E+03 0.84631510E+02 0.0000E+00 0.0000E+00
  9900012  1    3    3    0    0 0.90790262E+01 0.96934956E+01 -.13130592E+03 0.14112986E+03 0.50000000E+02 0.0000E+00 0.9000E+01
      -13  1    3    3    0    0 -.12628711E+02 0.42451875E+02 -.61063236E+02 0.75434507E+02 0.00000000E+00 0.0000E+00 0.9000E+01
        1  1    1    2  502    0 0.61915025E+01 -.44834584E+02 0.14292335E+03 0.14991850E+03 0.00000000E+00 0.0000E+00 0.9000E+01
       21  1    1    2  501  502 -.26418180E+01 -.73107872E+01 -.84086656E+01 0.11451309E+02 0.00000000E+00 0.0000E+00 0.9000E+01
#aMCatNLO 2  0  0  5  1 0.16582898D+02 0.00000000D+00  -5  6  0 0.00000000D+00 0.00000000D+00 0.00000000D+00 0.00000000D+00 0.00000000D+00
  <mgrwgt>
 -.1064511243D-03    3    2    0
 0.186739860112906D+03 0.000000000000000D+00 0.000000000000000D+00 0.186739860112906D+03
 0.186739860112906D+03 -.000000000000000D+00 -.000000000000000D+00 -.186739860112906D+03
 0.126940918476372D+03 0.897373400211613D+01 0.112402534541272D+02 -.115789142772417D+03
 0.693878057092657D+02 -.126862353656597D+02 0.432969193362269D+02 -.527172058192214D+02
 0.177150996040175D+03 0.371250136354362D+01 -.545371727903542D+02 0.168506348591638D+03
 0.000000000000000D+00 0.000000000000000D+00 0.000000000000000D+00 -.000000000000000D+00
 0.186739860112906D+03 0.000000000000000D+00 0.000000000000000D+00 0.186739860112906D+03
 0.186739860112906D+03 -.000000000000000D+00 -.000000000000000D+00 -.186739860112906D+03
 0.122472945957661D+03 0.907902623614213D+01 0.969349556820488D+01 -.111010044220425D+03
 0.668751089124848D+02 -.126287107900794D+02 0.424518751434022D+02 -.501062286811354D+02
 0.173846335841239D+03 0.619150251154281D+01 -.448345835086158D+02 0.167851344658550D+03
 0.102853295144273D+02 -.264181795760553D+01 -.731078720299128D+01 -.673507175698972D+01
-.340926003267D-05 0.000000000000D+00 0.000000000000D+00 0.694339184319D-06 0.000000000000D+00  6 2 22 9900012 -13 1 21 2 0.24621516D-01 0.33522204D-01 0.55545630D+04 0.55545630D+04 0.55545630D+04 0.12367359D+01  1  2 13  2  6  5        1 -.108152212919D-03 0.100000000000D+01
-.386212465068D-07 0.000000000000D+00 0.000000000000D+00 0.694339184319D-06 0.000000000000D+00  6 2 22 9900012 -13 1 21 2 0.24621516D-01 0.33522204D-01 0.57614332D+04 0.57614332D+04 0.57614332D+04 0.12349753D+01  1  2  8  2  6  5        1 -.122490035768D-05 0.100000000000D+01
0.922353501929D-07 0.000000000000D+00 0.000000000000D+00 0.694339184319D-06 0.494927428134D-09  6 2 22 9900012 -13 1 21 2 0.24621516D-01 0.33522204D-01 0.55545630D+04 0.55545630D+04 0.55545630D+04 0.12367359D+01  1  2  1  2  6  5        1 0.292598896451D-05 0.100000000000D+01
  </mgrwgt>
  </event>
  <event>
  5     66 0.80203028E-06 0.14364277E+03 0.78161638E-02 0.93616598E-01
        2 -1    0    0  501    0 0.00000000E+00 0.00000000E+00 0.10768633E+04 0.10768633E+04 0.00000000E+00 0.0000E+00 0.9000E+01
       22 -1    0    0    0    0 0.00000000E+00 0.00000000E+00 -.20826830E+03 0.20826830E+03 0.00000000E+00 0.0000E+00 0.9000E+01
  9900012  1    1    2    0    0 -.19261195E+02 0.16289437E+03 -.56870555E+02 0.18066496E+03 0.50000000E+02 0.0000E+00 0.9000E+01
      -13  1    1    2    0    0 0.12655221E+02 -.19403576E+02 -.82820903E+02 0.85999740E+02 0.00000000E+00 0.0000E+00 0.9000E+01
        1  1    1    2  501    0 0.66059746E+01 -.14349079E+03 0.10082865E+04 0.10184669E+04 0.00000000E+00 0.0000E+00 0.9000E+01
#aMCatNLO 1  0  0  1  5 0.25314912D+03 0.00000000D+00  -5  6  0 0.00000000D+00 0.00000000D+00 0.00000000D+00 0.00000000D+00 0.00000000D+00
  <mgrwgt>
 0.8153760922D-03    3    2    0
 0.473578389870628D+03 0.000000000000000D+00 0.000000000000000D+00 0.473578389870628D+03
 0.473578389870628D+03 0.000000000000000D+00 0.000000000000000D+00 -.473578389870628D+03
 0.297285243685878D+03 -.192611952691897D+02 0.162894369524957D+03 -.242843461611056D+03
 0.192638441473453D+03 0.126552206454701D+02 -.194035759707474D+02 -.191240465810149D+03
 0.457233094581926D+03 0.660597462371966D+01 -.143490793554210D+03 0.434083927421205D+03
 0.000000000000000D+00 -.000000000000000D+00 0.000000000000000D+00 -.000000000000000D+00
 0.538422210549680D+03 0.000000000000000D+00 0.000000000000000D+00 0.538422210549680D+03
 0.571026412755910D+04 0.000000000000000D+00 0.000000000000000D+00 -.571026412755910D+04
 0.250664844845623D+03 -.951788019122312D+01 0.356276234248838D+02 -.242843461611056D+03
 0.224749631825568D+03 0.200769614080943D+02 -.116346022119639D+03 -.191240465810149D+03
 0.580426494451639D+03 0.250570060793814D+02 -.384497341814398D+03 0.434083927421205D+03
 0.519284536698595D+04 -.356160872962525D+02 0.465215740509154D+03 -.517184191700942D+04
0.348152912084D-03 0.000000000000D+00 0.000000000000D+00 0.109482671908D-06 0.000000000000D+00  6 2 22 9900012 -13 1 21 0 0.16567128D+00 0.32041277D-01 0.28609875D+05 0.28609875D+05 0.28609875D+05 0.11646840D+01  1  2  2  1  6  1        2 0.983715019758D-03 0.100000000000D+01
0.550844516493D-05 0.000000000000D+00 -.668499426586D-06 0.109482671908D-06 0.000000000000D+00  6 2 22 9900012 -13 1 21 2 0.16567128D+00 0.32041277D-01 0.28609875D+05 0.28609875D+05 0.28609875D+05 0.11646840D+01  1  2  3  1  6  1        2 0.211127358901D-04 0.100000000000D+01
-.494291267919D-04 0.000000000000D+00 0.000000000000D+00 0.109482671908D-06 0.000000000000D+00  6 2 22 9900012 -13 1 21 2 0.16567128D+00 0.32041277D-01 0.28609875D+05 0.28609875D+05 0.28609875D+05 0.11646840D+01  1  2 15  1  6  1        2 -.189451663399D-03 0.100000000000D+01
  </mgrwgt>
  </event>
  <event>
  6     66 0.80203028E-06 0.67465168E+02 0.78161638E-02 0.11509643E+00
        2 -1    0    0  501    0 0.00000000E+00 0.00000000E+00 0.63180876E+03 0.63180876E+03 0.00000000E+00 0.0000E+00 0.9000E+01
       22 -1    0    0    0    0 0.00000000E+00 0.00000000E+00 -.19303517E+02 0.19303517E+02 0.00000000E+00 0.0000E+00 0.9000E+01
       24  2    1    2    0    0 -.63133151E+02 0.23785587E+02 0.14767759E+03 0.18141419E+03 0.80937554E+02 0.0000E+00 0.0000E+00
  9900012  1    3    3    0    0 -.41976674E+02 0.22490193E+02 0.14427427E+03 0.15994660E+03 0.50000000E+02 0.0000E+00 0.9000E+01
      -13  1    3    3    0    0 -.21156477E+02 0.12953936E+01 0.34033160E+01 0.21467583E+02 0.00000000E+00 0.0000E+00 0.9000E+01
        1  1    1    2  501    0 0.63133151E+02 -.23785587E+02 0.46482765E+03 0.46969809E+03 0.00000000E+00 0.0000E+00 0.9000E+01
#aMCatNLO 1  0  0  1  5 0.12285502D+03 0.00000000D+00  -5  6  0 0.00000000D+00 0.00000000D+00 0.00000000D+00 0.00000000D+00 0.00000000D+00
  <mgrwgt>
 0.2175887427D-03    4    2    0
 0.110436094891270D+03 0.000000000000000D+00 0.000000000000000D+00 0.110436094891270D+03
 0.110436094891270D+03 0.000000000000000D+00 0.000000000000000D+00 -.110436094891270D+03
 0.714188971630464D+02 -.419766743541533D+02 0.224901929877971D+02 -.182430507734534D+02
 0.538467867209155D+02 -.211564765729190D+02 0.129539362919882D+01 -.494995140838041D+02
 0.956065058985781D+02 0.631331509270722D+02 -.237855866169959D+02 0.677425648572575D+02
 0.000000000000000D+00 0.000000000000000D+00 0.000000000000000D+00 -.000000000000000D+00
 0.121616023980249D+03 0.000000000000000D+00 0.000000000000000D+00 0.121616023980249D+03
 0.182121477086067D+03 0.000000000000000D+00 0.000000000000000D+00 -.182121477086067D+03
 0.742029642761319D+02 -.508444650813977D+02 0.938676602609401D+01 -.182430507734534D+02
 0.575048781295994D+02 -.279373489726104D+02 -.872431352886535D+01 -.494995140838041D+02
 0.944415191902373D+02 0.515599839728948D+02 -.408865932334188D+02 0.677425648572575D+02
 0.775881394703481D+02 0.272218300811134D+02 0.402241407361902D+02 -.605054531058181D+02
0.186626914697D-05 0.000000000000D+00 0.000000000000D+00 0.698046932919D-06 0.000000000000D+00  6 2 22 9900012 -13 1 21 0 0.97201348D-01 0.29697718D-02 0.62181808D+04 0.62181808D+04 0.62181808D+04 0.12313276D+01  1  2  2  1  6  1        2 0.284726013819D-03 0.100000000000D+01
-.144033667266D-07 0.000000000000D+00 -.358348246217D-08 0.698046932919D-06 0.000000000000D+00  6 2 22 9900012 -13 1 21 2 0.97201348D-01 0.29697718D-02 0.62181808D+04 0.62181808D+04 0.62181808D+04 0.12313276D+01  1  2  3  1  6  1        2 -.333168648141D-05 0.100000000000D+01
-.252615187265D-06 0.000000000000D+00 0.000000000000D+00 0.698046932919D-06 0.000000000000D+00  6 2 22 9900012 -13 1 21 2 0.97201348D-01 0.29697718D-02 0.62181808D+04 0.62181808D+04 0.62181808D+04 0.12313276D+01  1  2 15  1  6  1        2 -.584331858227D-04 0.100000000000D+01
-.232256638943D-07 0.000000000000D+00 0.000000000000D+00 0.698046932919D-06 0.000000000000D+00  6 2 22 9900012 -13 1 21 2 0.97201348D-01 0.29697718D-02 0.62181808D+04 0.62181808D+04 0.62181808D+04 0.12313276D+01  1  2  4  1  6  1        2 -.537239882086D-05 0.100000000000D+01
  </mgrwgt>
  </event>
  <event>
  7     66 -.80203028E-06 0.41552421E+02 0.78161638E-02 0.12148723E+00
        2 -1    0    0  501    0 0.00000000E+00 0.00000000E+00 0.20309441E+03 0.20309441E+03 0.00000000E+00 0.0000E+00 0.9000E+01
       22 -1    0    0    0    0 0.00000000E+00 0.00000000E+00 -.84408633E+02 0.84408633E+02 0.00000000E+00 0.0000E+00 0.9000E+01
       24  2    1    2    0    0 0.19983274E+02 -.50851727E+02 -.49222748E+02 0.10805529E+03 0.79169681E+02 0.0000E+00 0.0000E+00
  9900012  1    3    3    0    0 0.31075929E+02 -.18114382E+02 -.32884025E+02 0.69822656E+02 0.50000000E+02 0.0000E+00 0.9000E+01
      -13  1    3    3    0    0 -.11092655E+02 -.32737346E+02 -.16338723E+02 0.38232639E+02 0.00000000E+00 0.0000E+00 0.9000E+01
        1  1    1    2  502    0 -.15906820E+02 0.43092664E+02 0.16311164E+03 0.16945622E+03 0.00000000E+00 0.0000E+00 0.9000E+01
       21  1    1    2  501  502 -.40764540E+01 0.77590629E+01 0.47968934E+01 0.99915324E+01 0.00000000E+00 0.0000E+00 0.9000E+01
#aMCatNLO 2  0  0  5  1 0.83067310D+01 0.00000000D+00  -5  6  0 0.00000000D+00 0.00000000D+00 0.00000000D+00 0.00000000D+00 0.00000000D+00
  <mgrwgt>
 -.1415736467D-03    3    2    0
 0.130930980928672D+03 0.000000000000000D+00 0.000000000000000D+00 0.130930980928672D+03
 0.130930980928672D+03 -.000000000000000D+00 -.000000000000000D+00 -.130930980928672D+03
 0.927884218074784D+02 0.313378832327374D+02 -.187809808560128D+02 -.691006733259520D+02
 0.501103880981834D+02 -.109512821796038D+02 -.330970986583798D+02 -.359958674624009D+02
 0.118963151951683D+03 -.203866010531335D+02 0.518780795143925D+02 0.105096540788353D+03
 0.000000000000000D+00 -.000000000000000D+00 0.000000000000000D+00 0.000000000000000D+00
 0.130930980928672D+03 0.000000000000000D+00 0.000000000000000D+00 0.130930980928672D+03
 0.130930980928672D+03 -.000000000000000D+00 -.000000000000000D+00 -.130930980928672D+03
 0.915638618894286D+02 0.310759288141434D+02 -.181143816459950D+02 -.677502518816563D+02
 0.493816437999671D+02 -.110926548648127D+02 -.327373455349772D+02 -.352670662199237D+02
 0.112120703789491D+03 -.159068199787212D+02 0.430926642749796D+02 0.102279262717812D+03
 0.879575237845850D+01 -.407645397060954D+01 0.775906290599263D+01 0.738055383768272D+00
-.155345525489D-05 0.000000000000D+00 0.000000000000D+00 0.214554056859D-05 0.000000000000D+00  6 2 22 9900012 -13 1 21 2 0.31245294D-01 0.12985944D-01 0.56896328D+04 0.56896328D+04 0.56896328D+04 0.12355782D+01  1  2 13  2  6  5        1 -.155998789785D-03 0.100000000000D+01
-.349037385332D-07 0.000000000000D+00 0.000000000000D+00 0.214554056859D-05 0.000000000000D+00  6 2 22 9900012 -13 1 21 2 0.31245294D-01 0.12985944D-01 0.58161615D+04 0.58161615D+04 0.58161615D+04 0.12345214D+01  1  2  8  2  6  5        1 -.350517379128D-05 0.100000000000D+01
0.178552314758D-06 0.000000000000D+00 0.000000000000D+00 0.214554056859D-05 0.266564646200D-07  6 2 22 9900012 -13 1 21 2 0.31245294D-01 0.12985944D-01 0.56896328D+04 0.56896328D+04 0.56896328D+04 0.12355782D+01  1  2  1  2  6  5        1 0.179303169035D-04 0.100000000000D+01
  </mgrwgt>
  </event>
  <event>
  6     66 0.80203028E-06 0.18562907E+02 0.78161638E-02 0.12779360E+00
        2 -1    0    0  501    0 0.00000000E+00 0.00000000E+00 0.86868841E+03 0.86868841E+03 0.00000000E+00 0.0000E+00 0.9000E+01
       22 -1    0    0    0    0 0.00000000E+00 0.00000000E+00 -.97810667E+01 0.97810667E+01 0.00000000E+00 0.0000E+00 0.9000E+01
       24  2    1    2    0    0 0.25613871E+02 0.83131471E+00 0.15373152E+03 0.17282814E+03 0.74695533E+02 0.0000E+00 0.0000E+00
  9900012  1    3    3    0    0 -.17987454E+01 -.30927939E+01 0.11247180E+03 0.12313694E+03 0.50000000E+02 0.0000E+00 0.9000E+01
      -13  1    3    3    0    0 0.27412616E+02 0.39241086E+01 0.41259726E+02 0.49691198E+02 0.00000000E+00 0.0000E+00 0.9000E+01
        1  1    1    2  501    0 -.25613871E+02 -.83131471E+00 0.70517582E+03 0.70564134E+03 0.00000000E+00 0.0000E+00 0.9000E+01
#aMCatNLO 1  0  0  1  5 0.15237048D+02 0.00000000D+00  -5  6  0 0.00000000D+00 0.00000000D+00 0.00000000D+00 0.00000000D+00 0.00000000D+00
  <mgrwgt>
 0.1272576224D-03    6    2    0
 0.921775422298090D+02 0.000000000000000D+00 0.000000000000000D+00 0.921775422298090D+02
 0.921775422298090D+02 0.000000000000000D+00 0.000000000000000D+00 -.921775422298090D+02
 0.627549321559667D+02 -.179874544579119D+01 -.309279389361297D+01 -.377542136807649D+02
 0.445548822623563D+02 0.274126164054760D+02 0.392410860392324D+01 -.349039735113823D+02
 0.770452700412951D+02 -.256138709596848D+02 -.831314710310273D+00 0.726581871921473D+02
 0.000000000000000D+00 -.000000000000000D+00 -.000000000000000D+00 -.000000000000000D+00
 0.940286990385507D+02 0.000000000000000D+00 0.000000000000000D+00 0.940286990385507D+02
 0.991847404412612D+02 0.000000000000000D+00 0.000000000000000D+00 -.991847404412612D+02
 0.626643957232993D+02 -.454029564984107D+00 -.111341720280957D+01 -.377542136807649D+02
 0.452992759446221D+02 0.283760110874647D+02 0.534219327503443D+01 -.349039735113823D+02
 0.765256831893901D+02 -.239673201199388D+02 0.159235292010389D+01 0.726581871921473D+02
 0.872408462250043D+01 -.395466140254174D+01 -.582112899232876D+01 -.515604140271049D+01
0.249353413794D-06 0.000000000000D+00 0.000000000000D+00 0.723727573056D-07 0.000000000000D+00  6 2 22 9900012 -13 1 21 0 0.13364437D+00 0.15047795D-02 0.26753340D+04 0.26753340D+04 0.26753340D+04 0.12736381D+01  1  2  2  1  6  1        2 0.612514424680D-04 0.100000000000D+01
0.176902182488D-07 0.000000000000D+00 -.478791382615D-09 0.723727573056D-07 0.000000000000D+00  6 2 22 9900012 -13 1 21 2 0.13364437D+00 0.15047795D-02 0.26753340D+04 0.26753340D+04 0.26753340D+04 0.12736381D+01  1  2  3  1  6  1        2 0.704897977368D-05 0.100000000000D+01
-.353105871235D-07 0.000000000000D+00 0.000000000000D+00 0.723727573056D-07 0.000000000000D+00  6 2 22 9900012 -13 1 21 2 0.13364437D+00 0.15047795D-02 0.26753340D+04 0.26753340D+04 0.26753340D+04 0.12736381D+01  1  2 15  1  6  1        2 -.140701268311D-04 0.100000000000D+01
0.205908957991D-06 0.000000000000D+00 0.000000000000D+00 0.723727573056D-07 0.000000000000D+00  6 2 22 9900012 -13 1 21 2 0.14669176D+00 0.15047795D-02 0.30220589D+04 0.30220589D+04 0.30220589D+04 0.12672418D+01  1  2 12  1  6  1        2 0.733194535040D-04 0.100000000000D+01
-.332943937229D-08 0.000000000000D+00 0.000000000000D+00 0.723727573056D-07 0.000000000000D+00  6 2 22 9900012 -13 1 21 2 0.13364437D+00 0.15047795D-02 0.26753340D+04 0.26753340D+04 0.26753340D+04 0.12736381D+01  1  2  4  1  6  1        2 -.132667389757D-05 0.100000000000D+01
0.319327456181D-08 0.000000000000D+00 0.000000000000D+00 0.723727573056D-07 0.000000000000D+00  6 21 22 9900012 -13 1 -2 2 0.14669176D+00 0.15047795D-02 0.30220589D+04 0.30220589D+04 0.30220589D+04 0.12672418D+01  1  2 12  3  6  1        2 0.103454739595D-05 0.100000000000D+01
  </mgrwgt>
  </event>
  <event>
  6     66 -.80203028E-06 0.35560004E+02 0.78161638E-02 0.12490598E+00
        2 -1    0    0  501    0 0.00000000E+00 0.00000000E+00 0.38059854E+03 0.38059854E+03 0.00000000E+00 0.0000E+00 0.9000E+01
       22 -1    0    0    0    0 0.00000000E+00 0.00000000E+00 -.37759302E+03 0.37759302E+03 0.00000000E+00 0.0000E+00 0.9000E+01
       24  2    1    2    0    0 0.16327438E+02 0.35623175E+02 -.37145197E+03 0.38168922E+03 0.78577981E+02 0.0000E+00 0.0000E+00
  9900012  1    3    3    0    0 0.14160038E+02 0.27151742E+00 -.23891482E+03 0.24450127E+03 0.50000000E+02 0.0000E+00 0.9000E+01
      -13  1    3    3    0    0 0.21673996E+01 0.35351657E+02 -.13253715E+03 0.13718795E+03 0.00000000E+00 0.0000E+00 0.9000E+01
        1  1    1    2  501    0 -.16327438E+02 -.35623175E+02 0.37445749E+03 0.37650234E+03 0.00000000E+00 0.0000E+00 0.9000E+01
#aMCatNLO 1  0  0  1  5 0.15237048D+02 0.00000000D+00  -5  6  0 0.00000000D+00 0.00000000D+00 0.00000000D+00 0.00000000D+00 0.00000000D+00
  <mgrwgt>
 -.8963200489D-05    1    2    0
 0.379092801093623D+03 0.000000000000000D+00 0.000000000000000D+00 0.379092801093623D+03
 0.379092801093623D+03 0.000000000000000D+00 0.000000000000000D+00 -.379092801093623D+03
 0.245450272614336D+03 0.141600382090923D+02 0.271517416248408D+00 -.239885922727161D+03
 0.137714420082388D+03 0.216739957757796D+01 0.353516572002872D+02 -.133082020614705D+03
 0.375020909490523D+03 -.163274377866703D+02 -.356231746165356D+02 0.372967943341866D+03
 0.000000000000000D+00 -.000000000000000D+00 -.000000000000000D+00 0.000000000000000D+00
 0.417964212878406D+03 0.000000000000000D+00 0.000000000000000D+00 0.417964212878406D+03
 0.385197240512964D+03 0.000000000000000D+00 0.000000000000000D+00 -.385197240512964D+03
 0.245839020188838D+03 0.174089784922478D+02 0.940719897753003D+01 -.239885922727161D+03
 0.139165687277609D+03 0.399843263200015D+01 0.405003313695567D+02 -.133082020614705D+03
 0.373771780096044D+03 -.113756043790068D+02 -.216991350176936D+02 0.372967943341866D+03
 0.443849658288797D+02 -.100318067452412D+02 -.282083953293932D+02 0.327669723654417D+02
-.173529178221D-05 0.000000000000D+00 0.000000000000D+00 0.166916599286D-03 0.000000000000D+00  6 2 22 9900012 -13 1 21 2 0.58553621D-01 0.58091234D-01 0.40051066D+04 0.40051066D+04 0.40051066D+04 0.12528427D+01  1  2 14  1  6  1        2 -.896320048941D-05 0.100000000000D+01
  </mgrwgt>
  </event>
  <event>
  6     66 0.80203028E-06 0.37712174E+02 0.78161638E-02 0.12296851E+00
        2 -1    0    0  501    0 0.00000000E+00 0.00000000E+00 0.21479586E+04 0.21479586E+04 0.00000000E+00 0.0000E+00 0.9000E+01
       22 -1    0    0    0    0 0.00000000E+00 0.00000000E+00 -.55798812E+02 0.55798812E+02 0.00000000E+00 0.0000E+00 0.9000E+01
       24  2    1    2    0    0 0.44614303E+02 -.55453266E+01 -.15921406E+02 0.95196882E+02 0.82387914E+02 0.0000E+00 0.0000E+00
  9900012  1    3    3    0    0 0.16122482E+02 0.18895635E+02 -.47517048E+01 0.56031760E+02 0.50000000E+02 0.0000E+00 0.9000E+01
      -13  1    3    3    0    0 0.28491821E+02 -.24440962E+02 -.11169701E+02 0.39165121E+02 0.00000000E+00 0.0000E+00 0.9000E+01
        1  1    1    2  501    0 -.44614303E+02 0.55453266E+01 0.21080812E+04 0.21085606E+04 0.00000000E+00 0.0000E+00 0.9000E+01
#aMCatNLO 1  0  0  5  1 0.35085266D+01 0.00000000D+00  -5  6  0 0.00000000D+00 0.00000000D+00 0.00000000D+00 0.00000000D+00 0.00000000D+00
  <mgrwgt>
 0.2946373523D-03    8    2    0
 0.346198699838152D+03 0.000000000000000D+00 0.000000000000000D+00 0.346198699838152D+03
 0.346198699838152D+03 -.000000000000000D+00 -.000000000000000D+00 -.346198699838152D+03
 0.192695316104806D+03 0.161224823243828D+02 0.188956354318946D+02 -.184430218169518D+03
 0.158405025752622D+03 0.284918209689833D+02 -.244409620486729D+02 -.153892844848926D+03
 0.341297057818876D+03 -.446143032933663D+02 0.554532661677824D+01 0.338323063018444D+03
 0.000000000000000D+00 -.000000000000000D+00 0.000000000000000D+00 0.000000000000000D+00
 0.346198699838152D+03 0.000000000000000D+00 0.000000000000000D+00 0.346198699838152D+03
 0.346198699838152D+03 -.000000000000000D+00 -.000000000000000D+00 -.346198699838152D+03
 0.192635138290576D+03 0.161142718570679D+02 0.188966559504184D+02 -.184367955840047D+03
 0.158353958005386D+03 0.284850715951584D+02 -.244401231364955D+02 -.153841662410620D+03
 0.311509158114870D+03 -.397586082193008D+02 0.842997121099957D+01 0.308846473587252D+03
 0.298991452654721D+02 -.484073523292575D+01 -.288650402492250D+01 0.293631446634147D+02
0.154530522039D-05 0.000000000000D+00 0.000000000000D+00 0.453690439680D-04 0.000000000000D+00  6 2 22 9900012 -13 1 21 0 0.33045518D+00 0.85844325D-02 0.47835274D+04 0.47835274D+04 0.47835274D+04 0.12440164D+01  1  2  2  2  6  5        1 0.810190525963D-05 0.100000000000D+01
0.859956106343D-07 0.000000000000D+00 -.296718946726D-08 0.453690439680D-04 0.000000000000D+00  6 2 22 9900012 -13 1 21 2 0.33045518D+00 0.85844325D-02 0.47835274D+04 0.47835274D+04 0.47835274D+04 0.12440164D+01  1  2  3  2  6  5        1 0.697752525618D-06 0.100000000000D+01
-.226442485052D-06 0.000000000000D+00 0.000000000000D+00 0.453690439680D-04 0.000000000000D+00  6 2 22 9900012 -13 1 21 2 0.33045518D+00 0.85844325D-02 0.47835274D+04 0.47835274D+04 0.47835274D+04 0.12440164D+01  1  2 15  2  6  5        1 -.183731256383D-05 0.100000000000D+01
0.130228071249D-04 0.000000000000D+00 0.000000000000D+00 0.453690439680D-04 0.000000000000D+00  6 2 22 9900012 -13 1 21 2 0.33045518D+00 0.85844325D-02 0.48747827D+04 0.48747827D+04 0.48747827D+04 0.12430880D+01  1  2 12  2  6  5        1 0.105533877283D-03 0.100000000000D+01
-.115933928594D-03 0.000000000000D+00 0.000000000000D+00 0.453690439680D-04 0.000000000000D+00  6 2 22 9900012 -13 1 21 2 0.33045518D+00 0.85844325D-02 0.47835274D+04 0.47835274D+04 0.47835274D+04 0.12440164D+01  1  2  4  2  6  5        1 -.940666516402D-03 0.100000000000D+01
-.302211264910D-03 0.000000000000D+00 0.000000000000D+00 0.453690439680D-04 0.000000000000D+00  6 2 22 9900012 -13 1 21 2 0.33045518D+00 0.85844325D-02 0.47835274D+04 0.47835274D+04 0.47835274D+04 0.12440164D+01  1  2  5  2  6  5        1 -.245208647052D-02 0.100000000000D+01
0.329841130003D-03 0.000000000000D+00 -.000000000000D+00 0.453690439680D-04 0.000000000000D+00  6 2 22 9900012 -13 1 21 2 0.33045518D+00 0.85844325D-02 0.47835274D+04 0.47835274D+04 0.47835274D+04 0.12440164D+01  1  2  6  2  6  5        1 0.267627010047D-02 0.100000000000D+01
0.110889579183D-03 0.000000000000D+00 0.000000000000D+00 0.453690439680D-04 0.123323839571D-04  6 2 22 9900012 -13 1 21 2 0.33045518D+00 0.85844325D-02 0.48747827D+04 0.48747827D+04 0.48747827D+04 0.12430880D+01  1  2 11  2  6  5        1 0.898624016260D-03 0.100000000000D+01
  </mgrwgt>
  </event>
  <event>
  6     66 0.80203028E-06 0.64945808E+02 0.78161638E-02 0.10697323E+00
        2 -1    0    0  501    0 0.00000000E+00 0.00000000E+00 0.10356395E+04 0.10356395E+04 0.00000000E+00 0.0000E+00 0.9000E+01
       22 -1    0    0    0    0 0.00000000E+00 0.00000000E+00 -.48242385E+02 0.48242385E+02 0.00000000E+00 0.0000E+00 0.9000E+01
       24  2    1    2    0    0 0.10850163E+03 -.55116735E+02 0.77261587E+02 0.16564600E+03 0.81601385E+02 0.0000E+00 0.0000E+00
  9900012  1    3    3    0    0 0.49736050E+02 -.76914431E+01 0.34938219E+02 0.79079151E+02 0.50000000E+02 0.0000E+00 0.9000E+01
      -13  1    3    3    0    0 0.58765582E+02 -.47425292E+02 0.42323369E+02 0.86566850E+02 0.00000000E+00 0.0000E+00 0.9000E+01
        1  1    1    2  501    0 -.10850163E+03 0.55116735E+02 0.91013549E+03 0.91823584E+03 0.00000000E+00 0.0000E+00 0.9000E+01
#aMCatNLO 1  0  0  1  5 0.11727940D+03 0.00000000D+00  -5  6  0 0.00000000D+00 0.00000000D+00 0.00000000D+00 0.00000000D+00 0.00000000D+00
  <mgrwgt>
 0.8386654618D-04    6    2    0
 0.223521178312796D+03 0.000000000000000D+00 0.000000000000000D+00 0.223521178312796D+03
 0.223521178312796D+03 0.000000000000000D+00 0.000000000000000D+00 -.223521178312796D+03
 0.114563106313870D+03 0.497360504428107D+02 -.769144308901353D+01 -.899548348775197D+02
 0.116405672740368D+03 0.587655820323536D+02 -.474252916981418D+02 -.885874072421275D+02
 0.216073577571354D+03 -.108501632475164D+03 0.551167347871553D+02 0.178542242119647D+03
 0.000000000000000D+00 0.000000000000000D+00 -.000000000000000D+00 -.000000000000000D+00
 0.268363026276090D+03 0.000000000000000D+00 0.000000000000000D+00 0.268363026276090D+03
 0.268944964840533D+03 0.000000000000000D+00 0.000000000000000D+00 -.268944964840533D+03
 0.107810679667417D+03 0.320227969910810D+02 0.241056121608771D+01 -.899548348775197D+02
 0.104593122527232D+03 0.411618538958396D+02 -.373857505203730D+02 -.885874072421275D+02
 0.242220375520784D+03 -.145007180603033D+03 0.759361288839408D+02 0.178542242119647D+03
 0.826838134011900D+02 0.718225297161123D+02 -.409609395796555D+02 -.581938564443402D+00
0.423844287407D-05 0.000000000000D+00 0.000000000000D+00 0.175522839386D-05 0.000000000000D+00  6 2 22 9900012 -13 1 21 0 0.15932915D+00 0.74219053D-02 0.17976901D+05 0.17976901D+05 0.17976901D+05 0.11837823D+01  1  2  2  1  6  1        2 0.107827235882D-03 0.100000000000D+01
0.107946470421D-07 0.000000000000D+00 -.813836832204D-08 0.175522839386D-05 0.000000000000D+00  6 2 22 9900012 -13 1 21 2 0.15932915D+00 0.74219053D-02 0.17976901D+05 0.17976901D+05 0.17976901D+05 0.11837823D+01  1  2  3  1  6  1        2 0.384834767852D-06 0.100000000000D+01
-.592352233707D-06 0.000000000000D+00 0.000000000000D+00 0.175522839386D-05 0.000000000000D+00  6 2 22 9900012 -13 1 21 2 0.15932915D+00 0.74219053D-02 0.17976901D+05 0.17976901D+05 0.17976901D+05 0.11837823D+01  1  2 15  1  6  1        2 -.211176644735D-04 0.100000000000D+01
0.435540351423D-07 0.000000000000D+00 0.000000000000D+00 0.175522839386D-05 0.000000000000D+00  6 2 22 9900012 -13 1 21 2 0.23016749D+00 0.74219053D-02 0.32652269D+05 0.32652269D+05 0.32652269D+05 0.11594245D+01  1  2 12  1  6  1        2 0.856976846698D-06 0.100000000000D+01
-.115015711627D-06 0.000000000000D+00 0.000000000000D+00 0.175522839386D-05 0.000000000000D+00  6 2 22 9900012 -13 1 21 2 0.15932915D+00 0.74219053D-02 0.17976901D+05 0.17976901D+05 0.17976901D+05 0.11837823D+01  1  2  4  1  6  1        2 -.410036979538D-05 0.100000000000D+01
0.195030433658D-08 0.000000000000D+00 0.000000000000D+00 0.175522839386D-05 0.000000000000D+00  6 21 22 9900012 -13 1 -2 2 0.23016749D+00 0.74219053D-02 0.32652269D+05 0.32652269D+05 0.32652269D+05 0.11594245D+01  1  2 12  3  6  1        2 0.155329489477D-07 0.100000000000D+01
  </mgrwgt>
  </event>
  <event>
  6     66 0.80203028E-06 0.57055870E+02 0.78161638E-02 0.11579927E+00
        2 -1    0    0  501    0 0.00000000E+00 0.00000000E+00 0.44160698E+02 0.44160698E+02 0.00000000E+00 0.0000E+00 0.9000E+01
       22 -1    0    0    0    0 0.00000000E+00 0.00000000E+00 -.84257816E+03 0.84257816E+03 0.00000000E+00 0.0000E+00 0.9000E+01
       24  2    1    2    0    0 0.61309696E+02 0.56211933E+02 -.79503722E+03 0.80349172E+03 0.81216325E+02 0.0000E+00 0.0000E+00
  9900012  1    3    3    0    0 0.34457421E+02 0.91551610E+01 -.37929893E+03 0.38423796E+03 0.50000000E+02 0.0000E+00 0.9000E+01
      -13  1    3    3    0    0 0.26852275E+02 0.47056772E+02 -.41573829E+03 0.41925376E+03 0.00000000E+00 0.0000E+00 0.9000E+01
        1  1    1    2  501    0 -.61309696E+02 -.56211933E+02 -.33802380E+01 0.83247140E+02 0.00000000E+00 0.0000E+00 0.9000E+01
#aMCatNLO 1  0  0  1  5 0.73910339D+01 0.00000000D+00  -5  6  0 0.00000000D+00 0.00000000D+00 0.00000000D+00 0.00000000D+00 0.00000000D+00
  <mgrwgt>
 0.1608383101D-03   11    2    0
 0.192895928330478D+03 0.000000000000000D+00 0.000000000000000D+00 0.192895928330478D+03
 0.192895928330478D+03 0.000000000000000D+00 0.000000000000000D+00 -.192895928330478D+03
 0.981872452662130D+02 0.344574212254887D+02 0.915516098755105D+01 -.766133427201080D+02
 0.103257452717790D+03 0.268522752428688D+02 0.470567721734267D+02 -.879017465620906D+02
 0.184347158676954D+03 -.613096964683575D+02 -.562119331609777D+02 0.164515089282199D+03
 0.000000000000000D+00 0.000000000000000D+00 0.000000000000000D+00 0.000000000000000D+00
 0.257887050366692D+03 0.000000000000000D+00 0.000000000000000D+00 0.257887050366692D+03
 0.193140520089325D+03 0.000000000000000D+00 0.000000000000000D+00 -.193140520089325D+03
 0.976419856115639D+02 0.332333753120654D+02 0.773924006524734D+01 -.766133427201080D+02
 0.102260064634432D+03 0.255676719376099D+02 0.455708012005817D+02 -.879017465620906D+02
 0.185960295643955D+03 -.636243321544601D+02 -.588893989811098D+02 0.164515089282199D+03
 0.651652245660661D+02 0.482328490478486D+01 0.557935771528075D+01 0.647465302773673D+02
0.554644722771D-06 0.000000000000D+00 0.000000000000D+00 0.419517436933D-05 0.000000000000D+00  6 2 22 9900012 -13 1 21 0 0.67939535D-02 0.12962741D+00 0.98771007D+04 0.98771007D+04 0.98771007D+04 0.12098870D+01  1  2  2  1  6  1        2 0.504870206261D-05 0.100000000000D+01
0.751912724695D-08 0.000000000000D+00 -.106499088838D-08 0.419517436933D-05 0.000000000000D+00  6 2 22 9900012 -13 1 21 2 0.67939535D-02 0.12962741D+00 0.98771007D+04 0.98771007D+04 0.98771007D+04 0.12098870D+01  1  2  3  1  6  1        2 0.100189423793D-06 0.100000000000D+01
-.791146739592D-07 0.000000000000D+00 0.000000000000D+00 0.419517436933D-05 0.000000000000D+00  6 2 22 9900012 -13 1 21 2 0.67939535D-02 0.12962741D+00 0.98771007D+04 0.98771007D+04 0.98771007D+04 0.12098870D+01  1  2 15  1  6  1        2 -.105417202518D-05 0.100000000000D+01
0.311739252432D-04 0.000000000000D+00 0.000000000000D+00 0.419517436933D-05 0.000000000000D+00  6 2 22 9900012 -13 1 21 2 0.90945115D-02 0.12962741D+00 0.10697487D+05 0.10697487D+05 0.10697487D+05 0.12063070D+01  1  2 12  1  6  1        2 0.287898050346D-03 0.100000000000D+01
-.186676723207D-04 0.000000000000D+00 0.000000000000D+00 0.419517436933D-05 0.000000000000D+00  6 2 22 9900012 -13 1 21 2 0.67939535D-02 0.12962741D+00 0.98771007D+04 0.98771007D+04 0.98771007D+04 0.12098870D+01  1  2  4  1  6  1        2 -.248739417746D-03 0.100000000000D+01
-.319182527897D-04 0.000000000000D+00 -.272595020019D-06 0.419517436933D-05 0.000000000000D+00  6 2 22 9900012 -13 1 21 2 0.90888852D-02 0.12962741D+00 0.98771007D+04 0.98771007D+04 0.98771007D+04 0.12098870D+01  1  2  5  1  6  1        2 -.295074183093D-03 0.100000000000D+01
0.306995265614D-04 0.000000000000D+00 0.261445466325D-06 0.419517436933D-05 0.000000000000D+00  6 2 22 9900012 -13 1 21 2 0.67939535D-02 0.12962741D+00 0.98771007D+04 0.98771007D+04 0.98771007D+04 0.12098870D+01  1  2  6  1  6  1        2 0.409059160176D-03 0.100000000000D+01
0.388821488664D-06 0.000000000000D+00 0.000000000000D+00 0.419517436933D-05 0.381695692870D-06  6 2 22 9900012 -13 1 21 2 0.90829943D-02 0.12979178D+00 0.10697487D+05 0.10697487D+05 0.10697487D+05 0.12063070D+01  1  2 11  1  6  1        2 0.358698278914D-05 0.100000000000D+01
0.118064733730D-05 0.000000000000D+00 0.000000000000D+00 0.419517436933D-05 0.000000000000D+00  6 21 22 9900012 -13 1 -2 2 0.90945115D-02 0.12962741D+00 0.10697487D+05 0.10697487D+05 0.10697487D+05 0.12063070D+01  1  2 12  3  6  1        2 0.115983819162D-03 0.100000000000D+01
-.120115000865D-05 0.000000000000D+00 -.103080986237D-07 0.419517436933D-05 0.000000000000D+00  6 21 22 9900012 -13 1 -2 2 0.90888852D-02 0.12962741D+00 0.98771007D+04 0.98771007D+04 0.98771007D+04 0.12098870D+01  1  2  5  3  6  1        2 -.118213511669D-03 0.100000000000D+01
0.228418323619D-07 0.000000000000D+00 0.000000000000D+00 0.419517436933D-05 0.222255954556D-07  6 21 22 9900012 -13 1 -2 2 0.90829943D-02 0.12979178D+00 0.10697487D+05 0.10697487D+05 0.10697487D+05 0.12063070D+01  1  2 11  3  6  1        2 0.224269069045D-05 0.100000000000D+01
  </mgrwgt>
  </event>
  <event>
  6     66 0.80203028E-06 0.46951355E+02 0.78161638E-02 0.12048438E+00
        2 -1    0    0  501    0 0.00000000E+00 0.00000000E+00 0.11457198E+04 0.11457198E+04 0.00000000E+00 0.0000E+00 0.9000E+01
       22 -1    0    0    0    0 0.00000000E+00 0.00000000E+00 -.10925253E+02 0.10925253E+02 0.00000000E+00 0.0000E+00 0.9000E+01
       24  2    1    2    0    0 -.41864311E+02 0.29098534E+02 0.21230579E+03 0.23274849E+03 0.80614932E+02 0.0000E+00 0.0000E+00
  9900012  1    3    3    0    0 -.19471496E+02 0.35001864E+02 0.10523337E+03 0.12320037E+03 0.50000000E+02 0.0000E+00 0.9000E+01
      -13  1    3    3    0    0 -.22392814E+02 -.59033300E+01 0.10707242E+03 0.10954812E+03 0.00000000E+00 0.0000E+00 0.9000E+01
        1  1    1    2  501    0 0.41864311E+02 -.29098534E+02 0.92248873E+03 0.92389653E+03 0.00000000E+00 0.0000E+00 0.9000E+01
#aMCatNLO 1  0  0  1  5 0.20342141D+02 0.00000000D+00  -5  6  0 0.00000000D+00 0.00000000D+00 0.00000000D+00 0.00000000D+00 0.00000000D+00
  <mgrwgt>
 0.2854001603D-03    9    2    0
 0.111880640854644D+03 0.000000000000000D+00 0.000000000000000D+00 0.111880640854644D+03
 0.111880640854644D+03 0.000000000000000D+00 0.000000000000000D+00 -.111880640854644D+03
 0.103149421877201D+03 -.194714963159707D+02 0.350018639555211D+02 -.808426470648819D+02
 0.232528716563550D+02 -.223928143580674D+02 -.590333004326981D+01 -.209966659074082D+01
 0.973589881757331D+02 0.418643106740381D+02 -.290985339122513D+02 0.829423136556228D+02
 0.000000000000000D+00 -.000000000000000D+00 0.000000000000000D+00 0.000000000000000D+00
 0.135507561562413D+03 0.000000000000000D+00 0.000000000000000D+00 0.135507561562413D+03
 0.116015313511143D+03 0.000000000000000D+00 0.000000000000000D+00 -.116015313511143D+03
 0.100169356529496D+03 -.150930387506137D+02 0.277590811149928D+02 -.808426470648819D+02
 0.227887801453127D+02 -.214013101781175D+02 -.754346229387611D+01 -.209966659074082D+01
 0.101579929913224D+03 0.461484482130125D+02 -.361852938934952D+02 0.829423136556228D+02
 0.269848084855232D+02 -.965409928428124D+01 0.159696750723785D+02 0.194922480512705D+02
0.549478969050D-06 0.000000000000D+00 0.000000000000D+00 0.125557753689D-05 0.000000000000D+00  6 2 22 9900012 -13 1 21 0 0.17626458D+00 0.16808081D-02 0.47752404D+04 0.47752404D+04 0.47752404D+04 0.12441017D+01  1  2  2  1  6  1        2 0.855977180985D-04 0.100000000000D+01
0.837510044815D-08 0.000000000000D+00 -.105507196114D-08 0.125557753689D-05 0.000000000000D+00  6 2 22 9900012 -13 1 21 2 0.17626458D+00 0.16808081D-02 0.47752404D+04 0.47752404D+04 0.47752404D+04 0.12441017D+01  1  2  3  1  6  1        2 0.201935620110D-05 0.100000000000D+01
-.770694188423D-07 0.000000000000D+00 0.000000000000D+00 0.125557753689D-05 0.000000000000D+00  6 2 22 9900012 -13 1 21 2 0.17626458D+00 0.16808081D-02 0.47752404D+04 0.47752404D+04 0.47752404D+04 0.12441017D+01  1  2 15  1  6  1        2 -.185825363908D-04 0.100000000000D+01
0.893763953348D-06 0.000000000000D+00 0.000000000000D+00 0.125557753689D-05 0.000000000000D+00  6 2 22 9900012 -13 1 21 2 0.22137777D+00 0.16808081D-02 0.63316451D+04 0.63316451D+04 0.63316451D+04 0.12304680D+01  1  2 12  1  6  1        2 0.151360670294D-03 0.100000000000D+01
-.132371523736D-06 0.000000000000D+00 0.000000000000D+00 0.125557753689D-05 0.000000000000D+00  6 2 22 9900012 -13 1 21 2 0.17626458D+00 0.16808081D-02 0.47752404D+04 0.47752404D+04 0.47752404D+04 0.12441017D+01  1  2  4  1  6  1        2 -.319166628460D-04 0.100000000000D+01
-.135917436224D-05 0.000000000000D+00 -.294748678933D-06 0.125557753689D-05 0.000000000000D+00  6 2 22 9900012 -13 1 21 2 0.21708257D+00 0.16808081D-02 0.47752404D+04 0.47752404D+04 0.47752404D+04 0.12441017D+01  1  2  5  1  6  1        2 -.238882689733D-03 0.100000000000D+01
0.139644599335D-05 0.000000000000D+00 0.288468364186D-06 0.125557753689D-05 0.000000000000D+00  6 2 22 9900012 -13 1 21 2 0.17626458D+00 0.16808081D-02 0.47752404D+04 0.47752404D+04 0.47752404D+04 0.12441017D+01  1  2  6  1  6  1        2 0.336703051341D-03 0.100000000000D+01
0.282357841638D-07 0.000000000000D+00 0.000000000000D+00 0.125557753689D-05 0.000000000000D+00  6 21 22 9900012 -13 1 -2 2 0.22137777D+00 0.16808081D-02 0.63316451D+04 0.63316451D+04 0.63316451D+04 0.12304680D+01  1  2 12  3  6  1        2 0.222804650355D-05 0.100000000000D+01
-.364821989899D-07 0.000000000000D+00 -.870066763641D-08 0.125557753689D-05 0.000000000000D+00  6 21 22 9900012 -13 1 -2 2 0.21708257D+00 0.16808081D-02 0.47752404D+04 0.47752404D+04 0.47752404D+04 0.12441017D+01  1  2  5  3  6  1        2 -.312679320102D-05 0.100000000000D+01
  </mgrwgt>
  </event>
  <event>
  6     66 0.80203028E-06 0.39291230E+02 0.78161638E-02 0.12607628E+00
        4 -1    0    0  501    0 0.00000000E+00 0.00000000E+00 0.10650449E+03 0.10650449E+03 0.00000000E+00 0.0000E+00 0.9000E+01
       22 -1    0    0    0    0 -.00000000E+00 -.00000000E+00 -.30114920E+03 0.30114920E+03 0.00000000E+00 0.0000E+00 0.9000E+01
       24  2    1    2    0    0 -.20123792E+02 -.33746611E+02 -.29058887E+03 0.30397591E+03 0.80097830E+02 0.0000E+00 0.0000E+00
  9900012  1    3    3    0    0 -.17854921E+02 -.72686588E+01 -.12124258E+03 0.13255713E+03 0.50000000E+02 0.0000E+00 0.9000E+01
      -13  1    3    3    0    0 -.22688713E+01 -.26477952E+02 -.16934629E+03 0.17141878E+03 0.00000000E+00 0.0000E+00 0.9000E+01
        3  1    1    2  501    0 0.20123792E+02 0.33746611E+02 0.95944156E+02 0.10367778E+03 0.00000000E+00 0.0000E+00 0.9000E+01
#aMCatNLO 1  0  0  5  1 0.81438117D+02 0.00000000D+00  -5  6  0 0.00000000D+00 0.00000000D+00 0.00000000D+00 0.00000000D+00 0.00000000D+00
  <mgrwgt>
 0.9063406093D-04    3    2    0
 0.179091432683509D+03 0.000000000000000D+00 0.000000000000000D+00 0.179091432683509D+03
 0.179091432683509D+03 -.000000000000000D+00 -.000000000000000D+00 -.179091432683509D+03
 0.849794366828849D+02 -.178549208270919D+02 -.726865877945552D+01 -.659535674603472D+02
 0.103067843602949D+03 -.226887126162875D+01 -.264779519659503D+02 -.995828834079877D+02
 0.170135585081184D+03 0.201237920887207D+02 0.337466107454058D+02 0.165536450868335D+03
 0.000000000000000D+00 0.000000000000000D+00 -.000000000000000D+00 0.000000000000000D+00
 0.179091432683509D+03 0.000000000000000D+00 0.000000000000000D+00 0.179091432683509D+03
 0.179091432683509D+03 -.000000000000000D+00 -.000000000000000D+00 -.179091432683509D+03
 0.525275213298804D+02 -.111627255628969D+02 0.395382392248124D+01 -.109041887116147D+02
 0.436267502039365D+02 0.487046830449213D+01 -.145056302357832D+02 -.408553370236294D+02
 0.146195526258632D+03 0.425994874958712D+02 0.118077074073940D+03 0.749414447503157D+02
 0.115833067574569D+03 -.363072302374665D+02 -.107525267760638D+03 -.231819190150716D+02
0.163796778057D-04 0.000000000000D+00 0.000000000000D+00 0.277530076410D-04 0.000000000000D+00  6 4 22 9900012 -13 3 21 0 0.16385306D-01 0.46330646D-01 0.35673038D+04 0.35673038D+04 0.35673038D+04 0.12586982D+01  1  2  2  2  6  5        3 0.107881688379D-03 0.100000000000D+01
0.772118139718D-06 0.000000000000D+00 -.314511378211D-07 0.277530076410D-04 0.000000000000D+00  6 4 22 9900012 -13 3 21 2 0.16385306D-01 0.46330646D-01 0.35673038D+04 0.35673038D+04 0.35673038D+04 0.12586982D+01  1  2  3  2  6  5        3 0.805692614069D-05 0.100000000000D+01
-.242500731701D-05 0.000000000000D+00 0.000000000000D+00 0.277530076410D-04 0.000000000000D+00  6 4 22 9900012 -13 3 21 2 0.16385306D-01 0.46330646D-01 0.35673038D+04 0.35673038D+04 0.35673038D+04 0.12586982D+01  1  2 15  2  6  5        3 -.253045535893D-04 0.100000000000D+01
  </mgrwgt>
  </event>
  <event>
  7     66 -.80203028E-06 0.10006851E+03 0.78161638E-02 0.11025401E+00
        2 -1    0    0  502    0 0.00000000E+00 0.00000000E+00 0.12520628E+04 0.12520628E+04 0.00000000E+00 0.0000E+00 0.9000E+01
       22 -1    0    0    0    0 0.00000000E+00 0.00000000E+00 -.30748153E+02 0.30748153E+02 0.00000000E+00 0.0000E+00 0.9000E+01
       24  2    1    2    0    0 -.11593929E+03 0.92059344E+01 0.17321890E+03 0.22288827E+03 0.78407428E+02 0.0000E+00 0.0000E+00
  9900012  1    3    3    0    0 -.66472244E+02 0.26887867E+02 0.10084262E+03 0.13345692E+03 0.50000000E+02 0.0000E+00 0.9000E+01
      -13  1    3    3    0    0 -.49467047E+02 -.17681933E+02 0.72376280E+02 0.89431345E+02 0.00000000E+00 0.0000E+00 0.9000E+01
        1  1    1    2  501    0 0.11433822E+03 0.24476455E+02 0.92242595E+03 0.92980749E+03 0.00000000E+00 0.0000E+00 0.9000E+01
       21  1    1    2  502  501 0.16010687E+01 -.33682390E+02 0.12566977E+03 0.13011517E+03 0.00000000E+00 0.0000E+00 0.9000E+01
#aMCatNLO 2  0  0  1  5 0.44065380D+02 0.00000000D+00  -5  6  0 0.00000000D+00 0.00000000D+00 0.00000000D+00 0.00000000D+00 0.00000000D+00
  <mgrwgt>
 -.2252223681D-04    2    2    0
 0.178278432676907D+03 0.000000000000000D+00 0.000000000000000D+00 0.178278432676907D+03
 0.178278432676907D+03 0.000000000000000D+00 0.000000000000000D+00 -.178278432676907D+03
 0.118734100873837D+03 -.659351226568547D+02 0.155882175254893D+02 -.837099383879960D+02
 0.681652914440093D+02 -.491655500841310D+02 -.240246619458888D+02 -.406456794869675D+02
 0.169657473035967D+03 0.115100672740986D+03 0.843644442039957D+01 0.124355617874964D+03
 0.000000000000000D+00 0.000000000000000D+00 -.000000000000000D+00 0.000000000000000D+00
 0.199446453277137D+03 0.000000000000000D+00 0.000000000000000D+00 0.199446453277137D+03
 0.193027337226583D+03 0.000000000000000D+00 0.000000000000000D+00 -.193027337226583D+03
 0.121032517780552D+03 -.664722435683697D+02 0.268878673450458D+02 -.837099383879960D+02
 0.664207104473145D+02 -.494670472500781D+02 -.176819329182995D+02 -.406456794869675D+02
 0.170694597454471D+03 0.114338222090583D+03 0.244764554673360D+02 0.124355617874964D+03
 0.343259648213827D+02 0.160106872786456D+01 -.336823898940823D+02 0.641911605055392D+01
-.543293029049D-06 0.000000000000D+00 0.000000000000D+00 0.623807150513D-06 0.000000000000D+00  6 2 22 9900012 -13 1 21 2 0.20856084D+00 0.43690364D-02 0.21111681D+05 0.21111681D+05 0.21111681D+05 0.11770696D+01  1  2 13  1  6  1        2 -.270172713961D-04 0.100000000000D+01
0.888541622494D-07 0.000000000000D+00 0.000000000000D+00 0.623807150513D-06 0.679930700282D-09  6 2 22 9900012 -13 1 21 2 0.19262504D+00 0.47304851D-02 0.21111681D+05 0.21111681D+05 0.21111681D+05 0.11770696D+01  1  2  1  1  6  1        2 0.449503458277D-05 0.100000000000D+01
  </mgrwgt>
  </event>
  <event>
  6     66 0.80203028E-06 0.10372032E+03 0.78161638E-02 0.10420055E+00
        2 -1    0    0  501    0 0.00000000E+00 0.00000000E+00 0.29393248E+03 0.29393248E+03 0.00000000E+00 0.0000E+00 0.9000E+01
       22 -1    0    0    0    0 -.00000000E+00 -.00000000E+00 -.77881324E+03 0.77881324E+03 0.00000000E+00 0.0000E+00 0.9000E+01
       24  2    1    2    0    0 -.21302170E+03 -.19322759E+02 -.72029176E+03 0.75467348E+03 0.70428926E+02 0.0000E+00 0.0000E+00
  9900012  1    3    3    0    0 -.16902051E+03 -.28843921E+02 -.60808404E+03 0.63377134E+03 0.50000000E+02 0.0000E+00 0.9000E+01
      -13  1    3    3    0    0 -.44001189E+02 0.95211619E+01 -.11220772E+03 0.12090215E+03 0.00000000E+00 0.0000E+00 0.9000E+01
        1  1    1    2  501    0 0.21302170E+03 0.19322759E+02 0.23541100E+03 0.31807224E+03 0.00000000E+00 0.0000E+00 0.9000E+01
#aMCatNLO 1  0  0  5  1 0.33988440D+02 0.00000000D+00  -5  6  0 0.00000000D+00 0.00000000D+00 0.00000000D+00 0.00000000D+00 0.00000000D+00
  <mgrwgt>
 0.1797052733D-03    4    2    0
 0.478454292630843D+03 0.000000000000000D+00 0.000000000000000D+00 0.478454292630843D+03
 0.478454292630843D+03 -.000000000000000D+00 -.000000000000000D+00 -.478454292630843D+03
 0.402365748580829D+03 -.169020508985646D+03 -.288439212020478D+02 -.360552758113059D+03
 0.786803452150923D+02 -.440011891151453D+02 0.952116193161162D+01 -.645278200088252D+02
 0.475862491465763D+03 0.213021698100792D+03 0.193227592704362D+02 0.425080578121885D+03
 0.000000000000000D+00 0.000000000000000D+00 -.000000000000000D+00 0.000000000000000D+00
 0.478454292630843D+03 0.000000000000000D+00 0.000000000000000D+00 0.478454292630843D+03
 0.478454292630843D+03 -.000000000000000D+00 -.000000000000000D+00 -.478454292630843D+03
 0.391511063028991D+03 -.164118090491446D+03 -.283992329226335D+02 -.350770079135804D+03
 0.765868087888813D+02 -.430423696154457D+02 0.960813447263291D+01 -.626145146935423D+02
 0.239619196912645D+02 0.877002386756362D+01 0.211734342752925D+02 -.699613876669404D+01
 0.464848793752548D+03 0.198390436239329D+03 -.238233582529189D+01 0.420380732596040D+03
0.140404999198D-03 0.000000000000D+00 0.000000000000D+00 0.294873014152D-06 0.000000000000D+00  6 2 22 9900012 -13 1 21 0 0.45220382D-01 0.11981742D+00 0.47856207D+05 0.47856207D+05 0.47856207D+05 0.11446127D+01  1  2  2  2  6  5        1 0.176616450654D-03 0.100000000000D+01
0.307274290506D-06 0.000000000000D+00 -.269596083203D-06 0.294873014152D-06 0.000000000000D+00  6 2 22 9900012 -13 1 21 2 0.45220382D-01 0.11981742D+00 0.47856207D+05 0.47856207D+05 0.47856207D+05 0.11446127D+01  1  2  3  2  6  5        1 0.506397907489D-06 0.100000000000D+01
-.201463764068D-04 0.000000000000D+00 0.000000000000D+00 0.294873014152D-06 0.000000000000D+00  6 2 22 9900012 -13 1 21 2 0.45220382D-01 0.11981742D+00 0.47856207D+05 0.47856207D+05 0.47856207D+05 0.11446127D+01  1  2 15  2  6  5        1 -.332018758845D-04 0.100000000000D+01
0.217187609027D-04 0.000000000000D+00 0.000000000000D+00 0.294873014152D-06 0.000000000000D+00  6 2 22 9900012 -13 1 21 2 0.45220382D-01 0.11981742D+00 0.48251496D+05 0.48251496D+05 0.48251496D+05 0.11443001D+01  1  2 12  2  6  5        1 0.357843006102D-04 0.100000000000D+01
  </mgrwgt>
  </event>
  <event>
  7     66 -.80203028E-06 0.44559789E+02 0.78161638E-02 0.11928046E+00
       21 -1    0    0  501  502 0.00000000E+00 0.00000000E+00 0.83686175E+03 0.83686175E+03 0.00000000E+00 0.0000E+00 0.9000E+01
       22 -1    0    0    0    0 0.00000000E+00 0.00000000E+00 -.41680892E+02 0.41680892E+02 0.00000000E+00 0.0000E+00 0.9000E+01
       24  2    1    2    0    0 0.33891558E+02 0.31769805E+01 0.12893479E+02 0.91657948E+02 0.84120192E+02 0.0000E+00 0.0000E+00
  9900012  1    3    3    0    0 0.39310764E+02 -.18640315E+02 0.11343242E+01 0.66287889E+02 0.50000000E+02 0.0000E+00 0.9000E+01
      -13  1    3    3    0    0 -.54192058E+01 0.21817296E+02 0.11759155E+02 0.25370059E+02 0.00000000E+00 0.0000E+00 0.9000E+01
        3  1    1    2  501    0 -.56416900E+02 0.61661003E+01 0.42600367E+03 0.42976739E+03 0.00000000E+00 0.0000E+00 0.9000E+01
       -4  1    1    2    0  502 0.22525341E+02 -.93430808E+01 0.35628371E+03 0.35711730E+03 0.00000000E+00 0.0000E+00 0.9000E+01
#aMCatNLO 2  0  0  1  5 0.24670543D+02 0.00000000D+00  -5  6  0 0.00000000D+00 0.00000000D+00 0.00000000D+00 0.00000000D+00 0.00000000D+00
  <mgrwgt>
 -.5102517363D-05    2    2    0
 0.140231056753534D+03 0.000000000000000D+00 0.000000000000000D+00 0.140231056753534D+03
 0.140231056753534D+03 0.000000000000000D+00 0.000000000000000D+00 -.140231056753534D+03
 0.125243226222456D+03 0.491810068735209D+02 -.227343031010222D+02 -.101243497272797D+03
 0.276030936926116D+02 -.316419182195535D+01 0.208819589666933D+02 -.177725198334480D+02
 0.127615793592000D+03 -.460168150515656D+02 0.185234413432891D+01 0.119016017106245D+03
 0.000000000000000D+00 0.000000000000000D+00 -.000000000000000D+00 0.000000000000000D+00
 0.245327560380147D+03 0.000000000000000D+00 0.000000000000000D+00 0.245327560380147D+03
 0.142181923973761D+03 0.000000000000000D+00 0.000000000000000D+00 -.142181923973761D+03
 0.121008442956011D+03 0.393107641411098D+02 -.186403151597096D+02 -.101243497272797D+03
 0.286570173152883D+02 -.541920578248173D+01 0.218172956359295D+02 -.177725198334480D+02
 0.131854843200990D+03 -.564168995489584D+02 0.616610030783665D+01 0.119016017106245D+03
 0.105989180881619D+03 0.225253411903303D+02 -.934308078405656D+01 0.103145636406386D+03
-.143500977161D-06 0.000000000000D+00 0.000000000000D+00 0.292066424564D-06 0.000000000000D+00  6 21 22 9900012 -13 3 -4 2 0.13053908D+00 0.63244603D-02 0.72162862D+04 0.72162862D+04 0.72162862D+04 0.12243049D+01  1  2 13  3  6  1        4 -.873289231167D-05 0.100000000000D+01
0.586324292916D-07 0.000000000000D+00 0.000000000000D+00 0.292066424564D-06 0.115715617014D-09  6 21 22 9900012 -13 3 -4 2 0.12874796D+00 0.64124450D-02 0.72162862D+04 0.72162862D+04 0.72162862D+04 0.12243049D+01  1  2  1  3  6  1        4 0.363037494848D-05 0.100000000000D+01
  </mgrwgt>
  </event>
  <event>
  6     66 0.80203028E-06 0.12546982E+03 0.78161638E-02 0.10290418E+00
        2 -1    0    0  501    0 0.00000000E+00 0.00000000E+00 0.31903610E+02 0.31903610E+02 0.00000000E+00 0.0000E+00 0.9000E+01
       22 -1    0    0    0    0 0.00000000E+00 0.00000000E+00 -.17434471E+04 0.17434471E+04 0.00000000E+00 0.0000E+00 0.9000E+01
       24  2    1    2    0    0 0.11787120E+03 0.43000656E+02 -.16016102E+04 0.16085335E+04 0.80510291E+02 0.0000E+00 0.0000E+00
  9900012  1    3    3    0    0 0.10829619E+03 0.17734352E+02 -.12108907E+04 0.12168808E+04 0.50000000E+02 0.0000E+00 0.9000E+01
      -13  1    3    3    0    0 0.95750083E+01 0.25266305E+02 -.39071947E+03 0.39165262E+03 0.00000000E+00 0.0000E+00 0.9000E+01
        1  1    1    2  501    0 -.11787120E+03 -.43000656E+02 -.10993331E+03 0.16681729E+03 0.00000000E+00 0.0000E+00 0.9000E+01
#aMCatNLO 1  0  0  1  1 0.21993736D+03 0.00000000D+00  -5  6  0 0.00000000D+00 0.00000000D+00 0.00000000D+00 0.00000000D+00 0.00000000D+00
  <mgrwgt>
 0.3468132723D-04    5    2    0
 0.235843714526895D+03 0.000000000000000D+00 0.000000000000000D+00 0.235843714526895D+03
 0.235843714526895D+03 0.000000000000000D+00 0.000000000000000D+00 -.235843714526895D+03
 0.186348161083947D+03 0.108296192810073D+03 0.177343515231283D+02 -.142067112796264D+03
 0.563665304676984D+02 0.957500826355613D+01 0.252663046359445D+02 -.494683618463605D+02
 0.228972737502145D+03 -.117871201073629D+03 -.430006561590728D+02 0.191535474642624D+03
 0.000000000000000D+00 -.000000000000000D+00 -.000000000000000D+00 0.000000000000000D+00
 0.440695570312758D+03 0.000000000000000D+00 0.000000000000000D+00 0.440695570312758D+03
 0.301111352469990D+03 0.000000000000000D+00 0.000000000000000D+00 -.301111352469990D+03
 0.238925004618370D+03 0.172566817513394D+03 0.679910787303830D+02 -.142067112796264D+03
 0.698787902092202D+02 0.286541937851184D+02 0.401853664393724D+02 -.494683618463605D+02
 0.198931280439171D+03 -.532029812936870D+02 0.756697244982473D+01 0.191535474642624D+03
 0.234071847515986D+03 -.148018030004825D+03 -.115743417619580D+03 0.139584217842768D+03
0.157183279779D-04 0.000000000000D+00 0.000000000000D+00 0.510268281826D-05 0.000000000000D+00  6 2 22 9900012 -13 1 21 0 0.49082477D-02 0.26822264D+00 0.18643467D+05 0.18643467D+05 0.18643467D+05 0.11822515D+01  1  2  2  1  6  1        2 0.382998837739D-04 0.100000000000D+01
0.365999966154D-07 0.000000000000D+00 -.301812590829D-07 0.510268281826D-05 0.000000000000D+00  6 2 22 9900012 -13 1 21 2 0.49082477D-02 0.26822264D+00 0.18643467D+05 0.18643467D+05 0.18643467D+05 0.11822515D+01  1  2  3  1  6  1        2 0.124649888065D-06 0.100000000000D+01
-.221810003538D-05 0.000000000000D+00 0.000000000000D+00 0.510268281826D-05 0.000000000000D+00  6 2 22 9900012 -13 1 21 2 0.49082477D-02 0.26822264D+00 0.18643467D+05 0.18643467D+05 0.18643467D+05 0.11822515D+01  1  2 15  1  6  1        2 -.755426083866D-05 0.100000000000D+01
0.470255593811D-06 0.000000000000D+00 -.452699815156D-05 0.510268281826D-05 0.000000000000D+00  6 2 22 9900012 -13 1 21 2 0.12115000D-01 0.26822264D+00 0.18643467D+05 0.18643467D+05 0.18643467D+05 0.11822515D+01  1  2  5  1  6  1        2 0.509398532311D-06 0.100000000000D+01
0.328212041345D-06 0.000000000000D+00 -.449346581593D-06 0.510268281826D-05 0.000000000000D+00  6 21 22 9900012 -13 1 -2 2 0.12115000D-01 0.26822264D+00 0.18643467D+05 0.18643467D+05 0.18643467D+05 0.11822515D+01  1  2  5  3  6  1        2 0.330165587682D-05 0.100000000000D+01
  </mgrwgt>
  </event>
  <event>
  6     66 -.80203028E-06 0.46158403E+02 0.78161638E-02 0.12232081E+00
        2 -1    0    0  501    0 0.00000000E+00 0.00000000E+00 0.16558977E+03 0.16558977E+03 0.00000000E+00 0.0000E+00 0.9000E+01
       22 -1    0    0    0    0 0.00000000E+00 0.00000000E+00 -.33532660E+02 0.33532660E+02 0.00000000E+00 0.0000E+00 0.9000E+01
       24  2    1    2    0    0 -.45947703E+02 0.44053114E+01 0.66422943E+02 0.11888253E+03 0.87123186E+02 0.0000E+00 0.0000E+00
  9900012  1    3    3    0    0 -.23585617E+02 0.31296034E+02 0.45305914E+02 0.78027872E+02 0.50000000E+02 0.0000E+00 0.9000E+01
      -13  1    3    3    0    0 -.22362086E+02 -.26890722E+02 0.21117029E+02 0.40854654E+02 0.00000000E+00 0.0000E+00 0.9000E+01
        1  1    1    2  501    0 0.45947703E+02 -.44053114E+01 0.65634163E+02 0.80239899E+02 0.00000000E+00 0.0000E+00 0.9000E+01
#aMCatNLO 1  0  0  5  1 0.32203610D+01 0.00000000D+00  -5  6  0 0.00000000D+00 0.00000000D+00 0.00000000D+00 0.00000000D+00 0.00000000D+00
  <mgrwgt>
 -.1011471924D-03    8    2    0
 0.745162083895465D+02 0.000000000000000D+00 0.000000000000000D+00 0.745162083895465D+02
 0.745162083895465D+02 -.000000000000000D+00 -.000000000000000D+00 -.745162083895465D+02
 0.641077396045730D+02 -.235856168012915D+02 0.312960335692402D+02 -.860692977451066D+01
 0.358742355737161D+02 -.223620858915630D+02 -.268907221699969D+02 -.798667350984623D+01
 0.490504416008039D+02 0.459477026928545D+02 -.440531139924333D+01 0.165936032843569D+02
 0.000000000000000D+00 0.000000000000000D+00 0.000000000000000D+00 0.000000000000000D+00
 0.745162083895465D+02 0.000000000000000D+00 0.000000000000000D+00 0.745162083895465D+02
 0.745162083895465D+02 -.000000000000000D+00 -.000000000000000D+00 -.745162083895465D+02
 0.640245182810494D+02 -.234054431324160D+02 0.312787591230585D+02 -.854186165992846D+01
 0.358106471219302D+02 -.222612859171356D+02 -.269003865329653D+02 -.795027049753675D+01
 0.302085582962052D+02 0.288518523144576D+02 -.461002825321224D+01 0.767302103897417D+01
 0.189886930799082D+02 0.168148767350941D+02 0.231655663119021D+00 0.881911111849104D+01
0.109524139730D-06 0.000000000000D+00 0.000000000000D+00 0.324124381869D-08 0.000000000000D+00  6 2 22 9900012 -13 1 21 0 0.25475349D-01 0.51588708D-02 0.52316033D+04 0.52316033D+04 0.52316033D+04 0.12396375D+01  1  2  2  2  6  5        1 0.325007383713D-04 0.100000000000D+01
-.124182738900D-08 0.000000000000D+00 -.210300767465D-09 0.324124381869D-08 0.000000000000D+00  6 2 22 9900012 -13 1 21 2 0.25475349D-01 0.51588708D-02 0.52316033D+04 0.52316033D+04 0.52316033D+04 0.12396375D+01  1  2  3  2  6  5        1 -.566283630330D-06 0.100000000000D+01
-.136712401117D-07 0.000000000000D+00 0.000000000000D+00 0.324124381869D-08 0.000000000000D+00  6 2 22 9900012 -13 1 21 2 0.25475349D-01 0.51588708D-02 0.52316033D+04 0.52316033D+04 0.52316033D+04 0.12396375D+01  1  2 15  2  6  5        1 -.623419933407D-05 0.100000000000D+01
0.200739805687D-07 0.000000000000D+00 0.000000000000D+00 0.324124381869D-08 0.000000000000D+00  6 2 22 9900012 -13 1 21 2 0.25475349D-01 0.51588708D-02 0.52130883D+04 0.52130883D+04 0.52130883D+04 0.12398099D+01  1  2 12  2  6  5        1 0.915326002898D-05 0.100000000000D+01
-.162011279049D-05 0.000000000000D+00 0.000000000000D+00 0.324124381869D-08 0.000000000000D+00  6 2 22 9900012 -13 1 21 2 0.25475349D-01 0.51588708D-02 0.52316033D+04 0.52316033D+04 0.52316033D+04 0.12396375D+01  1  2  4  2  6  5        1 -.738784923468D-03 0.100000000000D+01
-.789778438018D-06 0.000000000000D+00 0.000000000000D+00 0.324124381869D-08 0.000000000000D+00  6 2 22 9900012 -13 1 21 2 0.25475349D-01 0.51588708D-02 0.52316033D+04 0.52316033D+04 0.52316033D+04 0.12396375D+01  1  2  5  2  6  5        1 -.360145544379D-03 0.100000000000D+01
0.114825526749D-05 0.000000000000D+00 -.000000000000D+00 0.324124381869D-08 0.000000000000D+00  6 2 22 9900012 -13 1 21 2 0.25475349D-01 0.51588708D-02 0.52316033D+04 0.52316033D+04 0.52316033D+04 0.12396375D+01  1  2  6  2  6  5        1 0.523613963728D-03 0.100000000000D+01
0.963461840994D-06 0.000000000000D+00 0.000000000000D+00 0.324124381869D-08 0.135027778545D-08  6 2 22 9900012 -13 1 21 2 0.25475349D-01 0.51588708D-02 0.52130883D+04 0.52130883D+04 0.52130883D+04 0.12398099D+01  1  2 11  2  6  5        1 0.439315796308D-03 0.100000000000D+01
  </mgrwgt>
  </event>
  <event>
  6     66 0.80203028E-06 0.39426139E+02 0.78161638E-02 0.11933113E+00
        4 -1    0    0  501    0 0.00000000E+00 0.00000000E+00 0.76004556E+02 0.76004556E+02 0.00000000E+00 0.0000E+00 0.9000E+01
       22 -1    0    0    0    0 0.00000000E+00 0.00000000E+00 -.22175678E+03 0.22175678E+03 0.00000000E+00 0.0000E+00 0.9000E+01
       24  2    1    2    0    0 -.13690005E+02 0.36973019E+02 -.20685450E+03 0.22504334E+03 0.79380714E+02 0.0000E+00 0.0000E+00
  9900012  1    3    3    0    0 0.73844899E+01 0.12349973E+02 -.91887704E+02 0.10559547E+03 0.50000000E+02 0.0000E+00 0.9000E+01
      -13  1    3    3    0    0 -.21074495E+02 0.24623046E+02 -.11496680E+03 0.11944787E+03 0.00000000E+00 0.0000E+00 0.9000E+01
        3  1    1    2  501    0 0.13690005E+02 -.36973019E+02 0.61102274E+02 0.72718005E+02 0.00000000E+00 0.0000E+00 0.9000E+01
#aMCatNLO 1  0  0  1  1 0.60861031D+02 0.00000000D+00  -5  6  0 0.00000000D+00 0.00000000D+00 0.00000000D+00 0.00000000D+00 0.00000000D+00
  <mgrwgt>
 0.1950362931D-04    4    2    0
 0.129824982157312D+03 0.000000000000000D+00 0.000000000000000D+00 0.129824982157312D+03
 0.129824982157312D+03 0.000000000000000D+00 0.000000000000000D+00 -.129824982157312D+03
 0.695143951607900D+02 0.738448986271631D+01 0.123499730558533D+02 -.460998764592444D+02
 0.724448033616435D+02 -.210744949463741D+02 0.246230463835286D+02 -.647905917835070D+02
 0.117690765792190D+03 0.136900050836578D+02 -.369730194393819D+02 0.110890468242751D+03
 0.000000000000000D+00 -.000000000000000D+00 0.000000000000000D+00 -.000000000000000D+00
 0.147260734785193D+03 0.000000000000000D+00 0.000000000000000D+00 0.147260734785193D+03
 0.155228510751983D+03 0.000000000000000D+00 0.000000000000000D+00 -.155228510751983D+03
 0.705682840351641D+02 0.169881365453556D+02 0.812941073057243D+01 -.460998764592444D+02
 0.688638900647785D+02 -.113867964197461D+02 0.203655453767413D+02 -.647905917835070D+02
 0.123146354763582D+03 0.302010728841703D+02 -.442292204442538D+02 0.110890468242751D+03
 0.399107166736517D+02 -.358024130097798D+02 0.157342643369400D+02 -.796777596678944D+01
0.123696453539D-05 0.000000000000D+00 0.000000000000D+00 0.516569951041D-05 0.000000000000D+00  6 4 22 9900012 -13 3 21 0 0.11693009D-01 0.34116428D-01 0.38356841D+04 0.38356841D+04 0.38356841D+04 0.12550192D+01  1  2  2  1  6  1        4 0.235589073362D-04 0.100000000000D+01
0.541697368366D-07 0.000000000000D+00 -.237513475807D-08 0.516569951041D-05 0.000000000000D+00  6 4 22 9900012 -13 3 21 2 0.11693009D-01 0.34116428D-01 0.38356841D+04 0.38356841D+04 0.38356841D+04 0.12550192D+01  1  2  3  1  6  1        4 0.162500739850D-05 0.100000000000D+01
-.178860630325D-06 0.000000000000D+00 0.000000000000D+00 0.516569951041D-05 0.000000000000D+00  6 4 22 9900012 -13 3 21 2 0.11693009D-01 0.34116428D-01 0.38356841D+04 0.38356841D+04 0.38356841D+04 0.12550192D+01  1  2 15  1  6  1        4 -.536553922083D-05 0.100000000000D+01
-.104920869066D-07 0.000000000000D+00 0.000000000000D+00 0.516569951041D-05 0.000000000000D+00  6 4 22 9900012 -13 3 21 2 0.11693009D-01 0.34116428D-01 0.38356841D+04 0.38356841D+04 0.38356841D+04 0.12550192D+01  1  2  4  1  6  1        4 -.314746200454D-06 0.100000000000D+01
  </mgrwgt>
  </event>
  <event>
  7     66 -.80203028E-06 0.17664632E+02 0.78161638E-02 0.12717510E+00
        2 -1    0    0  501    0 0.00000000E+00 0.00000000E+00 0.12374145E+04 0.12374145E+04 0.00000000E+00 0.0000E+00 0.9000E+01
       22 -1    0    0    0    0 0.00000000E+00 0.00000000E+00 -.27086370E+02 0.27086370E+02 0.00000000E+00 0.0000E+00 0.9000E+01
       24  2    1    2    0    0 0.95174417E+00 0.21978132E+02 0.37069165E+02 0.90780333E+02 0.79893690E+02 0.0000E+00 0.0000E+00
  9900012  1    3    3    0    0 -.61045899E+01 -.79390932E+01 0.15740599E+02 0.53367234E+02 0.50000000E+02 0.0000E+00 0.9000E+01
      -13  1    3    3    0    0 0.70563340E+01 0.29917225E+02 0.21328566E+02 0.37413099E+02 0.00000000E+00 0.0000E+00 0.9000E+01
        1  1    1    2  502    0 0.90063855E+01 -.20446980E+01 0.20872603E+03 0.20893026E+03 0.00000000E+00 0.0000E+00 0.9000E+01
       21  1    1    2  501  502 -.99581297E+01 -.19933434E+02 0.96453297E+03 0.96479032E+03 0.00000000E+00 0.0000E+00 0.9000E+01
#aMCatNLO 2  0  0  5  1 0.94118991D+01 0.00000000D+00  -5  6  0 0.00000000D+00 0.00000000D+00 0.00000000D+00 0.00000000D+00 0.00000000D+00
  <mgrwgt>
 -.1265504835D-03    2    2    0
 0.183076672512458D+03 0.000000000000000D+00 0.000000000000000D+00 0.183076672512458D+03
 0.183076672512458D+03 -.000000000000000D+00 -.000000000000000D+00 -.183076672512458D+03
 0.132837739216396D+03 -.610116703756171D+01 -.786005181262519D+01 -.122665644360619D+03
 0.589552290959477D+02 0.705785311309609D+01 0.299523048672298D+02 -.502868290940098D+02
 0.174360376712572D+03 -.956686075534383D+00 -.220922530546046D+02 0.172952473454629D+03
 0.000000000000000D+00 -.000000000000000D+00 0.000000000000000D+00 0.000000000000000D+00
 0.183076672512458D+03 0.000000000000000D+00 0.000000000000000D+00 0.183076672512458D+03
 0.183076672512458D+03 -.000000000000000D+00 -.000000000000000D+00 -.183076672512458D+03
 0.132271427928470D+03 -.610458985510772D+01 -.793909315473304D+01 -.122046857513079D+03
 0.587030906956660D+02 0.705633402959644D+01 0.299172254635010D+02 -.500122047889552D+02
 0.315865022286292D+02 0.900638554720427D+01 -.204469803618252D+01 0.302061475920904D+02
 0.143592324172151D+03 -.995812972169299D+01 -.199334342725854D+02 0.141852914709944D+03
-.296575900229D-05 0.000000000000D+00 0.000000000000D+00 0.297857176120D-04 0.000000000000D+00  6 2 22 9900012 -13 1 21 2 0.19037147D+00 0.41671338D-02 0.32063454D+04 0.32063454D+04 0.32063454D+04 0.12641714D+01  1  2 13  2  6  5        1 -.190816486724D-03 0.100000000000D+01
0.998852251855D-06 0.000000000000D+00 0.000000000000D+00 0.297857176120D-04 0.171070973513D-06  6 2 22 9900012 -13 1 21 2 0.19037147D+00 0.41671338D-02 0.32063454D+04 0.32063454D+04 0.32063454D+04 0.12641714D+01  1  2  1  2  6  5        1 0.642660031744D-04 0.100000000000D+01
  </mgrwgt>
  </event>
  <event>
  7     66 -.80203028E-06 0.12702934E+03 0.78161638E-02 0.10589171E+00
        2 -1    0    0  501    0 0.00000000E+00 0.00000000E+00 0.21657717E+04 0.21657717E+04 0.00000000E+00 0.0000E+00 0.9000E+01
       22 -1    0    0    0    0 0.00000000E+00 0.00000000E+00 -.54638367E+03 0.54638367E+03 0.00000000E+00 0.0000E+00 0.9000E+01
       24  2    1    2    0    0 0.89074536E+02 -.12170632E+03 -.52412677E+03 0.55122373E+03 0.79950114E+02 0.0000E+00 0.0000E+00
  9900012  1    3    3    0    0 0.63345128E+02 -.51128825E+02 -.28707908E+03 0.30255769E+03 0.50000000E+02 0.0000E+00 0.9000E+01
      -13  1    3    3    0    0 0.25729408E+02 -.70577492E+02 -.23704770E+03 0.24866603E+03 0.00000000E+00 0.0000E+00 0.9000E+01
        1  1    1    2  502    0 -.13506732E+03 0.81290410E+02 0.19810530E+04 0.19873154E+04 0.00000000E+00 0.0000E+00 0.9000E+01
       21  1    1    2  501  502 0.45992783E+02 0.40415906E+02 0.16246180E+03 0.17361630E+03 0.00000000E+00 0.0000E+00 0.9000E+01
#aMCatNLO 2  0  0  5  1 0.64390696D+02 0.00000000D+00  -5  6  0 0.00000000D+00 0.00000000D+00 0.00000000D+00 0.00000000D+00 0.00000000D+00
  <mgrwgt>
 -.4177708151D-03    3    2    0
 0.108781538081137D+04 0.000000000000000D+00 0.000000000000000D+00 0.108781538081137D+04
 0.108781538081137D+04 -.000000000000000D+00 -.000000000000000D+00 -.108781538081137D+04
 0.597424925041797D+03 0.638923997683870D+02 -.518765850901706D+02 -.589612688323798D+03
 0.491859459810338D+03 0.261799685402351D+02 -.711931115444468D+02 -.485975182823948D+03
 0.108634637677060D+04 -.900723683086220D+02 0.123069696634617D+03 0.107558787114775D+04
 0.000000000000000D+00 0.000000000000000D+00 0.000000000000000D+00 0.000000000000000D+00
 0.108781538081137D+04 0.000000000000000D+00 0.000000000000000D+00 0.108781538081137D+04
 0.108781538081137D+04 -.000000000000000D+00 -.000000000000000D+00 -.108781538081137D+04
 0.590852051522074D+03 0.633451280513828D+02 -.511288245343736D+02 -.583077511864186D+03
 0.486430485752611D+03 0.257294082510133D+02 -.705774919137946D+02 -.480594873730184D+03
 0.100284227824512D+04 -.135067319069655D+03 0.812904104070037D+02 0.990374335052689D+03
 0.955059461029285D+02 0.459927827672589D+02 0.404159060411643D+02 0.732980505416822D+02
-.224303185757D-02 0.000000000000D+00 0.000000000000D+00 0.238103270342D-02 0.000000000000D+00  6 2 22 9900012 -13 1 21 2 0.33319565D+00 0.84059027D-01 0.37932529D+05 0.37932529D+05 0.37932529D+05 0.11535486D+01  1  2 13  2  6  5        1 -.428421296558D-03 0.100000000000D+01
-.105494957984D-05 0.000000000000D+00 0.000000000000D+00 0.238103270342D-02 0.000000000000D+00  6 2 22 9900012 -13 1 21 2 0.33319565D+00 0.84059027D-01 0.26351409D+05 0.26351409D+05 0.26351409D+05 0.11679955D+01  1  2  8  2  6  5        1 -.207747791964D-06 0.100000000000D+01
0.568490741325D-04 0.000000000000D+00 0.000000000000D+00 0.238103270342D-02 0.143492363777D-06  6 2 22 9900012 -13 1 21 2 0.33319565D+00 0.84059027D-01 0.37932529D+05 0.37932529D+05 0.37932529D+05 0.11535486D+01  1  2  1  2  6  5        1 0.108582292159D-04 0.100000000000D+01
  </mgrwgt>
  </event>
  <event>
  6     66 0.80203028E-06 0.41564258E+02 0.78161638E-02 0.12006101E+00
        2 -1    0    0  501    0 0.00000000E+00 0.00000000E+00 0.20342081E+04 0.20342081E+04 0.00000000E+00 0.0000E+00 0.9000E+01
       22 -1    0    0    0    0 0.00000000E+00 0.00000000E+00 -.10557506E+02 0.10557506E+02 0.00000000E+00 0.0000E+00 0.9000E+01
       24  2    1    2    0    0 0.26606595E+02 0.52845705E+02 0.23622601E+03 0.25636207E+03 0.80113680E+02 0.0000E+00 0.0000E+00
  9900012  1    3    3    0    0 0.38725360E+02 0.25055721E+02 0.18101140E+03 0.19337159E+03 0.50000000E+02 0.0000E+00 0.9000E+01
      -13  1    3    3    0    0 -.12118765E+02 0.27789984E+02 0.55214611E+02 0.62990483E+02 0.00000000E+00 0.0000E+00 0.9000E+01
        1  1    1    2  501    0 -.26606595E+02 -.52845705E+02 0.17874246E+04 0.17884036E+04 0.00000000E+00 0.0000E+00 0.9000E+01
#aMCatNLO 1  0  0  1  5 0.81057564D+01 0.00000000D+00  -5  6  0 0.00000000D+00 0.00000000D+00 0.00000000D+00 0.00000000D+00 0.00000000D+00
  <mgrwgt>
 0.5281528578D-03   11    2    0
 0.146547482725295D+03 0.000000000000000D+00 0.000000000000000D+00 0.146547482725295D+03
 0.146547482725295D+03 0.000000000000000D+00 0.000000000000000D+00 -.146547482725295D+03
 0.992706830185555D+02 0.387253596236295D+02 0.250557210618886D+02 -.722995565066614D+02
 0.582258137195022D+02 -.121187648974036D+02 0.277899837642036D+02 -.497101370250065D+02
 0.135598468712532D+03 -.266065947262259D+02 -.528457048260923D+02 0.122009693531668D+03
 0.000000000000000D+00 -.000000000000000D+00 0.000000000000000D+00 0.000000000000000D+00
 0.149478431569867D+03 0.000000000000000D+00 0.000000000000000D+00 0.149478431569867D+03
 0.149428985099174D+03 0.000000000000000D+00 0.000000000000000D+00 -.149428985099174D+03
 0.100044102674108D+03 0.406820668627088D+02 0.250313012962892D+02 -.722995565066614D+02
 0.579922626525691D+02 -.109778322236994D+02 0.277757448898845D+02 -.497101370250065D+02
 0.135115109501616D+03 -.239489533657627D+02 -.528788722707533D+02 0.122009693531668D+03
 0.575594184074812D+01 -.575528127324675D+01 0.718260845797008D-01 0.494464706936027D-01
0.240558124250D-05 0.000000000000D+00 0.000000000000D+00 0.509444576403D-05 0.000000000000D+00  6 2 22 9900012 -13 1 21 0 0.31295510D+00 0.16242317D-02 0.62022281D+04 0.62022281D+04 0.62022281D+04 0.12314499D+01  1  2  2  1  6  1        2 0.140141774245D-03 0.100000000000D+01
0.545360702930D-07 0.000000000000D+00 -.461903268764D-08 0.509444576403D-05 0.000000000000D+00  6 2 22 9900012 -13 1 21 2 0.31295510D+00 0.16242317D-02 0.62022281D+04 0.62022281D+04 0.62022281D+04 0.12314499D+01  1  2  3  1  6  1        2 0.481797905587D-05 0.100000000000D+01
-.351186973166D-06 0.000000000000D+00 0.000000000000D+00 0.509444576403D-05 0.000000000000D+00  6 2 22 9900012 -13 1 21 2 0.31295510D+00 0.16242317D-02 0.62022281D+04 0.62022281D+04 0.62022281D+04 0.12314499D+01  1  2 15  1  6  1        2 -.310255482715D-04 0.100000000000D+01
0.190997862359D-05 0.000000000000D+00 0.000000000000D+00 0.509444576403D-05 0.000000000000D+00  6 2 22 9900012 -13 1 21 2 0.32549078D+00 0.16242317D-02 0.66276388D+04 0.66276388D+04 0.66276388D+04 0.12283042D+01  1  2 12  1  6  1        2 0.152766148196D-03 0.100000000000D+01
-.950082863778D-07 0.000000000000D+00 0.000000000000D+00 0.509444576403D-05 0.000000000000D+00  6 2 22 9900012 -13 1 21 2 0.31295510D+00 0.16242317D-02 0.62022281D+04 0.62022281D+04 0.62022281D+04 0.12314499D+01  1  2  4  1  6  1        2 -.839348950967D-05 0.100000000000D+01
-.411304746545D-04 0.000000000000D+00 -.674479844206D-05 0.509444576403D-05 0.000000000000D+00  6 2 22 9900012 -13 1 21 2 0.32242721D+00 0.16242317D-02 0.62022281D+04 0.62022281D+04 0.62022281D+04 0.12314499D+01  1  2  5  1  6  1        2 -.337676766446D-02 0.100000000000D+01
0.413162178552D-04 0.000000000000D+00 0.674180117055D-05 0.509444576403D-05 0.000000000000D+00  6 2 22 9900012 -13 1 21 2 0.31295510D+00 0.16242317D-02 0.62022281D+04 0.62022281D+04 0.62022281D+04 0.12314499D+01  1  2  6  1  6  1        2 0.365007363429D-02 0.100000000000D+01
0.127145916600D-08 0.000000000000D+00 0.000000000000D+00 0.509444576403D-05 0.775412244416D-07  6 2 22 9900012 -13 1 21 2 0.31921420D+00 0.16561683D-02 0.66276388D+04 0.66276388D+04 0.66276388D+04 0.12283042D+01  1  2 11  1  6  1        2 0.104033773042D-06 0.100000000000D+01
0.471012746516D-07 0.000000000000D+00 0.000000000000D+00 0.509444576403D-05 0.000000000000D+00  6 21 22 9900012 -13 1 -2 2 0.32549078D+00 0.16242317D-02 0.66276388D+04 0.66276388D+04 0.66276388D+04 0.12283042D+01  1  2 12  3  6  1        2 0.928098085612D-06 0.100000000000D+01
-.217840462062D-06 0.000000000000D+00 -.360778342279D-07 0.509444576403D-05 0.000000000000D+00  6 21 22 9900012 -13 1 -2 2 0.32242721D+00 0.16242317D-02 0.62022281D+04 0.62022281D+04 0.62022281D+04 0.12314499D+01  1  2  5  3  6  1        2 -.449563064804D-05 0.100000000000D+01
0.169058311513D-09 0.000000000000D+00 0.000000000000D+00 0.509444576403D-05 0.521062470086D-08  6 21 22 9900012 -13 1 -2 2 0.31921420D+00 0.16561683D-02 0.66276388D+04 0.66276388D+04 0.66276388D+04 0.12283042D+01  1  2 11  3  6  1        2 0.352304022483D-08 0.100000000000D+01
  </mgrwgt>
  </event>
  <event>
  6     66 -.80203028E-06 0.33138072E+02 0.78161638E-02 0.12336573E+00
        2 -1    0    0  501    0 0.00000000E+00 0.00000000E+00 0.91323727E+03 0.91323727E+03 0.00000000E+00 0.0000E+00 0.9000E+01
       22 -1    0    0    0    0 0.00000000E+00 0.00000000E+00 -.64018865E+01 0.64018865E+01 0.00000000E+00 0.0000E+00 0.9000E+01
       24  2    1    2    0    0 0.29763140E+02 -.28142628E+02 0.40856460E+03 0.41968754E+03 0.86802886E+02 0.0000E+00 0.0000E+00
  9900012  1    3    3    0    0 -.56803961E+01 0.46502217E+00 0.22447635E+03 0.23004807E+03 0.50000000E+02 0.0000E+00 0.9000E+01
      -13  1    3    3    0    0 0.35443536E+02 -.28607650E+02 0.18408825E+03 0.18963946E+03 0.00000000E+00 0.0000E+00 0.9000E+01
        1  1    1    2  501    0 -.29763140E+02 0.28142628E+02 0.49827078E+03 0.49995162E+03 0.00000000E+00 0.0000E+00 0.9000E+01
#aMCatNLO 1  0  0  5  1 0.84143397D+00 0.00000000D+00  -5  6  0 0.00000000D+00 0.00000000D+00 0.00000000D+00 0.00000000D+00 0.00000000D+00
  <mgrwgt>
 -.1143838529D-03    8    2    0
 0.764620251314448D+02 0.000000000000000D+00 0.000000000000000D+00 0.764620251314448D+02
 0.764620251314448D+02 -.000000000000000D+00 -.000000000000000D+00 -.764620251314448D+02
 0.523012353446315D+02 -.568039608046831D+01 0.465022166228806D+00 -.142455632857550D+02
 0.487963557920800D+02 0.354435360070132D+02 -.286076503812605D+02 -.175054972385931D+02
 0.518264591261780D+02 -.297631399265449D+02 0.281426282150317D+02 0.317510605243481D+02
 0.000000000000000D+00 0.000000000000000D+00 0.000000000000000D+00 0.000000000000000D+00
 0.764620251314448D+02 0.000000000000000D+00 0.000000000000000D+00 0.764620251314448D+02
 0.764620251314448D+02 -.000000000000000D+00 -.000000000000000D+00 -.764620251314448D+02
 0.523002112138174D+02 -.568630287842734D+01 0.470607357149943D+00 -.142392619647262D+02
 0.487871896586812D+02 0.354380255068617D+02 -.286024399109464D+02 -.174996186846414D+02
 0.337508261645239D+02 -.194097194062933D+02 0.189350542493848D+02 0.200958896277256D+02
 0.180858232258670D+02 -.103420032221411D+02 0.919677830441166D+01 0.116429910216420D+02
0.146889333865D-07 0.000000000000D+00 0.000000000000D+00 0.812281516356D-08 0.000000000000D+00  6 2 22 9900012 -13 1 21 0 0.14049804D+00 0.98490561D-03 0.46808594D+04 0.46808594D+04 0.46808594D+04 0.12450849D+01  1  2  2  2  6  5        1 0.624726641641D-05 0.100000000000D+01
0.126949976696D-09 0.000000000000D+00 -.282046859447D-10 0.812281516356D-08 0.000000000000D+00  6 2 22 9900012 -13 1 21 2 0.14049804D+00 0.98490561D-03 0.46808594D+04 0.46808594D+04 0.46808594D+04 0.12450849D+01  1  2  3  2  6  5        1 0.837009430187D-07 0.100000000000D+01
-.189868771961D-08 0.000000000000D+00 0.000000000000D+00 0.812281516356D-08 0.000000000000D+00  6 2 22 9900012 -13 1 21 2 0.14049804D+00 0.98490561D-03 0.46808594D+04 0.46808594D+04 0.46808594D+04 0.12450849D+01  1  2 15  2  6  5        1 -.125184704058D-05 0.100000000000D+01
0.351125624905D-11 0.000000000000D+00 0.000000000000D+00 0.812281516356D-08 0.000000000000D+00  6 2 22 9900012 -13 1 21 2 0.14049804D+00 0.98490561D-03 0.46799844D+04 0.46799844D+04 0.46799844D+04 0.12450942D+01  1  2 12  2  6  5        1 0.231504444208D-08 0.100000000000D+01
-.290577690503D-05 0.000000000000D+00 0.000000000000D+00 0.812281516356D-08 0.000000000000D+00  6 2 22 9900012 -13 1 21 2 0.14049804D+00 0.98490561D-03 0.46808594D+04 0.46808594D+04 0.46808594D+04 0.12450849D+01  1  2  4  2  6  5        1 -.191584333831D-02 0.100000000000D+01
-.181713840544D-05 0.000000000000D+00 0.000000000000D+00 0.812281516356D-08 0.000000000000D+00  6 2 22 9900012 -13 1 21 2 0.14049804D+00 0.98490561D-03 0.46808594D+04 0.46808594D+04 0.46808594D+04 0.12450849D+01  1  2  5  2  6  5        1 -.119807976408D-02 0.100000000000D+01
0.255244483267D-05 0.000000000000D+00 -.000000000000D+00 0.812281516356D-08 0.000000000000D+00  6 2 22 9900012 -13 1 21 2 0.14049804D+00 0.98490561D-03 0.46808594D+04 0.46808594D+04 0.46808594D+04 0.12450849D+01  1  2  6  2  6  5        1 0.168288364486D-02 0.100000000000D+01
0.198928060052D-05 0.000000000000D+00 0.000000000000D+00 0.812281516356D-08 0.481191947265D-07  6 2 22 9900012 -13 1 21 2 0.14049804D+00 0.98490561D-03 0.46799844D+04 0.46799844D+04 0.46799844D+04 0.12450942D+01  1  2 11  2  6  5        1 0.131157416927D-02 0.100000000000D+01
  </mgrwgt>
  </event>
  <event>
  6     66 0.80203028E-06 0.13095801E+03 0.78161638E-02 0.10216657E+00
        2 -1    0    0  501    0 0.00000000E+00 0.00000000E+00 0.12998087E+04 0.12998087E+04 0.00000000E+00 0.0000E+00 0.9000E+01
       22 -1    0    0    0    0 0.00000000E+00 0.00000000E+00 -.18906210E+02 0.18906210E+02 0.00000000E+00 0.0000E+00 0.9000E+01
       24  2    1    2    0    0 -.31400741E+02 -.12713770E+03 0.40139905E+03 0.42951510E+03 0.78816382E+02 0.0000E+00 0.0000E+00
  9900012  1    3    3    0    0 -.15426658E+02 -.45538330E+02 0.19672342E+03 0.20859488E+03 0.50000000E+02 0.0000E+00 0.9000E+01
      -13  1    3    3    0    0 -.15974082E+02 -.81599370E+02 0.20467563E+03 0.22092022E+03 0.00000000E+00 0.0000E+00 0.9000E+01
        1  1    1    2  501    0 0.31400741E+02 0.12713770E+03 0.87950348E+03 0.88919985E+03 0.00000000E+00 0.0000E+00 0.9000E+01
#aMCatNLO 1  0  0  1  5 0.48971765D+02 0.00000000D+00  -5  6  0 0.00000000D+00 0.00000000D+00 0.00000000D+00 0.00000000D+00 0.00000000D+00
  <mgrwgt>
 0.3440259656D-04    5    2    0
 0.156762420752361D+03 0.000000000000000D+00 0.000000000000000D+00 0.156762420752361D+03
 0.156762420752361D+03 0.000000000000000D+00 0.000000000000000D+00 -.156762420752361D+03
 0.736581648697173D+02 -.154266584812092D+02 -.455383303608034D+02 -.247750666604335D+02
 0.930110020804923D+02 -.159740821475528D+02 -.815993702660734D+02 -.416823461400729D+02
 0.146855674554513D+03 0.314007406287620D+02 0.127137700626877D+03 0.664574128005063D+02
 0.000000000000000D+00 0.000000000000000D+00 -.000000000000000D+00 0.000000000000000D+00
 0.756380363378970D+03 0.000000000000000D+00 0.000000000000000D+00 0.756380363378970D+03
 0.193430218078881D+03 0.000000000000000D+00 0.000000000000000D+00 -.193430218078881D+03
 0.850971811632811D+02 -.551225663916407D+02 -.330034693374275D+02 -.247750666604335D+02
 0.101486751759183D+03 -.646071840753501D+02 -.662423925348645D+02 -.416823461400729D+02
 0.173237864254893D+03 -.486369019250909D+02 0.152411356750700D+03 0.664574128005063D+02
 0.589988784280493D+03 0.168366652392082D+03 -.531654948784078D+02 0.562950145300089D+03
0.662506214814D-06 0.000000000000D+00 0.000000000000D+00 0.253316050201D-06 0.000000000000D+00  6 2 22 9900012 -13 1 21 0 0.19997058D+00 0.29086476D-02 0.20089210D+05 0.20089210D+05 0.20089210D+05 0.11791303D+01  1  2  2  1  6  1        2 0.444974126635D-04 0.100000000000D+01
-.142856069817D-07 0.000000000000D+00 -.127209915339D-08 0.253316050201D-06 0.000000000000D+00  6 2 22 9900012 -13 1 21 2 0.19997058D+00 0.29086476D-02 0.20089210D+05 0.20089210D+05 0.20089210D+05 0.11791303D+01  1  2  3  1  6  1        2 -.133403456860D-05 0.100000000000D+01
-.938145586113D-07 0.000000000000D+00 0.000000000000D+00 0.253316050201D-06 0.000000000000D+00  6 2 22 9900012 -13 1 21 2 0.19997058D+00 0.29086476D-02 0.20089210D+05 0.20089210D+05 0.20089210D+05 0.11791303D+01  1  2 15  1  6  1        2 -.876069629983D-05 0.100000000000D+01
-.674597419489D-06 0.000000000000D+00 -.201847966108D-06 0.253316050201D-06 0.000000000000D+00  6 2 22 9900012 -13 1 21 2 0.96670031D+00 0.29086476D-02 0.20089210D+05 0.20089210D+05 0.20089210D+05 0.11791303D+01  1  2  5  1  6  1        2 -.844927900409D-10 0.100000000000D+01
-.133716588893D-06 0.000000000000D+00 -.386803112700D-07 0.253316050201D-06 0.000000000000D+00  6 21 22 9900012 -13 1 -2 2 0.96670031D+00 0.29086476D-02 0.20089210D+05 0.20089210D+05 0.20089210D+05 0.11791303D+01  1  2  5  3  6  1        2 -.741184043401D-12 0.100000000000D+01
  </mgrwgt>
  </event>
  <event>
  6     66 0.80203028E-06 0.65270106E+02 0.78161638E-02 0.12003140E+00
        2 -1    0    0  501    0 0.00000000E+00 0.00000000E+00 0.14437737E+04 0.14437737E+04 0.00000000E+00 0.0000E+00 0.9000E+01
       22 -1    0    0    0    0 0.00000000E+00 0.00000000E+00 -.63062274E+01 0.63062274E+01 0.00000000E+00 0.0000E+00 0.9000E+01
       24  2    1    2    0    0 0.27111404E+02 -.59373045E+02 0.50490145E+03 0.51523257E+03 0.79239793E+02 0.0000E+00 0.0000E+00
  9900012  1    3    3    0    0 0.88976015E+01 -.21315615E+02 0.20073827E+03 0.20815709E+03 0.50000000E+02 0.0000E+00 0.9000E+01
      -13  1    3    3    0    0 0.18213803E+02 -.38057430E+02 0.30416318E+03 0.30707548E+03 0.00000000E+00 0.0000E+00 0.9000E+01
        1  1    1    2  501    0 -.27111404E+02 0.59373045E+02 0.93256601E+03 0.93484734E+03 0.00000000E+00 0.0000E+00 0.9000E+01
#aMCatNLO 1  0  0  5  1 0.16902593D+01 0.00000000D+00  -5  6  0 0.00000000D+00 0.00000000D+00 0.00000000D+00 0.00000000D+00 0.00000000D+00
  <mgrwgt>
 0.1060279823D-03    5    2    0
 0.954188932301857D+02 0.000000000000000D+00 0.000000000000000D+00 0.954188932301857D+02
 0.954188932301857D+02 -.000000000000000D+00 -.000000000000000D+00 -.954188932301857D+02
 0.696386722830143D+02 0.889760147481870D+01 -.213156147226625D+02 -.426148088618427D+02
 0.422312209832701D+02 0.182138026404864D+02 -.380574304653226D+02 -.183450415326286D+01
 0.789678931940870D+02 -.271114041153051D+02 0.593730451879851D+02 0.444493130151055D+02
 0.000000000000000D+00 0.000000000000000D+00 0.000000000000000D+00 0.000000000000000D+00
 0.954188932301857D+02 0.000000000000000D+00 0.000000000000000D+00 0.954188932301857D+02
 0.954188932301857D+02 -.000000000000000D+00 -.000000000000000D+00 -.954188932301857D+02
 0.692922823589159D+02 0.870452711600926D+01 -.208927884986322D+02 -.422982622686300D+02
 0.419419665353256D+02 0.180968259433134D+02 -.378012555103976D+02 -.164272014215076D+01
 0.786548188278642D+02 -.275295721213456D+02 0.592752944946065D+02 0.437623427873491D+02
 0.948718738265720D+00 0.728219062022949D+00 -.581250485576650D+00 0.178639623431715D+00
0.609614410387D-06 0.000000000000D+00 0.000000000000D+00 0.205854523981D-06 0.000000000000D+00  6 2 22 9900012 -13 1 21 0 0.22211903D+00 0.97018883D-03 0.66047225D+04 0.66047225D+04 0.66047225D+04 0.12284678D+01  1  2  2  2  6  5        1 0.141386200179D-03 0.100000000000D+01
-.694828936609D-08 0.000000000000D+00 -.117053992552D-08 0.205854523981D-06 0.000000000000D+00  6 2 22 9900012 -13 1 21 2 0.22211903D+00 0.97018883D-03 0.66047225D+04 0.66047225D+04 0.66047225D+04 0.12284678D+01  1  2  3  2  6  5        1 -.243196457871D-05 0.100000000000D+01
-.840197508828D-07 0.000000000000D+00 0.000000000000D+00 0.205854523981D-06 0.000000000000D+00  6 2 22 9900012 -13 1 21 2 0.22211903D+00 0.97018883D-03 0.66047225D+04 0.66047225D+04 0.66047225D+04 0.12284678D+01  1  2 15  2  6  5        1 -.294076782490D-04 0.100000000000D+01
-.830192124297D-06 0.000000000000D+00 0.000000000000D+00 0.205854523981D-06 0.000000000000D+00  6 2 22 9900012 -13 1 21 2 0.22211903D+00 0.97018883D-03 0.66047225D+04 0.66047225D+04 0.66047225D+04 0.12284678D+01  1  2  4  2  6  5        1 -.290574806753D-03 0.100000000000D+01
0.820170403822D-06 0.000000000000D+00 0.000000000000D+00 0.205854523981D-06 0.298673337388D-06  6 2 22 9900012 -13 1 21 2 0.22211903D+00 0.97018883D-03 0.66489338D+04 0.66489338D+04 0.66489338D+04 0.12281527D+01  1  2 11  2  6  5        1 0.287056231711D-03 0.100000000000D+01
  </mgrwgt>
  </event>
  <event>
  6     66 0.80203028E-06 0.22068791E+02 0.78161638E-02 0.12233676E+00
        2 -1    0    0  501    0 0.00000000E+00 0.00000000E+00 0.78947721E+03 0.78947721E+03 0.00000000E+00 0.0000E+00 0.9000E+01
       22 -1    0    0    0    0 0.00000000E+00 0.00000000E+00 -.13330806E+02 0.13330806E+02 0.00000000E+00 0.0000E+00 0.9000E+01
       24  2    1    2    0    0 -.84778602E+01 0.45601204E+02 0.15866804E+03 0.18359006E+03 0.79865013E+02 0.0000E+00 0.0000E+00
  9900012  1    3    3    0    0 -.10938220E+02 0.49822332E+01 0.95081856E+02 0.10809730E+03 0.50000000E+02 0.0000E+00 0.9000E+01
      -13  1    3    3    0    0 0.24603598E+01 0.40618971E+02 0.63586183E+02 0.75492760E+02 0.00000000E+00 0.0000E+00 0.9000E+01
        1  1    1    2  501    0 0.84778602E+01 -.45601204E+02 0.61747836E+03 0.61921795E+03 0.00000000E+00 0.0000E+00 0.9000E+01
#aMCatNLO 1  0  0  1  5 0.54328915D+01 0.00000000D+00  -5  6  0 0.00000000D+00 0.00000000D+00 0.00000000D+00 0.00000000D+00 0.00000000D+00
  <mgrwgt>
 0.1269641188D-03   11    2    0
 0.102588340058222D+03 0.000000000000000D+00 0.000000000000000D+00 0.102588340058222D+03
 0.102588340058222D+03 0.000000000000000D+00 0.000000000000000D+00 -.102588340058222D+03
 0.632817514676241D+02 -.109382199461618D+02 0.498223320975007D+01 -.368797066889528D+02
 0.548503147347075D+02 0.246035978206443D+01 0.406189705077310D+02 -.367777499465554D+02
 0.870446139141128D+02 0.847786016409740D+01 -.456012037174810D+02 0.736574566355082D+02
 0.000000000000000D+00 0.000000000000000D+00 0.000000000000000D+00 0.000000000000000D+00
 0.113602822088968D+03 0.000000000000000D+00 0.000000000000000D+00 0.113602822088968D+03
 0.103254144385045D+03 0.000000000000000D+00 0.000000000000000D+00 -.103254144385045D+03
 0.633564711920356D+02 -.118599138483844D+02 0.364309208680629D+01 -.368797066889528D+02
 0.539733802989610D+02 0.166832295445174D+01 0.394682098439310D+02 -.367777499465554D+02
 0.879144629736821D+02 0.720447910331482D+01 -.474513157118857D+02 0.736574566355082D+02
 0.116126520093339D+02 0.298711179061789D+01 0.434001378114845D+01 0.103486777039234D+02
0.899064340018D-07 0.000000000000D+00 0.000000000000D+00 0.157521700936D-05 0.000000000000D+00  6 2 22 9900012 -13 1 21 0 0.12145803D+00 0.20508932D-02 0.47955890D+04 0.47955890D+04 0.47955890D+04 0.12438926D+01  1  2  2  1  6  1        2 0.171997946119D-04 0.100000000000D+01
0.220213218515D-08 0.000000000000D+00 -.172632189737D-09 0.157521700936D-05 0.000000000000D+00  6 2 22 9900012 -13 1 21 2 0.12145803D+00 0.20508932D-02 0.47955890D+04 0.47955890D+04 0.47955890D+04 0.12438926D+01  1  2  3  1  6  1        2 0.651840946884D-06 0.100000000000D+01
-.125044496747D-07 0.000000000000D+00 0.000000000000D+00 0.157521700936D-05 0.000000000000D+00  6 2 22 9900012 -13 1 21 2 0.12145803D+00 0.20508932D-02 0.47955890D+04 0.47955890D+04 0.47955890D+04 0.12438926D+01  1  2 15  1  6  1        2 -.370137286544D-05 0.100000000000D+01
0.462252961314D-06 0.000000000000D+00 0.000000000000D+00 0.157521700936D-05 0.000000000000D+00  6 2 22 9900012 -13 1 21 2 0.13537138D+00 0.20508932D-02 0.52044337D+04 0.52044337D+04 0.52044337D+04 0.12398907D+01  1  2 12  1  6  1        2 0.120345957240D-03 0.100000000000D+01
-.239165441549D-06 0.000000000000D+00 0.000000000000D+00 0.157521700936D-05 0.000000000000D+00  6 2 22 9900012 -13 1 21 2 0.12145803D+00 0.20508932D-02 0.47955890D+04 0.47955890D+04 0.47955890D+04 0.12438926D+01  1  2  4  1  6  1        2 -.707940372211D-04 0.100000000000D+01
-.109012305087D-05 0.000000000000D+00 -.954755111266D-07 0.157521700936D-05 0.000000000000D+00  6 2 22 9900012 -13 1 21 2 0.13490642D+00 0.20508932D-02 0.47955890D+04 0.47955890D+04 0.47955890D+04 0.12438926D+01  1  2  5  1  6  1        2 -.285015871133D-03 0.100000000000D+01
0.109463205392D-05 0.000000000000D+00 0.949514846268D-07 0.157521700936D-05 0.000000000000D+00  6 2 22 9900012 -13 1 21 2 0.12145803D+00 0.20508932D-02 0.47955890D+04 0.47955890D+04 0.47955890D+04 0.12438926D+01  1  2  6  1  6  1        2 0.324015969310D-03 0.100000000000D+01
0.979269374779D-07 0.000000000000D+00 0.000000000000D+00 0.157521700936D-05 0.150309593243D-06  6 2 22 9900012 -13 1 21 2 0.13449847D+00 0.20642037D-02 0.52044337D+04 0.52044337D+04 0.52044337D+04 0.12398907D+01  1  2 11  1  6  1        2 0.254737245344D-04 0.100000000000D+01
0.805003645678D-08 0.000000000000D+00 0.000000000000D+00 0.157521700936D-05 0.000000000000D+00  6 21 22 9900012 -13 1 -2 2 0.13537138D+00 0.20508932D-02 0.52044337D+04 0.52044337D+04 0.52044337D+04 0.12398907D+01  1  2 12  3  6  1        2 0.209249520116D-05 0.100000000000D+01
-.181226080811D-07 0.000000000000D+00 -.161743285750D-08 0.157521700936D-05 0.000000000000D+00  6 21 22 9900012 -13 1 -2 2 0.13490642D+00 0.20508932D-02 0.47955890D+04 0.47955890D+04 0.47955890D+04 0.12438926D+01  1  2  5  3  6  1        2 -.477168859545D-05 0.100000000000D+01
0.559685953522D-08 0.000000000000D+00 0.000000000000D+00 0.157521700936D-05 0.744413622341D-08  6 21 22 9900012 -13 1 -2 2 0.13449847D+00 0.20642037D-02 0.52044337D+04 0.52044337D+04 0.52044337D+04 0.12398907D+01  1  2 11  3  6  1        2 0.146730674041D-05 0.100000000000D+01
  </mgrwgt>
  </event>
  <event>
  6     66 0.80203028E-06 0.39849064E+02 0.78161638E-02 0.12176707E+00
        2 -1    0    0  501    0 0.00000000E+00 0.00000000E+00 0.39936991E+03 0.39936991E+03 0.00000000E+00 0.0000E+00 0.9000E+01
       22 -1    0    0    0    0 0.00000000E+00 0.00000000E+00 -.47896554E+02 0.47896554E+02 0.00000000E+00 0.0000E+00 0.9000E+01
       24  2    1    2    0    0 0.42157604E+02 -.23426345E+02 0.36507941E+01 0.96116080E+02 0.83059709E+02 0.0000E+00 0.0000E+00
  9900012  1    3    3    0    0 0.40548848E+02 0.57908560E+01 0.11882927E+02 0.65718696E+02 0.50000000E+02 0.0000E+00 0.9000E+01
      -13  1    3    3    0    0 0.16087564E+01 -.29217201E+02 -.82321325E+01 0.30397384E+02 0.00000000E+00 0.0000E+00 0.9000E+01
        1  1    1    2  501    0 -.42157604E+02 0.23426345E+02 0.34782256E+03 0.35115038E+03 0.00000000E+00 0.0000E+00 0.9000E+01
#aMCatNLO 1  0  0  5  1 0.22546833D+02 0.00000000D+00  -5  6  0 0.00000000D+00 0.00000000D+00 0.00000000D+00 0.00000000D+00 0.00000000D+00
  <mgrwgt>
 0.1643888962D-03    7    2    0
 0.138305612334643D+03 0.000000000000000D+00 0.000000000000000D+00 0.138305612334643D+03
 0.138305612334643D+03 -.000000000000000D+00 -.000000000000000D+00 -.138305612334643D+03
 0.911649077307248D+02 0.405488480579449D+02 0.579085602153846D+01 -.642907249085207D+02
 0.596111228369924D+02 0.160875641487227D+01 -.292172012920020D+02 -.519350846475409D+02
 0.125835194101568D+03 -.421576044728171D+02 0.234263452704635D+02 0.116225809556062D+03
 0.000000000000000D+00 0.000000000000000D+00 0.000000000000000D+00 0.000000000000000D+00
 0.138305612334643D+03 0.000000000000000D+00 0.000000000000000D+00 0.138305612334643D+03
 0.138305612334643D+03 -.000000000000000D+00 -.000000000000000D+00 -.138305612334643D+03
 0.889953146135521D+02 0.396201370745181D+02 0.630692671450810D+01 -.617303283385026D+02
 0.579788112117619D+02 0.100259007098967D+01 -.288803637927963D+02 -.502639229455325D+02
 0.766316524141059D+02 -.382136091761061D+02 0.295240795011268D+02 0.595017558989927D+02
 0.530054464298656D+02 -.240911796940165D+01 -.695064242283865D+01 0.524924953850423D+02
0.869917836060D-06 0.000000000000D+00 0.000000000000D+00 0.565262906396D-06 0.000000000000D+00  6 2 22 9900012 -13 1 21 0 0.61441525D-01 0.73687006D-02 0.50499597D+04 0.50499597D+04 0.50499597D+04 0.12413596D+01  1  2  2  2  6  5        1 0.614373884865D-04 0.100000000000D+01
0.301906249981D-07 0.000000000000D+00 -.167035677255D-08 0.565262906396D-06 0.000000000000D+00  6 2 22 9900012 -13 1 21 2 0.61441525D-01 0.73687006D-02 0.50499597D+04 0.50499597D+04 0.50499597D+04 0.12413596D+01  1  2  3  2  6  5        1 0.328565411405D-05 0.100000000000D+01
-.127054268947D-06 0.000000000000D+00 0.000000000000D+00 0.565262906396D-06 0.000000000000D+00  6 2 22 9900012 -13 1 21 2 0.61441525D-01 0.73687006D-02 0.50499597D+04 0.50499597D+04 0.50499597D+04 0.12413596D+01  1  2 15  2  6  5        1 -.138273514212D-04 0.100000000000D+01
0.821698701948D-06 0.000000000000D+00 0.000000000000D+00 0.565262906396D-06 0.000000000000D+00  6 2 22 9900012 -13 1 21 2 0.61441525D-01 0.73687006D-02 0.55242046D+04 0.55242046D+04 0.55242046D+04 0.12370004D+01  1  2 12  2  6  5        1 0.894028434760D-04 0.100000000000D+01
-.189240431855D-06 0.000000000000D+00 0.000000000000D+00 0.565262906396D-06 0.000000000000D+00  6 2 22 9900012 -13 1 21 2 0.61441525D-01 0.73687006D-02 0.50499597D+04 0.50499597D+04 0.50499597D+04 0.12413596D+01  1  2  4  2  6  5        1 -.205950888234D-04 0.100000000000D+01
-.824237351876D-06 0.000000000000D+00 0.000000000000D+00 0.565262906396D-06 0.000000000000D+00  6 2 22 9900012 -13 1 21 2 0.61441525D-01 0.73687006D-02 0.50499597D+04 0.50499597D+04 0.50499597D+04 0.12413596D+01  1  2  5  2  6  5        1 -.897019802112D-04 0.100000000000D+01
0.123483494576D-05 0.000000000000D+00 -.000000000000D+00 0.565262906396D-06 0.000000000000D+00  6 2 22 9900012 -13 1 21 2 0.61441525D-01 0.73687006D-02 0.50499597D+04 0.50499597D+04 0.50499597D+04 0.12413596D+01  1  2  6  2  6  5        1 0.134387430534D-03 0.100000000000D+01
  </mgrwgt>
  </event>
  <event>
  6     66 0.80203028E-06 0.81097525E+02 0.78161638E-02 0.11359259E+00
        2 -1    0    0  501    0 0.00000000E+00 0.00000000E+00 0.25116745E+04 0.25116745E+04 0.00000000E+00 0.0000E+00 0.9000E+01
       22 -1    0    0    0    0 0.00000000E+00 0.00000000E+00 -.82944029E+02 0.82944029E+02 0.00000000E+00 0.0000E+00 0.9000E+01
       24  2    1    2    0    0 0.44046898E+02 0.68093166E+02 -.42671852E+02 0.12188598E+03 0.80364774E+02 0.0000E+00 0.0000E+00
  9900012  1    3    3    0    0 0.15841957E+02 0.56155206E+02 -.48280972E+02 0.90749254E+02 0.50000000E+02 0.0000E+00 0.9000E+01
      -13  1    3    3    0    0 0.28204941E+02 0.11937960E+02 0.56091197E+01 0.31136727E+02 0.00000000E+00 0.0000E+00 0.9000E+01
        1  1    1    2  501    0 -.44046898E+02 -.68093166E+02 0.24714023E+04 0.24727325E+04 0.00000000E+00 0.0000E+00 0.9000E+01
#aMCatNLO 1  0  0  5  1 0.62201281D+02 0.00000000D+00  -5  6  0 0.00000000D+00 0.00000000D+00 0.00000000D+00 0.00000000D+00 0.00000000D+00
  <mgrwgt>
 0.2551366162D-03    6    2    0
 0.456430058740094D+03 0.000000000000000D+00 0.000000000000000D+00 0.456430058740094D+03
 0.456430058740094D+03 -.000000000000000D+00 -.000000000000000D+00 -.456430058740094D+03
 0.386391244211389D+03 0.158419574076767D+02 0.561552060307393D+02 -.378673763052530D+03
 0.735763208682133D+02 0.282049407584134D+02 0.119379599911241D+02 -.668987400521638D+02
 0.452892552400586D+03 -.440468981660901D+02 -.680931660218635D+02 0.445572503104694D+03
 0.000000000000000D+00 -.000000000000000D+00 0.000000000000000D+00 0.000000000000000D+00
 0.456430058740094D+03 0.000000000000000D+00 0.000000000000000D+00 0.456430058740094D+03
 0.456430058740094D+03 -.000000000000000D+00 -.000000000000000D+00 -.456430058740094D+03
 0.379178796523985D+03 0.151332936097041D+02 0.550596655123792D+02 -.371505015297997D+03
 0.722502765740396D+02 0.280699537227536D+02 0.117292802653617D+02 -.655332293381326D+02
 0.250349855075117D+03 0.335263184108397D+02 -.136227802215092D+02 0.247720519475039D+03
 0.211081189307048D+03 -.767295657432974D+02 -.531661655562318D+02 0.189317725161090D+03
0.725064475778D-04 0.000000000000D+00 0.000000000000D+00 0.329807515162D-03 0.000000000000D+00  6 2 22 9900012 -13 1 21 0 0.38641145D+00 0.12760620D-01 0.88891698D+04 0.88891698D+04 0.88891698D+04 0.12146676D+01  1  2  2  2  6  5        1 0.138822018063D-03 0.100000000000D+01
0.141989666124D-05 0.000000000000D+00 -.139221925042D-06 0.329807515162D-03 0.000000000000D+00  6 2 22 9900012 -13 1 21 2 0.38641145D+00 0.12760620D-01 0.88891698D+04 0.88891698D+04 0.88891698D+04 0.12146676D+01  1  2  3  2  6  5        1 0.401100666107D-05 0.100000000000D+01
-.111300631138D-04 0.000000000000D+00 0.000000000000D+00 0.329807515162D-03 0.000000000000D+00  6 2 22 9900012 -13 1 21 2 0.38641145D+00 0.12760620D-01 0.88891698D+04 0.88891698D+04 0.88891698D+04 0.12146676D+01  1  2 15  2  6  5        1 -.314408495396D-04 0.100000000000D+01
-.747966819675D-05 0.000000000000D+00 0.000000000000D+00 0.329807515162D-03 0.000000000000D+00  6 2 22 9900012 -13 1 21 2 0.38641145D+00 0.12760620D-01 0.88891698D+04 0.88891698D+04 0.88891698D+04 0.12146676D+01  1  2  4  2  6  5        1 -.211290016934D-04 0.100000000000D+01
-.104911835292D-03 0.000000000000D+00 0.000000000000D+00 0.329807515162D-03 0.000000000000D+00  6 2 22 9900012 -13 1 21 2 0.38641145D+00 0.12760620D-01 0.88891698D+04 0.88891698D+04 0.88891698D+04 0.12146676D+01  1  2  5  2  6  5        1 -.296361053356D-03 0.100000000000D+01
0.163277046486D-03 0.000000000000D+00 -.000000000000D+00 0.329807515162D-03 0.000000000000D+00  6 2 22 9900012 -13 1 21 2 0.38641145D+00 0.12760620D-01 0.88891698D+04 0.88891698D+04 0.88891698D+04 0.12146676D+01  1  2  6  2  6  5        1 0.461234496097D-03 0.100000000000D+01
  </mgrwgt>
  </event>
  <event>
  6     66 -.80203028E-06 0.26596016E+02 0.78161638E-02 0.12865391E+00
        2 -1    0    0  501    0 0.00000000E+00 0.00000000E+00 0.10454993E+03 0.10454993E+03 0.00000000E+00 0.0000E+00 0.9000E+01
       22 -1    0    0    0    0 0.00000000E+00 0.00000000E+00 -.11803482E+03 0.11803482E+03 0.00000000E+00 0.0000E+00 0.9000E+01
       24  2    1    2    0    0 -.26521111E+02 0.19946777E+01 -.10148718E+03 0.13065134E+03 0.77863839E+02 0.0000E+00 0.0000E+00
  9900012  1    3    3    0    0 -.12361682E+02 0.20699449E+02 -.86611438E+02 0.10287283E+03 0.50000000E+02 0.0000E+00 0.9000E+01
      -13  1    3    3    0    0 -.14159430E+02 -.18704772E+02 -.14875741E+02 0.27778510E+02 0.00000000E+00 0.0000E+00 0.9000E+01
        1  1    1    2  501    0 0.26521111E+02 -.19946777E+01 0.88002293E+02 0.91933409E+02 0.00000000E+00 0.0000E+00 0.9000E+01
#aMCatNLO 1  0  0  1  1 0.60536081D+03 0.00000000D+00  -5  6  0 0.00000000D+00 0.00000000D+00 0.00000000D+00 0.00000000D+00 0.00000000D+00
  <mgrwgt>
 -.1564978848D-04    1    2    0
 0.111087948673950D+03 0.000000000000000D+00 0.000000000000000D+00 0.111087948673950D+03
 0.111087948673950D+03 0.000000000000000D+00 0.000000000000000D+00 -.111087948673950D+03
 0.978052913679342D+02 -.123616815754239D+02 0.206994493996807D+02 -.805269932553327D+02
 0.269267509535515D+02 -.141594296922659D+02 -.187047716989516D+02 -.132171094946840D+02
 0.974438550264133D+02 0.265211112676898D+02 -.199467770072906D+01 0.937441027500166D+02
 0.000000000000000D+00 -.000000000000000D+00 -.000000000000000D+00 0.000000000000000D+00
 0.268836559345149D+03 0.000000000000000D+00 0.000000000000000D+00 0.268836559345149D+03
 0.146278855837639D+03 0.000000000000000D+00 0.000000000000000D+00 -.146278855837639D+03
 0.109990715682796D+03 0.292651483461234D+02 0.475069677620945D+02 -.805269932553327D+02
 0.190371350156617D+02 -.495169326397775D+01 -.127750248543611D+02 -.132171094946840D+02
 0.119893941936836D+03 0.700594046070044D+02 0.260438157507667D+02 0.937441027500166D+02
 0.166193622547494D+03 -.943728596891501D+02 -.607757586585000D+02 0.122557703507510D+03
-.121367944402D-06 0.000000000000D+00 0.000000000000D+00 0.706516716326D-06 0.000000000000D+00  6 2 22 9900012 -13 1 21 2 0.16084605D-01 0.18159203D-01 0.27859917D+04 0.27859917D+04 0.27859917D+04 0.12715002D+01  1  2 14  1  6  1        2 -.156497884808D-04 0.100000000000D+01
  </mgrwgt>
  </event>
  <event>
  6     66 0.80203028E-06 0.31319688E+02 0.78161638E-02 0.12313506E+00
        2 -1    0    0  501    0 0.00000000E+00 0.00000000E+00 0.97274633E+03 0.97274633E+03 0.00000000E+00 0.0000E+00 0.9000E+01
       22 -1    0    0    0    0 0.00000000E+00 0.00000000E+00 -.69398809E+02 0.69398809E+02 0.00000000E+00 0.0000E+00 0.9000E+01
       24  2    1    2    0    0 0.14185195E+02 0.27923164E+02 -.42464262E+02 0.95814937E+02 0.79977282E+02 0.0000E+00 0.0000E+00
  9900012  1    3    3    0    0 0.33169571E+02 0.13321843E+02 -.25912471E+02 0.66701935E+02 0.50000000E+02 0.0000E+00 0.9000E+01
      -13  1    3    3    0    0 -.18984376E+02 0.14601321E+02 -.16551790E+02 0.29113002E+02 0.00000000E+00 0.0000E+00 0.9000E+01
        1  1    1    2  501    0 -.14185195E+02 -.27923164E+02 0.94581178E+03 0.94633020E+03 0.00000000E+00 0.0000E+00 0.9000E+01
#aMCatNLO 1  0  0  1  5 0.18556879D+02 0.00000000D+00  -5  6  0 0.00000000D+00 0.00000000D+00 0.00000000D+00 0.00000000D+00 0.00000000D+00
  <mgrwgt>
 0.1044872085D-02    9    2    0
 0.259821932488114D+03 0.000000000000000D+00 0.000000000000000D+00 0.259821932488114D+03
 0.259821932488114D+03 0.000000000000000D+00 0.000000000000000D+00 -.259821932488114D+03
 0.178816821652623D+03 0.331695712315278D+02 0.133218434308088D+02 -.167921897731855D+03
 0.871596775877242D+02 -.189843760718659D+02 0.146013206326400D+02 -.838045601273633D+02
 0.253667365735880D+03 -.141851951596619D+02 -.279231640634488D+02 0.251726457859218D+03
 0.000000000000000D+00 -.000000000000000D+00 0.000000000000000D+00 0.000000000000000D+00
 0.463789285654522D+03 0.000000000000000D+00 0.000000000000000D+00 0.463789285654522D+03
 0.260407811469218D+03 0.000000000000000D+00 0.000000000000000D+00 -.260407811469218D+03
 0.179270856897046D+03 0.370429312030321D+02 0.825212958096679D+01 -.167921897731855D+03
 0.863906265844396D+02 -.171071185131990D+02 0.121442397739255D+02 -.838045601273633D+02
 0.254312402660323D+03 -.869048361524628D+01 -.351150118190273D+02 0.251726457859218D+03
 0.204223210981931D+03 -.112453290745869D+02 0.147186424641350D+02 0.203381474185304D+03
0.198356224853D-05 0.000000000000D+00 0.000000000000D+00 0.109807222058D-03 0.000000000000D+00  6 2 22 9900012 -13 1 21 0 0.14965328D+00 0.10676740D-01 0.34066293D+04 0.34066293D+04 0.34066293D+04 0.12610534D+01  1  2  2  1  6  1        2 0.303618904611D-04 0.100000000000D+01
0.168857417949D-06 0.000000000000D+00 -.380870065914D-08 0.109807222058D-03 0.000000000000D+00  6 2 22 9900012 -13 1 21 2 0.14965328D+00 0.10676740D-01 0.34066293D+04 0.34066293D+04 0.34066293D+04 0.12610534D+01  1  2  3  1  6  1        2 0.411026755213D-05 0.100000000000D+01
-.290376294741D-06 0.000000000000D+00 0.000000000000D+00 0.109807222058D-03 0.000000000000D+00  6 2 22 9900012 -13 1 21 2 0.14965328D+00 0.10676740D-01 0.34066293D+04 0.34066293D+04 0.34066293D+04 0.12610534D+01  1  2 15  1  6  1        2 -.706823707646D-05 0.100000000000D+01
0.703187883544D-04 0.000000000000D+00 0.000000000000D+00 0.109807222058D-03 0.000000000000D+00  6 2 22 9900012 -13 1 21 2 0.26773759D+00 0.10676740D-01 0.47919834D+04 0.47919834D+04 0.47919834D+04 0.12439296D+01  1  2 12  1  6  1        2 0.677249327444D-03 0.100000000000D+01
-.185559889705D-04 0.000000000000D+00 0.000000000000D+00 0.109807222058D-03 0.000000000000D+00  6 2 22 9900012 -13 1 21 2 0.14965328D+00 0.10676740D-01 0.34066293D+04 0.34066293D+04 0.34066293D+04 0.12610534D+01  1  2  4  1  6  1        2 -.451683321286D-03 0.100000000000D+01
-.720140919917D-04 0.000000000000D+00 -.538704423606D-06 0.109807222058D-03 0.000000000000D+00  6 2 22 9900012 -13 1 21 2 0.26729530D+00 0.10676740D-01 0.34066293D+04 0.34066293D+04 0.34066293D+04 0.12610534D+01  1  2  5  1  6  1        2 -.709723139602D-03 0.100000000000D+01
0.617278020477D-04 0.000000000000D+00 0.459258043425D-06 0.109807222058D-03 0.000000000000D+00  6 2 22 9900012 -13 1 21 2 0.14965328D+00 0.10676740D-01 0.34066293D+04 0.34066293D+04 0.34066293D+04 0.12610534D+01  1  2  6  1  6  1        2 0.150255632772D-02 0.100000000000D+01
0.449236884133D-05 0.000000000000D+00 0.000000000000D+00 0.109807222058D-03 0.000000000000D+00  6 21 22 9900012 -13 1 -2 2 0.26773759D+00 0.10676740D-01 0.47919834D+04 0.47919834D+04 0.47919834D+04 0.12439296D+01  1  2 12  3  6  1        2 0.150413173988D-04 0.100000000000D+01
-.456110151866D-05 0.000000000000D+00 -.343311894049D-07 0.109807222058D-03 0.000000000000D+00  6 21 22 9900012 -13 1 -2 2 0.26729530D+00 0.10676740D-01 0.34066293D+04 0.34066293D+04 0.34066293D+04 0.12610534D+01  1  2  5  3  6  1        2 -.159723477025D-04 0.100000000000D+01
  </mgrwgt>
  </event>
  <event>
  6     66 0.80203028E-06 0.19242559E+02 0.78161638E-02 0.11790200E+00
        2 -1    0    0  501    0 0.00000000E+00 0.00000000E+00 0.99335173E+02 0.99335173E+02 0.00000000E+00 0.0000E+00 0.9000E+01
       22 -1    0    0    0    0 -.00000000E+00 -.00000000E+00 -.15443694E+03 0.15443694E+03 0.00000000E+00 0.0000E+00 0.9000E+01
       24  2    1    2    0    0 0.36601154E+02 0.62569686E+02 -.11575760E+03 0.15925365E+03 0.81898060E+02 0.0000E+00 0.0000E+00
  9900012  1    3    3    0    0 0.23793179E+02 0.12015925E+02 -.68281392E+02 0.88729061E+02 0.50000000E+02 0.0000E+00 0.9000E+01
      -13  1    3    3    0    0 0.12807975E+02 0.50553761E+02 -.47476210E+02 0.70524588E+02 0.00000000E+00 0.0000E+00 0.9000E+01
        1  1    1    2  501    0 -.36601154E+02 -.62569686E+02 0.60655834E+02 0.94518465E+02 0.00000000E+00 0.0000E+00 0.9000E+01
#aMCatNLO 1  0  0  5  1 0.71489863D+01 0.00000000D+00  -5  6  0 0.00000000D+00 0.00000000D+00 0.00000000D+00 0.00000000D+00 0.00000000D+00
  <mgrwgt>
 0.1139923816D-03    8    2    0
 0.123858872637199D+03 0.000000000000000D+00 0.000000000000000D+00 0.123858872637199D+03
 0.123858872637199D+03 -.000000000000000D+00 -.000000000000000D+00 -.123858872637199D+03
 0.757092959174525D+02 0.237931792750510D+02 0.120159251730393D+02 -.502135405098823D+02
 0.616877513682184D+02 0.128079750472604D+02 0.505537606629822D+02 -.329492295340241D+02
 0.110320697988726D+03 -.366011543223114D+02 -.625696858360215D+02 0.831627700439064D+02
 0.000000000000000D+00 0.000000000000000D+00 -.000000000000000D+00 0.000000000000000D+00
 0.123858872637199D+03 0.000000000000000D+00 0.000000000000000D+00 0.123858872637199D+03
 0.123858872637199D+03 -.000000000000000D+00 -.000000000000000D+00 -.123858872637199D+03
 0.749498035188743D+02 0.234282323129447D+02 0.113920482164625D+02 -.493843316816413D+02
 0.608508517060250D+02 0.125111453761684D+02 0.500463302386987D+02 -.322747923984668D+02
 0.104145409483045D+03 -.398513129420965D+02 -.554385169240987D+02 0.786429273007988D+02
 0.777168056645236D+01 0.391193525298348D+01 -.599986153106243D+01 0.301619677930926D+01
0.396245882200D-06 0.000000000000D+00 0.000000000000D+00 0.306036295876D-06 0.000000000000D+00  6 2 22 9900012 -13 1 21 0 0.15282334D-01 0.23759529D-01 0.82175082D+04 0.82175082D+04 0.82175082D+04 0.12182720D+01  1  2  2  2  6  5        1 0.247467106953D-04 0.100000000000D+01
0.158457278716D-08 0.000000000000D+00 -.760844260792D-09 0.306036295876D-06 0.000000000000D+00  6 2 22 9900012 -13 1 21 2 0.15282334D-01 0.23759529D-01 0.82175082D+04 0.82175082D+04 0.82175082D+04 0.12182720D+01  1  2  3  2  6  5        1 0.146876868773D-06 0.100000000000D+01
-.563263640706D-07 0.000000000000D+00 0.000000000000D+00 0.306036295876D-06 0.000000000000D+00  6 2 22 9900012 -13 1 21 2 0.15282334D-01 0.23759529D-01 0.82175082D+04 0.82175082D+04 0.82175082D+04 0.12182720D+01  1  2 15  2  6  5        1 -.522099082548D-05 0.100000000000D+01
0.120769064859D-05 0.000000000000D+00 0.000000000000D+00 0.306036295876D-06 0.000000000000D+00  6 2 22 9900012 -13 1 21 2 0.15282334D-01 0.23759529D-01 0.84092739D+04 0.84092739D+04 0.84092739D+04 0.12172100D+01  1  2 12  2  6  5        1 0.111959603172D-03 0.100000000000D+01
-.325532815190D-06 0.000000000000D+00 0.000000000000D+00 0.306036295876D-06 0.000000000000D+00  6 2 22 9900012 -13 1 21 2 0.15282334D-01 0.23759529D-01 0.82175082D+04 0.82175082D+04 0.82175082D+04 0.12182720D+01  1  2  4  2  6  5        1 -.301742153883D-04 0.100000000000D+01
-.166107356992D-05 0.000000000000D+00 0.000000000000D+00 0.306036295876D-06 0.000000000000D+00  6 2 22 9900012 -13 1 21 2 0.15282334D-01 0.23759529D-01 0.82175082D+04 0.82175082D+04 0.82175082D+04 0.12182720D+01  1  2  5  2  6  5        1 -.153967862334D-03 0.100000000000D+01
0.178220070190D-05 0.000000000000D+00 -.000000000000D+00 0.306036295876D-06 0.000000000000D+00  6 2 22 9900012 -13 1 21 2 0.15282334D-01 0.23759529D-01 0.82175082D+04 0.82175082D+04 0.82175082D+04 0.12182720D+01  1  2  6  2  6  5        1 0.165195351544D-03 0.100000000000D+01
0.140974094477D-07 0.000000000000D+00 0.000000000000D+00 0.306036295876D-06 0.160258910556D-07  6 2 22 9900012 -13 1 21 2 0.15282334D-01 0.23759529D-01 0.84092739D+04 0.84092739D+04 0.84092739D+04 0.12172100D+01  1  2 11  2  6  5        1 0.130690783221D-05 0.100000000000D+01
  </mgrwgt>
  </event>
  <event>
  6     66 0.80203028E-06 0.84506866E+02 0.78161638E-02 0.11005323E+00
        2 -1    0    0  501    0 0.00000000E+00 0.00000000E+00 0.29602390E+03 0.29602390E+03 0.00000000E+00 0.0000E+00 0.9000E+01
       22 -1    0    0    0    0 0.00000000E+00 0.00000000E+00 -.18014130E+03 0.18014130E+03 0.00000000E+00 0.0000E+00 0.9000E+01
       24  2    1    2    0    0 0.47847647E+02 0.12202223E+03 -.12749502E+03 0.19973892E+03 0.80385544E+02 0.0000E+00 0.0000E+00
  9900012  1    3    3    0    0 0.37653715E+02 0.61806858E+02 -.98726497E+02 0.13223014E+03 0.50000000E+02 0.0000E+00 0.9000E+01
      -13  1    3    3    0    0 0.10193932E+02 0.60215373E+02 -.28768522E+02 0.67508780E+02 0.00000000E+00 0.0000E+00 0.9000E+01
        1  1    1    2  501    0 -.47847647E+02 -.12202223E+03 0.24337762E+03 0.27642628E+03 0.00000000E+00 0.0000E+00 0.9000E+01
#aMCatNLO 1  0  0  1  5 0.15501545D+02 0.00000000D+00  -5  6  0 0.00000000D+00 0.00000000D+00 0.00000000D+00 0.00000000D+00 0.00000000D+00
  <mgrwgt>
 0.8207370406D-04    9    2    0
 0.230924513916941D+03 0.000000000000000D+00 0.000000000000000D+00 0.230924513916941D+03
 0.230924513916941D+03 0.000000000000000D+00 0.000000000000000D+00 -.230924513916941D+03
 0.161100430273858D+03 0.376537149787996D+02 0.618068581840081D+02 -.134964657092660D+03
 0.768196982714492D+02 0.101939315886909D+02 0.602153733956382D+02 -.465989120914368D+02
 0.223928899288575D+03 -.478476465674904D+02 -.122022231579646D+03 0.181563569184097D+03
 0.000000000000000D+00 -.000000000000000D+00 -.000000000000000D+00 0.000000000000000D+00
 0.249399201847010D+03 0.000000000000000D+00 0.000000000000000D+00 0.249399201847010D+03
 0.233848496244020D+03 0.000000000000000D+00 0.000000000000000D+00 -.233848496244020D+03
 0.163192232143496D+03 0.419293804686203D+02 0.644838973803160D+02 -.134964657092660D+03
 0.781201530229168D+02 0.122367498573469D+02 0.614944034294764D+02 -.465989120914368D+02
 0.220760211910403D+03 -.419846033759502D+02 -.118351318485353D+03 0.181563569184097D+03
 0.211751010142142D+02 -.121815269500171D+02 -.762698232443899D+01 0.155507056029904D+02
0.913269447306D-06 0.000000000000D+00 0.000000000000D+00 0.390456964364D-05 0.000000000000D+00  6 2 22 9900012 -13 1 21 0 0.45542139D-01 0.27714046D-01 0.19614763D+05 0.19614763D+05 0.19614763D+05 0.11801263D+01  1  2  2  1  6  1        2 0.140926493178D-04 0.100000000000D+01
-.949219357829D-09 0.000000000000D+00 -.175359757351D-08 0.390456964364D-05 0.000000000000D+00  6 2 22 9900012 -13 1 21 2 0.45542139D-01 0.27714046D-01 0.19614763D+05 0.19614763D+05 0.19614763D+05 0.11801263D+01  1  2  3  1  6  1        2 -.203993952885D-07 0.100000000000D+01
-.141175364024D-06 0.000000000000D+00 0.000000000000D+00 0.390456964364D-05 0.000000000000D+00  6 2 22 9900012 -13 1 21 2 0.45542139D-01 0.27714046D-01 0.19614763D+05 0.19614763D+05 0.19614763D+05 0.11801263D+01  1  2 15  1  6  1        2 -.303395841222D-05 0.100000000000D+01
0.439059068030D-05 0.000000000000D+00 0.000000000000D+00 0.390456964364D-05 0.000000000000D+00  6 2 22 9900012 -13 1 21 2 0.49808445D-01 0.27714046D-01 0.21666371D+05 0.21666371D+05 0.21666371D+05 0.11759973D+01  1  2 12  1  6  1        2 0.855260071669D-04 0.100000000000D+01
-.135829721617D-05 0.000000000000D+00 0.000000000000D+00 0.390456964364D-05 0.000000000000D+00  6 2 22 9900012 -13 1 21 2 0.45542139D-01 0.27714046D-01 0.19614763D+05 0.19614763D+05 0.19614763D+05 0.11801263D+01  1  2  4  1  6  1        2 -.291907677646D-04 0.100000000000D+01
-.856951413536D-05 0.000000000000D+00 -.126727527414D-05 0.390456964364D-05 0.000000000000D+00  6 2 22 9900012 -13 1 21 2 0.49649914D-01 0.27714046D-01 0.19614763D+05 0.19614763D+05 0.19614763D+05 0.11801263D+01  1  2  5  1  6  1        2 -.167779408791D-03 0.100000000000D+01
0.865138494882D-05 0.000000000000D+00 0.126256436207D-05 0.390456964364D-05 0.000000000000D+00  6 2 22 9900012 -13 1 21 2 0.45542139D-01 0.27714046D-01 0.19614763D+05 0.19614763D+05 0.19614763D+05 0.11801263D+01  1  2  6  1  6  1        2 0.185924380818D-03 0.100000000000D+01
0.665969019945D-07 0.000000000000D+00 0.000000000000D+00 0.390456964364D-05 0.000000000000D+00  6 21 22 9900012 -13 1 -2 2 0.49808445D-01 0.27714046D-01 0.21666371D+05 0.21666371D+05 0.21666371D+05 0.11759973D+01  1  2 12  3  6  1        2 0.424497999892D-05 0.100000000000D+01
-.119299945540D-06 0.000000000000D+00 -.181116008365D-07 0.390456964364D-05 0.000000000000D+00  6 21 22 9900012 -13 1 -2 2 0.49649914D-01 0.27714046D-01 0.19614763D+05 0.19614763D+05 0.19614763D+05 0.11801263D+01  1  2  5  3  6  1        2 -.768977888320D-05 0.100000000000D+01
  </mgrwgt>
  </event>
  <event>
  6     66 0.80203028E-06 0.53916685E+02 0.78161638E-02 0.11906710E+00
        2 -1    0    0  501    0 0.00000000E+00 0.00000000E+00 0.13492439E+04 0.13492439E+04 0.00000000E+00 0.0000E+00 0.9000E+01
       22 -1    0    0    0    0 0.00000000E+00 0.00000000E+00 -.73768675E+02 0.73768675E+02 0.00000000E+00 0.0000E+00 0.9000E+01
       24  2    1    2    0    0 0.19173756E+02 0.63524159E+02 -.35165469E+02 0.11069326E+03 0.81323038E+02 0.0000E+00 0.0000E+00
  9900012  1    3    3    0    0 -.41883281E+01 0.52527788E+02 -.77829590E+01 0.73056725E+02 0.50000000E+02 0.0000E+00 0.9000E+01
      -13  1    3    3    0    0 0.23362084E+02 0.10996371E+02 -.27382510E+02 0.37636538E+02 0.00000000E+00 0.0000E+00 0.9000E+01
        1  1    1    2  501    0 -.19173756E+02 -.63524159E+02 0.13106407E+04 0.13123193E+04 0.00000000E+00 0.0000E+00 0.9000E+01
#aMCatNLO 1  0  0  5  1 0.11468825D+02 0.00000000D+00  -5  6  0 0.00000000D+00 0.00000000D+00 0.00000000D+00 0.00000000D+00 0.00000000D+00
  <mgrwgt>
 0.5982664083D-03    7    2    0
 0.315486822734227D+03 0.000000000000000D+00 0.000000000000000D+00 0.315486822734227D+03
 0.315486822734227D+03 -.000000000000000D+00 -.000000000000000D+00 -.315486822734227D+03
 0.180495033318258D+03 -.418832810318767D+01 0.525277876825566D+02 -.165232401427309D+03
 0.140232449317690D+03 0.233620843407515D+02 0.109963711010059D+02 -.137834802134668D+03
 0.310246162832506D+03 -.191737562375638D+02 -.635241587835625D+02 0.303067203561977D+03
 0.000000000000000D+00 0.000000000000000D+00 0.000000000000000D+00 0.000000000000000D+00
 0.315486822734227D+03 0.000000000000000D+00 0.000000000000000D+00 0.315486822734227D+03
 0.315486822734227D+03 -.000000000000000D+00 -.000000000000000D+00 -.315486822734227D+03
 0.179954196720415D+03 -.422342828651824D+01 0.524114980212301D+02 -.164677595458426D+03
 0.139797186632871D+03 0.233348153365736D+02 0.109060267506446D+02 -.137403778565904D+03
 0.273390097050794D+03 -.232705142107361D+02 -.650442567323164D+02 0.264518190300688D+03
 0.378321650643744D+02 0.415912716068078D+01 0.172673196044166D+01 0.375631837236429D+02
0.237945862758D-05 0.000000000000D+00 0.000000000000D+00 0.458148674734D-04 0.000000000000D+00  6 2 22 9900012 -13 1 21 0 0.20757598D+00 0.11349027D-01 0.67911102D+04 0.67911102D+04 0.67911102D+04 0.12271550D+01  1  2  2  2  6  5        1 0.216384926920D-04 0.100000000000D+01
0.616682495333D-07 0.000000000000D+00 -.456887382787D-08 0.458148674734D-04 0.000000000000D+00  6 2 22 9900012 -13 1 21 2 0.20757598D+00 0.11349027D-01 0.67911102D+04 0.67911102D+04 0.67911102D+04 0.12271550D+01  1  2  3  2  6  5        1 0.844518722511D-06 0.100000000000D+01
-.345308384368D-06 0.000000000000D+00 0.000000000000D+00 0.458148674734D-04 0.000000000000D+00  6 2 22 9900012 -13 1 21 2 0.20757598D+00 0.11349027D-01 0.67911102D+04 0.67911102D+04 0.67911102D+04 0.12271550D+01  1  2 15  2  6  5        1 -.472884179210D-05 0.100000000000D+01
0.450785952356D-04 0.000000000000D+00 0.000000000000D+00 0.458148674734D-04 0.000000000000D+00  6 2 22 9900012 -13 1 21 2 0.20757598D+00 0.11349027D-01 0.73875348D+04 0.73875348D+04 0.73875348D+04 0.12232094D+01  1  2 12  2  6  5        1 0.615041575068D-03 0.100000000000D+01
-.833020384330D-05 0.000000000000D+00 0.000000000000D+00 0.458148674734D-04 0.000000000000D+00  6 2 22 9900012 -13 1 21 2 0.20757598D+00 0.11349027D-01 0.67911102D+04 0.67911102D+04 0.67911102D+04 0.12271550D+01  1  2  4  2  6  5        1 -.114078365468D-03 0.100000000000D+01
-.449198662518D-04 0.000000000000D+00 0.000000000000D+00 0.458148674734D-04 0.000000000000D+00  6 2 22 9900012 -13 1 21 2 0.20757598D+00 0.11349027D-01 0.67911102D+04 0.67911102D+04 0.67911102D+04 0.12271550D+01  1  2  5  2  6  5        1 -.615157205685D-03 0.100000000000D+01
0.507286769335D-04 0.000000000000D+00 -.000000000000D+00 0.458148674734D-04 0.000000000000D+00  6 2 22 9900012 -13 1 21 2 0.20757598D+00 0.11349027D-01 0.67911102D+04 0.67911102D+04 0.67911102D+04 0.12271550D+01  1  2  6  2  6  5        1 0.694706234778D-03 0.100000000000D+01
  </mgrwgt>
  </event>
  <event>
  7     66 -.80203028E-06 0.25742839E+02 0.78161638E-02 0.12808544E+00
        2 -1    0    0  501    0 0.00000000E+00 0.00000000E+00 0.18020797E+04 0.18020797E+04 0.00000000E+00 0.0000E+00 0.9000E+01
       22 -1    0    0    0    0 0.00000000E+00 0.00000000E+00 -.17031430E+02 0.17031430E+02 0.00000000E+00 0.0000E+00 0.9000E+01
       24  2    1    2    0    0 -.16900769E+02 0.15892413E+02 0.85256095E+02 0.11891143E+03 0.79580912E+02 0.0000E+00 0.0000E+00
  9900012  1    3    3    0    0 0.12287243E+01 -.10708391E+01 0.29996573E+02 0.58330531E+02 0.50000000E+02 0.0000E+00 0.9000E+01
      -13  1    3    3    0    0 -.18129494E+02 0.16963252E+02 0.55259522E+02 0.60580898E+02 0.00000000E+00 0.0000E+00 0.9000E+01
        1  1    1    2  502    0 0.21283299E+02 -.18735402E+02 0.16137519E+04 0.16140009E+04 0.00000000E+00 0.0000E+00 0.9000E+01
       21  1    1    2  501  502 -.43825296E+01 0.28429891E+01 0.86040265E+02 0.86198703E+02 0.00000000E+00 0.0000E+00 0.9000E+01
#aMCatNLO 2  0  0  5  1 0.66303771D+01 0.00000000D+00  -5  6  0 0.00000000D+00 0.00000000D+00 0.00000000D+00 0.00000000D+00 0.00000000D+00
  <mgrwgt>
 -.4096424121D-03    3    2    0
 0.175191305204470D+03 0.000000000000000D+00 0.000000000000000D+00 0.175191305204470D+03
 0.175191305204470D+03 -.000000000000000D+00 -.000000000000000D+00 -.175191305204470D+03
 0.151045498617308D+03 0.111592666529533D+01 -.964771291476697D+00 -.142522161703309D+03
 0.331832435140925D+02 -.181542899722292D+02 0.169865687782970D+02 -.219773949061295D+02
 0.166153868277538D+03 0.170383633069339D+02 -.160217974868203D+02 0.164499556609438D+03
 0.000000000000000D+00 0.000000000000000D+00 0.000000000000000D+00 0.000000000000000D+00
 0.175191305204470D+03 0.000000000000000D+00 0.000000000000000D+00 0.175191305204470D+03
 0.175191305204470D+03 -.000000000000000D+00 -.000000000000000D+00 -.175191305204470D+03
 0.150019962684354D+03 0.122872434494904D+01 -.107083908377805D+01 -.141433138775734D+03
 0.329995599641495D+02 -.181294938144998D+02 0.169632520423854D+02 -.217379965039103D+02
 0.158176006936393D+03 0.212832990714626D+02 -.187354020413984D+02 0.155613800998895D+03
 0.918708082404214D+01 -.438252960191180D+01 0.284298908279099D+01 0.755733428074880D+01
-.664890040617D-05 0.000000000000D+00 0.000000000000D+00 0.232623151945D-04 0.000000000000D+00  6 2 22 9900012 -13 1 21 2 0.27724302D+00 0.26202200D-02 0.29394434D+04 0.29394434D+04 0.29394434D+04 0.12686879D+01  1  2 13  2  6  5        1 -.417458178582D-03 0.100000000000D+01
-.108682802122D-06 0.000000000000D+00 0.000000000000D+00 0.232623151945D-04 0.000000000000D+00  6 2 22 9900012 -13 1 21 2 0.27724302D+00 0.26202200D-02 0.24143427D+04 0.24143427D+04 0.24143427D+04 0.12791006D+01  1  2  8  2  6  5        1 -.687544737443D-05 0.100000000000D+01
0.233988511759D-06 0.000000000000D+00 0.000000000000D+00 0.232623151945D-04 0.218730292920D-06  6 2 22 9900012 -13 1 21 2 0.27724302D+00 0.26202200D-02 0.29394434D+04 0.29394434D+04 0.29394434D+04 0.12686879D+01  1  2  1  2  6  5        1 0.146912138791D-04 0.100000000000D+01
  </mgrwgt>
  </event>
  <event>
  6     66 0.80203028E-06 0.57251926E+02 0.78161638E-02 0.11750262E+00
        2 -1    0    0  501    0 0.00000000E+00 0.00000000E+00 0.14750759E+03 0.14750759E+03 0.00000000E+00 0.0000E+00 0.9000E+01
       22 -1    0    0    0    0 -.00000000E+00 -.00000000E+00 -.43553064E+03 0.43553064E+03 0.00000000E+00 0.0000E+00 0.9000E+01
       24  2    1    2    0    0 0.58955271E+02 0.39555596E+02 -.41990754E+03 0.43325876E+03 0.79689662E+02 0.0000E+00 0.0000E+00
  9900012  1    3    3    0    0 0.13927737E+02 0.10757652E+02 -.22454213E+03 0.23071384E+03 0.50000000E+02 0.0000E+00 0.9000E+01
      -13  1    3    3    0    0 0.45027534E+02 0.28797944E+02 -.19536541E+03 0.20254492E+03 0.00000000E+00 0.0000E+00 0.9000E+01
        1  1    1    2  501    0 -.58955271E+02 -.39555596E+02 0.13188449E+03 0.14977946E+03 0.00000000E+00 0.0000E+00 0.9000E+01
#aMCatNLO 1  0  0  5  1 0.17130660D+02 0.00000000D+00  -5  6  0 0.00000000D+00 0.00000000D+00 0.00000000D+00 0.00000000D+00 0.00000000D+00
  <mgrwgt>
 0.3162928303D-03    7    2    0
 0.253464147274886D+03 0.000000000000000D+00 0.000000000000000D+00 0.253464147274886D+03
 0.253464147274886D+03 -.000000000000000D+00 -.000000000000000D+00 -.253464147274886D+03
 0.137774278620289D+03 0.139277368182771D+02 0.107576516148450D+02 -.127169347439528D+03
 0.121953518080712D+03 0.450275340963297D+02 0.287979444183138D+02 -.109616878913542D+03
 0.247200497848772D+03 -.589552709146069D+02 -.395555960331589D+02 0.236786226353070D+03
 0.000000000000000D+00 0.000000000000000D+00 0.000000000000000D+00 0.000000000000000D+00
 0.253464147274886D+03 0.000000000000000D+00 0.000000000000000D+00 0.253464147274886D+03
 0.253464147274886D+03 -.000000000000000D+00 -.000000000000000D+00 -.253464147274886D+03
 0.136850037655661D+03 0.136881940467289D+02 0.105969321921873D+02 -.126207254855691D+03
 0.121076468215929D+03 0.448155496760268D+02 0.286557150643521D+02 -.108765470885889D+03
 0.198914684276316D+03 -.576524550585900D+02 -.182771760817910D+02 0.189497205469999D+03
 0.500871044018659D+02 -.851288664165761D+00 -.209754711747484D+02 0.454755202715810D+02
0.402935266988D-05 0.000000000000D+00 0.000000000000D+00 0.410234661900D-04 0.000000000000D+00  6 2 22 9900012 -13 1 21 0 0.22693475D-01 0.67004714D-01 0.78722401D+04 0.78722401D+04 0.78722401D+04 0.12202556D+01  1  2  2  2  6  5        1 0.298717594504D-04 0.100000000000D+01
0.100172239767D-06 0.000000000000D+00 -.773688760264D-08 0.410234661900D-04 0.000000000000D+00  6 2 22 9900012 -13 1 21 2 0.22693475D-01 0.67004714D-01 0.78722401D+04 0.78722401D+04 0.78722401D+04 0.12202556D+01  1  2  3  2  6  5        1 0.110579469273D-05 0.100000000000D+01
-.581726527384D-06 0.000000000000D+00 0.000000000000D+00 0.410234661900D-04 0.000000000000D+00  6 2 22 9900012 -13 1 21 2 0.22693475D-01 0.67004714D-01 0.78722401D+04 0.78722401D+04 0.78722401D+04 0.12202556D+01  1  2 15  2  6  5        1 -.642164044746D-05 0.100000000000D+01
0.274917507945D-04 0.000000000000D+00 0.000000000000D+00 0.410234661900D-04 0.000000000000D+00  6 2 22 9900012 -13 1 21 2 0.22693475D-01 0.67004714D-01 0.87964373D+04 0.87964373D+04 0.87964373D+04 0.12151467D+01  1  2 12  2  6  5        1 0.303043678686D-03 0.100000000000D+01
-.714071498072D-05 0.000000000000D+00 0.000000000000D+00 0.410234661900D-04 0.000000000000D+00  6 2 22 9900012 -13 1 21 2 0.22693475D-01 0.67004714D-01 0.78722401D+04 0.78722401D+04 0.78722401D+04 0.12202556D+01  1  2  4  2  6  5        1 -.788258777715D-04 0.100000000000D+01
-.274737394526D-04 0.000000000000D+00 0.000000000000D+00 0.410234661900D-04 0.000000000000D+00  6 2 22 9900012 -13 1 21 2 0.22693475D-01 0.67004714D-01 0.78722401D+04 0.78722401D+04 0.78722401D+04 0.12202556D+01  1  2  5  2  6  5        1 -.303280782648D-03 0.100000000000D+01
0.335901922501D-04 0.000000000000D+00 -.000000000000D+00 0.410234661900D-04 0.000000000000D+00  6 2 22 9900012 -13 1 21 2 0.22693475D-01 0.67004714D-01 0.78722401D+04 0.78722401D+04 0.78722401D+04 0.12202556D+01  1  2  6  2  6  5        1 0.370799898298D-03 0.100000000000D+01
  </mgrwgt>
  </event>
  <event>
  6     66 0.80203028E-06 0.69233022E+02 0.78161638E-02 0.11186246E+00
        2 -1    0    0  501    0 0.00000000E+00 0.00000000E+00 0.81664724E+03 0.81664724E+03 0.00000000E+00 0.0000E+00 0.9000E+01
       22 -1    0    0    0    0 0.00000000E+00 0.00000000E+00 -.11623215E+02 0.11623215E+02 0.00000000E+00 0.0000E+00 0.9000E+01
       24  2    1    2    0    0 -.73870238E+02 -.14479427E+02 0.52194500E+03 0.53535374E+03 0.92252815E+02 0.0000E+00 0.0000E+00
  9900012  1    3    3    0    0 -.16686670E+02 0.12824015E+02 0.28277428E+03 0.28793088E+03 0.50000000E+02 0.0000E+00 0.9000E+01
      -13  1    3    3    0    0 -.57183568E+02 -.27303442E+02 0.23917072E+03 0.24742286E+03 0.00000000E+00 0.0000E+00 0.9000E+01
        1  1    1    2  501    0 0.73870238E+02 0.14479427E+02 0.28307903E+03 0.29291672E+03 0.00000000E+00 0.0000E+00 0.9000E+01
#aMCatNLO 1  0  0  1  5 0.67834473D+02 0.00000000D+00  -5  6  0 0.00000000D+00 0.00000000D+00 0.00000000D+00 0.00000000D+00 0.00000000D+00
  <mgrwgt>
 0.1816713421D-03    8    2    0
 0.974272384069205D+02 0.000000000000000D+00 0.000000000000000D+00 0.974272384069205D+02
 0.974272384069205D+02 0.000000000000000D+00 0.000000000000000D+00 -.974272384069205D+02
 0.556546369114000D+02 -.166866703224640D+02 0.128240146799640D+02 0.124313430801837D+02
 0.636109037319506D+02 -.571835677857579D+02 -.273034416953086D+02 -.555956117674818D+01
 0.755889361704904D+02 0.738702381082219D+02 0.144794270153447D+02 -.687178190343550D+01
 0.000000000000000D+00 0.000000000000000D+00 -.000000000000000D+00 0.000000000000000D+00
 0.173633321847286D+03 0.000000000000000D+00 0.000000000000000D+00 0.173633321847286D+03
 0.114642423407327D+03 0.000000000000000D+00 0.000000000000000D+00 -.114642423407327D+03
 0.635110087045050D+02 -.346834272030752D+02 0.132728976992767D+02 0.124313430801837D+02
 0.840471508921658D+02 -.794833346086512D+02 -.267472311109330D+02 -.555956117674818D+01
 0.563980321285206D+02 0.539371662265621D+02 0.149766064543833D+02 -.687178190343550D+01
 0.843195535294211D+02 0.602295955851644D+02 -.150227304272712D+01 0.589908984399590D+02
0.531785338661D-06 0.000000000000D+00 0.000000000000D+00 0.920232819352D-09 0.000000000000D+00  6 2 22 9900012 -13 1 21 0 0.12563804D+00 0.17881870D-02 0.93018235D+04 0.93018235D+04 0.93018235D+04 0.12126017D+01  1  2  2  1  6  1        2 0.123915801102D-03 0.100000000000D+01
-.224447572272D-07 0.000000000000D+00 -.102109786138D-08 0.920232819352D-09 0.000000000000D+00  6 2 22 9900012 -13 1 21 2 0.12563804D+00 0.17881870D-02 0.93018235D+04 0.93018235D+04 0.93018235D+04 0.12126017D+01  1  2  3  1  6  1        2 -.769027025885D-05 0.100000000000D+01
-.661863456074D-07 0.000000000000D+00 0.000000000000D+00 0.920232819352D-09 0.000000000000D+00  6 2 22 9900012 -13 1 21 2 0.12563804D+00 0.17881870D-02 0.93018235D+04 0.93018235D+04 0.93018235D+04 0.12126017D+01  1  2 15  1  6  1        2 -.226774956848D-04 0.100000000000D+01
0.693163479519D-07 0.000000000000D+00 0.000000000000D+00 0.920232819352D-09 0.000000000000D+00  6 2 22 9900012 -13 1 21 2 0.26347462D+00 0.17881870D-02 0.17209730D+05 0.17209730D+05 0.17209730D+05 0.11856244D+01  1  2 12  1  6  1        2 0.766764771572D-05 0.100000000000D+01
-.322161649952D-06 0.000000000000D+00 -.141573570199D-06 0.920232819352D-09 0.000000000000D+00  6 2 22 9900012 -13 1 21 2 0.24238204D+00 0.17881870D-02 0.93018235D+04 0.93018235D+04 0.93018235D+04 0.12126017D+01  1  2  5  1  6  1        2 -.424741430994D-04 0.100000000000D+01
0.360423993494D-06 0.000000000000D+00 0.115685655028D-06 0.920232819352D-09 0.000000000000D+00  6 2 22 9900012 -13 1 21 2 0.12563804D+00 0.17881870D-02 0.93018235D+04 0.93018235D+04 0.93018235D+04 0.12126017D+01  1  2  6  1  6  1        2 0.123492443678D-03 0.100000000000D+01
0.555151167494D-08 0.000000000000D+00 0.000000000000D+00 0.920232819352D-09 0.000000000000D+00  6 21 22 9900012 -13 1 -2 2 0.26347462D+00 0.17881870D-02 0.17209730D+05 0.17209730D+05 0.17209730D+05 0.11856244D+01  1  2 12  3  6  1        2 0.204951088913D-06 0.100000000000D+01
-.147447039706D-07 0.000000000000D+00 -.100913340607D-07 0.920232819352D-09 0.000000000000D+00  6 21 22 9900012 -13 1 -2 2 0.24238204D+00 0.17881870D-02 0.93018235D+04 0.93018235D+04 0.93018235D+04 0.12126017D+01  1  2  5  3  6  1        2 -.767592491461D-06 0.100000000000D+01
  </mgrwgt>
  </event>
  <event>
  6     66 -.80203028E-06 0.83849990E+02 0.78161638E-02 0.10744663E+00
        2 -1    0    0  501    0 0.00000000E+00 0.00000000E+00 0.14836328E+04 0.14836328E+04 0.00000000E+00 0.0000E+00 0.9000E+01
       22 -1    0    0    0    0 0.00000000E+00 0.00000000E+00 -.32510519E+02 0.32510519E+02 0.00000000E+00 0.0000E+00 0.9000E+01
       24  2    1    2    0    0 -.87383977E+02 -.14204181E+03 0.28776826E+03 0.34089679E+03 0.74754339E+02 0.0000E+00 0.0000E+00
  9900012  1    3    3    0    0 -.48730699E+02 -.75471483E+02 0.13362386E+03 0.16860001E+03 0.50000000E+02 0.0000E+00 0.9000E+01
      -13  1    3    3    0    0 -.38653278E+02 -.66570329E+02 0.15414440E+03 0.17229678E+03 0.00000000E+00 0.0000E+00 0.9000E+01
        1  1    1    2  501    0 0.87383977E+02 0.14204181E+03 0.11633541E+04 0.11752466E+04 0.00000000E+00 0.0000E+00 0.9000E+01
#aMCatNLO 1  0  0  1  5 0.33687709D+01 0.00000000D+00  -5  6  0 0.00000000D+00 0.00000000D+00 0.00000000D+00 0.00000000D+00 0.00000000D+00
  <mgrwgt>
 -.6118334695D-04   11    2    0
 0.219621659427025D+03 0.000000000000000D+00 0.000000000000000D+00 0.219621659427025D+03
 0.219621659427025D+03 0.000000000000000D+00 0.000000000000000D+00 -.219621659427025D+03
 0.140508025170892D+03 -.487306989229079D+02 -.754714830057047D+02 -.957699293767551D+02
 0.854748136929225D+02 -.386532783782216D+02 -.665703291948153D+02 -.371518386806015D+02
 0.213260479990236D+03 0.873839773011295D+02 0.142041812200520D+03 0.132921768057357D+03
 0.000000000000000D+00 0.000000000000000D+00 0.000000000000000D+00 0.000000000000000D+00
 0.350699571484612D+03 0.000000000000000D+00 0.000000000000000D+00 0.350699571484612D+03
 0.219649756971802D+03 0.000000000000000D+00 0.000000000000000D+00 -.219649756971802D+03
 0.141092588220554D+03 -.487355714531227D+02 -.765511799587953D+02 -.957699293767551D+02
 0.859891523015017D+02 -.386562452160598D+02 -.672277465186606D+02 -.371518386806015D+02
 0.212174493110077D+03 0.873766160076440D+02 0.140410633778490D+03 0.132921768057357D+03
 0.131093094824281D+03 0.152006615384274D-01 0.336829269896603D+01 0.131049814512810D+03
0.964955273110D-07 0.000000000000D+00 0.000000000000D+00 0.451186822117D-07 0.000000000000D+00  6 2 22 9900012 -13 1 21 0 0.22825121D+00 0.50016183D-02 0.30026102D+05 0.30026102D+05 0.30026102D+05 0.11627524D+01  1  2  2  1  6  1        2 0.249080480320D-05 0.100000000000D+01
-.132959365617D-08 0.000000000000D+00 -.185284116365D-09 0.451186822117D-07 0.000000000000D+00  6 2 22 9900012 -13 1 21 2 0.22825121D+00 0.50016183D-02 0.30026102D+05 0.30026102D+05 0.30026102D+05 0.11627524D+01  1  2  3  1  6  1        2 -.464008533323D-07 0.100000000000D+01
-.138576893290D-07 0.000000000000D+00 0.000000000000D+00 0.451186822117D-07 0.000000000000D+00  6 2 22 9900012 -13 1 21 2 0.22825121D+00 0.50016183D-02 0.30026102D+05 0.30026102D+05 0.30026102D+05 0.11627524D+01  1  2 15  1  6  1        2 -.483612874578D-06 0.100000000000D+01
0.170405452996D-05 0.000000000000D+00 0.000000000000D+00 0.451186822117D-07 0.000000000000D+00  6 2 22 9900012 -13 1 21 2 0.36452617D+00 0.50016183D-02 0.30608607D+05 0.30608607D+05 0.30608607D+05 0.11619871D+01  1  2 12  1  6  1        2 0.200105433613D-04 0.100000000000D+01
-.480171419954D-04 0.000000000000D+00 0.000000000000D+00 0.451186822117D-07 0.000000000000D+00  6 2 22 9900012 -13 1 21 2 0.22825121D+00 0.50016183D-02 0.30026102D+05 0.30026102D+05 0.30026102D+05 0.11627524D+01  1  2  4  1  6  1        2 -.167572728166D-02 0.100000000000D+01
-.503573515397D-04 0.000000000000D+00 -.265388398860D-07 0.451186822117D-07 0.000000000000D+00  6 2 22 9900012 -13 1 21 2 0.36449095D+00 0.50016183D-02 0.30026102D+05 0.30026102D+05 0.30026102D+05 0.11627524D+01  1  2  5  1  6  1        2 -.592126812313D-03 0.100000000000D+01
0.453172062722D-04 0.000000000000D+00 0.238754796090D-07 0.451186822117D-07 0.000000000000D+00  6 2 22 9900012 -13 1 21 2 0.22825121D+00 0.50016183D-02 0.30026102D+05 0.30026102D+05 0.30026102D+05 0.11627524D+01  1  2  6  1  6  1        2 0.158150351569D-02 0.100000000000D+01
0.513526675588D-04 0.000000000000D+00 0.000000000000D+00 0.451186822117D-07 0.335950927066D-07  6 2 22 9900012 -13 1 21 2 0.36447953D+00 0.50022582D-02 0.30608607D+05 0.30608607D+05 0.30608607D+05 0.11619871D+01  1  2 11  1  6  1        2 0.603155412989D-03 0.100000000000D+01
0.912670586419D-07 0.000000000000D+00 0.000000000000D+00 0.451186822117D-07 0.000000000000D+00  6 21 22 9900012 -13 1 -2 2 0.36452617D+00 0.50016183D-02 0.30608607D+05 0.30608607D+05 0.30608607D+05 0.11619871D+01  1  2 12  3  6  1        2 0.198040620739D-06 0.100000000000D+01
-.269554100104D-05 0.000000000000D+00 -.142116177331D-08 0.451186822117D-07 0.000000000000D+00  6 21 22 9900012 -13 1 -2 2 0.36449095D+00 0.50016183D-02 0.30026102D+05 0.30026102D+05 0.30026102D+05 0.11627524D+01  1  2  5  3  6  1        2 -.586425970043D-05 0.100000000000D+01
0.262877466615D-05 0.000000000000D+00 0.000000000000D+00 0.451186822117D-07 0.171967251581D-08  6 21 22 9900012 -13 1 -2 2 0.36447953D+00 0.50022582D-02 0.30608607D+05 0.30608607D+05 0.30608607D+05 0.11619871D+01  1  2 11  3  6  1        2 0.570670299497D-05 0.100000000000D+01
  </mgrwgt>
  </event>
  <event>
  6     66 0.80203028E-06 0.25968897E+02 0.78161638E-02 0.12690693E+00
        4 -1    0    0  501    0 0.00000000E+00 0.00000000E+00 0.20812918E+03 0.20812918E+03 0.00000000E+00 0.0000E+00 0.9000E+01
       22 -1    0    0    0    0 -.00000000E+00 -.00000000E+00 -.28634704E+03 0.28634704E+03 0.00000000E+00 0.0000E+00 0.9000E+01
       24  2    1    2    0    0 -.19361107E+02 -.23662691E+02 -.27876089E+03 0.29161597E+03 0.79984133E+02 0.0000E+00 0.0000E+00
  9900012  1    3    3    0    0 -.11940486E+02 0.57244416E+00 -.23897867E+03 0.24444572E+03 0.50000000E+02 0.0000E+00 0.9000E+01
      -13  1    3    3    0    0 -.74206216E+01 -.24235135E+02 -.39782222E+02 0.47170251E+02 0.00000000E+00 0.0000E+00 0.9000E+01
        3  1    1    2  501    0 0.19361107E+02 0.23662691E+02 0.20054303E+03 0.20286026E+03 0.00000000E+00 0.0000E+00 0.9000E+01
#aMCatNLO 1  0  0  5  1 0.10152881D+02 0.00000000D+00  -5  6  0 0.00000000D+00 0.00000000D+00 0.00000000D+00 0.00000000D+00 0.00000000D+00
  <mgrwgt>
 0.1987855427D-03    7    2    0
 0.244125328054795D+03 0.000000000000000D+00 0.000000000000000D+00 0.244125328054795D+03
 0.244125328054795D+03 -.000000000000000D+00 -.000000000000000D+00 -.244125328054795D+03
 0.209278151840050D+03 -.119404857537972D+02 0.572444156999101D+00 -.202865576047878D+03
 0.413985872745199D+02 -.742062163605376D+01 -.242351354518179D+02 -.327327910892520D+02
 0.237573916995021D+03 0.193611073898509D+02 0.236626912948187D+02 0.235598367137130D+03
 0.000000000000000D+00 0.000000000000000D+00 0.000000000000000D+00 0.000000000000000D+00
 0.244125328054795D+03 0.000000000000000D+00 0.000000000000000D+00 0.244125328054795D+03
 0.244125328054795D+03 -.000000000000000D+00 -.000000000000000D+00 -.244125328054795D+03
 0.208643209660848D+03 -.118868959260112D+02 0.637940387452767D+00 -.202213460666907D+03
 0.412871416209926D+02 -.741001889022627D+01 -.242221770245781D+02 -.326037700805964D+02
 0.197686643966215D+03 0.753449861650184D+01 0.250342860439682D+02 0.195950312721087D+03
 0.406336608615355D+02 0.117624161997355D+02 -.145004940684297D+01 0.388669180264167D+02
0.311896490131D-05 0.000000000000D+00 0.000000000000D+00 0.930935041248D-04 0.000000000000D+00  6 4 22 9900012 -13 3 21 0 0.32019874D-01 0.44053391D-01 0.28798800D+04 0.28798800D+04 0.28798800D+04 0.12697595D+01  1  2  2  2  6  5        3 0.652627179453D-05 0.100000000000D+01
0.230659368127D-06 0.000000000000D+00 -.598882323167D-08 0.930935041248D-04 0.000000000000D+00  6 4 22 9900012 -13 3 21 2 0.32019874D-01 0.44053391D-01 0.28798800D+04 0.28798800D+04 0.28798800D+04 0.12697595D+01  1  2  3  2  6  5        3 0.778159679059D-06 0.100000000000D+01
-.467480416104D-06 0.000000000000D+00 0.000000000000D+00 0.930935041248D-04 0.000000000000D+00  6 4 22 9900012 -13 3 21 2 0.32019874D-01 0.44053391D-01 0.28798800D+04 0.28798800D+04 0.28798800D+04 0.12697595D+01  1  2 15  2  6  5        3 -.157710659453D-05 0.100000000000D+01
0.527191600935D-04 0.000000000000D+00 0.000000000000D+00 0.930935041248D-04 0.000000000000D+00  6 4 22 9900012 -13 3 21 2 0.32019874D-01 0.44053391D-01 0.32903287D+04 0.32903287D+04 0.32903287D+04 0.12628379D+01  1  2 12  2  6  5        3 0.178293374505D-03 0.100000000000D+01
-.535614855543D-05 0.000000000000D+00 0.000000000000D+00 0.930935041248D-04 0.000000000000D+00  6 4 22 9900012 -13 3 21 2 0.32019874D-01 0.44053391D-01 0.28798800D+04 0.28798800D+04 0.28798800D+04 0.12697595D+01  1  2  4  2  6  5        3 -.180696707649D-04 0.100000000000D+01
-.524931214746D-04 0.000000000000D+00 0.000000000000D+00 0.930935041248D-04 0.000000000000D+00  6 4 22 9900012 -13 3 21 2 0.32019874D-01 0.44053391D-01 0.28798800D+04 0.28798800D+04 0.28798800D+04 0.12697595D+01  1  2  5  2  6  5        3 -.177092441080D-03 0.100000000000D+01
0.622258131934D-04 0.000000000000D+00 -.000000000000D+00 0.930935041248D-04 0.000000000000D+00  6 4 22 9900012 -13 3 21 2 0.32019874D-01 0.44053391D-01 0.28798800D+04 0.28798800D+04 0.28798800D+04 0.12697595D+01  1  2  6  2  6  5        3 0.209926955133D-03 0.100000000000D+01
  </mgrwgt>
  </event>
  <event>
  6     66 0.80203028E-06 0.46093287E+02 0.78161638E-02 0.11868557E+00
        2 -1    0    0  501    0 0.00000000E+00 0.00000000E+00 0.41801630E+03 0.41801630E+03 0.00000000E+00 0.0000E+00 0.9000E+01
       22 -1    0    0    0    0 0.00000000E+00 0.00000000E+00 -.21744200E+02 0.21744200E+02 0.00000000E+00 0.0000E+00 0.9000E+01
       24  2    1    2    0    0 -.38606994E+02 -.43298950E+02 0.11193348E+03 0.14956444E+03 0.80468131E+02 0.0000E+00 0.0000E+00
  9900012  1    3    3    0    0 -.25039954E+02 -.25595896E+01 0.68885559E+02 0.88762441E+02 0.50000000E+02 0.0000E+00 0.9000E+01
      -13  1    3    3    0    0 -.13567040E+02 -.40739361E+02 0.43047921E+02 0.60802003E+02 0.00000000E+00 0.0000E+00 0.9000E+01
        1  1    1    2  501    0 0.38606994E+02 0.43298950E+02 0.28433862E+03 0.29019605E+03 0.00000000E+00 0.0000E+00 0.9000E+01
#aMCatNLO 1  0  0  1  5 0.22460349D+02 0.00000000D+00  -5  6  0 0.00000000D+00 0.00000000D+00 0.00000000D+00 0.00000000D+00 0.00000000D+00
  <mgrwgt>
 0.2261132048D-03    9    2    0
 0.953385011166761D+02 0.000000000000000D+00 0.000000000000000D+00 0.953385011166761D+02
 0.953385011166761D+02 0.000000000000000D+00 0.000000000000000D+00 -.953385011166761D+02
 0.615532569372385D+02 -.250399544529818D+02 -.255958960731550D+01 -.255979026800326D+02
 0.507645338348827D+02 -.135670397415064D+02 -.407393607320672D+02 -.270791029258325D+02
 0.783592114612310D+02 0.386069941944882D+02 0.432989503393827D+02 0.526770056058651D+02
 0.000000000000000D+00 0.000000000000000D+00 -.000000000000000D+00 0.000000000000000D+00
 0.106290484418764D+03 0.000000000000000D+00 0.000000000000000D+00 0.106290484418764D+03
 0.102789169438920D+03 0.000000000000000D+00 0.000000000000000D+00 -.102789169438920D+03
 0.619374838223192D+02 -.259286378038085D+02 0.295042747115522D+01 -.255979026800326D+02
 0.475250814139942D+02 -.142743668179623D+02 -.363537893497390D+02 -.270791029258325D+02
 0.819949968798303D+02 0.374530282022916D+02 0.504537736170584D+02 0.526770056058651D+02
 0.176220917415409D+02 0.274997641947928D+01 -.170504117384746D+02 0.350131497984367D+01
0.476811992730D-06 0.000000000000D+00 0.000000000000D+00 0.521430162828D-06 0.000000000000D+00  6 2 22 9900012 -13 1 21 0 0.64310199D-01 0.33452615D-02 0.61566270D+04 0.61566270D+04 0.61566270D+04 0.12318014D+01  1  2  2  1  6  1        2 0.962476067177D-04 0.100000000000D+01
0.812794885776D-09 0.000000000000D+00 -.915541799782D-09 0.521430162828D-06 0.000000000000D+00  6 2 22 9900012 -13 1 21 2 0.64310199D-01 0.33452615D-02 0.61566270D+04 0.61566270D+04 0.61566270D+04 0.12318014D+01  1  2  3  1  6  1        2 0.248945961171D-06 0.100000000000D+01
-.655857785523D-07 0.000000000000D+00 0.000000000000D+00 0.521430162828D-06 0.000000000000D+00  6 2 22 9900012 -13 1 21 2 0.64310199D-01 0.33452615D-02 0.61566270D+04 0.61566270D+04 0.61566270D+04 0.12318014D+01  1  2 15  1  6  1        2 -.200878659137D-04 0.100000000000D+01
0.400639505251D-06 0.000000000000D+00 0.000000000000D+00 0.521430162828D-06 0.000000000000D+00  6 2 22 9900012 -13 1 21 2 0.77300973D-01 0.33452615D-02 0.77055480D+04 0.77055480D+04 0.77055480D+04 0.12212481D+01  1  2 12  1  6  1        2 0.101115531440D-03 0.100000000000D+01
-.617502509818D-07 0.000000000000D+00 0.000000000000D+00 0.521430162828D-06 0.000000000000D+00  6 2 22 9900012 -13 1 21 2 0.64310199D-01 0.33452615D-02 0.61566270D+04 0.61566270D+04 0.61566270D+04 0.12318014D+01  1  2  4  1  6  1        2 -.189131056952D-04 0.100000000000D+01
-.124909830118D-05 0.000000000000D+00 -.343001545376D-06 0.521430162828D-06 0.000000000000D+00  6 2 22 9900012 -13 1 21 2 0.76395063D-01 0.33452615D-02 0.61566270D+04 0.61566270D+04 0.61566270D+04 0.12318014D+01  1  2  5  1  6  1        2 -.318842752345D-03 0.100000000000D+01
0.129395437443D-05 0.000000000000D+00 0.337978154090D-06 0.521430162828D-06 0.000000000000D+00  6 2 22 9900012 -13 1 21 2 0.64310199D-01 0.33452615D-02 0.61566270D+04 0.61566270D+04 0.61566270D+04 0.12318014D+01  1  2  6  1  6  1        2 0.396317350283D-03 0.100000000000D+01
0.107487890303D-07 0.000000000000D+00 0.000000000000D+00 0.521430162828D-06 0.000000000000D+00  6 21 22 9900012 -13 1 -2 2 0.77300973D-01 0.33452615D-02 0.77055480D+04 0.77055480D+04 0.77055480D+04 0.12212481D+01  1  2 12  3  6  1        2 0.563741994367D-05 0.100000000000D+01
-.287729214336D-07 0.000000000000D+00 -.873679668818D-08 0.521430162828D-06 0.000000000000D+00  6 21 22 9900012 -13 1 -2 2 0.76395063D-01 0.33452615D-02 0.61566270D+04 0.61566270D+04 0.61566270D+04 0.12318014D+01  1  2  5  3  6  1        2 -.156099256364D-04 0.100000000000D+01
  </mgrwgt>
  </event>
  <event>
  6     66 0.80203028E-06 0.39126587E+02 0.78161638E-02 0.11751862E+00
        2 -1    0    0  501    0 0.00000000E+00 0.00000000E+00 0.10664697E+02 0.10664697E+02 0.00000000E+00 0.0000E+00 0.9000E+01
       22 -1    0    0    0    0 0.00000000E+00 0.00000000E+00 -.23770234E+04 0.23770234E+04 0.00000000E+00 0.0000E+00 0.9000E+01
       24  2    1    2    0    0 0.54162936E+02 -.42851920E+02 -.22493564E+04 0.22518225E+04 0.79565478E+02 0.0000E+00 0.0000E+00
  9900012  1    3    3    0    0 0.28352781E+02 -.36871440E+02 -.19773653E+04 0.19785441E+04 0.50000000E+02 0.0000E+00 0.9000E+01
      -13  1    3    3    0    0 0.25810155E+02 -.59804802E+01 -.27199110E+03 0.27327841E+03 0.00000000E+00 0.0000E+00 0.9000E+01
        1  1    1    2  501    0 -.54162936E+02 0.42851920E+02 -.11700237E+03 0.13586561E+03 0.00000000E+00 0.0000E+00 0.9000E+01
#aMCatNLO 1  0  0  1  5 0.25527888D+02 0.00000000D+00  -5  6  0 0.00000000D+00 0.00000000D+00 0.00000000D+00 0.00000000D+00 0.00000000D+00
  <mgrwgt>
 0.1853877852D-03    9    2    0
 0.159217570925429D+03 0.000000000000000D+00 0.000000000000000D+00 0.159217570925429D+03
 0.159217570925429D+03 0.000000000000000D+00 0.000000000000000D+00 -.159217570925429D+03
 0.141286871589573D+03 0.283527810736903D+02 -.368714398750122D+02 -.123687496581098D+03
 0.278709736738909D+02 0.258101554213002D+02 -.598048015608746D+01 -.865221981700018D+01
 0.149277296587395D+03 -.541629364949905D+02 0.428519200310996D+02 0.132339716398098D+03
 0.000000000000000D+00 -.000000000000000D+00 -.000000000000000D+00 0.000000000000000D+00
 0.181103885639444D+03 0.000000000000000D+00 0.000000000000000D+00 0.181103885639444D+03
 0.165453441403230D+03 0.000000000000000D+00 0.000000000000000D+00 -.165453441403230D+03
 0.140231482344192D+03 0.328486145559924D+02 -.280578037576357D+02 -.123687496581098D+03
 0.283903735312655D+02 0.267086462123620D+02 -.421907797818083D+01 -.865221981700018D+01
 0.150600920303942D+03 -.493738969553860D+02 0.522403575744286D+02 0.132339716398098D+03
 0.273345508632747D+02 -.101833638129684D+02 -.199634758386120D+02 0.156504442362136D+02
0.185650657586D-04 0.000000000000D+00 0.000000000000D+00 0.512486511679D-05 0.000000000000D+00  6 2 22 9900012 -13 1 21 0 0.16407226D-02 0.36569591D+00 0.67114988D+04 0.67114988D+04 0.67114988D+04 0.12277107D+01  1  2  2  1  6  1        2 0.635530306861D-04 0.100000000000D+01
0.185949506875D-06 0.000000000000D+00 -.356473704035D-07 0.512486511679D-05 0.000000000000D+00  6 2 22 9900012 -13 1 21 2 0.16407226D-02 0.36569591D+00 0.67114988D+04 0.67114988D+04 0.67114988D+04 0.12277107D+01  1  2  3  1  6  1        2 0.959460063064D-06 0.100000000000D+01
-.250302039612D-05 0.000000000000D+00 0.000000000000D+00 0.512486511679D-05 0.000000000000D+00  6 2 22 9900012 -13 1 21 2 0.16407226D-02 0.36569591D+00 0.67114988D+04 0.67114988D+04 0.67114988D+04 0.12277107D+01  1  2 15  1  6  1        2 -.129150549924D-04 0.100000000000D+01
0.283510750362D-04 0.000000000000D+00 0.000000000000D+00 0.512486511679D-05 0.000000000000D+00  6 2 22 9900012 -13 1 21 2 0.19393525D-02 0.36569591D+00 0.87805382D+04 0.87805382D+04 0.87805382D+04 0.12152294D+01  1  2 12  1  6  1        2 0.117314213976D-03 0.100000000000D+01
-.328350037959D-05 0.000000000000D+00 0.000000000000D+00 0.512486511679D-05 0.000000000000D+00  6 2 22 9900012 -13 1 21 2 0.16407226D-02 0.36569591D+00 0.67114988D+04 0.67114988D+04 0.67114988D+04 0.12277107D+01  1  2  4  1  6  1        2 -.169421663666D-04 0.100000000000D+01
-.507094329026D-04 0.000000000000D+00 -.140075985270D-04 0.512486511679D-05 0.000000000000D+00  6 2 22 9900012 -13 1 21 2 0.19556026D-02 0.36569591D+00 0.67114988D+04 0.67114988D+04 0.67114988D+04 0.12277107D+01  1  2  5  1  6  1        2 -.206944109664D-03 0.100000000000D+01
0.525695329953D-04 0.000000000000D+00 0.137944662055D-04 0.512486511679D-05 0.000000000000D+00  6 2 22 9900012 -13 1 21 2 0.16407226D-02 0.36569591D+00 0.67114988D+04 0.67114988D+04 0.67114988D+04 0.12277107D+01  1  2  6  1  6  1        2 0.271247653680D-03 0.100000000000D+01
0.705563584674D-06 0.000000000000D+00 0.000000000000D+00 0.512486511679D-05 0.000000000000D+00  6 21 22 9900012 -13 1 -2 2 0.19393525D-02 0.36569591D+00 0.87805382D+04 0.87805382D+04 0.87805382D+04 0.12152294D+01  1  2 12  3  6  1        2 0.476478806048D-04 0.100000000000D+01
-.118287123780D-05 0.000000000000D+00 -.362270862271D-06 0.512486511679D-05 0.000000000000D+00  6 21 22 9900012 -13 1 -2 2 0.19556026D-02 0.36569591D+00 0.67114988D+04 0.67114988D+04 0.67114988D+04 0.12277107D+01  1  2  5  3  6  1        2 -.785331228203D-04 0.100000000000D+01
  </mgrwgt>
  </event>
  <event>
  6     66 0.80203028E-06 0.23236801E+02 0.78161638E-02 0.11995073E+00
        2 -1    0    0  501    0 0.00000000E+00 0.00000000E+00 0.18290385E+03 0.18290385E+03 0.00000000E+00 0.0000E+00 0.9000E+01
       22 -1    0    0    0    0 0.00000000E+00 0.00000000E+00 -.46067516E+02 0.46067516E+02 0.00000000E+00 0.0000E+00 0.9000E+01
       24  2    1    2    0    0 0.47249808E+02 0.21085314E+02 0.18232846E+02 0.99573058E+02 0.83097667E+02 0.0000E+00 0.0000E+00
  9900012  1    3    3    0    0 0.43864896E+01 0.22180545E+00 0.82105607E+01 0.50859648E+02 0.50000000E+02 0.0000E+00 0.9000E+01
      -13  1    3    3    0    0 0.42863318E+02 0.20863509E+02 0.10022285E+02 0.48713410E+02 0.00000000E+00 0.0000E+00 0.9000E+01
        1  1    1    2  501    0 -.47249808E+02 -.21085314E+02 0.11860349E+03 0.12939831E+03 0.00000000E+00 0.0000E+00 0.9000E+01
#aMCatNLO 1  0  0  1  5 0.17238115D+02 0.00000000D+00  -5  6  0 0.00000000D+00 0.00000000D+00 0.00000000D+00 0.00000000D+00 0.00000000D+00
  <mgrwgt>
 0.1417256010D-03    9    2    0
 0.917928442770027D+02 0.000000000000000D+00 0.000000000000000D+00 0.917928442770027D+02
 0.917928442770027D+02 0.000000000000000D+00 0.000000000000000D+00 -.917928442770027D+02
 0.573132924339130D+02 0.438648959011061D+01 0.221805451101460D+00 -.276680863276257D+02
 0.532860894010308D+02 0.428633184924680D+02 0.208635090315552D+02 -.238087639821582D+02
 0.729863067190616D+02 -.472498080825786D+02 -.210853144826567D+02 0.514768503097838D+02
 0.000000000000000D+00 0.000000000000000D+00 -.000000000000000D+00 0.000000000000000D+00
 0.992337346485313D+02 0.000000000000000D+00 0.000000000000000D+00 0.992337346485313D+02
 0.977255492486732D+02 0.000000000000000D+00 0.000000000000000D+00 -.977255492486732D+02
 0.571492257227688D+02 0.406352803815003D+00 0.588113150557028D+00 -.276680863276257D+02
 0.505653372195760D+02 0.392521548551614D+02 0.211958586756413D+02 -.238087639821582D+02
 0.763193868606593D+02 -.524415257993475D+02 -.206075002076296D+02 0.514768503097838D+02
 0.129253340942004D+02 0.127830181403711D+02 -.117647161856873D+01 0.150818539985806D+01
0.319788177857D-06 0.000000000000D+00 0.000000000000D+00 0.642749246801D-07 0.000000000000D+00  6 2 22 9900012 -13 1 21 0 0.28139055D-01 0.70873102D-02 0.55954022D+04 0.55954022D+04 0.55954022D+04 0.12363825D+01  1  2  2  1  6  1        2 0.552581818721D-04 0.100000000000D+01
0.254473534466D-08 0.000000000000D+00 -.614035402566D-09 0.642749246801D-07 0.000000000000D+00  6 2 22 9900012 -13 1 21 2 0.28139055D-01 0.70873102D-02 0.55954022D+04 0.55954022D+04 0.55954022D+04 0.12363825D+01  1  2  3  1  6  1        2 0.672175272175D-06 0.100000000000D+01
-.405558485303D-07 0.000000000000D+00 0.000000000000D+00 0.642749246801D-07 0.000000000000D+00  6 2 22 9900012 -13 1 21 2 0.28139055D-01 0.70873102D-02 0.55954022D+04 0.55954022D+04 0.55954022D+04 0.12363825D+01  1  2 15  1  6  1        2 -.107125633246D-04 0.100000000000D+01
0.325787916833D-06 0.000000000000D+00 0.000000000000D+00 0.642749246801D-07 0.000000000000D+00  6 2 22 9900012 -13 1 21 2 0.32386149D-01 0.70873102D-02 0.67073425D+04 0.67073425D+04 0.67073425D+04 0.12277399D+01  1  2 12  1  6  1        2 0.739822247723D-04 0.100000000000D+01
-.387227192402D-07 0.000000000000D+00 0.000000000000D+00 0.642749246801D-07 0.000000000000D+00  6 2 22 9900012 -13 1 21 2 0.28139055D-01 0.70873102D-02 0.55954022D+04 0.55954022D+04 0.55954022D+04 0.12363825D+01  1  2  4  1  6  1        2 -.102283541584D-04 0.100000000000D+01
-.117638567197D-05 0.000000000000D+00 -.294659117674D-06 0.642749246801D-07 0.000000000000D+00  6 2 22 9900012 -13 1 21 2 0.32253830D-01 0.70873102D-02 0.55954022D+04 0.55954022D+04 0.55954022D+04 0.12363825D+01  1  2  5  1  6  1        2 -.267842843663D-03 0.100000000000D+01
0.120805503742D-05 0.000000000000D+00 0.291936045155D-06 0.642749246801D-07 0.000000000000D+00  6 2 22 9900012 -13 1 21 2 0.28139055D-01 0.70873102D-02 0.55954022D+04 0.55954022D+04 0.55954022D+04 0.12363825D+01  1  2  6  1  6  1        2 0.319099872324D-03 0.100000000000D+01
0.704895251805D-08 0.000000000000D+00 0.000000000000D+00 0.642749246801D-07 0.000000000000D+00  6 21 22 9900012 -13 1 -2 2 0.32386149D-01 0.70873102D-02 0.67073425D+04 0.67073425D+04 0.67073425D+04 0.12277399D+01  1  2 12  3  6  1        2 0.799929756121D-05 0.100000000000D+01
-.231185516777D-07 0.000000000000D+00 -.622258402213D-08 0.642749246801D-07 0.000000000000D+00  6 21 22 9900012 -13 1 -2 2 0.32253830D-01 0.70873102D-02 0.55954022D+04 0.55954022D+04 0.55954022D+04 0.12363825D+01  1  2  5  3  6  1        2 -.265023896701D-04 0.100000000000D+01
  </mgrwgt>
  </event>
  <event>
  6     66 -.80203028E-06 0.26300462E+02 0.78161638E-02 0.12112115E+00
        2 -1    0    0  502    0 0.00000000E+00 0.00000000E+00 0.76692634E+01 0.76692634E+01 0.00000000E+00 0.0000E+00 0.9000E+01
       22 -1    0    0    0    0 0.00000000E+00 0.00000000E+00 -.10077027E+04 0.10077027E+04 0.00000000E+00 0.0000E+00 0.9000E+01
  9900012  1    1    2    0    0 0.19079666E+02 0.49831366E+02 -.33758648E+03 0.34541545E+03 0.50000000E+02 0.0000E+00 0.9000E+01
      -13  1    1    2    0    0 -.40990719E+02 -.27306383E+02 -.56017436E+03 0.56233548E+03 0.00000000E+00 0.0000E+00 0.9000E+01
        1  1    1    2  501    0 0.19322917E+02 -.20281770E+02 -.73705978E+02 0.78849835E+02 0.00000000E+00 0.0000E+00 0.9000E+01
       21  1    1    2  502  501 0.25881358E+01 -.22432129E+01 -.28566631E+02 0.28771216E+02 0.00000000E+00 0.0000E+00 0.9000E+01
#aMCatNLO 2  0  0  1  5 0.60622943D+01 0.00000000D+00  -5  6  0 0.00000000D+00 0.00000000D+00 0.00000000D+00 0.00000000D+00 0.00000000D+00
  <mgrwgt>
 -.5808887488D-04    3    2    0
 0.860545626076098D+02 0.000000000000000D+00 0.000000000000000D+00 0.860545626076098D+02
 0.860545626076098D+02 0.000000000000000D+00 0.000000000000000D+00 -.860545626076098D+02
 0.742010404480336D+02 0.201979875287751D+02 0.488620835964482D+02 0.145028442028408D+02
 0.613853136363936D+02 -.400658455731673D+02 -.281079972786489D+02 -.370516563425846D+02
 0.365227711307923D+02 0.198678580443921D+02 -.207540863177993D+02 0.225488121397438D+02
 0.000000000000000D+00 0.000000000000000D+00 -.000000000000000D+00 -.000000000000000D+00
 0.872351397001738D+02 0.000000000000000D+00 0.000000000000000D+00 0.872351397001738D+02
 0.885920240552706D+02 0.000000000000000D+00 0.000000000000000D+00 -.885920240552706D+02
 0.745488507877761D+02 0.190796656135479D+02 0.498313658640964D+02 0.145028442028408D+02
 0.616336173887101D+02 -.409907186296128D+02 -.273063827871220D+02 -.370516563425846D+02
 0.359607321929290D+02 0.193229172072196D+02 -.202817701776999D+02 0.225488121397438D+02
 0.368396338602936D+01 0.258813580884522D+01 -.224321289927449D+01 -.135688435509681D+01
-.651188777554D-06 0.000000000000D+00 0.000000000000D+00 0.307552350564D-09 0.000000000000D+00  6 2 22 9900012 -13 1 21 2 0.12146776D-02 0.15059077D+00 0.59148147D+04 0.59148147D+04 0.59148147D+04 0.12337152D+01  1  2 13  1  6  1        2 -.602702178052D-04 0.100000000000D+01
-.556702315062D-07 0.000000000000D+00 0.000000000000D+00 0.307552350564D-09 0.000000000000D+00  6 2 22 9900012 -13 1 21 2 0.11639190D-02 0.15059077D+00 0.56582692D+04 0.56582692D+04 0.56582692D+04 0.12358442D+01  1  2  8  1  6  1        2 -.544645125935D-05 0.100000000000D+01
0.845330657309D-07 0.000000000000D+00 0.000000000000D+00 0.307552350564D-09 0.528375218649D-10  6 2 22 9900012 -13 1 21 2 0.11798867D-02 0.15503119D+00 0.59148147D+04 0.59148147D+04 0.59148147D+04 0.12337152D+01  1  2  1  1  6  1        2 0.762779418657D-05 0.100000000000D+01
  </mgrwgt>
  </event>
  <event>
  6     66 0.80203028E-06 0.29632056E+02 0.78161638E-02 0.12592658E+00
        2 -1    0    0  501    0 0.00000000E+00 0.00000000E+00 0.98317435E+03 0.98317435E+03 0.00000000E+00 0.0000E+00 0.9000E+01
       22 -1    0    0    0    0 0.00000000E+00 0.00000000E+00 -.50098673E+01 0.50098673E+01 0.00000000E+00 0.0000E+00 0.9000E+01
       24  2    1    2    0    0 -.30873483E+02 -.86381398E+01 0.38720731E+03 0.39635809E+03 0.78373735E+02 0.0000E+00 0.0000E+00
  9900012  1    3    3    0    0 -.76670218E+01 0.23129067E+01 0.32719035E+03 0.33108558E+03 0.50000000E+02 0.0000E+00 0.9000E+01
      -13  1    3    3    0    0 -.23206461E+02 -.10951047E+02 0.60016961E+02 0.65272512E+02 0.00000000E+00 0.0000E+00 0.9000E+01
        1  1    1    2  501    0 0.30873483E+02 0.86381398E+01 0.59095717E+03 0.59182613E+03 0.00000000E+00 0.0000E+00 0.9000E+01
#aMCatNLO 1  0  0  1  5 0.16515990D+02 0.00000000D+00  -5  6  0 0.00000000D+00 0.00000000D+00 0.00000000D+00 0.00000000D+00 0.00000000D+00
  <mgrwgt>
 0.2736415073D-03    6    2    0
 0.701824268813217D+02 0.000000000000000D+00 0.000000000000000D+00 0.701824268813217D+02
 0.701824268813217D+02 0.000000000000000D+00 0.000000000000000D+00 -.701824268813217D+02
 0.507788099216378D+02 -.766702180545458D+01 0.231290666844494D+01 -.378876977864404D+01
 0.412838886267184D+02 -.232064613880705D+02 -.109510465163756D+02 -.323402874165253D+02
 0.483021552142872D+02 0.308734831935250D+02 0.863813984793065D+01 0.361290571951693D+02
 0.000000000000000D+00 -.000000000000000D+00 0.000000000000000D+00 -.000000000000000D+00
 0.755584543517250D+02 0.000000000000000D+00 0.000000000000000D+00 0.755584543517250D+02
 0.765069470500033D+02 0.000000000000000D+00 0.000000000000000D+00 -.765069470500033D+02
 0.507310041865514D+02 -.750202710417771D+01 -.173193494927375D+01 -.378876977864404D+01
 0.422139729714847D+02 -.230707434296377D+02 -.142781694014886D+02 -.323402874165253D+02
 0.478670630632038D+02 0.310297972561714D+02 0.480610390293637D+01 0.361290571951693D+02
 0.112533611804883D+02 -.457026722355955D+00 0.112040004478260D+02 -.948492698278297D+00
0.317698592913D-06 0.000000000000D+00 0.000000000000D+00 0.151490303446D-06 0.000000000000D+00  6 2 22 9900012 -13 1 21 0 0.15125759D+00 0.77074882D-03 0.29353098D+04 0.29353098D+04 0.29353098D+04 0.12687615D+01  1  2  2  1  6  1        2 0.162931576937D-03 0.100000000000D+01
0.489696146382D-08 0.000000000000D+00 -.610023124372D-09 0.151490303446D-06 0.000000000000D+00  6 2 22 9900012 -13 1 21 2 0.15125759D+00 0.77074882D-03 0.29353098D+04 0.29353098D+04 0.29353098D+04 0.12687615D+01  1  2  3  1  6  1        2 0.404274769851D-05 0.100000000000D+01
-.404641247760D-07 0.000000000000D+00 0.000000000000D+00 0.151490303446D-06 0.000000000000D+00  6 2 22 9900012 -13 1 21 2 0.15125759D+00 0.77074882D-03 0.29353098D+04 0.29353098D+04 0.29353098D+04 0.12687615D+01  1  2 15  1  6  1        2 -.334056635975D-04 0.100000000000D+01
0.230131305348D-06 0.000000000000D+00 0.000000000000D+00 0.151490303446D-06 0.000000000000D+00  6 2 22 9900012 -13 1 21 2 0.17751880D+00 0.77074882D-03 0.36200719D+04 0.36200719D+04 0.36200719D+04 0.12579508D+01  1  2 12  1  6  1        2 0.153984319814D-03 0.100000000000D+01
-.198861290106D-07 0.000000000000D+00 0.000000000000D+00 0.151490303446D-06 0.000000000000D+00  6 2 22 9900012 -13 1 21 2 0.15125759D+00 0.77074882D-03 0.29353098D+04 0.29353098D+04 0.29353098D+04 0.12687615D+01  1  2  4  1  6  1        2 -.164172421784D-04 0.100000000000D+01
0.553192339954D-08 0.000000000000D+00 0.000000000000D+00 0.151490303446D-06 0.000000000000D+00  6 21 22 9900012 -13 1 -2 2 0.17751880D+00 0.77074882D-03 0.36200719D+04 0.36200719D+04 0.36200719D+04 0.12579508D+01  1  2 12  3  6  1        2 0.250576865614D-05 0.100000000000D+01
  </mgrwgt>
  </event>
  <event>
  6     66 0.80203028E-06 0.48108400E+02 0.78161638E-02 0.12449480E+00
        4 -1    0    0  501    0 0.00000000E+00 0.00000000E+00 0.41386832E+03 0.41386832E+03 0.00000000E+00 0.0000E+00 0.9000E+01
       22 -1    0    0    0    0 0.00000000E+00 0.00000000E+00 -.25160125E+02 0.25160125E+02 0.00000000E+00 0.0000E+00 0.9000E+01
       24  2    1    2    0    0 -.34407804E+02 0.33623224E+02 0.69502427E+02 0.11621776E+03 0.79759396E+02 0.0000E+00 0.0000E+00
  9900012  1    3    3    0    0 -.14183505E+02 0.16301340E+02 0.71070983E+02 0.89543231E+02 0.50000000E+02 0.0000E+00 0.9000E+01
      -13  1    3    3    0    0 -.20224299E+02 0.17321884E+02 -.15685561E+01 0.26674525E+02 0.00000000E+00 0.0000E+00 0.9000E+01
        3  1    1    2  501    0 0.34407804E+02 -.33623224E+02 0.31920577E+03 0.32281069E+03 0.00000000E+00 0.0000E+00 0.9000E+01
#aMCatNLO 1  0  0  5  1 0.51814304D+02 0.00000000D+00  -5  6  0 0.00000000D+00 0.00000000D+00 0.00000000D+00 0.00000000D+00 0.00000000D+00
  <mgrwgt>
 0.4384978360D-04    3    2    0
 0.102044003183448D+03 0.000000000000000D+00 0.000000000000000D+00 0.102044003183448D+03
 0.102044003183448D+03 -.000000000000000D+00 -.000000000000000D+00 -.102044003183448D+03
 0.572603551478879D+02 -.141835053627879D+02 0.163013399497755D+02 -.176590702792608D+02
 0.603689863561246D+02 -.202242986507702D+02 0.173218844801884D+02 -.541788203618852D+02
 0.864586648628834D+02 0.344078040135581D+02 -.336232244299638D+02 0.718378906411460D+02
 0.000000000000000D+00 0.000000000000000D+00 0.000000000000000D+00 -.000000000000000D+00
 0.102044003183448D+03 0.000000000000000D+00 0.000000000000000D+00 0.102044003183448D+03
 0.102044003183448D+03 -.000000000000000D+00 -.000000000000000D+00 -.102044003183448D+03
 0.507948274024914D+02 -.495092438177778D+01 0.727928372468200D+01 0.161705506102477D+01
 0.392838113215284D+02 -.117096443525908D+02 0.900138450586767D+01 -.364016090037076D+02
 0.449050153526358D+02 0.603511701411553D+01 0.443668033067426D+02 0.340947661484901D+01
 0.691043522902404D+02 0.106254517202531D+02 -.606474715372922D+02 0.313750773278338D+02
0.313693060527D-05 0.000000000000D+00 0.000000000000D+00 0.189573086073D-05 0.000000000000D+00  6 4 22 9900012 -13 3 21 0 0.63672050D-01 0.38707884D-02 0.41735525D+04 0.41735525D+04 0.41735525D+04 0.12507789D+01  1  2  2  2  6  5        3 0.554691998057D-04 0.100000000000D+01
0.322078305581D-07 0.000000000000D+00 -.602331974852D-08 0.189573086073D-05 0.000000000000D+00  6 4 22 9900012 -13 3 21 2 0.63672050D-01 0.38707884D-02 0.41735525D+04 0.41735525D+04 0.41735525D+04 0.12507789D+01  1  2  3  2  6  5        3 0.890983272610D-06 0.100000000000D+01
-.452233884847D-06 0.000000000000D+00 0.000000000000D+00 0.189573086073D-05 0.000000000000D+00  6 4 22 9900012 -13 3 21 2 0.63672050D-01 0.38707884D-02 0.41735525D+04 0.41735525D+04 0.41735525D+04 0.12507789D+01  1  2 15  2  6  5        3 -.125103994813D-04 0.100000000000D+01
  </mgrwgt>
  </event>
  <event>
  6     66 0.80203028E-06 0.14173114E+03 0.78161638E-02 0.10278695E+00
        2 -1    0    0  501    0 0.00000000E+00 0.00000000E+00 0.25075239E+03 0.25075239E+03 0.00000000E+00 0.0000E+00 0.9000E+01
       22 -1    0    0    0    0 -.00000000E+00 -.00000000E+00 -.30151951E+03 0.30151951E+03 0.00000000E+00 0.0000E+00 0.9000E+01
       24  2    1    2    0    0 -.16891567E+02 0.14072097E+03 -.25555563E+03 0.30322160E+03 0.80913178E+02 0.0000E+00 0.0000E+00
  9900012  1    3    3    0    0 -.42791905E+01 0.47921234E+02 -.11543487E+03 0.13468469E+03 0.50000000E+02 0.0000E+00 0.9000E+01
      -13  1    3    3    0    0 -.12612377E+02 0.92799738E+02 -.14012075E+03 0.16853691E+03 0.00000000E+00 0.0000E+00 0.9000E+01
        1  1    1    2  501    0 0.16891567E+02 -.14072097E+03 0.20478851E+03 0.24905029E+03 0.00000000E+00 0.0000E+00 0.9000E+01
#aMCatNLO 1  0  0  5  5 0.17837162D+03 0.00000000D+00  -5  6  0 0.00000000D+00 0.00000000D+00 0.00000000D+00 0.00000000D+00 0.00000000D+00
  <mgrwgt>
 0.9743845883D-04    3    2    0
 0.274966791095452D+03 0.000000000000000D+00 0.000000000000000D+00 0.274966791095452D+03
 0.274966791095452D+03 -.000000000000000D+00 -.000000000000000D+00 -.274966791095452D+03
 0.124600999315915D+03 -.427919045531040D+01 0.479212343707458D+02 -.103492284040675D+03
 0.156318276341525D+03 -.126123767442892D+02 0.927997384947746D+02 -.125158060094214D+03
 0.269014306533464D+03 0.168915671995996D+02 -.140720972865520D+03 0.228650344134889D+03
 0.000000000000000D+00 0.000000000000000D+00 0.000000000000000D+00 0.000000000000000D+00
 0.274966791095452D+03 0.000000000000000D+00 0.000000000000000D+00 0.274966791095452D+03
 0.274966791095452D+03 -.000000000000000D+00 -.000000000000000D+00 -.274966791095452D+03
 0.679362937027345D+02 0.787435513747452D-01 0.116159759031358D+02 -.445017180043096D+02
 0.739823831315370D+02 -.739969789156195D+01 0.493737359975821D+02 -.545973596300791D+02
 0.238140938200524D+03 -.103279879677546D+03 -.189923926222303D+03 0.998662863489100D+02
 0.169873967156108D+03 0.110600834017733D+03 0.128934214321585D+03 -.767208714521168D+00
0.148264138089D-04 0.000000000000D+00 0.000000000000D+00 0.560978635496D-05 0.000000000000D+00  6 2 22 9900012 -13 1 21 0 0.38577290D-01 0.46387617D-01 0.23221566D+05 0.23221566D+05 0.23221566D+05 0.11731455D+01  1  2  2  2  6  5        1 0.121517929021D-03 0.100000000000D+01
0.402411550236D-07 0.000000000000D+00 -.284686664554D-07 0.560978635496D-05 0.000000000000D+00  6 2 22 9900012 -13 1 21 2 0.38577290D-01 0.46387617D-01 0.23221566D+05 0.23221566D+05 0.23221566D+05 0.11731455D+01  1  2  3  2  6  5        1 0.453919103470D-06 0.100000000000D+01
-.217495125071D-05 0.000000000000D+00 0.000000000000D+00 0.560978635496D-05 0.000000000000D+00  6 2 22 9900012 -13 1 21 2 0.38577290D-01 0.46387617D-01 0.23221566D+05 0.23221566D+05 0.23221566D+05 0.11731455D+01  1  2 15  2  6  5        1 -.245333892935D-04 0.100000000000D+01
  </mgrwgt>
  </event>
  <event>
  6     66 0.80203028E-06 0.61519707E+02 0.78161638E-02 0.11440274E+00
        2 -1    0    0  501    0 0.00000000E+00 0.00000000E+00 0.80908718E+03 0.80908718E+03 0.00000000E+00 0.0000E+00 0.9000E+01
       22 -1    0    0    0    0 0.00000000E+00 0.00000000E+00 -.16864885E+02 0.16864885E+02 0.00000000E+00 0.0000E+00 0.9000E+01
       24  2    1    2    0    0 0.25501808E+02 0.97706756E+02 0.37036882E+03 0.39218104E+03 0.80224364E+02 0.0000E+00 0.0000E+00
  9900012  1    3    3    0    0 0.11284512E+02 0.39826233E+02 0.14148772E+03 0.15566710E+03 0.50000000E+02 0.0000E+00 0.9000E+01
      -13  1    3    3    0    0 0.14217296E+02 0.57880524E+02 0.22888110E+03 0.23651394E+03 0.00000000E+00 0.0000E+00 0.9000E+01
        1  1    1    2  501    0 -.25501808E+02 -.97706756E+02 0.42185347E+03 0.43377102E+03 0.00000000E+00 0.0000E+00 0.9000E+01
#aMCatNLO 1  0  0  5  1 0.14474948D+01 0.00000000D+00  -5  6  0 0.00000000D+00 0.00000000D+00 0.00000000D+00 0.00000000D+00 0.00000000D+00
  <mgrwgt>
 0.2071189419D-03    5    2    0
 0.116812508664117D+03 0.000000000000000D+00 0.000000000000000D+00 0.116812508664117D+03
 0.116812508664117D+03 -.000000000000000D+00 -.000000000000000D+00 -.116812508664117D+03
 0.705567875178929D+02 0.112845115166797D+02 0.398262327827583D+02 -.276548593742322D+02
 0.600298208245864D+02 0.142172964023582D+02 0.578805236533697D+02 0.716190287920390D+01
 0.103038408985754D+03 -.255018079190378D+02 -.977067564361280D+02 0.204929564950283D+02
 0.000000000000000D+00 0.000000000000000D+00 0.000000000000000D+00 0.000000000000000D+00
 0.116812508664117D+03 0.000000000000000D+00 0.000000000000000D+00 0.116812508664117D+03
 0.116812508664117D+03 -.000000000000000D+00 -.000000000000000D+00 -.116812508664117D+03
 0.703384275048463D+02 0.112015485276390D+02 0.395083712182314D+02 -.275881912803266D+02
 0.597593749183877D+02 0.141467612196551D+02 0.576102775618603D+02 0.721858413235628D+01
 0.958611980782362D+00 -.273770489304619D+00 0.328790380614258D-01 -.918098915009056D+00
 0.102568602924217D+03 -.250745392579895D+02 -.971515278181531D+02 0.212877060629794D+02
0.963418136609D-06 0.000000000000D+00 0.000000000000D+00 0.115904634881D-06 0.000000000000D+00  6 2 22 9900012 -13 1 21 0 0.12447495D+00 0.25945977D-02 0.12711690D+05 0.12711690D+05 0.12711690D+05 0.11986771D+01  1  2  2  2  6  5        1 0.140466548015D-03 0.100000000000D+01
-.331131749854D-07 0.000000000000D+00 -.184988965920D-08 0.115904634881D-06 0.000000000000D+00  6 2 22 9900012 -13 1 21 2 0.12447495D+00 0.25945977D-02 0.12711690D+05 0.12711690D+05 0.12711690D+05 0.11986771D+01  1  2  3  2  6  5        1 -.693686611776D-05 0.100000000000D+01
-.123403697545D-06 0.000000000000D+00 0.000000000000D+00 0.115904634881D-06 0.000000000000D+00  6 2 22 9900012 -13 1 21 2 0.12447495D+00 0.25945977D-02 0.12711690D+05 0.12711690D+05 0.12711690D+05 0.11986771D+01  1  2 15  2  6  5        1 -.258517924869D-04 0.100000000000D+01
0.198240522916D-10 0.000000000000D+00 0.000000000000D+00 0.115904634881D-06 0.000000000000D+00  6 2 22 9900012 -13 1 21 2 0.12447495D+00 0.25945977D-02 0.12615222D+05 0.12615222D+05 0.12615222D+05 0.11990109D+01  1  2 12  2  6  5        1 0.415298592706D-08 0.100000000000D+01
0.474656627663D-06 0.000000000000D+00 0.000000000000D+00 0.115904634881D-06 0.705903823093D-08  6 2 22 9900012 -13 1 21 2 0.12447495D+00 0.25945977D-02 0.12615222D+05 0.12615222D+05 0.12615222D+05 0.11990109D+01  1  2 11  2  6  5        1 0.994368994734D-04 0.100000000000D+01
  </mgrwgt>
  </event>
  <event>
  6     66 0.80203028E-06 0.51999929E+02 0.78161638E-02 0.12081583E+00
        4 -1    0    0  501    0 0.00000000E+00 0.00000000E+00 0.22696030E+02 0.22696030E+02 0.00000000E+00 0.0000E+00 0.9000E+01
       22 -1    0    0    0    0 -.00000000E+00 -.00000000E+00 -.89135953E+03 0.89135953E+03 0.00000000E+00 0.0000E+00 0.9000E+01
       24  2    1    2    0    0 0.51247900E+02 -.88116599E+01 -.85513790E+03 0.86032536E+03 0.78707767E+02 0.0000E+00 0.0000E+00
  9900012  1    3    3    0    0 0.43114547E+02 -.28644732E+02 -.70522827E+03 0.70889089E+03 0.50000000E+02 0.0000E+00 0.9000E+01
      -13  1    3    3    0    0 0.81333531E+01 0.19833072E+02 -.14990963E+03 0.15143447E+03 0.00000000E+00 0.0000E+00 0.9000E+01
        3  1    1    2  501    0 -.51247900E+02 0.88116599E+01 -.13525606E+02 0.53730202E+02 0.00000000E+00 0.0000E+00 0.9000E+01
#aMCatNLO 1  0  0  5  1 0.27359269D+02 0.00000000D+00  -5  6  0 0.00000000D+00 0.00000000D+00 0.00000000D+00 0.00000000D+00 0.00000000D+00
  <mgrwgt>
 0.7213751299D-04    5    2    0
 0.142233340223236D+03 0.000000000000000D+00 0.000000000000000D+00 0.142233340223236D+03
 0.142233340223236D+03 -.000000000000000D+00 -.000000000000000D+00 -.142233340223236D+03
 0.124301394630572D+03 0.431145466740301D+02 -.286447320366900D+02 -.101348171659603D+03
 0.288205892656055D+02 0.813335309183618D+01 0.198330721706911D+02 -.192645836023624D+02
 0.131344696550295D+03 -.512478997658663D+02 0.881165986599894D+01 0.120612755261965D+03
 0.000000000000000D+00 0.000000000000000D+00 0.000000000000000D+00 0.000000000000000D+00
 0.142233340223236D+03 0.000000000000000D+00 0.000000000000000D+00 0.142233340223236D+03
 0.142233340223236D+03 -.000000000000000D+00 -.000000000000000D+00 -.142233340223236D+03
 0.113242367593195D+03 0.382609367261516D+02 -.278101932521090D+02 -.899251226867666D+02
 0.269276558579526D+02 0.699427777124922D+01 0.200289269146439D+02 -.165837515391057D+02
 0.127738902337089D+03 -.528168493640754D+02 -.325708395813763D+01 0.116262629411288D+03
 0.165577546582368D+02 0.756163486667448D+01 0.110383502956027D+02 -.975375518541568D+01
0.378301712772D-05 0.000000000000D+00 0.000000000000D+00 0.244532038020D-05 0.000000000000D+00  6 4 22 9900012 -13 3 21 0 0.34916970D-02 0.13713224D+00 0.52855716D+04 0.52855716D+04 0.52855716D+04 0.12391388D+01  1  2  2  2  6  5        3 0.413728671346D-04 0.100000000000D+01
0.111735850481D-06 0.000000000000D+00 -.726389093086D-08 0.244532038020D-05 0.000000000000D+00  6 4 22 9900012 -13 3 21 2 0.34916970D-02 0.13713224D+00 0.52855716D+04 0.52855716D+04 0.52855716D+04 0.12391388D+01  1  2  3  2  6  5        3 0.187633227387D-05 0.100000000000D+01
-.537790236406D-06 0.000000000000D+00 0.000000000000D+00 0.244532038020D-05 0.000000000000D+00  6 4 22 9900012 -13 3 21 2 0.34916970D-02 0.13713224D+00 0.52855716D+04 0.52855716D+04 0.52855716D+04 0.12391388D+01  1  2 15  2  6  5        3 -.903088107173D-05 0.100000000000D+01
0.230840992946D-05 0.000000000000D+00 0.000000000000D+00 0.244532038020D-05 0.000000000000D+00  6 4 22 9900012 -13 3 21 2 0.34916970D-02 0.13713224D+00 0.61105706D+04 0.61105706D+04 0.61105706D+04 0.12321593D+01  1  2 12  2  6  5        3 0.390484432883D-04 0.100000000000D+01
-.672469145631D-07 0.000000000000D+00 0.000000000000D+00 0.244532038020D-05 0.000000000000D+00  6 4 22 9900012 -13 3 21 2 0.34916970D-02 0.13713224D+00 0.52855716D+04 0.52855716D+04 0.52855716D+04 0.12391388D+01  1  2  4  2  6  5        3 -.112924863032D-05 0.100000000000D+01
  </mgrwgt>
  </event>
  <event>
  7     66 -.80203028E-06 0.14411996E+02 0.78161638E-02 0.12905678E+00
        2 -1    0    0  501    0 0.00000000E+00 0.00000000E+00 0.14003767E+04 0.14003767E+04 0.00000000E+00 0.0000E+00 0.9000E+01
       22 -1    0    0    0    0 0.00000000E+00 0.00000000E+00 -.36765987E+01 0.36765987E+01 0.00000000E+00 0.0000E+00 0.9000E+01
       24  2    1    2    0    0 0.17320655E+02 0.11150960E+02 0.47895458E+03 0.48583913E+03 0.78853189E+02 0.0000E+00 0.0000E+00
  9900012  1    3    3    0    0 -.11143002E+02 0.13121357E+02 0.30021524E+03 0.30483688E+03 0.50000000E+02 0.0000E+00 0.9000E+01
      -13  1    3    3    0    0 0.28463657E+02 -.19703973E+01 0.17873934E+03 0.18100225E+03 0.00000000E+00 0.0000E+00 0.9000E+01
        1  1    1    2  502    0 -.19021865E+02 -.18974906E+01 0.70753516E+03 0.70779335E+03 0.00000000E+00 0.0000E+00 0.9000E+01
       21  1    1    2  501  502 0.17012091E+01 -.92534691E+01 0.21021038E+03 0.21042083E+03 0.00000000E+00 0.0000E+00 0.9000E+01
#aMCatNLO 2  0  0  5  1 0.90252236D+01 0.00000000D+00  -5  6  0 0.00000000D+00 0.00000000D+00 0.00000000D+00 0.00000000D+00 0.00000000D+00
  <mgrwgt>
 -.1214203548D-03    1    2    0
 0.717539068400233D+02 0.000000000000000D+00 0.000000000000000D+00 0.717539068400233D+02
 0.717539068400233D+02 -.000000000000000D+00 -.000000000000000D+00 -.717539068400233D+02
 0.614306367192759D+02 -.104436164007574D+02 0.135716181803206D+02 -.313123806852350D+02
 0.319869874467163D+02 0.288263597080119D+02 -.173689114415793D+01 -.137546923285852D+02
 0.500901895140544D+02 -.183827433072545D+02 -.118347270361626D+02 0.450670730138202D+02
 0.000000000000000D+00 0.000000000000000D+00 0.000000000000000D+00 0.000000000000000D+00
 0.717539068400233D+02 0.000000000000000D+00 0.000000000000000D+00 0.717539068400233D+02
 0.717539068400233D+02 -.000000000000000D+00 -.000000000000000D+00 -.717539068400233D+02
 0.606000367668449D+02 -.111430019197810D+02 0.131213569449682D+02 -.295977694477378D+02
 0.312982931558307D+02 0.284636573844375D+02 -.197039726036373D+01 -.128654925053815D+02
 0.387795344996094D+02 -.190218645609809D+02 -.189749056499153D+01 0.337404874621850D+02
 0.128299492577618D+02 0.170120909632434D+01 -.925346911961298D+01 0.872277449093428D+01
-.162052473724D-06 0.000000000000D+00 0.000000000000D+00 0.220181885937D-06 0.000000000000D+00  6 2 22 9900012 -13 1 21 2 0.21544257D+00 0.56563056D-03 0.30215357D+04 0.30215357D+04 0.30215357D+04 0.12672508D+01  1  2 13  2  6  5        1 -.121420354845D-03 0.100000000000D+01
  </mgrwgt>
  </event>
  <event>
  6     66 0.80203028E-06 0.45164084E+02 0.78161638E-02 0.11602849E+00
        2 -1    0    0  501    0 0.00000000E+00 0.00000000E+00 0.62124310E+02 0.62124310E+02 0.00000000E+00 0.0000E+00 0.9000E+01
       22 -1    0    0    0    0 0.00000000E+00 0.00000000E+00 -.56313143E+03 0.56313143E+03 0.00000000E+00 0.0000E+00 0.9000E+01
       24  2    1    2    0    0 0.49810938E+02 -.60432857E+02 -.52973452E+03 0.54183798E+03 0.82682946E+02 0.0000E+00 0.0000E+00
  9900012  1    3    3    0    0 0.52495558E+01 -.23507308E+02 -.28505814E+03 0.29041057E+03 0.50000000E+02 0.0000E+00 0.9000E+01
      -13  1    3    3    0    0 0.44561382E+02 -.36925549E+02 -.24467638E+03 0.25142741E+03 0.00000000E+00 0.0000E+00 0.9000E+01
        1  1    1    2  501    0 -.49810938E+02 0.60432857E+02 0.28727401E+02 0.83417763E+02 0.00000000E+00 0.0000E+00 0.9000E+01
#aMCatNLO 1  0  0  1  5 0.11984361D+02 0.00000000D+00  -5  6  0 0.00000000D+00 0.00000000D+00 0.00000000D+00 0.00000000D+00 0.00000000D+00
  <mgrwgt>
 0.6867845594D-04    9    2    0
 0.187040506960781D+03 0.000000000000000D+00 0.000000000000000D+00 0.187040506960781D+03
 0.187040506960781D+03 0.000000000000000D+00 0.000000000000000D+00 -.187040506960781D+03
 0.103626518748919D+03 0.524955578339096D+01 -.235073078344577D+02 -.875117365298692D+02
 0.925516739360120D+02 0.445613818117689D+02 -.369255487042630D+02 -.722260302956817D+02
 0.177902821236631D+03 -.498109375951599D+02 0.604328565387206D+02 0.159737766825551D+03
 0.000000000000000D+00 0.000000000000000D+00 0.000000000000000D+00 0.000000000000000D+00
 0.238195067452547D+03 0.000000000000000D+00 0.000000000000000D+00 0.238195067452547D+03
 0.187826190544487D+03 0.000000000000000D+00 0.000000000000000D+00 -.187826190544487D+03
 0.103985756653146D+03 0.259077507071141D+01 -.254562652560642D+02 -.875117365298692D+02
 0.921501709592354D+02 0.421960028771526D+02 -.386594347699875D+02 -.722260302956817D+02
 0.178133768435509D+03 -.543705100760994D+02 0.570905678784708D+02 0.159737766825551D+03
 0.517515619491431D+02 0.958373212823536D+01 0.702513214758085D+01 0.503688769080595D+02
0.559795715037D-06 0.000000000000D+00 0.000000000000D+00 0.116234661968D-05 0.000000000000D+00  6 2 22 9900012 -13 1 21 0 0.95575861D-02 0.86635605D-01 0.91859407D+04 0.91859407D+04 0.91859407D+04 0.12131713D+01  1  2  2  1  6  1        2 0.730345639174D-05 0.100000000000D+01
0.895312295778D-08 0.000000000000D+00 -.107488147167D-08 0.116234661968D-05 0.000000000000D+00  6 2 22 9900012 -13 1 21 2 0.95575861D-02 0.86635605D-01 0.91859407D+04 0.91859407D+04 0.91859407D+04 0.12131713D+01  1  2  3  1  6  1        2 0.171916555669D-06 0.100000000000D+01
-.790627510432D-07 0.000000000000D+00 0.000000000000D+00 0.116234661968D-05 0.000000000000D+00  6 2 22 9900012 -13 1 21 2 0.95575861D-02 0.86635605D-01 0.91859407D+04 0.91859407D+04 0.91859407D+04 0.12131713D+01  1  2 15  1  6  1        2 -.151815136519D-05 0.100000000000D+01
0.934450311746D-05 0.000000000000D+00 0.000000000000D+00 0.116234661968D-05 0.000000000000D+00  6 2 22 9900012 -13 1 21 2 0.12222662D-01 0.86635605D-01 0.10415859D+05 0.10415859D+05 0.10415859D+05 0.12075003D+01  1  2 12  1  6  1        2 0.132911323171D-03 0.100000000000D+01
-.590861180544D-05 0.000000000000D+00 0.000000000000D+00 0.116234661968D-05 0.000000000000D+00  6 2 22 9900012 -13 1 21 2 0.95575861D-02 0.86635605D-01 0.91859407D+04 0.91859407D+04 0.91859407D+04 0.12131713D+01  1  2  4  1  6  1        2 -.113456298452D-03 0.100000000000D+01
-.958394572364D-05 0.000000000000D+00 -.315549853683D-06 0.116234661968D-05 0.000000000000D+00  6 2 22 9900012 -13 1 21 2 0.12204564D-01 0.86635605D-01 0.91859407D+04 0.91859407D+04 0.91859407D+04 0.12131713D+01  1  2  5  1  6  1        2 -.136633165558D-03 0.100000000000D+01
0.938832971118D-05 0.000000000000D+00 0.306349237624D-06 0.116234661968D-05 0.000000000000D+00  6 2 22 9900012 -13 1 21 2 0.95575861D-02 0.86635605D-01 0.91859407D+04 0.91859407D+04 0.91859407D+04 0.12131713D+01  1  2  6  1  6  1        2 0.180273332003D-03 0.100000000000D+01
0.312462135000D-06 0.000000000000D+00 0.000000000000D+00 0.116234661968D-05 0.000000000000D+00  6 21 22 9900012 -13 1 -2 2 0.12222662D-01 0.86635605D-01 0.10415859D+05 0.10415859D+05 0.10415859D+05 0.12075003D+01  1  2 12  3  6  1        2 0.413378876806D-04 0.100000000000D+01
-.313941406220D-06 0.000000000000D+00 -.105043067841D-07 0.116234661968D-05 0.000000000000D+00  6 21 22 9900012 -13 1 -2 2 0.12204564D-01 0.86635605D-01 0.91859407D+04 0.91859407D+04 0.91859407D+04 0.12131713D+01  1  2  5  3  6  1        2 -.417118444898D-04 0.100000000000D+01
  </mgrwgt>
  </event>
  <event>
  6     66 0.80203028E-06 0.61150481E+02 0.78161638E-02 0.97112512E-01
        2 -1    0    0  501    0 0.00000000E+00 0.00000000E+00 0.47231228E+03 0.47231228E+03 0.00000000E+00 0.0000E+00 0.9000E+01
       22 -1    0    0    0    0 0.00000000E+00 0.00000000E+00 -.32544945E+03 0.32544945E+03 0.00000000E+00 0.0000E+00 0.9000E+01
       24  2    1    2    0    0 0.56494521E+02 0.23404068E+02 -.31556681E+03 0.33130643E+03 0.80263081E+02 0.0000E+00 0.0000E+00
  9900012  1    3    3    0    0 0.46035072E+02 -.56123809E+01 -.18567557E+03 0.19780330E+03 0.50000000E+02 0.0000E+00 0.9000E+01
      -13  1    3    3    0    0 0.10459449E+02 0.29016449E+02 -.12989123E+03 0.13350313E+03 0.00000000E+00 0.0000E+00 0.9000E+01
        1  1    1    2  501    0 -.56494521E+02 -.23404068E+02 0.46242963E+03 0.46645530E+03 0.00000000E+00 0.0000E+00 0.9000E+01
#aMCatNLO 1  0  0  1  5 0.14440897D+02 0.00000000D+00  -5  6  0 0.00000000D+00 0.00000000D+00 0.00000000D+00 0.00000000D+00 0.00000000D+00
  <mgrwgt>
 0.7836812613D-03    3    2    0
 0.392063480474344D+03 0.000000000000000D+00 0.000000000000000D+00 0.392063480474344D+03
 0.392063480474344D+03 0.000000000000000D+00 0.000000000000000D+00 -.392063480474344D+03
 0.236018847491411D+03 0.460350721114322D+02 -.561238093500076D+01 -.225951697685832D+03
 0.160152489569680D+03 0.104594489345930D+02 0.290164490037022D+02 -.157154273026751D+03
 0.387955623887597D+03 -.564945210460252D+02 -.234040680687015D+02 0.383105970712583D+03
 0.000000000000000D+00 -.000000000000000D+00 -.000000000000000D+00 -.000000000000000D+00
 0.524854858013789D+03 0.000000000000000D+00 0.000000000000000D+00 0.524854858013789D+03
 0.800388133377715D+03 0.000000000000000D+00 0.000000000000000D+00 -.800388133377715D+03
 0.262552314631270D+03 0.690710715323628D+02 0.102998715081788D+03 -.225951697685832D+03
 0.191184382003534D+03 0.266926300428910D+02 0.105553331983883D+03 -.157154273026751D+03
 0.412219775572678D+03 -.195231888892847D+02 0.150909919068138D+03 0.383105970712583D+03
 0.459286519184023D+03 -.762405126859692D+02 -.359461966133809D+03 -.275533275363926D+03
0.275353450598D-03 0.000000000000D+00 0.000000000000D+00 0.293504302967D-03 0.000000000000D+00  6 2 22 9900012 -13 1 21 0 0.72663427D-01 0.50069147D-01 0.64152691D+04 0.64152691D+04 0.64152691D+04 0.12298454D+01  1  2  2  1  6  1        2 0.948016015706D-03 0.100000000000D+01
0.929342592071D-05 0.000000000000D+00 -.528714876263D-06 0.293504302967D-03 0.000000000000D+00  6 2 22 9900012 -13 1 21 2 0.72663427D-01 0.50069147D-01 0.64152691D+04 0.64152691D+04 0.64152691D+04 0.12298454D+01  1  2  3  1  6  1        2 0.483951683120D-04 0.100000000000D+01
-.408509743244D-04 0.000000000000D+00 0.000000000000D+00 0.293504302967D-03 0.000000000000D+00  6 2 22 9900012 -13 1 21 2 0.72663427D-01 0.50069147D-01 0.64152691D+04 0.64152691D+04 0.64152691D+04 0.12298454D+01  1  2 15  1  6  1        2 -.212729922744D-03 0.100000000000D+01
  </mgrwgt>
  </event>
  <event>
  6     66 0.80203028E-06 0.37587343E+02 0.78161638E-02 0.12301968E+00
        2 -1    0    0  501    0 0.00000000E+00 0.00000000E+00 0.18364381E+04 0.18364381E+04 0.00000000E+00 0.0000E+00 0.9000E+01
       22 -1    0    0    0    0 0.00000000E+00 0.00000000E+00 -.62184242E+02 0.62184242E+02 0.00000000E+00 0.0000E+00 0.9000E+01
       24  2    1    2    0    0 0.38084478E+02 -.23240095E+02 -.25378784E+02 0.98436748E+02 0.83995126E+02 0.0000E+00 0.0000E+00
  9900012  1    3    3    0    0 0.51472713E+02 -.56270471E+01 -.25348628E+02 0.76312887E+02 0.50000000E+02 0.0000E+00 0.9000E+01
      -13  1    3    3    0    0 -.13388235E+02 -.17613048E+02 -.30156026E-01 0.22123861E+02 0.00000000E+00 0.0000E+00 0.9000E+01
        1  1    1    2  501    0 -.38084478E+02 0.23240095E+02 0.17996326E+04 0.18001856E+04 0.00000000E+00 0.0000E+00 0.9000E+01
#aMCatNLO 1  0  0  1  5 0.46495540D+00 0.00000000D+00  -5  6  0 0.00000000D+00 0.00000000D+00 0.00000000D+00 0.00000000D+00 0.00000000D+00
  <mgrwgt>
 0.8733946670D-03    9    2    0
 0.337931222926516D+03 0.000000000000000D+00 0.000000000000000D+00 0.337931222926516D+03
 0.337931222926516D+03 0.000000000000000D+00 0.000000000000000D+00 -.337931222926516D+03
 0.280921442107687D+03 0.514727126610256D+02 -.562704709920443D+01 -.271543279843419D+03
 0.622291721545011D+02 -.133882349736166D+02 -.176130482334077D+02 -.581636103010587D+02
 0.332711831590844D+03 -.380844776874090D+02 0.232400953326122D+02 0.329706890144477D+03
 0.000000000000000D+00 0.000000000000000D+00 -.000000000000000D+00 0.000000000000000D+00
 0.405418847883935D+03 0.000000000000000D+00 0.000000000000000D+00 0.405418847883935D+03
 0.337932103707266D+03 0.000000000000000D+00 0.000000000000000D+00 -.337932103707266D+03
 0.280885918621947D+03 0.512799030500339D+02 -.561408898688180D+01 -.271543279843419D+03
 0.622375639462440D+02 -.134309513647615D+02 -.176101774024796D+02 -.581636103010587D+02
 0.332739123214148D+03 -.383128572863579D+02 0.232554439891452D+02 0.329706890144477D+03
 0.674883458088632D+02 0.463905601085525D+00 -.311775997837772D-01 0.674867441766696D+02
0.170549708301D-06 0.000000000000D+00 0.000000000000D+00 0.140011374596D-04 0.000000000000D+00  6 2 22 9900012 -13 1 21 0 0.28252894D+00 0.95668065D-02 0.48107454D+04 0.48107454D+04 0.48107454D+04 0.12437375D+01  1  2  2  1  6  1        2 0.110848101778D-05 0.100000000000D+01
0.972360961916D-08 0.000000000000D+00 -.327477893323D-09 0.140011374596D-04 0.000000000000D+00  6 2 22 9900012 -13 1 21 2 0.28252894D+00 0.95668065D-02 0.48107454D+04 0.48107454D+04 0.48107454D+04 0.12437375D+01  1  2  3  1  6  1        2 0.977602317073D-07 0.100000000000D+01
-.250987581283D-07 0.000000000000D+00 0.000000000000D+00 0.140011374596D-04 0.000000000000D+00  6 2 22 9900012 -13 1 21 2 0.28252894D+00 0.95668065D-02 0.48107454D+04 0.48107454D+04 0.48107454D+04 0.12437375D+01  1  2 15  1  6  1        2 -.252340489416D-06 0.100000000000D+01
-.280595984517D-02 0.000000000000D+00 0.000000000000D+00 0.140011374596D-04 0.000000000000D+00  6 2 22 9900012 -13 1 21 2 0.28252894D+00 0.95668065D-02 0.48107454D+04 0.48107454D+04 0.48107454D+04 0.12437375D+01  1  2  4  1  6  1        2 -.282108491979D-01 0.100000000000D+01
-.314532693590D-02 0.000000000000D+00 -.895527856487D-07 0.140011374596D-04 0.000000000000D+00  6 2 22 9900012 -13 1 21 2 0.33895254D+00 0.95668065D-02 0.48107454D+04 0.48107454D+04 0.48107454D+04 0.12437375D+01  1  2  5  1  6  1        2 -.205129861057D-01 0.100000000000D+01
0.309391684938D-02 0.000000000000D+00 0.880885557360D-07 0.140011374596D-04 0.000000000000D+00  6 2 22 9900012 -13 1 21 2 0.28252894D+00 0.95668065D-02 0.48107454D+04 0.48107454D+04 0.48107454D+04 0.12437375D+01  1  2  6  1  6  1        2 0.311059410985D-01 0.100000000000D+01
0.283705224252D-02 0.000000000000D+00 0.000000000000D+00 0.140011374596D-04 0.489719201370D-03  6 2 22 9900012 -13 1 21 2 0.33895227D+00 0.95668315D-02 0.48491672D+04 0.48491672D+04 0.48491672D+04 0.12433466D+01  1  2 11  1  6  1        2 0.184923522518D-01 0.100000000000D+01
-.837015785214D-04 0.000000000000D+00 -.238315067292D-08 0.140011374596D-04 0.000000000000D+00  6 21 22 9900012 -13 1 -2 2 0.33895254D+00 0.95668065D-02 0.48107454D+04 0.48107454D+04 0.48107454D+04 0.12437375D+01  1  2  5  3  6  1        2 -.128050040240D-03 0.100000000000D+01
0.824696703409D-04 0.000000000000D+00 0.000000000000D+00 0.140011374596D-04 0.142334900568D-04  6 21 22 9900012 -13 1 -2 2 0.33895227D+00 0.95668315D-02 0.48491672D+04 0.48491672D+04 0.48491672D+04 0.12433466D+01  1  2 11  3  6  1        2 0.126032759804D-03 0.100000000000D+01
  </mgrwgt>
  </event>
  <event>
  6     66 0.80203028E-06 0.41658045E+02 0.78161638E-02 0.12471923E+00
        2 -1    0    0  501    0 0.00000000E+00 0.00000000E+00 0.92823835E+02 0.92823835E+02 0.00000000E+00 0.0000E+00 0.9000E+01
       22 -1    0    0    0    0 0.00000000E+00 0.00000000E+00 -.52062740E+02 0.52062740E+02 0.00000000E+00 0.0000E+00 0.9000E+01
       24  2    1    2    0    0 0.48426127E+01 -.44358941E+02 0.14909457E+02 0.93316491E+02 0.80588516E+02 0.0000E+00 0.0000E+00
  9900012  1    3    3    0    0 -.16679891E+02 -.40559268E+02 0.22453631E+02 0.70195716E+02 0.50000000E+02 0.0000E+00 0.9000E+01
      -13  1    3    3    0    0 0.21522503E+02 -.37996722E+01 -.75441739E+01 0.23120774E+02 0.00000000E+00 0.0000E+00 0.9000E+01
        1  1    1    2  501    0 -.48426127E+01 0.44358941E+02 0.25851638E+02 0.51570085E+02 0.00000000E+00 0.0000E+00 0.9000E+01
#aMCatNLO 1  0  0  5  1 0.16374610D+02 0.00000000D+00  -5  6  0 0.00000000D+00 0.00000000D+00 0.00000000D+00 0.00000000D+00 0.00000000D+00
  <mgrwgt>
 0.3011189094D-03    5    2    0
 0.695173592961880D+02 0.000000000000000D+00 0.000000000000000D+00 0.695173592961880D+02
 0.695173592961880D+02 -.000000000000000D+00 -.000000000000000D+00 -.695173592961880D+02
 0.665674188478154D+02 -.166798905175667D+02 -.405592684725652D+02 0.281926326419876D+01
 0.263056499073071D+02 0.215225032061843D+02 -.379967217240987D+01 -.146400670820801D+02
 0.461616498372536D+02 -.484261268861761D+01 0.443589406449750D+02 0.118208038178814D+02
 0.000000000000000D+00 0.000000000000000D+00 0.000000000000000D+00 -.000000000000000D+00
 0.695173592961880D+02 0.000000000000000D+00 0.000000000000000D+00 0.695173592961880D+02
 0.695173592961880D+02 -.000000000000000D+00 -.000000000000000D+00 -.695173592961880D+02
 0.630521240013019D+02 -.174028730529688D+02 -.339366576140425D+02 0.458406157954435D+01
 0.254248697280977D+02 0.212339644455808D+02 -.115662087378554D+01 -.139357447870171D+02
 0.341310999238910D+02 -.144366110924595D+02 0.255251018170836D+02 0.174638317504268D+02
 0.164266249390855D+02 0.106055196998476D+02 0.956817667074441D+01 -.811214854295414D+01
0.918236666130D-06 0.000000000000D+00 0.000000000000D+00 0.110630234707D-06 0.000000000000D+00  6 2 22 9900012 -13 1 21 0 0.14280590D-01 0.80096524D-02 0.44212868D+04 0.44212868D+04 0.44212868D+04 0.12479072D+01  1  2  2  2  6  5        1 0.281585673609D-03 0.100000000000D+01
-.177425508171D-07 0.000000000000D+00 -.176313528760D-08 0.110630234707D-06 0.000000000000D+00  6 2 22 9900012 -13 1 21 2 0.14280590D-01 0.80096524D-02 0.44212868D+04 0.44212868D+04 0.44212868D+04 0.12479072D+01  1  2  3  2  6  5        1 -.847298742141D-05 0.100000000000D+01
-.114102205932D-06 0.000000000000D+00 0.000000000000D+00 0.110630234707D-06 0.000000000000D+00  6 2 22 9900012 -13 1 21 2 0.14280590D-01 0.80096524D-02 0.44212868D+04 0.44212868D+04 0.44212868D+04 0.12479072D+01  1  2 15  2  6  5        1 -.544897160270D-04 0.100000000000D+01
0.301271482823D-06 0.000000000000D+00 0.000000000000D+00 0.110630234707D-06 0.000000000000D+00  6 2 22 9900012 -13 1 21 2 0.14280590D-01 0.80096524D-02 0.40806134D+04 0.40806134D+04 0.40806134D+04 0.12519058D+01  1  2 12  2  6  5        1 0.143587163336D-03 0.100000000000D+01
-.127925853632D-06 0.000000000000D+00 0.000000000000D+00 0.110630234707D-06 0.000000000000D+00  6 2 22 9900012 -13 1 21 2 0.14280590D-01 0.80096524D-02 0.44212868D+04 0.44212868D+04 0.44212868D+04 0.12479072D+01  1  2  4  2  6  5        1 -.610912241351D-04 0.100000000000D+01
  </mgrwgt>
  </event>
  <event>
  7     66 -.80203028E-06 0.20013947E+02 0.78161638E-02 0.12761626E+00
        2 -1    0    0  501    0 0.00000000E+00 0.00000000E+00 0.10015054E+03 0.10015054E+03 0.00000000E+00 0.0000E+00 0.9000E+01
       22 -1    0    0    0    0 -.00000000E+00 -.00000000E+00 -.10201557E+03 0.10201557E+03 0.00000000E+00 0.0000E+00 0.9000E+01
       24  2    1    2    0    0 -.11184725E+02 0.19758593E+02 -.81456666E+02 0.11133740E+03 0.72424637E+02 0.0000E+00 0.0000E+00
  9900012  1    3    3    0    0 0.66736514E+01 0.25491150E+01 -.47889459E+02 0.69601982E+02 0.50000000E+02 0.0000E+00 0.9000E+01
      -13  1    3    3    0    0 -.17858376E+02 0.17209478E+02 -.33567207E+02 0.41735418E+02 0.00000000E+00 0.0000E+00 0.9000E+01
        1  1    1    2  502    0 0.20337315E+02 -.14880170E+02 0.75644401E+02 0.79731432E+02 0.00000000E+00 0.0000E+00 0.9000E+01
       21  1    1    2  501  502 -.91525901E+01 -.48784225E+01 0.39472278E+01 0.11097275E+02 0.00000000E+00 0.0000E+00 0.9000E+01
#aMCatNLO 2  0  0  5  1 0.12226366D+02 0.00000000D+00  -5  6  0 0.00000000D+00 0.00000000D+00 0.00000000D+00 0.00000000D+00 0.00000000D+00
  <mgrwgt>
 -.1004514017D-03    2    2    0
 0.101078752137476D+03 0.000000000000000D+00 0.000000000000000D+00 0.101078752137476D+03
 0.101078752137476D+03 -.000000000000000D+00 -.000000000000000D+00 -.101078752137476D+03
 0.710420625172904D+02 0.629534365060290D+01 0.321742184626688D+01 -.499699058603734D+02
 0.430100593997547D+02 -.180862091174194D+02 0.176119608688055D+02 -.348220200977351D+02
 0.881053823579063D+02 0.117908654668165D+02 -.208293827150724D+02 0.847919259581085D+02
 0.000000000000000D+00 0.000000000000000D+00 0.000000000000000D+00 0.000000000000000D+00
 0.101078752137476D+03 0.000000000000000D+00 0.000000000000000D+00 0.101078752137476D+03
 0.101078752137476D+03 -.000000000000000D+00 -.000000000000000D+00 -.101078752137476D+03
 0.691631319482425D+02 0.667365138830251D+01 0.254911495439408D+01 -.472493725988684D+02
 0.414275141153971D+02 -.178583759937243D+02 0.172094778329358D+02 -.331835984390766D+02
 0.804326948344194D+02 0.203373147384558D+02 -.148801702594463D+02 0.763831955380614D+02
 0.111341633768924D+02 -.915259013303401D+01 -.487842252788353D+01 0.404977549988366D+01
-.616116004555D-06 0.000000000000D+00 0.000000000000D+00 0.586964274296D-07 0.000000000000D+00  6 2 22 9900012 -13 1 21 2 0.15407775D-01 0.15694703D-01 0.30735937D+04 0.30735937D+04 0.30735937D+04 0.12663622D+01  1  2 13  2  6  5        1 -.103263793236D-03 0.100000000000D+01
0.167799321610D-07 0.000000000000D+00 0.000000000000D+00 0.586964274296D-07 0.134158869653D-09  6 2 22 9900012 -13 1 21 2 0.15407775D-01 0.15694703D-01 0.30735937D+04 0.30735937D+04 0.30735937D+04 0.12663622D+01  1  2  1  2  6  5        1 0.281239155026D-05 0.100000000000D+01
  </mgrwgt>
  </event>
  <event>
  5     66 0.80203028E-06 0.32687191E+02 0.78161638E-02 0.12053179E+00
        4 -1    0    0  501    0 0.00000000E+00 0.00000000E+00 0.11442716E+03 0.11442716E+03 0.00000000E+00 0.0000E+00 0.9000E+01
       22 -1    0    0    0    0 -.00000000E+00 -.00000000E+00 -.23793782E+03 0.23793782E+03 0.00000000E+00 0.0000E+00 0.9000E+01
  9900012  1    1    2    0    0 -.83917125E+01 0.11779403E+02 0.12171102E+02 0.53453820E+02 0.50000000E+02 0.0000E+00 0.9000E+01
      -13  1    1    2    0    0 0.48878338E+02 -.29155637E+02 -.20722041E+03 0.21489403E+03 0.00000000E+00 0.0000E+00 0.9000E+01
        3  1    1    2  501    0 -.40486625E+02 0.17376234E+02 0.71538653E+02 0.84017137E+02 0.00000000E+00 0.0000E+00 0.9000E+01
#aMCatNLO 1  0  0  5  1 0.10895067D+02 0.00000000D+00  -5  6  0 0.00000000D+00 0.00000000D+00 0.00000000D+00 0.00000000D+00 0.00000000D+00
  <mgrwgt>
 0.2229074623D-03    5    2    0
 0.165004696243660D+03 0.000000000000000D+00 0.000000000000000D+00 0.165004696243660D+03
 0.165004696243660D+03 -.000000000000000D+00 -.000000000000000D+00 -.165004696243660D+03
 0.616301103960231D+02 -.839171254590240D+01 0.117794028294412D+02 0.330014444677000D+02
 0.151896284813592D+03 0.488783375198839D+02 -.291556370400135D+02 -.140830885427363D+03
 0.116482997277705D+03 -.404866249739815D+02 0.173762342105723D+02 0.107829440959663D+03
 0.000000000000000D+00 0.000000000000000D+00 0.000000000000000D+00 0.000000000000000D+00
 0.165004696243660D+03 0.000000000000000D+00 0.000000000000000D+00 0.165004696243660D+03
 0.165004696243660D+03 -.000000000000000D+00 -.000000000000000D+00 -.165004696243660D+03
 0.627001888294676D+02 -.903141253856325D+01 0.120539521875099D+02 0.347051797786786D+02
 0.147470450556277D+03 0.473380460574490D+02 -.284945677308030D+02 -.136728573431339D+03
 0.113029225945526D+03 -.430772434590279D+02 0.119242693200423D+02 0.103816033516021D+03
 0.680952715604875D+01 0.477060994014215D+01 0.451634622325081D+01 -.179263986336086D+01
0.147308622500D-04 0.000000000000D+00 0.000000000000D+00 0.541872746824D-08 0.000000000000D+00  6 4 22 9900012 -13 3 21 0 0.17604179D-01 0.36605819D-01 0.58538664D+04 0.58538664D+04 0.58538664D+04 0.12342115D+01  1  2  2  2  6  5        3 0.132308477933D-03 0.100000000000D+01
0.298105899421D-06 0.000000000000D+00 -.282851948825D-07 0.541872746824D-08 0.000000000000D+00  6 4 22 9900012 -13 3 21 2 0.17604179D-01 0.36605819D-01 0.58538664D+04 0.58538664D+04 0.58538664D+04 0.12342115D+01  1  2  3  2  6  5        3 0.407858258739D-05 0.100000000000D+01
-.211774783705D-05 0.000000000000D+00 0.000000000000D+00 0.541872746824D-08 0.000000000000D+00  6 4 22 9900012 -13 3 21 2 0.17604179D-01 0.36605819D-01 0.58538664D+04 0.58538664D+04 0.58538664D+04 0.12342115D+01  1  2 15  2  6  5        3 -.289742989637D-04 0.100000000000D+01
0.872421683068D-05 0.000000000000D+00 0.000000000000D+00 0.541872746824D-08 0.000000000000D+00  6 4 22 9900012 -13 3 21 2 0.17604179D-01 0.36605819D-01 0.62994633D+04 0.62994633D+04 0.62994633D+04 0.12307100D+01  1  2 12  2  6  5        3 0.119623699332D-03 0.100000000000D+01
-.301790830807D-06 0.000000000000D+00 0.000000000000D+00 0.541872746824D-08 0.000000000000D+00  6 4 22 9900012 -13 3 21 2 0.17604179D-01 0.36605819D-01 0.58538664D+04 0.58538664D+04 0.58538664D+04 0.12342115D+01  1  2  4  2  6  5        3 -.412899855371D-05 0.100000000000D+01
  </mgrwgt>
  </event>
  <event>
  6     66 0.80203028E-06 0.12225487E+03 0.78161638E-02 0.10318008E+00
        2 -1    0    0  501    0 0.00000000E+00 0.00000000E+00 0.24462490E+04 0.24462490E+04 0.00000000E+00 0.0000E+00 0.9000E+01
       22 -1    0    0    0    0 0.00000000E+00 0.00000000E+00 -.16139296E+02 0.16139296E+02 0.00000000E+00 0.0000E+00 0.9000E+01
       24  2    1    2    0    0 0.11957278E+03 -.25467715E+02 0.35921715E+03 0.38789023E+03 0.80471217E+02 0.0000E+00 0.0000E+00
  9900012  1    3    3    0    0 0.96054846E+02 -.34648289E+02 0.33122109E+03 0.35019202E+03 0.50000000E+02 0.0000E+00 0.9000E+01
      -13  1    3    3    0    0 0.23517929E+02 0.91805743E+01 0.27996056E+02 0.37698211E+02 0.00000000E+00 0.0000E+00 0.9000E+01
        1  1    1    2  501    0 -.11957278E+03 0.25467715E+02 0.20708925E+04 0.20744980E+04 0.00000000E+00 0.0000E+00 0.9000E+01
#aMCatNLO 1  0  0  1  5 0.29578160D+03 0.00000000D+00  -5  6  0 0.00000000D+00 0.00000000D+00 0.00000000D+00 0.00000000D+00 0.00000000D+00
  <mgrwgt>
 0.1016420517D-03    3    2    0
 0.198697598970740D+03 0.000000000000000D+00 0.000000000000000D+00 0.198697598970740D+03
 0.198697598970740D+03 0.000000000000000D+00 0.000000000000000D+00 -.198697598970740D+03
 0.144453519091568D+03 0.960548459294913D+02 -.346482890401078D+02 -.891054533572033D+02
 0.623916578069557D+02 0.235179294240445D+02 0.918057432115812D+01 -.570556133490791D+02
 0.190550021042957D+03 -.119572775353536D+03 0.254677147189496D+02 0.146161066706282D+03
 0.000000000000000D+00 -.000000000000000D+00 0.000000000000000D+00 -.000000000000000D+00
 0.288319049139779D+03 0.000000000000000D+00 0.000000000000000D+00 0.288319049139779D+03
 0.345164044471557D+03 0.000000000000000D+00 0.000000000000000D+00 -.345164044471557D+03
 0.206422944628924D+03 0.173303970882423D+03 -.462210333903020D+02 -.891054533572033D+02
 0.791564048450781D+02 0.546812165328736D+02 0.451198092230826D+01 -.570556133490791D+02
 0.153258265413624D+03 -.438797835845165D+02 0.141280957474991D+02 0.146161066706282D+03
 0.194645478723710D+03 -.184105403830780D+03 0.275809567204947D+02 -.568449953317778D+02
0.628895748062D-05 0.000000000000D+00 0.000000000000D+00 0.260942534184D-05 0.000000000000D+00  6 2 22 9900012 -13 1 21 0 0.37634600D+00 0.24829686D-02 0.17056139D+05 0.17056139D+05 0.17056139D+05 0.11860042D+01  1  2  2  1  6  1        2 0.128775737956D-03 0.100000000000D+01
-.285269912014D-07 0.000000000000D+00 -.120756263231D-07 0.260942534184D-05 0.000000000000D+00  6 2 22 9900012 -13 1 21 2 0.37634600D+00 0.24829686D-02 0.17056139D+05 0.17056139D+05 0.17056139D+05 0.11860042D+01  1  2  3  1  6  1        2 -.821644163317D-06 0.100000000000D+01
-.913538278300D-06 0.000000000000D+00 0.000000000000D+00 0.260942534184D-05 0.000000000000D+00  6 2 22 9900012 -13 1 21 2 0.37634600D+00 0.24829686D-02 0.17056139D+05 0.17056139D+05 0.17056139D+05 0.11860042D+01  1  2 15  1  6  1        2 -.263120421299D-04 0.100000000000D+01
  </mgrwgt>
  </event>
  <event>
  6     66 0.80203028E-06 0.13470255E+03 0.78161638E-02 0.10724735E+00
        2 -1    0    0  501    0 0.00000000E+00 0.00000000E+00 0.16128953E+04 0.16128953E+04 0.00000000E+00 0.0000E+00 0.9000E+01
       22 -1    0    0    0    0 0.00000000E+00 0.00000000E+00 -.12182296E+03 0.12182296E+03 0.00000000E+00 0.0000E+00 0.9000E+01
       24  2    1    2    0    0 -.96734225E+02 -.96348270E+02 -.66172041E+02 0.17150024E+03 0.79956832E+02 0.0000E+00 0.0000E+00
  9900012  1    3    3    0    0 -.39655075E+02 -.51140921E+02 -.16691168E+02 0.83465645E+02 0.50000000E+02 0.0000E+00 0.9000E+01
      -13  1    3    3    0    0 -.57079149E+02 -.45207350E+02 -.49480872E+02 0.88034598E+02 0.00000000E+00 0.0000E+00 0.9000E+01
        1  1    1    2  501    0 0.96734225E+02 0.96348270E+02 0.15572443E+04 0.15632180E+04 0.00000000E+00 0.0000E+00 0.9000E+01
#aMCatNLO 1  0  0  5  1 0.61534058D+02 0.00000000D+00  -5  6  0 0.00000000D+00 0.00000000D+00 0.00000000D+00 0.00000000D+00 0.00000000D+00
  <mgrwgt>
 0.1950461435D-03    7    2    0
 0.443269300017617D+03 0.000000000000000D+00 0.000000000000000D+00 0.443269300017617D+03
 0.443269300017617D+03 -.000000000000000D+00 -.000000000000000D+00 -.443269300017617D+03
 0.191392808959288D+03 -.396550753138705D+02 -.511409205087859D+02 -.173041291525149D+03
 0.255482140584502D+03 -.570791492435784D+02 -.452073499513635D+02 -.244886484701879D+03
 0.439663650491444D+03 0.967342245574490D+02 0.963482704601494D+02 0.417927776227028D+03
 0.000000000000000D+00 0.000000000000000D+00 0.000000000000000D+00 0.000000000000000D+00
 0.443269300017617D+03 0.000000000000000D+00 0.000000000000000D+00 0.443269300017617D+03
 0.443269300017617D+03 -.000000000000000D+00 -.000000000000000D+00 -.443269300017617D+03
 0.183544667331662D+03 -.378600732781785D+02 -.493530802443646D+02 -.165286216084872D+03
 0.244610967277350D+03 -.546849683376638D+02 -.428227214446596D+02 -.234542734013106D+03
 0.398184387126438D+03 0.138050220650477D+03 0.708091443469891D+02 0.366713795495150D+03
 0.601985782997840D+02 -.455051790346344D+02 0.213666573420352D+02 0.331151546028271D+02
0.230446275292D-04 0.000000000000D+00 0.000000000000D+00 0.103398721762D-03 0.000000000000D+00  6 2 22 9900012 -13 1 21 0 0.24813773D+00 0.18741994D-01 0.21188138D+05 0.21188138D+05 0.21188138D+05 0.11769199D+01  1  2  2  2  6  5        1 0.757934744364D-04 0.100000000000D+01
0.209789057216D-06 0.000000000000D+00 -.442487187510D-07 0.103398721762D-03 0.000000000000D+00  6 2 22 9900012 -13 1 21 2 0.24813773D+00 0.18741994D-01 0.21188138D+05 0.21188138D+05 0.21188138D+05 0.11769199D+01  1  2  3  2  6  5        1 0.955737841862D-06 0.100000000000D+01
-.326391729606D-05 0.000000000000D+00 0.000000000000D+00 0.103398721762D-03 0.000000000000D+00  6 2 22 9900012 -13 1 21 2 0.24813773D+00 0.18741994D-01 0.21188138D+05 0.21188138D+05 0.21188138D+05 0.11769199D+01  1  2 15  2  6  5        1 -.148694565577D-04 0.100000000000D+01
0.263945634702D-04 0.000000000000D+00 0.000000000000D+00 0.103398721762D-03 0.000000000000D+00  6 2 22 9900012 -13 1 21 2 0.24813773D+00 0.18741994D-01 0.31450558D+05 0.31450558D+05 0.31450558D+05 0.11609091D+01  1  2 12  2  6  5        1 0.117713771390D-03 0.100000000000D+01
-.140812391621D-05 0.000000000000D+00 0.000000000000D+00 0.103398721762D-03 0.000000000000D+00  6 2 22 9900012 -13 1 21 2 0.24813773D+00 0.18741994D-01 0.21188138D+05 0.21188138D+05 0.21188138D+05 0.11769199D+01  1  2  4  2  6  5        1 -.641500243439D-05 0.100000000000D+01
-.328337698790D-04 0.000000000000D+00 0.000000000000D+00 0.103398721762D-03 0.000000000000D+00  6 2 22 9900012 -13 1 21 2 0.24813773D+00 0.18741994D-01 0.21188138D+05 0.21188138D+05 0.21188138D+05 0.11769199D+01  1  2  5  2  6  5        1 -.149581092459D-03 0.100000000000D+01
0.376338174909D-04 0.000000000000D+00 -.000000000000D+00 0.103398721762D-03 0.000000000000D+00  6 2 22 9900012 -13 1 21 2 0.24813773D+00 0.18741994D-01 0.21188138D+05 0.21188138D+05 0.21188138D+05 0.11769199D+01  1  2  6  2  6  5        1 0.171448711325D-03 0.100000000000D+01
  </mgrwgt>
  </event>
  <event>
  7     66 -.80203028E-06 0.81862911E+02 0.78161638E-02 0.11601816E+00
        2 -1    0    0  501    0 0.00000000E+00 0.00000000E+00 0.56700422E+03 0.56700422E+03 0.00000000E+00 0.0000E+00 0.9000E+01
       22 -1    0    0    0    0 -.00000000E+00 -.00000000E+00 -.69223257E+03 0.69223257E+03 0.00000000E+00 0.0000E+00 0.9000E+01
       24  2    1    2    0    0 -.45497268E+02 -.73542058E+02 -.68366539E+03 0.69378298E+03 0.80361780E+02 0.0000E+00 0.0000E+00
  9900012  1    3    3    0    0 -.37291887E+01 -.41501057E+02 -.40331257E+03 0.40853063E+03 0.50000000E+02 0.0000E+00 0.9000E+01
      -13  1    3    3    0    0 -.41768079E+02 -.32041001E+02 -.28035282E+03 0.28525235E+03 0.00000000E+00 0.0000E+00 0.9000E+01
        1  1    1    2  502    0 0.38216144E+02 0.60061918E+02 0.49996748E+03 0.50501028E+03 0.00000000E+00 0.0000E+00 0.9000E+01
       21  1    1    2  501  502 0.72811231E+01 0.13480140E+02 0.58469569E+02 0.60443522E+02 0.00000000E+00 0.0000E+00 0.9000E+01
#aMCatNLO 2  0  0  5  1 0.62332320D+01 0.00000000D+00  -5  6  0 0.00000000D+00 0.00000000D+00 0.00000000D+00 0.00000000D+00 0.00000000D+00
  <mgrwgt>
 -.2632210500D-02    2    2    0
 0.626497233858864D+03 0.000000000000000D+00 0.000000000000000D+00 0.626497233858864D+03
 0.626497233858864D+03 -.000000000000000D+00 -.000000000000000D+00 -.626497233858864D+03
 0.370353004252362D+03 -.373623157147519D+01 -.415124412790991D+02 -.364587582826738D+03
 0.258721262382318D+03 -.417729988738103D+02 -.320489536240230D+02 -.253307269428641D+03
 0.623920201083049D+03 0.455092304452857D+02 0.735613949031224D+02 0.617894852255379D+03
 0.000000000000000D+00 0.000000000000000D+00 0.000000000000000D+00 0.000000000000000D+00
 0.626497233858864D+03 0.000000000000000D+00 0.000000000000000D+00 0.626497233858864D+03
 0.626497233858864D+03 -.000000000000000D+00 -.000000000000000D+00 -.626497233858864D+03
 0.370257522051187D+03 -.372918866650856D+01 -.415010570849819D+02 -.364491958825163D+03
 0.258654079829177D+03 -.417680788446751D+02 -.320410008592188D+02 -.253240468460005D+03
 0.557494579457297D+03 0.382161443790850D+02 0.600619180709134D+02 0.552930645226604D+03
 0.665882863800675D+02 0.728112313209885D+01 0.134801398732876D+02 0.648017820585645D+02
-.364988651189D-02 0.000000000000D+00 0.000000000000D+00 0.990852807543D-03 0.000000000000D+00  6 2 22 9900012 -13 1 21 2 0.87231418D-01 0.10649732D+00 0.10428363D+05 0.10428363D+05 0.10428363D+05 0.12074466D+01  1  2 13  2  6  5        1 -.395271498117D-02 0.100000000000D+01
0.121933696653D-02 0.000000000000D+00 0.000000000000D+00 0.990852807543D-03 0.573199411189D-04  6 2 22 9900012 -13 1 21 2 0.87231418D-01 0.10649732D+00 0.10428363D+05 0.10428363D+05 0.10428363D+05 0.12074466D+01  1  2  1  2  6  5        1 0.132050448116D-02 0.100000000000D+01
  </mgrwgt>
  </event>
  <event>
  6     66 0.80203028E-06 0.51436394E+02 0.78161638E-02 0.11449267E+00
        4 -1    0    0  501    0 0.00000000E+00 0.00000000E+00 0.16111906E+03 0.16111906E+03 0.00000000E+00 0.0000E+00 0.9000E+01
       22 -1    0    0    0    0 0.00000000E+00 0.00000000E+00 -.79269992E+02 0.79269992E+02 0.00000000E+00 0.0000E+00 0.9000E+01
       24  2    1    2    0    0 0.86626002E+01 -.50701696E+02 -.46023876E+02 0.10255875E+03 0.75857743E+02 0.0000E+00 0.0000E+00
  9900012  1    3    3    0    0 -.72083010E+01 -.15262509E+02 -.24850134E+02 0.58330378E+02 0.50000000E+02 0.0000E+00 0.9000E+01
      -13  1    3    3    0    0 0.15870901E+02 -.35439188E+02 -.21173741E+02 0.44228371E+02 0.00000000E+00 0.0000E+00 0.9000E+01
        3  1    1    2  501    0 -.86626002E+01 0.50701696E+02 0.12787294E+03 0.13783030E+03 0.00000000E+00 0.0000E+00 0.9000E+01
#aMCatNLO 1  0  0  1  5 0.38794316D+02 0.00000000D+00  -5  6  0 0.00000000D+00 0.00000000D+00 0.00000000D+00 0.00000000D+00 0.00000000D+00
  <mgrwgt>
 0.2876701791D-04    4    2    0
 0.113012860071479D+03 0.000000000000000D+00 0.000000000000000D+00 0.113012860071479D+03
 0.113012860071479D+03 0.000000000000000D+00 0.000000000000000D+00 -.113012860071479D+03
 0.710359177374272D+02 -.720830100102196D+01 -.152625087571653D+02 -.475520539189912D+02
 0.547064609590398D+02 0.158709012427736D+02 -.354391875073234D+02 -.385353779432076D+02
 0.100283341446491D+03 -.866260024175167D+01 0.507016962644887D+02 0.860874318621988D+02
 0.000000000000000D+00 0.000000000000000D+00 -.000000000000000D+00 -.000000000000000D+00
 0.131715984166393D+03 0.000000000000000D+00 0.000000000000000D+00 0.131715984166393D+03
 0.192995844378420D+03 0.000000000000000D+00 0.000000000000000D+00 -.192995844378420D+03
 0.758102885631749D+02 -.279415686776650D+02 -.143272732907743D+02 -.475520539189912D+02
 0.519029667193904D+02 0.818678535801705D+00 -.347602124059004D+02 -.385353779432076D+02
 0.107526368078383D+03 -.380033264472675D+02 0.520251966497165D+02 0.860874318621988D+02
 0.894722051838647D+02 0.651262165891307D+02 -.293771095304184D+01 -.612798602120271D+02
0.145934482098D-05 0.000000000000D+00 0.000000000000D+00 0.129234404904D-06 0.000000000000D+00  6 4 22 9900012 -13 3 21 0 0.24787548D-01 0.12195383D-01 0.51150574D+04 0.51150574D+04 0.51150574D+04 0.12407345D+01  1  2  2  1  6  1        4 0.362217333018D-04 0.100000000000D+01
0.308047365534D-07 0.000000000000D+00 -.280213418343D-08 0.129234404904D-06 0.000000000000D+00  6 4 22 9900012 -13 3 21 2 0.24787548D-01 0.12195383D-01 0.51150574D+04 0.51150574D+04 0.51150574D+04 0.12407345D+01  1  2  3  1  6  1        4 0.117702728778D-05 0.100000000000D+01
-.216729470069D-06 0.000000000000D+00 0.000000000000D+00 0.129234404904D-06 0.000000000000D+00  6 4 22 9900012 -13 3 21 2 0.24787548D-01 0.12195383D-01 0.51150574D+04 0.51150574D+04 0.51150574D+04 0.12407345D+01  1  2 15  1  6  1        4 -.828108040770D-05 0.100000000000D+01
-.917740739238D-08 0.000000000000D+00 0.000000000000D+00 0.129234404904D-06 0.000000000000D+00  6 4 22 9900012 -13 3 21 2 0.24787548D-01 0.12195383D-01 0.51150574D+04 0.51150574D+04 0.51150574D+04 0.12407345D+01  1  2  4  1  6  1        4 -.350662272770D-06 0.100000000000D+01
  </mgrwgt>
  </event>
  <event>
  7     66 -.80203028E-06 0.39674046E+02 0.78161638E-02 0.12286788E+00
        2 -1    0    0  501    0 0.00000000E+00 0.00000000E+00 0.63414920E+03 0.63414920E+03 0.00000000E+00 0.0000E+00 0.9000E+01
       22 -1    0    0    0    0 0.00000000E+00 0.00000000E+00 -.85097975E+01 0.85097975E+01 0.00000000E+00 0.0000E+00 0.9000E+01
       24  2    1    2    0    0 -.32305970E+02 -.13605005E+02 0.30268172E+03 0.31510150E+03 0.80274299E+02 0.0000E+00 0.0000E+00
  9900012  1    3    3    0    0 -.43312013E+02 0.36640026E+01 0.24846592E+03 0.25714718E+03 0.50000000E+02 0.0000E+00 0.9000E+01
      -13  1    3    3    0    0 0.11006042E+02 -.17269007E+02 0.54215792E+02 0.57954324E+02 0.00000000E+00 0.0000E+00 0.9000E+01
        1  1    1    2  502    0 -.88832156E+01 -.27779934E+01 0.84833215E+02 0.85342271E+02 0.00000000E+00 0.0000E+00 0.9000E+01
       21  1    1    2  501  502 0.41189186E+02 0.16382998E+02 0.23812447E+03 0.24221523E+03 0.00000000E+00 0.0000E+00 0.9000E+01
#aMCatNLO 2  0  0  5  1 0.17089894D+02 0.00000000D+00  -5  6  0 0.00000000D+00 0.00000000D+00 0.00000000D+00 0.00000000D+00 0.00000000D+00
  <mgrwgt>
 -.2894376418D-04    2    2    0
 0.734607466153706D+02 0.000000000000000D+00 0.000000000000000D+00 0.734607466153706D+02
 0.734607466153706D+02 -.000000000000000D+00 -.000000000000000D+00 -.734607466153706D+02
 0.723861767171076D+02 -.508623883278636D+02 0.484314826746754D+00 -.123507680916822D+02
 0.230045235231902D+02 0.852955599736979D+01 -.183119293618684D+02 -.110058175553970D+02
 0.515307929904435D+02 0.423328323304939D+02 0.178276145351216D+02 0.233565856470793D+02
 0.000000000000000D+00 0.000000000000000D+00 0.000000000000000D+00 -.000000000000000D+00
 0.734607466153706D+02 0.000000000000000D+00 0.000000000000000D+00 0.734607466153706D+02
 0.734607466153706D+02 -.000000000000000D+00 -.000000000000000D+00 -.734607466153706D+02
 0.667558889192860D+02 -.433120125401273D+02 0.366400259458169D+01 -.818494716628045D+01
 0.226333946221887D+02 0.110060423898316D+02 -.172690072993519D+02 -.963944863215124D+01
 0.120538936921607D+02 -.888321558547919D+01 -.277799344063360D+01 0.765947690430667D+01
 0.454783159971058D+02 0.411891857357749D+02 0.163829981454038D+02 0.101649188941250D+02
-.886116484169D-07 0.000000000000D+00 0.000000000000D+00 0.194785367380D-06 0.000000000000D+00  6 2 22 9900012 -13 1 21 2 0.97561416D-01 0.13091996D-02 0.49256197D+04 0.49256197D+04 0.49256197D+04 0.12425793D+01  1  2 13  2  6  5        1 -.609908937619D-04 0.100000000000D+01
0.465602125865D-07 0.000000000000D+00 0.000000000000D+00 0.194785367380D-06 0.332393837243D-09  6 2 22 9900012 -13 1 21 2 0.97561416D-01 0.13091996D-02 0.49256197D+04 0.49256197D+04 0.49256197D+04 0.12425793D+01  1  2  1  2  6  5        1 0.320471295832D-04 0.100000000000D+01
  </mgrwgt>
  </event>
  <event>
  7     66 -.80203028E-06 0.11948253E+03 0.78161638E-02 0.11165709E+00
        2 -1    0    0  501    0 0.00000000E+00 0.00000000E+00 0.39852089E+02 0.39852089E+02 0.00000000E+00 0.0000E+00 0.9000E+01
       22 -1    0    0    0    0 -.00000000E+00 -.00000000E+00 -.77294005E+03 0.77294005E+03 0.00000000E+00 0.0000E+00 0.9000E+01
       24  2    1    2    0    0 -.21265212E+02 -.12204055E+03 -.61862422E+03 0.63595313E+03 0.79964704E+02 0.0000E+00 0.0000E+00
  9900012  1    3    3    0    0 -.18917398E+02 -.10251543E+03 -.39796697E+03 0.41442128E+03 0.50000000E+02 0.0000E+00 0.9000E+01
      -13  1    3    3    0    0 -.23478138E+01 -.19525119E+02 -.22065725E+03 0.22153186E+03 0.00000000E+00 0.0000E+00 0.9000E+01
        1  1    1    2  502    0 0.27921134E+02 0.11978527E+03 -.92839582E+02 0.15410155E+03 0.00000000E+00 0.0000E+00 0.9000E+01
       21  1    1    2  501  502 -.66559225E+01 0.22552799E+01 -.21624155E+02 0.22737451E+02 0.00000000E+00 0.0000E+00 0.9000E+01
#aMCatNLO 2  0  0  5  1 0.10891625D+02 0.00000000D+00  -5  6  0 0.00000000D+00 0.00000000D+00 0.00000000D+00 0.00000000D+00 0.00000000D+00
  <mgrwgt>
 -.9607757666D-04    2    2    0
 0.175508618857573D+03 0.000000000000000D+00 0.000000000000000D+00 0.175508618857573D+03
 0.175508618857573D+03 -.000000000000000D+00 -.000000000000000D+00 -.175508618857573D+03
 0.131342159927215D+03 -.193354240947481D+02 -.104914472000458D+03 -.580504772959504D+02
 0.532747779476891D+02 -.251740668364701D+01 -.204984082514154D+02 -.491088575322518D+02
 0.166400299840242D+03 0.218528307783951D+02 0.125412880251873D+03 0.107159334828202D+03
 0.000000000000000D+00 0.000000000000000D+00 0.000000000000000D+00 -.000000000000000D+00
 0.175508618857573D+03 0.000000000000000D+00 0.000000000000000D+00 0.175508618857573D+03
 0.175508618857573D+03 -.000000000000000D+00 -.000000000000000D+00 -.175508618857573D+03
 0.128465364869660D+03 -.189173981524682D+02 -.102515430980419D+03 -.560006109710834D+02
 0.521290054075942D+02 -.234781376715466D+01 -.195251185049608D+02 -.482772277856443D+02
 0.162934877373669D+03 0.279211343878950D+02 0.119785269604333D+03 0.106862873370890D+03
 0.748799006422430D+01 -.665592246827216D+01 0.225527988104702D+01 -.258503461416210D+01
-.413103878582D-05 0.000000000000D+00 0.000000000000D+00 0.150819291319D-05 0.000000000000D+00  6 2 22 9900012 -13 1 21 2 0.61310906D-02 0.11891385D+00 0.17596912D+05 0.17596912D+05 0.17596912D+05 0.11846836D+01  1  2 13  2  6  5        1 -.751550964822D-04 0.100000000000D+01
-.115002826390D-05 0.000000000000D+00 0.000000000000D+00 0.150819291319D-05 0.000000000000D+00  6 2 22 9900012 -13 1 21 2 0.61310906D-02 0.11891385D+00 0.17658716D+05 0.17658716D+05 0.17658716D+05 0.11845355D+01  1  2  8  2  6  5        1 -.209224801796D-04 0.100000000000D+01
  </mgrwgt>
  </event>
  <event>
  6     66 0.80203028E-06 0.14250887E+03 0.78161638E-02 0.10294848E+00
        2 -1    0    0  501    0 0.00000000E+00 0.00000000E+00 0.11243427E+04 0.11243427E+04 0.00000000E+00 0.0000E+00 0.9000E+01
       22 -1    0    0    0    0 0.00000000E+00 0.00000000E+00 -.48715251E+02 0.48715251E+02 0.00000000E+00 0.0000E+00 0.9000E+01
       24  2    1    2    0    0 0.12434759E+03 0.69616487E+02 0.10975220E+03 0.19672616E+03 0.79667157E+02 0.0000E+00 0.0000E+00
  9900012  1    3    3    0    0 0.48207915E+02 0.38735028E+02 0.40368053E+02 0.89185117E+02 0.50000000E+02 0.0000E+00 0.9000E+01
      -13  1    3    3    0    0 0.76139678E+02 0.30881459E+02 0.69384150E+02 0.10754104E+03 0.00000000E+00 0.0000E+00 0.9000E+01
        1  1    1    2  501    0 -.12434759E+03 -.69616487E+02 0.96587521E+03 0.97633176E+03 0.00000000E+00 0.0000E+00 0.9000E+01
#aMCatNLO 1  0  0  1  5 0.12407289D+02 0.00000000D+00  -5  6  0 0.00000000D+00 0.00000000D+00 0.00000000D+00 0.00000000D+00 0.00000000D+00
  <mgrwgt>
 0.4291106796D-04    5    2    0
 0.234035543095148D+03 0.000000000000000D+00 0.000000000000000D+00 0.234035543095148D+03
 0.234035543095148D+03 0.000000000000000D+00 0.000000000000000D+00 -.234035543095148D+03
 0.130745789649116D+03 0.482079145701862D+02 0.387350283751445D+02 -.103778880609405D+03
 0.110069552660099D+03 0.761396782623175D+02 0.308814588111384D+02 -.732420051514226D+02
 0.227255743881082D+03 -.124347592832504D+03 -.696164871862830D+02 0.177020885760828D+03
 0.000000000000000D+00 0.000000000000000D+00 0.000000000000000D+00 0.000000000000000D+00
 0.580653730025096D+03 0.000000000000000D+00 0.000000000000000D+00 0.580653730025096D+03
 0.261184377330364D+03 0.000000000000000D+00 0.000000000000000D+00 -.261184377330364D+03
 0.123437097391698D+03 0.443469202448886D+02 0.107780980669560D+00 -.103778880609405D+03
 0.103348438752100D+03 0.728978956885496D+02 -.155089589489354D+01 -.732420051514226D+02
 0.263642056879942D+03 -.131804245973496D+03 -.144216437702838D+03 0.177020885760828D+03
 0.351410514331722D+03 0.145594300400580D+02 0.145659552617062D+03 0.319469352694732D+03
0.282380708834D-05 0.000000000000D+00 0.000000000000D+00 0.351677285749D-05 0.000000000000D+00  6 2 22 9900012 -13 1 21 0 0.17297580D+00 0.74946540D-02 0.23134251D+05 0.23134251D+05 0.23134251D+05 0.11733000D+01  1  2  2  1  6  1        2 0.638533248751D-04 0.100000000000D+01
-.787123465456D-08 0.000000000000D+00 -.542208137235D-08 0.351677285749D-05 0.000000000000D+00  6 2 22 9900012 -13 1 21 2 0.17297580D+00 0.74946540D-02 0.23134251D+05 0.23134251D+05 0.23134251D+05 0.11733000D+01  1  2  3  1  6  1        2 -.245024483398D-06 0.100000000000D+01
-.399393512604D-06 0.000000000000D+00 0.000000000000D+00 0.351677285749D-05 0.000000000000D+00  6 2 22 9900012 -13 1 21 2 0.17297580D+00 0.74946540D-02 0.23134251D+05 0.23134251D+05 0.23134251D+05 0.11733000D+01  1  2 15  1  6  1        2 -.124327622531D-04 0.100000000000D+01
-.231349459014D-05 0.000000000000D+00 -.677127343617D-06 0.351677285749D-05 0.000000000000D+00  6 2 22 9900012 -13 1 21 2 0.43975217D+00 0.74946540D-02 0.23134251D+05 0.23134251D+05 0.23134251D+05 0.11733000D+01  1  2  5  1  6  1        2 -.817196308809D-05 0.100000000000D+01
-.196821401667D-06 0.000000000000D+00 -.697359209105D-07 0.351677285749D-05 0.000000000000D+00  6 21 22 9900012 -13 1 -2 2 0.43975217D+00 0.74946540D-02 0.23134251D+05 0.23134251D+05 0.23134251D+05 0.11733000D+01  1  2  5  3  6  1        2 -.925070859365D-07 0.100000000000D+01
  </mgrwgt>
  </event>
  <event>
  7     66 -.80203028E-06 0.14692028E+03 0.78161638E-02 0.10627249E+00
        2 -1    0    0  502    0 0.00000000E+00 0.00000000E+00 0.34457849E+03 0.34457849E+03 0.00000000E+00 0.0000E+00 0.9000E+01
       22 -1    0    0    0    0 0.00000000E+00 0.00000000E+00 -.17343675E+04 0.17343675E+04 0.00000000E+00 0.0000E+00 0.9000E+01
       24  2    1    2    0    0 0.84223504E+02 0.15587926E+03 -.16230620E+04 0.16347063E+04 0.80883931E+02 0.0000E+00 0.0000E+00
  9900012  1    3    3    0    0 0.44934900E+02 0.13277384E+03 -.12833524E+04 0.12919526E+04 0.50000000E+02 0.0000E+00 0.9000E+01
      -13  1    3    3    0    0 0.39288604E+02 0.23105427E+02 -.33970963E+03 0.34275369E+03 0.00000000E+00 0.0000E+00 0.9000E+01
        1  1    1    2  501    0 -.90606411E+02 -.13136844E+03 0.31800615E+03 0.35580205E+03 0.00000000E+00 0.0000E+00 0.9000E+01
       21  1    1    2  502  501 0.63829068E+01 -.24510826E+02 -.84733075E+02 0.88437639E+02 0.00000000E+00 0.0000E+00 0.9000E+01
#aMCatNLO 2  0  0  1  5 0.81237057D+02 0.00000000D+00  -5  6  0 0.00000000D+00 0.00000000D+00 0.00000000D+00 0.00000000D+00 0.00000000D+00
  <mgrwgt>
 -.3155504818D-04    3    2    0
 0.751383872007153D+03 0.000000000000000D+00 0.000000000000000D+00 0.751383872007153D+03
 0.751383872007153D+03 0.000000000000000D+00 0.000000000000000D+00 -.751383872007153D+03
 0.594787926038304D+03 0.474650562541530D+02 0.123057850204698D+03 -.577820483280694D+03
 0.158772666317725D+03 0.399633306426607D+02 0.205144280181103D+02 -.152285422863368D+03
 0.749207151658277D+03 -.874283868968137D+02 -.143572278222809D+03 0.730105906144062D+03
 0.000000000000000D+00 0.000000000000000D+00 -.000000000000000D+00 -.000000000000000D+00
 0.755552059213969D+03 0.000000000000000D+00 0.000000000000000D+00 0.755552059213969D+03
 0.790978867823662D+03 0.000000000000000D+00 0.000000000000000D+00 -.790978867823662D+03
 0.596677926059833D+03 0.449348996272259D+02 0.132773835313362D+03 -.577820483280694D+03
 0.158960074166241D+03 0.392886041303468D+02 0.231054268030445D+02 -.152285422863368D+03
 0.747343175478644D+03 -.906064106069078D+02 -.131368436486831D+03 0.730105906144062D+03
 0.435497513329129D+02 0.638290684933508D+01 -.245108256295746D+02 -.354268086096934D+02
-.144110565329D-03 0.000000000000D+00 0.000000000000D+00 0.210569699675D-03 0.000000000000D+00  6 2 22 9900012 -13 1 21 2 0.55805604D-01 0.25346894D+00 0.35969774D+05 0.35969774D+05 0.35969774D+05 0.11556209D+01  1  2 13  1  6  1        2 -.317676028141D-04 0.100000000000D+01
-.967915232793D-06 0.000000000000D+00 0.000000000000D+00 0.210569699675D-03 0.000000000000D+00  6 2 22 9900012 -13 1 21 2 0.52719621D-01 0.25346894D+00 0.31341794D+05 0.31341794D+05 0.31341794D+05 0.11610465D+01  1  2  8  1  6  1        2 -.228316595222D-06 0.100000000000D+01
0.219742774625D-05 0.000000000000D+00 0.000000000000D+00 0.210569699675D-03 0.307147151137D-08  6 2 22 9900012 -13 1 21 2 0.53012075D-01 0.26682576D+00 0.35969774D+05 0.35969774D+05 0.35969774D+05 0.11556209D+01  1  2  1  1  6  1        2 0.440871225228D-06 0.100000000000D+01
  </mgrwgt>
  </event>
  <event>
  6     66 0.80203028E-06 0.29160212E+02 0.78161638E-02 0.11044548E+00
        2 -1    0    0  501    0 0.00000000E+00 0.00000000E+00 0.92869843E+03 0.92869843E+03 0.00000000E+00 0.0000E+00 0.9000E+01
       22 -1    0    0    0    0 0.00000000E+00 0.00000000E+00 -.99837948E+01 0.99837948E+01 0.00000000E+00 0.0000E+00 0.9000E+01
       24  2    1    2    0    0 0.23025287E+02 -.17892850E+02 0.17581428E+03 0.19520980E+03 0.79661061E+02 0.0000E+00 0.0000E+00
  9900012  1    3    3    0    0 -.38013895E+01 -.17979355E+02 0.83234124E+02 0.98821188E+02 0.50000000E+02 0.0000E+00 0.9000E+01
      -13  1    3    3    0    0 0.26826677E+02 0.86505550E-01 0.92580159E+02 0.96388609E+02 0.00000000E+00 0.0000E+00 0.9000E+01
        1  1    1    2  501    0 -.23025287E+02 0.17892850E+02 0.74290035E+03 0.74347243E+03 0.00000000E+00 0.0000E+00 0.9000E+01
#aMCatNLO 1  0  0  1  5 0.42145153D+02 0.00000000D+00  -5  6  0 0.00000000D+00 0.00000000D+00 0.00000000D+00 0.00000000D+00 0.00000000D+00
  <mgrwgt>
 0.1853381674D-03    5    2    0
 0.962908851459557D+02 0.000000000000000D+00 0.000000000000000D+00 0.962908851459557D+02
 0.962908851459557D+02 0.000000000000000D+00 0.000000000000000D+00 -.962908851459557D+02
 0.846045014176440D+02 -.380138951001526D+01 -.179793554353372D+02 -.657283338907284D+02
 0.281622025671358D+02 0.268266769808094D+02 0.865055495607727D-01 -.856922239118563D+01
 0.798150663071317D+02 -.230252874707941D+02 0.178928498857764D+02 0.742975562819141D+02
 0.000000000000000D+00 -.000000000000000D+00 0.000000000000000D+00 0.000000000000000D+00
 0.179652640228489D+03 0.000000000000000D+00 0.000000000000000D+00 0.179652640228489D+03
 0.176782909430880D+03 0.000000000000000D+00 0.000000000000000D+00 -.176782909430880D+03
 0.112582750642416D+03 0.260924051125415D+01 -.764712608116004D+02 -.657283338907284D+02
 0.355264588036918D+02 0.288972187644838D+02 -.188055430769329D+02 -.856922239118563D+01
 0.821228817576745D+02 -.177606252748282D+02 -.301430096136390D+02 0.742975562819141D+02
 0.126203458455587D+03 -.137458340009098D+02 0.125419813502172D+03 0.286973079760945D+01
0.875734841965D-06 0.000000000000D+00 0.000000000000D+00 0.136478603830D-05 0.000000000000D+00  6 2 22 9900012 -13 1 21 0 0.14287668D+00 0.15359684D-02 0.29842822D+04 0.29842822D+04 0.29842822D+04 0.12678974D+01  1  2  2  1  6  1        2 0.195016729966D-03 0.100000000000D+01
0.498615647130D-07 0.000000000000D+00 -.168152618971D-08 0.136478603830D-05 0.000000000000D+00  6 2 22 9900012 -13 1 21 2 0.14287668D+00 0.15359684D-02 0.29842822D+04 0.29842822D+04 0.29842822D+04 0.12678974D+01  1  2  3  1  6  1        2 0.178498003659D-04 0.100000000000D+01
-.120527122418D-06 0.000000000000D+00 0.000000000000D+00 0.136478603830D-05 0.000000000000D+00  6 2 22 9900012 -13 1 21 2 0.14287668D+00 0.15359684D-02 0.29842822D+04 0.29842822D+04 0.29842822D+04 0.12678974D+01  1  2 15  1  6  1        2 -.431471632753D-04 0.100000000000D+01
0.253107746471D-06 0.000000000000D+00 -.218454301319D-06 0.136478603830D-05 0.000000000000D+00  6 2 22 9900012 -13 1 21 2 0.37590160D+00 0.15359684D-02 0.29842822D+04 0.29842822D+04 0.29842822D+04 0.12678974D+01  1  2  5  1  6  1        2 0.151308140591D-04 0.100000000000D+01
0.402164120219D-07 0.000000000000D+00 -.234623654611D-07 0.136478603830D-05 0.000000000000D+00  6 21 22 9900012 -13 1 -2 2 0.37590160D+00 0.15359684D-02 0.29842822D+04 0.29842822D+04 0.29842822D+04 0.12678974D+01  1  2  5  3  6  1        2 0.487986297791D-06 0.100000000000D+01
  </mgrwgt>
  </event>
  <event>
  7     66 -.80203028E-06 0.20159785E+03 0.78161638E-02 0.10403101E+00
        2 -1    0    0  501    0 0.00000000E+00 0.00000000E+00 0.65621963E+03 0.65621963E+03 0.00000000E+00 0.0000E+00 0.9000E+01
       22 -1    0    0    0    0 0.00000000E+00 0.00000000E+00 -.22704260E+03 0.22704260E+03 0.00000000E+00 0.0000E+00 0.9000E+01
       24  2    1    2    0    0 -.98725296E+02 -.15996926E+03 -.14670202E+03 0.25364106E+03 0.86460719E+02 0.0000E+00 0.0000E+00
  9900012  1    3    3    0    0 -.94583768E+02 -.13623758E+03 -.97306089E+02 0.19868378E+03 0.50000000E+02 0.0000E+00 0.9000E+01
      -13  1    3    3    0    0 -.41415283E+01 -.23731678E+02 -.49395935E+02 0.54957285E+02 0.00000000E+00 0.0000E+00 0.9000E+01
        1  1    1    2  502    0 0.10467796E+03 0.18994295E+03 0.54312449E+03 0.58482477E+03 0.00000000E+00 0.0000E+00 0.9000E+01
       21  1    1    2  501  502 -.59526653E+01 -.29973685E+02 0.32754572E+02 0.44796406E+02 0.00000000E+00 0.0000E+00 0.9000E+01
#aMCatNLO 2  0  0  5  1 0.47230247D+02 0.00000000D+00  -5  6  0 0.00000000D+00 0.00000000D+00 0.00000000D+00 0.00000000D+00 0.00000000D+00
  <mgrwgt>
 -.7780133432D-04    3    2    0
 0.385991984373329D+03 0.000000000000000D+00 0.000000000000000D+00 0.385991984373329D+03
 0.385991984373329D+03 -.000000000000000D+00 -.000000000000000D+00 -.385991984373329D+03
 0.295953699229737D+03 -.986324246685345D+02 -.142797814132352D+03 -.234454731602486D+03
 0.948800021696671D+02 -.544033038002641D+01 -.258361882147227D+02 -.911323707340351D+02
 0.381150267347254D+03 0.104072755048561D+03 0.168634002347075D+03 0.325587102336521D+03
 0.000000000000000D+00 0.000000000000000D+00 -.000000000000000D+00 0.000000000000000D+00
 0.385991984373329D+03 0.000000000000000D+00 0.000000000000000D+00 0.385991984373329D+03
 0.385991984373329D+03 -.000000000000000D+00 -.000000000000000D+00 -.385991984373329D+03
 0.281419595546687D+03 -.945837677516945D+02 -.136237584034683D+03 -.221788683958283D+03
 0.903403413959778D+02 -.414152831920907D+01 -.237316778683784D+02 -.870691247933189D+02
 0.367179999005353D+03 0.104677961410662D+03 0.189942946634454D+03 0.296285931303361D+03
 0.330440327986407D+02 -.595266533975794D+01 -.299736847313927D+02 0.125718774482400D+02
-.137254149769D-04 0.000000000000D+00 0.000000000000D+00 0.478485550538D-06 0.000000000000D+00  6 2 22 9900012 -13 1 21 2 0.10095687D+00 0.34929631D-01 0.49450953D+05 0.49450953D+05 0.49450953D+05 0.11433688D+01  1  2 13  2  6  5        1 -.837961882164D-04 0.100000000000D+01
-.264472506905D-07 0.000000000000D+00 0.000000000000D+00 0.478485550538D-06 0.000000000000D+00  6 2 22 9900012 -13 1 21 2 0.10095687D+00 0.34929631D-01 0.41041620D+05 0.41041620D+05 0.41041620D+05 0.11504966D+01  1  2  8  2  6  5        1 -.162420643515D-06 0.100000000000D+01
0.100853212959D-05 0.000000000000D+00 0.000000000000D+00 0.478485550538D-06 0.295779160442D-09  6 2 22 9900012 -13 1 21 2 0.10095687D+00 0.34929631D-01 0.49450953D+05 0.49450953D+05 0.49450953D+05 0.11433688D+01  1  2  1  2  6  5        1 0.615727453747D-05 0.100000000000D+01
  </mgrwgt>
  </event>
  <event>
  6     66 0.80203028E-06 0.63130341E+02 0.78161638E-02 0.11244215E+00
        2 -1    0    0  501    0 0.00000000E+00 0.00000000E+00 0.16894805E+04 0.16894805E+04 0.00000000E+00 0.0000E+00 0.9000E+01
       22 -1    0    0    0    0 0.00000000E+00 0.00000000E+00 -.53153168E+03 0.53153168E+03 0.00000000E+00 0.0000E+00 0.9000E+01
       24  2    1    2    0    0 0.63107871E+02 0.16841939E+01 -.52604529E+03 0.53583516E+03 0.80063964E+02 0.0000E+00 0.0000E+00
  9900012  1    3    3    0    0 0.23993357E+02 -.13392300E+02 -.23725904E+03 0.24402231E+03 0.50000000E+02 0.0000E+00 0.9000E+01
      -13  1    3    3    0    0 0.39114514E+02 0.15076494E+02 -.28878624E+03 0.29181285E+03 0.00000000E+00 0.0000E+00 0.9000E+01
        1  1    1    2  501    0 -.63107871E+02 -.16841939E+01 0.16839941E+04 0.16851771E+04 0.00000000E+00 0.0000E+00 0.9000E+01
#aMCatNLO 1  0  0  1  5 0.81846802D+02 0.00000000D+00  -5  6  0 0.00000000D+00 0.00000000D+00 0.00000000D+00 0.00000000D+00 0.00000000D+00
  <mgrwgt>
 0.2463364188D-02    7    2    0
 0.947635179055880D+03 0.000000000000000D+00 0.000000000000000D+00 0.947635179055880D+03
 0.947635179055880D+03 0.000000000000000D+00 0.000000000000000D+00 -.947635179055880D+03
 0.430920249694305D+03 0.239933569832443D+02 -.133923001934622D+02 -.427126710371530D+03
 0.518406043836666D+03 0.391145141234424D+02 0.150764940744517D+02 -.516708409451301D+03
 0.945944064580789D+03 -.631078711066867D+02 -.168419388098957D+01 0.943835119822831D+03
 0.000000000000000D+00 0.000000000000000D+00 0.000000000000000D+00 0.000000000000000D+00
 0.116140917379394D+04 0.000000000000000D+00 0.000000000000000D+00 0.116140917379394D+04
 0.955430863486413D+03 0.000000000000000D+00 0.000000000000000D+00 -.955430863486413D+03
 0.430796768374068D+03 0.967656149181256D+01 -.235582912460021D+02 -.427126710371530D+03
 0.517180587792985D+03 0.219090026761496D+02 0.285929955405564D+01 -.516708409451301D+03
 0.948867532445910D+03 -.945887744202058D+02 -.240379797964650D+02 0.943835119822831D+03
 0.219995148667390D+03 0.630032102522436D+02 0.447369714884114D+02 0.205978310307526D+03
0.258241409363D-02 0.000000000000D+00 0.000000000000D+00 0.130361239988D-01 0.000000000000D+00  6 2 22 9900012 -13 1 21 0 0.25992008D+00 0.81774105D-01 0.65693270D+04 0.65693270D+04 0.65693270D+04 0.12287218D+01  1  2  2  1  6  1        2 0.703509407835D-03 0.100000000000D+01
0.797537864654D-04 0.000000000000D+00 -.495857504240D-05 0.130361239988D-01 0.000000000000D+00  6 2 22 9900012 -13 1 21 2 0.25992008D+00 0.81774105D-01 0.65693270D+04 0.65693270D+04 0.65693270D+04 0.12287218D+01  1  2  3  1  6  1        2 0.328021605709D-04 0.100000000000D+01
-.363967496345D-03 0.000000000000D+00 0.000000000000D+00 0.130361239988D-01 0.000000000000D+00  6 2 22 9900012 -13 1 21 2 0.25992008D+00 0.81774105D-01 0.65693270D+04 0.65693270D+04 0.65693270D+04 0.12287218D+01  1  2 15  1  6  1        2 -.149697221747D-03 0.100000000000D+01
-.212403672678D-03 0.000000000000D+00 0.000000000000D+00 0.130361239988D-01 0.000000000000D+00  6 2 22 9900012 -13 1 21 2 0.25992008D+00 0.81774105D-01 0.65693270D+04 0.65693270D+04 0.65693270D+04 0.12287218D+01  1  2  4  1  6  1        2 -.873601077243D-04 0.100000000000D+01
-.132208893654D-01 0.000000000000D+00 -.125622982636D-02 0.130361239988D-01 0.000000000000D+00  6 2 22 9900012 -13 1 21 2 0.31938987D+00 0.81774105D-01 0.65693270D+04 0.65693270D+04 0.65693270D+04 0.12287218D+01  1  2  5  1  6  1        2 -.345021847539D-02 0.100000000000D+01
0.132242312796D-01 0.000000000000D+00 0.123002887489D-02 0.130361239988D-01 0.000000000000D+00  6 2 22 9900012 -13 1 21 2 0.25992008D+00 0.81774105D-01 0.65693270D+04 0.65693270D+04 0.65693270D+04 0.12287218D+01  1  2  6  1  6  1        2 0.543903151294D-02 0.100000000000D+01
-.371820825870D-03 0.000000000000D+00 -.367765117619D-04 0.130361239988D-01 0.000000000000D+00  6 21 22 9900012 -13 1 -2 2 0.31938987D+00 0.81774105D-01 0.65693270D+04 0.65693270D+04 0.65693270D+04 0.12287218D+01  1  2  5  3  6  1        2 -.247030882349D-04 0.100000000000D+01
  </mgrwgt>
  </event>
  <event>
  7     66 -.80203028E-06 0.27016858E+02 0.78161638E-02 0.12237359E+00
        2 -1    0    0  501    0 0.00000000E+00 0.00000000E+00 0.12099141E+04 0.12099141E+04 0.00000000E+00 0.0000E+00 0.9000E+01
       22 -1    0    0    0    0 0.00000000E+00 0.00000000E+00 -.43441369E+02 0.43441369E+02 0.00000000E+00 0.0000E+00 0.9000E+01
       24  2    1    2    0    0 0.53789914E+02 0.30022520E+01 0.12023836E+02 0.97332875E+02 0.80166998E+02 0.0000E+00 0.0000E+00
  9900012  1    3    3    0    0 0.19703422E+02 0.44085031E+01 -.12456708E+02 0.55342835E+02 0.50000000E+02 0.0000E+00 0.9000E+01
      -13  1    3    3    0    0 0.34086492E+02 -.14062512E+01 0.24480544E+02 0.41990041E+02 0.00000000E+00 0.0000E+00 0.9000E+01
        1  1    1    2  502    0 -.36301883E+02 0.51654648E+01 0.93749969E+03 0.93821649E+03 0.00000000E+00 0.0000E+00 0.9000E+01
       21  1    1    2  501  502 -.17488032E+02 -.81677168E+01 0.21694922E+03 0.21780612E+03 0.00000000E+00 0.0000E+00 0.9000E+01
#aMCatNLO 2  0  0  5  1 0.10727123D+02 0.00000000D+00  -5  6  0 0.00000000D+00 0.00000000D+00 0.00000000D+00 0.00000000D+00 0.00000000D+00
  <mgrwgt>
 -.4699245550D-03    2    2    0
 0.229260389095604D+03 0.000000000000000D+00 0.000000000000000D+00 0.229260389095604D+03
 0.229260389095604D+03 -.000000000000000D+00 -.000000000000000D+00 -.229260389095604D+03
 0.183598316805324D+03 0.198640094868914D+02 0.441746621209288D+01 -.175482902452398D+03
 0.526702035163893D+02 0.341325653456987D+02 -.140367960562024D+01 -.400892504911759D+02
 0.222252257869495D+03 -.539965748325902D+02 -.301378660647263D+01 0.215572152943573D+03
 0.000000000000000D+00 0.000000000000000D+00 -.000000000000000D+00 0.000000000000000D+00
 0.229260389095604D+03 0.000000000000000D+00 0.000000000000000D+00 0.229260389095604D+03
 0.229260389095604D+03 -.000000000000000D+00 -.000000000000000D+00 -.229260389095604D+03
 0.182968056782268D+03 0.197034223941873D+02 0.440850313933012D+01 -.174841785762746D+03
 0.525004777416679D+02 0.340864916871259D+02 -.140625117938299D+01 -.399053092355810D+02
 0.179601333196977D+03 -.363018825544020D+02 0.516546482119302D+01 0.175818458025086D+03
 0.434509104702949D+02 -.174880315269112D+02 -.816771678114014D+01 0.389286369732415D+02
-.179432793749D-04 0.000000000000D+00 0.000000000000D+00 0.386899426535D-04 0.000000000000D+00  6 2 22 9900012 -13 1 21 2 0.18614063D+00 0.66832876D-02 0.51845126D+04 0.51845126D+04 0.51845126D+04 0.12400774D+01  1  2 13  2  6  5        1 -.616430759008D-03 0.100000000000D+01
0.426455317163D-05 0.000000000000D+00 0.000000000000D+00 0.386899426535D-04 0.524494916092D-06  6 2 22 9900012 -13 1 21 2 0.18614063D+00 0.66832876D-02 0.51845126D+04 0.51845126D+04 0.51845126D+04 0.12400774D+01  1  2  1  2  6  5        1 0.146506203994D-03 0.100000000000D+01
  </mgrwgt>
  </event>
  <event>
  6     66 0.80203028E-06 0.91099593E+02 0.78161638E-02 0.10602021E+00
        2 -1    0    0  501    0 0.00000000E+00 0.00000000E+00 0.64673459E+03 0.64673459E+03 0.00000000E+00 0.0000E+00 0.9000E+01
       22 -1    0    0    0    0 0.00000000E+00 0.00000000E+00 -.10724965E+03 0.10724965E+03 0.00000000E+00 0.0000E+00 0.9000E+01
       24  2    1    2    0    0 0.14223212E+03 0.33661690E+02 -.27542290E+02 0.16842215E+03 0.79021239E+02 0.0000E+00 0.0000E+00
  9900012  1    3    3    0    0 0.11786654E+03 0.50344191E+01 -.16178687E+02 0.12914959E+03 0.50000000E+02 0.0000E+00 0.9000E+01
      -13  1    3    3    0    0 0.24365577E+02 0.28627271E+02 -.11363603E+02 0.39272553E+02 0.00000000E+00 0.0000E+00 0.9000E+01
        1  1    1    2  501    0 -.14223212E+03 -.33661690E+02 0.56702723E+03 0.58556210E+03 0.00000000E+00 0.0000E+00 0.9000E+01
#aMCatNLO 1  0  0  1  5 0.12418260D+03 0.00000000D+00  -5  6  0 0.00000000D+00 0.00000000D+00 0.00000000D+00 0.00000000D+00 0.00000000D+00
  <mgrwgt>
 0.6380716220D-04    6    2    0
 0.263366775443849D+03 0.000000000000000D+00 0.000000000000000D+00 0.263366775443849D+03
 0.263366775443849D+03 0.000000000000000D+00 0.000000000000000D+00 -.263366775443849D+03
 0.201439448554818D+03 0.117866543196312D+03 0.503441909155189D+01 -.155434822525172D+03
 0.678547603956381D+02 0.243655769358823D+02 0.286272710611414D+02 -.564895257594095D+02
 0.257439341937241D+03 -.142232120132194D+03 -.336616901526933D+02 0.211924348284582D+03
 0.000000000000000D+00 -.000000000000000D+00 0.000000000000000D+00 -.000000000000000D+00
 0.290159361007440D+03 0.000000000000000D+00 0.000000000000000D+00 0.290159361007440D+03
 0.318881495617636D+03 0.000000000000000D+00 0.000000000000000D+00 -.318881495617636D+03
 0.218186663390794D+03 0.144647970370961D+03 -.473293732659308D+01 -.155434822525172D+03
 0.702696613065661D+02 0.331809700574085D+02 0.254122412562506D+02 -.564895257594095D+02
 0.243161571383653D+03 -.110282709640304D+03 -.453138428773736D+02 0.211924348284582D+03
 0.774229605440621D+02 -.675462307880660D+02 0.246345389477160D+02 -.287221346101953D+02
0.544589953611D-05 0.000000000000D+00 0.000000000000D+00 0.343696293559D-05 0.000000000000D+00  6 2 22 9900012 -13 1 21 0 0.99497630D-01 0.16499946D-01 0.24318214D+05 0.24318214D+05 0.24318214D+05 0.11712584D+01  1  2  2  1  6  1        2 0.792772797606D-04 0.100000000000D+01
0.181784355031D-08 0.000000000000D+00 -.104568440785D-07 0.343696293559D-05 0.000000000000D+00  6 2 22 9900012 -13 1 21 2 0.99497630D-01 0.16499946D-01 0.24318214D+05 0.24318214D+05 0.24318214D+05 0.11712584D+01  1  2  3  1  6  1        2 0.363028761884D-07 0.100000000000D+01
-.758749059045D-06 0.000000000000D+00 0.000000000000D+00 0.343696293559D-05 0.000000000000D+00  6 2 22 9900012 -13 1 21 2 0.99497630D-01 0.16499946D-01 0.24318214D+05 0.24318214D+05 0.24318214D+05 0.11712584D+01  1  2 15  1  6  1        2 -.151524443035D-04 0.100000000000D+01
0.160154227941D-06 0.000000000000D+00 0.000000000000D+00 0.343696293559D-05 0.000000000000D+00  6 2 22 9900012 -13 1 21 2 0.13272620D+00 0.16499946D-01 0.37256868D+05 0.37256868D+05 0.37256868D+05 0.11542484D+01  1  2 12  1  6  1        2 0.224447348832D-05 0.100000000000D+01
-.134112537877D-06 0.000000000000D+00 0.000000000000D+00 0.343696293559D-05 0.000000000000D+00  6 2 22 9900012 -13 1 21 2 0.99497630D-01 0.16499946D-01 0.24318214D+05 0.24318214D+05 0.24318214D+05 0.11712584D+01  1  2  4  1  6  1        2 -.267826725630D-05 0.100000000000D+01
0.601293216417D-08 0.000000000000D+00 0.000000000000D+00 0.343696293559D-05 0.000000000000D+00  6 21 22 9900012 -13 1 -2 2 0.13272620D+00 0.16499946D-01 0.37256868D+05 0.37256868D+05 0.37256868D+05 0.11542484D+01  1  2 12  3  6  1        2 0.798176344013D-07 0.100000000000D+01
  </mgrwgt>
  </event>
  <event>
  6     66 0.80203028E-06 0.67283108E+02 0.78161638E-02 0.11477620E+00
        2 -1    0    0  501    0 0.00000000E+00 0.00000000E+00 0.69673497E+03 0.69673497E+03 0.00000000E+00 0.0000E+00 0.9000E+01
       22 -1    0    0    0    0 0.00000000E+00 0.00000000E+00 -.23086848E+03 0.23086848E+03 0.00000000E+00 0.0000E+00 0.9000E+01
       24  2    1    2    0    0 -.53060220E+02 -.77877576E+02 -.21052652E+03 0.24467753E+03 0.81641764E+02 0.0000E+00 0.0000E+00
  9900012  1    3    3    0    0 -.73833051E+01 -.50017234E+02 -.12423305E+03 0.14314359E+03 0.50000000E+02 0.0000E+00 0.9000E+01
      -13  1    3    3    0    0 -.45676915E+02 -.27860342E+02 -.86293467E+02 0.10153394E+03 0.00000000E+00 0.0000E+00 0.9000E+01
        1  1    1    2  501    0 0.53060220E+02 0.77877576E+02 0.67639301E+03 0.68292591E+03 0.00000000E+00 0.0000E+00 0.9000E+01
#aMCatNLO 1  0  0  5  1 0.11102359D+02 0.00000000D+00  -5  6  0 0.00000000D+00 0.00000000D+00 0.00000000D+00 0.00000000D+00 0.00000000D+00
  <mgrwgt>
 0.9776288775D-03    7    2    0
 0.401066255840862D+03 0.000000000000000D+00 0.000000000000000D+00 0.401066255840862D+03
 0.401066255840862D+03 -.000000000000000D+00 -.000000000000000D+00 -.401066255840862D+03
 0.237687039000618D+03 -.738330510111347D+01 -.500172337386736D+02 -.226801436599939D+03
 0.167534002656810D+03 -.456769145926625D+02 -.278603420350805D+02 -.158761024376876D+03
 0.396911470024295D+03 0.530602196937760D+02 0.778775757737542D+02 0.385562460976815D+03
 0.000000000000000D+00 0.000000000000000D+00 0.000000000000000D+00 0.000000000000000D+00
 0.401066255840862D+03 0.000000000000000D+00 0.000000000000000D+00 0.401066255840862D+03
 0.401066255840862D+03 -.000000000000000D+00 -.000000000000000D+00 -.401066255840862D+03
 0.237497413320825D+03 -.735723422544039D+01 -.499789689782290D+02 -.226611992397816D+03
 0.167397971866222D+03 -.456585386339709D+02 -.278333712625569D+02 -.158627495343321D+03
 0.245727137814807D+03 0.336595626183201D+02 0.372926322009038D+02 0.240537148246437D+03
 0.151509988679870D+03 0.193562102410912D+02 0.405197080398822D+02 0.144702339494701D+03
0.544218488858D-05 0.000000000000D+00 0.000000000000D+00 0.419404032744D-04 0.000000000000D+00  6 2 22 9900012 -13 1 21 0 0.10719000D+00 0.35518227D-01 0.11973356D+05 0.11973356D+05 0.11973356D+05 0.12013070D+01  1  2  2  2  6  5        1 0.219468051131D-04 0.100000000000D+01
0.102862217795D-06 0.000000000000D+00 -.104497114662D-07 0.419404032744D-04 0.000000000000D+00  6 2 22 9900012 -13 1 21 2 0.10719000D+00 0.35518227D-01 0.11973356D+05 0.11973356D+05 0.11973356D+05 0.12013070D+01  1  2  3  2  6  5        1 0.598634767153D-06 0.100000000000D+01
-.773877745768D-06 0.000000000000D+00 0.000000000000D+00 0.419404032744D-04 0.000000000000D+00  6 2 22 9900012 -13 1 21 2 0.10719000D+00 0.35518227D-01 0.11973356D+05 0.11973356D+05 0.11973356D+05 0.12013070D+01  1  2 15  2  6  5        1 -.450379288015D-05 0.100000000000D+01
0.217752938878D-03 0.000000000000D+00 0.000000000000D+00 0.419404032744D-04 0.000000000000D+00  6 2 22 9900012 -13 1 21 2 0.10719000D+00 0.35518227D-01 0.12066256D+05 0.12066256D+05 0.12066256D+05 0.12009664D+01  1  2 12  2  6  5        1 0.126692432998D-02 0.100000000000D+01
-.149966608381D-03 0.000000000000D+00 0.000000000000D+00 0.419404032744D-04 0.000000000000D+00  6 2 22 9900012 -13 1 21 2 0.10719000D+00 0.35518227D-01 0.11973356D+05 0.11973356D+05 0.11973356D+05 0.12013070D+01  1  2  4  2  6  5        1 -.872771631930D-03 0.100000000000D+01
-.217404054940D-03 0.000000000000D+00 0.000000000000D+00 0.419404032744D-04 0.000000000000D+00  6 2 22 9900012 -13 1 21 2 0.10719000D+00 0.35518227D-01 0.11973356D+05 0.11973356D+05 0.11973356D+05 0.12013070D+01  1  2  5  2  6  5        1 -.126524226870D-02 0.100000000000D+01
0.314561542644D-03 0.000000000000D+00 -.000000000000D+00 0.419404032744D-04 0.000000000000D+00  6 2 22 9900012 -13 1 21 2 0.10719000D+00 0.35518227D-01 0.11973356D+05 0.11973356D+05 0.11973356D+05 0.12013070D+01  1  2  6  2  6  5        1 0.183067680118D-02 0.100000000000D+01
  </mgrwgt>
  </event>
  <event>
  6     66 0.80203028E-06 0.49374118E+02 0.78161638E-02 0.11425262E+00
        2 -1    0    0  501    0 0.00000000E+00 0.00000000E+00 0.11903137E+04 0.11903137E+04 0.00000000E+00 0.0000E+00 0.9000E+01
       22 -1    0    0    0    0 0.00000000E+00 0.00000000E+00 -.27810353E+02 0.27810353E+02 0.00000000E+00 0.0000E+00 0.9000E+01
       24  2    1    2    0    0 -.16331385E+02 0.46594951E+02 0.72233505E+02 0.12673680E+03 0.91688244E+02 0.0000E+00 0.0000E+00
  9900012  1    3    3    0    0 -.36627572E+02 0.45574209E+02 0.73468239E+02 0.10637749E+03 0.50000000E+02 0.0000E+00 0.9000E+01
      -13  1    3    3    0    0 0.20296187E+02 0.10207416E+01 -.12347345E+01 0.20359315E+02 0.00000000E+00 0.0000E+00 0.9000E+01
        1  1    1    2  501    0 0.16331385E+02 -.46594951E+02 0.10902698E+04 0.10913873E+04 0.00000000E+00 0.0000E+00 0.9000E+01
#aMCatNLO 1  0  0  1  5 0.52270434D+01 0.00000000D+00  -5  6  0 0.00000000D+00 0.00000000D+00 0.00000000D+00 0.00000000D+00 0.00000000D+00
  <mgrwgt>
 0.8213336834D-04    7    2    0
 0.181942420277852D+03 0.000000000000000D+00 0.000000000000000D+00 0.181942420277852D+03
 0.181942420277852D+03 0.000000000000000D+00 0.000000000000000D+00 -.181942420277852D+03
 0.121395278931894D+03 -.366275716567119D+02 0.455742092493670D+02 -.939054108812679D+02
 0.720985075499186D+02 0.202961870685958D+02 0.102074158930287D+01 -.691752677480189D+02
 0.170391054073891D+03 0.163313845881161D+02 -.465949508386698D+02 0.163080678629287D+03
 0.000000000000000D+00 -.000000000000000D+00 -.000000000000000D+00 0.000000000000000D+00
 0.271577470731575D+03 0.000000000000000D+00 0.000000000000000D+00 0.271577470731575D+03
 0.194827578716347D+03 0.000000000000000D+00 0.000000000000000D+00 -.194827578716347D+03
 0.117430870418694D+03 -.170255741246733D+02 0.467109511810408D+02 -.939054108812679D+02
 0.764439288230811D+02 0.324880198268766D+02 0.172775971322824D+01 -.691752677480189D+02
 0.174962654190251D+03 0.446767837643870D+02 -.449511691903437D+02 0.163080678629287D+03
 0.975675960158957D+02 -.601392294665902D+02 -.348754170392527D+01 0.767498920152283D+02
0.130293691995D-05 0.000000000000D+00 0.000000000000D+00 0.108196568219D-06 0.000000000000D+00  6 2 22 9900012 -13 1 21 0 0.18312519D+00 0.42785159D-02 0.53749656D+04 0.53749656D+04 0.53749656D+04 0.12383252D+01  1  2  2  1  6  1        2 0.550699111243D-04 0.100000000000D+01
0.536186208044D-07 0.000000000000D+00 -.250181042189D-08 0.108196568219D-06 0.000000000000D+00  6 2 22 9900012 -13 1 21 2 0.18312519D+00 0.42785159D-02 0.53749656D+04 0.53749656D+04 0.53749656D+04 0.12383252D+01  1  2  3  1  6  1        2 0.347517009207D-05 0.100000000000D+01
-.190759004844D-06 0.000000000000D+00 0.000000000000D+00 0.108196568219D-06 0.000000000000D+00  6 2 22 9900012 -13 1 21 2 0.18312519D+00 0.42785159D-02 0.53749656D+04 0.53749656D+04 0.53749656D+04 0.12383252D+01  1  2 15  1  6  1        2 -.123636150740D-04 0.100000000000D+01
-.852025337109D-07 0.000000000000D+00 0.000000000000D+00 0.108196568219D-06 0.000000000000D+00  6 2 22 9900012 -13 1 21 2 0.18312519D+00 0.42785159D-02 0.53749656D+04 0.53749656D+04 0.53749656D+04 0.12383252D+01  1  2  4  1  6  1        2 -.552221024112D-05 0.100000000000D+01
-.104143693203D-05 0.000000000000D+00 -.401147580514D-06 0.108196568219D-06 0.000000000000D+00  6 2 22 9900012 -13 1 21 2 0.28058188D+00 0.42785159D-02 0.53749656D+04 0.53749656D+04 0.53749656D+04 0.12383252D+01  1  2  5  1  6  1        2 -.321167549937D-04 0.100000000000D+01
0.114108036810D-05 0.000000000000D+00 0.367208619728D-06 0.108196568219D-06 0.000000000000D+00  6 2 22 9900012 -13 1 21 2 0.18312519D+00 0.42785159D-02 0.53749656D+04 0.53749656D+04 0.53749656D+04 0.12383252D+01  1  2  6  1  6  1        2 0.739565529358D-04 0.100000000000D+01
-.370793684415D-07 0.000000000000D+00 -.200288724990D-07 0.108196568219D-06 0.000000000000D+00  6 21 22 9900012 -13 1 -2 2 0.28058188D+00 0.42785159D-02 0.53749656D+04 0.53749656D+04 0.53749656D+04 0.12383252D+01  1  2  5  3  6  1        2 -.365685501611D-06 0.100000000000D+01
  </mgrwgt>
  </event>
  <event>
  6     66 -.80203028E-06 0.13168201E+03 0.78161638E-02 0.10227457E+00
        2 -1    0    0  501    0 0.00000000E+00 0.00000000E+00 0.94157506E+03 0.94157506E+03 0.00000000E+00 0.0000E+00 0.9000E+01
       22 -1    0    0    0    0 0.00000000E+00 0.00000000E+00 -.60917460E+03 0.60917460E+03 0.00000000E+00 0.0000E+00 0.9000E+01
       24  2    1    2    0    0 0.16980272E+03 0.57472811E+02 -.58436351E+03 0.61662319E+03 0.81285624E+02 0.0000E+00 0.0000E+00
  9900012  1    3    3    0    0 0.91722153E+02 0.54073022E+02 -.31932724E+03 0.34030388E+03 0.50000000E+02 0.0000E+00 0.9000E+01
      -13  1    3    3    0    0 0.78080567E+02 0.33997894E+01 -.26503627E+03 0.27631930E+03 0.00000000E+00 0.0000E+00 0.9000E+01
        1  1    1    2  501    0 -.16980272E+03 -.57472811E+02 0.91676397E+03 0.93412647E+03 0.00000000E+00 0.0000E+00 0.9000E+01
#aMCatNLO 1  0  0  1  5 0.13029287D+03 0.00000000D+00  -5  6  0 0.00000000D+00 0.00000000D+00 0.00000000D+00 0.00000000D+00 0.00000000D+00
  <mgrwgt>
 -.3451654161D-04    7    2    0
 0.757353030012498D+03 0.000000000000000D+00 0.000000000000000D+00 0.757353030012498D+03
 0.757353030012498D+03 0.000000000000000D+00 0.000000000000000D+00 -.757353030012498D+03
 0.418477665479197D+03 0.917221525369720D+02 0.540730216683706D+02 -.401605168749799D+03
 0.341056432155197D+03 0.780805668597411D+02 0.339978943352254D+01 -.331980957925454D+03
 0.755171962390603D+03 -.169802719396713D+03 -.574728111018932D+02 0.733586126675253D+03
 0.000000000000000D+00 -.000000000000000D+00 -.000000000000000D+00 0.000000000000000D+00
 0.226008805232965D+04 0.000000000000000D+00 0.000000000000000D+00 0.226008805232965D+04
 0.762948162869070D+03 0.000000000000000D+00 0.000000000000000D+00 -.762948162869070D+03
 0.428956967519218D+03 0.118573983407660D+03 0.784702419747061D+02 -.401605168749799D+03
 0.347462257548249D+03 0.998969839464606D+02 0.232218990141630D+02 -.331980957925454D+03
 0.743849455779480D+03 -.122304696511074D+03 -.143167323213846D+02 0.733586126675253D+03
 0.150276753435177D+04 -.961662708430460D+02 -.873754086674845D+02 0.149713988946058D+04
0.451757587189D-04 0.000000000000D+00 0.000000000000D+00 0.124169568080D-03 0.000000000000D+00  6 2 22 9900012 -13 1 21 0 0.14485770D+00 0.93719169D-01 0.35165640D+05 0.35165640D+05 0.35165640D+05 0.11565061D+01  1  2  2  1  6  1        2 0.243512890430D-04 0.100000000000D+01
0.397652222130D-06 0.000000000000D+00 -.867434042656D-07 0.124169568080D-03 0.000000000000D+00  6 2 22 9900012 -13 1 21 2 0.14485770D+00 0.93719169D-01 0.35165640D+05 0.35165640D+05 0.35165640D+05 0.11565061D+01  1  2  3  1  6  1        2 0.286692147851D-06 0.100000000000D+01
-.684089564195D-05 0.000000000000D+00 0.000000000000D+00 0.124169568080D-03 0.000000000000D+00  6 2 22 9900012 -13 1 21 2 0.14485770D+00 0.93719169D-01 0.35165640D+05 0.35165640D+05 0.35165640D+05 0.11565061D+01  1  2 15  1  6  1        2 -.493202591527D-05 0.100000000000D+01
0.219054748993D-03 0.000000000000D+00 0.000000000000D+00 0.124169568080D-03 0.000000000000D+00  6 2 22 9900012 -13 1 21 2 0.43547702D+00 0.93719169D-01 0.64098970D+05 0.64098970D+05 0.64098970D+05 0.11336755D+01  1  2 12  1  6  1        2 0.134929543048D-04 0.100000000000D+01
-.997700974596D-03 0.000000000000D+00 -.115591620781D-04 0.124169568080D-03 0.000000000000D+00  6 2 22 9900012 -13 1 21 2 0.43274976D+00 0.93719169D-01 0.35165640D+05 0.35165640D+05 0.35165640D+05 0.11565061D+01  1  2  5  1  6  1        2 -.668255984685D-04 0.100000000000D+01
0.274444487554D-04 0.000000000000D+00 0.000000000000D+00 0.124169568080D-03 0.000000000000D+00  6 21 22 9900012 -13 1 -2 2 0.43547702D+00 0.93719169D-01 0.64098970D+05 0.64098970D+05 0.64098970D+05 0.11336755D+01  1  2 12  3  6  1        2 0.214836561134D-06 0.100000000000D+01
-.123553660384D-03 0.000000000000D+00 -.143821699748D-05 0.124169568080D-03 0.000000000000D+00  6 21 22 9900012 -13 1 -2 2 0.43274976D+00 0.93719169D-01 0.35165640D+05 0.35165640D+05 0.35165640D+05 0.11565061D+01  1  2  5  3  6  1        2 -.110468928205D-05 0.100000000000D+01
  </mgrwgt>
  </event>
  <event>
  6     66 0.80203028E-06 0.75653841E+02 0.78161638E-02 0.11398385E+00
        2 -1    0    0  501    0 0.00000000E+00 0.00000000E+00 0.21252195E+04 0.21252195E+04 0.00000000E+00 0.0000E+00 0.9000E+01
       22 -1    0    0    0    0 0.00000000E+00 0.00000000E+00 -.19051954E+03 0.19051954E+03 0.00000000E+00 0.0000E+00 0.9000E+01
       24  2    1    2    0    0 -.10391987E+03 -.12735716E+02 -.16644518E+03 0.21198706E+03 0.79202140E+02 0.0000E+00 0.0000E+00
  9900012  1    3    3    0    0 -.66835583E+02 0.20894026E+01 -.14323694E+03 0.16579560E+03 0.50000000E+02 0.0000E+00 0.9000E+01
      -13  1    3    3    0    0 -.37084288E+02 -.14825119E+02 -.23208236E+02 0.46191458E+02 0.00000000E+00 0.0000E+00 0.9000E+01
        1  1    1    2  501    0 0.10391987E+03 0.12735716E+02 0.21011451E+04 0.21037519E+04 0.00000000E+00 0.0000E+00 0.9000E+01
#aMCatNLO 1  0  0  1  5 0.20897451D+01 0.00000000D+00  -5  6  0 0.00000000D+00 0.00000000D+00 0.00000000D+00 0.00000000D+00 0.00000000D+00
  <mgrwgt>
 0.1835475791D-02   11    2    0
 0.636314265098253D+03 0.000000000000000D+00 0.000000000000000D+00 0.636314265098253D+03
 0.636314265098253D+03 0.000000000000000D+00 0.000000000000000D+00 -.636314265098253D+03
 0.519444462435520D+03 -.668355829310887D+02 0.208940261474028D+01 -.512690148926134D+03
 0.119334378501774D+03 -.370842884001746D+02 -.148251187215106D+02 -.112452947054093D+03
 0.633849689259213D+03 0.103919871331263D+03 0.127357161067703D+02 0.625143095980226D+03
 0.000000000000000D+00 -.000000000000000D+00 0.000000000000000D+00 0.000000000000000D+00
 0.798122437059212D+03 0.000000000000000D+00 0.000000000000000D+00 0.798122437059212D+03
 0.636321869852870D+03 0.000000000000000D+00 0.000000000000000D+00 -.636321869852870D+03
 0.519342398434048D+03 -.660471458421710D+02 0.176423678441530D+01 -.512690148926134D+03
 0.119287526804085D+03 -.369031748652826D+02 -.148998132453781D+02 -.112452947054093D+03
 0.634000320621278D+03 0.104882166878723D+03 0.123388478783397D+02 0.625143095980226D+03
 0.161814061052672D+03 -.193184617126936D+01 0.796728582623153D+00 0.161800567206342D+03
0.555067703912D-05 0.000000000000D+00 0.000000000000D+00 0.511113825423D-03 0.000000000000D+00  6 2 22 9900012 -13 1 21 0 0.32695684D+00 0.29310699D-01 0.13010807D+05 0.13010807D+05 0.13010807D+05 0.11976594D+01  1  2  2  1  6  1        2 0.498540604777D-05 0.100000000000D+01
0.719662279322D-07 0.000000000000D+00 -.106580306785D-07 0.511113825423D-03 0.000000000000D+00  6 2 22 9900012 -13 1 21 2 0.32695684D+00 0.29310699D-01 0.13010807D+05 0.13010807D+05 0.13010807D+05 0.11976594D+01  1  2  3  1  6  1        2 0.927149989454D-07 0.100000000000D+01
-.793817152986D-06 0.000000000000D+00 0.000000000000D+00 0.511113825423D-03 0.000000000000D+00  6 2 22 9900012 -13 1 21 2 0.32695684D+00 0.29310699D-01 0.13010807D+05 0.13010807D+05 0.13010807D+05 0.11976594D+01  1  2 15  1  6  1        2 -.102268464830D-05 0.100000000000D+01
0.352716051613D-04 0.000000000000D+00 0.000000000000D+00 0.511113825423D-03 0.000000000000D+00  6 2 22 9900012 -13 1 21 2 0.41010350D+00 0.29310699D-01 0.13265292D+05 0.13265292D+05 0.13265292D+05 0.11968138D+01  1  2 12  1  6  1        2 0.228725575075D-04 0.100000000000D+01
-.182055317922D-01 0.000000000000D+00 0.000000000000D+00 0.511113825423D-03 0.000000000000D+00  6 2 22 9900012 -13 1 21 2 0.32695684D+00 0.29310699D-01 0.13010807D+05 0.13010807D+05 0.13010807D+05 0.11976594D+01  1  2  4  1  6  1        2 -.234544161813D-01 0.100000000000D+01
-.216536020975D-01 0.000000000000D+00 -.226512318535D-05 0.511113825423D-03 0.000000000000D+00  6 2 22 9900012 -13 1 21 2 0.41009988D+00 0.29310699D-01 0.13010807D+05 0.13010807D+05 0.13010807D+05 0.11976594D+01  1  2  5  1  6  1        2 -.140666398450D-01 0.100000000000D+01
0.211100077891D-01 0.000000000000D+00 0.220820115258D-05 0.511113825423D-03 0.000000000000D+00  6 2 22 9900012 -13 1 21 2 0.32695684D+00 0.29310699D-01 0.13010807D+05 0.13010807D+05 0.13010807D+05 0.11976594D+01  1  2  6  1  6  1        2 0.271962892338D-01 0.100000000000D+01
0.187119576362D-01 0.000000000000D+00 0.000000000000D+00 0.511113825423D-03 0.794165899312D-03  6 2 22 9900012 -13 1 21 2 0.41009860D+00 0.29311049D-01 0.13265292D+05 0.13265292D+05 0.13265292D+05 0.11968138D+01  1  2 11  1  6  1        2 0.121344194040D-01 0.100000000000D+01
0.110952250886D-05 0.000000000000D+00 0.000000000000D+00 0.511113825423D-03 0.000000000000D+00  6 21 22 9900012 -13 1 -2 2 0.41010350D+00 0.29310699D-01 0.13265292D+05 0.13265292D+05 0.13265292D+05 0.11968138D+01  1  2 12  3  6  1        2 0.113048962097D-06 0.100000000000D+01
-.681095176572D-03 0.000000000000D+00 -.712508482248D-07 0.511113825423D-03 0.000000000000D+00  6 21 22 9900012 -13 1 -2 2 0.41009988D+00 0.29310699D-01 0.13010807D+05 0.13010807D+05 0.13010807D+05 0.11976594D+01  1  2  5  3  6  1        2 -.696105166367D-04 0.100000000000D+01
0.671211167897D-03 0.000000000000D+00 0.000000000000D+00 0.511113825423D-03 0.284737571211D-04  6 21 22 9900012 -13 1 -2 2 0.41009860D+00 0.29311049D-01 0.13265292D+05 0.13265292D+05 0.13265292D+05 0.11968138D+01  1  2 11  3  6  1        2 0.683926533382D-04 0.100000000000D+01
  </mgrwgt>
  </event>
  <event>
  6     66 0.80203028E-06 0.55283924E+02 0.78161638E-02 0.11290591E+00
        2 -1    0    0  501    0 0.00000000E+00 0.00000000E+00 0.58061185E+03 0.58061185E+03 0.00000000E+00 0.0000E+00 0.9000E+01
       22 -1    0    0    0    0 0.00000000E+00 0.00000000E+00 -.40746394E+02 0.40746394E+02 0.00000000E+00 0.0000E+00 0.9000E+01
       24  2    1    2    0    0 0.60441264E+01 -.54952532E+02 0.19459197E+02 0.98023756E+02 0.78572795E+02 0.0000E+00 0.0000E+00
  9900012  1    3    3    0    0 -.18026569E+02 -.28783016E+02 0.10400896E+02 0.61331866E+02 0.50000000E+02 0.0000E+00 0.9000E+01
      -13  1    3    3    0    0 0.24070695E+02 -.26169516E+02 0.90583013E+01 0.36691890E+02 0.00000000E+00 0.0000E+00 0.9000E+01
        1  1    1    2  501    0 -.60441264E+01 0.54952532E+02 0.52040626E+03 0.52333449E+03 0.00000000E+00 0.0000E+00 0.9000E+01
#aMCatNLO 1  0  0  1  5 0.56520952D+02 0.00000000D+00  -5  6  0 0.00000000D+00 0.00000000D+00 0.00000000D+00 0.00000000D+00 0.00000000D+00
  <mgrwgt>
 0.1237095051D-03    4    2    0
 0.153811050701859D+03 0.000000000000000D+00 0.000000000000000D+00 0.153811050701859D+03
 0.153811050701859D+03 0.000000000000000D+00 0.000000000000000D+00 -.153811050701859D+03
 0.105629524885633D+03 -.180265687778975D+02 -.287830156480900D+02 -.866266549963809D+02
 0.582160521089210D+02 0.240706951469480D+02 -.261695162989519D+02 -.460962772354796D+02
 0.143776524409163D+03 -.604412636905045D+01 0.549525319470420D+02 0.132722932231861D+03
 0.000000000000000D+00 -.000000000000000D+00 -.000000000000000D+00 -.000000000000000D+00
 0.194074896475105D+03 0.000000000000000D+00 0.000000000000000D+00 0.194074896475105D+03
 0.197440541443311D+03 0.000000000000000D+00 0.000000000000000D+00 -.197440541443311D+03
 0.101129543807647D+03 0.240213044440464D+01 -.147389634713169D+02 -.866266549963809D+02
 0.611332922134004D+02 0.358629317484612D+02 -.180627453141549D+02 -.460962772354796D+02
 0.154333067773293D+03 0.234104036424620D+02 0.752015429987302D+02 0.132722932231861D+03
 0.749195341240755D+02 -.616754658353279D+02 -.423998342132584D+02 -.336564496820676D+01
0.251809598043D-05 0.000000000000D+00 0.000000000000D+00 0.255374254602D-05 0.000000000000D+00  6 2 22 9900012 -13 1 21 0 0.89324901D-01 0.62686760D-02 0.57216838D+04 0.57216838D+04 0.57216838D+04 0.12353080D+01  1  2  2  1  6  1        2 0.150956250325D-03 0.100000000000D+01
0.720856216900D-07 0.000000000000D+00 -.483507579737D-08 0.255374254602D-05 0.000000000000D+00  6 2 22 9900012 -13 1 21 2 0.89324901D-01 0.62686760D-02 0.57216838D+04 0.57216838D+04 0.57216838D+04 0.12353080D+01  1  2  3  1  6  1        2 0.659444120008D-05 0.100000000000D+01
-.344390747097D-06 0.000000000000D+00 0.000000000000D+00 0.255374254602D-05 0.000000000000D+00  6 2 22 9900012 -13 1 21 2 0.89324901D-01 0.62686760D-02 0.57216838D+04 0.57216838D+04 0.57216838D+04 0.12353080D+01  1  2 15  1  6  1        2 -.315050973875D-04 0.100000000000D+01
-.255364218965D-07 0.000000000000D+00 0.000000000000D+00 0.255374254602D-05 0.000000000000D+00  6 2 22 9900012 -13 1 21 2 0.89324901D-01 0.62686760D-02 0.57216838D+04 0.57216838D+04 0.57216838D+04 0.12353080D+01  1  2  4  1  6  1        2 -.233608906615D-05 0.100000000000D+01
  </mgrwgt>
  </event>
  <event>
  6     66 0.80203028E-06 0.59928150E+02 0.78161638E-02 0.12114103E+00
        2 -1    0    0  501    0 0.00000000E+00 0.00000000E+00 0.10786759E+04 0.10786759E+04 0.00000000E+00 0.0000E+00 0.9000E+01
       22 -1    0    0    0    0 0.00000000E+00 0.00000000E+00 -.30426572E+02 0.30426572E+02 0.00000000E+00 0.0000E+00 0.9000E+01
       24  2    1    2    0    0 -.57998144E+02 0.15086365E+02 0.54940446E+02 0.11398744E+03 0.79895567E+02 0.0000E+00 0.0000E+00
  9900012  1    3    3    0    0 -.14751032E+02 -.50222742E+00 0.18474302E+02 0.55309538E+02 0.50000000E+02 0.0000E+00 0.9000E+01
      -13  1    3    3    0    0 -.43247113E+02 0.15588592E+02 0.36466145E+02 0.58677906E+02 0.00000000E+00 0.0000E+00 0.9000E+01
        1  1    1    2  501    0 0.57998144E+02 -.15086365E+02 0.99330885E+03 0.99511500E+03 0.00000000E+00 0.0000E+00 0.9000E+01
#aMCatNLO 1  0  0  5  1 0.16451540D+02 0.00000000D+00  -5  6  0 0.00000000D+00 0.00000000D+00 0.00000000D+00 0.00000000D+00 0.00000000D+00
  <mgrwgt>
 0.2513682436D-03    5    2    0
 0.181164038160877D+03 0.000000000000000D+00 0.000000000000000D+00 0.181164038160877D+03
 0.181164038160877D+03 -.000000000000000D+00 -.000000000000000D+00 -.181164038160877D+03
 0.115857071603280D+03 -.147510318149204D+02 -.502227422593030D+00 -.103465046602700D+03
 0.741156982208219D+02 -.432471126159854D+02 0.155885920040956D+02 -.581362173904535D+02
 0.172355306497651D+03 0.579981444309058D+02 -.150863645815025D+02 0.161601263993153D+03
 0.000000000000000D+00 0.000000000000000D+00 0.000000000000000D+00 -.000000000000000D+00
 0.181164038160877D+03 0.000000000000000D+00 0.000000000000000D+00 0.181164038160877D+03
 0.181164038160877D+03 -.000000000000000D+00 -.000000000000000D+00 -.181164038160877D+03
 0.111503412865744D+03 -.130762245014604D+02 -.937875045160070D+00 -.987985011217054D+02
 0.711019279950194D+02 -.421773948811839D+02 0.153103391064405D+02 -.551556437918315D+02
 0.170096045378683D+03 0.501348015563212D+02 -.131158701127702D+02 0.162009691924775D+03
 0.962669008230630D+01 0.511881782632305D+01 -.125659394851019D+01 -.805554701123762D+01
0.261124744404D-05 0.000000000000D+00 0.000000000000D+00 0.124652311317D-04 0.000000000000D+00  6 2 22 9900012 -13 1 21 0 0.16595013D+00 0.46810110D-02 0.62435230D+04 0.62435230D+04 0.62435230D+04 0.12311341D+01  1  2  2  2  6  5        1 0.112975728281D-03 0.100000000000D+01
0.704517785496D-07 0.000000000000D+00 -.501393887117D-08 0.124652311317D-04 0.000000000000D+00  6 2 22 9900012 -13 1 21 2 0.16595013D+00 0.46810110D-02 0.62435230D+04 0.62435230D+04 0.62435230D+04 0.12311341D+01  1  2  3  2  6  5        1 0.461997684885D-05 0.100000000000D+01
-.363791902240D-06 0.000000000000D+00 0.000000000000D+00 0.124652311317D-04 0.000000000000D+00  6 2 22 9900012 -13 1 21 2 0.16595013D+00 0.46810110D-02 0.62435230D+04 0.62435230D+04 0.62435230D+04 0.12311341D+01  1  2 15  2  6  5        1 -.238561779525D-04 0.100000000000D+01
0.244826680289D-05 0.000000000000D+00 0.000000000000D+00 0.124652311317D-04 0.000000000000D+00  6 2 22 9900012 -13 1 21 2 0.16595013D+00 0.46810110D-02 0.59023265D+04 0.59023265D+04 0.59023265D+04 0.12338165D+01  1  2 12  2  6  5        1 0.160747033116D-03 0.100000000000D+01
-.475523927842D-07 0.000000000000D+00 0.000000000000D+00 0.124652311317D-04 0.000000000000D+00  6 2 22 9900012 -13 1 21 2 0.16595013D+00 0.46810110D-02 0.62435230D+04 0.62435230D+04 0.62435230D+04 0.12311341D+01  1  2  4  2  6  5        1 -.311831664570D-05 0.100000000000D+01
  </mgrwgt>
  </event>
  <event>
  6     66 0.80203028E-06 0.38601051E+02 0.78161638E-02 0.12289570E+00
        2 -1    0    0  501    0 0.00000000E+00 0.00000000E+00 0.23231433E+04 0.23231433E+04 0.00000000E+00 0.0000E+00 0.9000E+01
       22 -1    0    0    0    0 0.00000000E+00 0.00000000E+00 -.28326007E+01 0.28326007E+01 0.00000000E+00 0.0000E+00 0.9000E+01
       24  2    1    2    0    0 0.82140068E+00 0.38592311E+02 0.76648164E+03 0.77166744E+03 0.80538777E+02 0.0000E+00 0.0000E+00
  9900012  1    3    3    0    0 0.95624731E+01 0.12620171E+02 0.31343017E+03 0.31778795E+03 0.50000000E+02 0.0000E+00 0.9000E+01
      -13  1    3    3    0    0 -.87410724E+01 0.25972140E+02 0.45305147E+03 0.45387949E+03 0.00000000E+00 0.0000E+00 0.9000E+01
        1  1    1    2  501    0 -.82140068E+00 -.38592311E+02 0.15538290E+04 0.15543084E+04 0.00000000E+00 0.0000E+00 0.9000E+01
#aMCatNLO 1  0  0  1  5 0.24195937D+02 0.00000000D+00  -5  6  0 0.00000000D+00 0.00000000D+00 0.00000000D+00 0.00000000D+00 0.00000000D+00
  <mgrwgt>
 0.4073221215D-03    9    2    0
 0.811205107823181D+02 0.000000000000000D+00 0.000000000000000D+00 0.811205107823181D+02
 0.811205107823181D+02 0.000000000000000D+00 0.000000000000000D+00 -.811205107823181D+02
 0.734199995615977D+02 0.956247312762527D+01 0.126201706581295D+02 -.513788549489782D+02
 0.276908147413572D+02 -.874107244345487D+01 0.259721402723084D+02 0.397778873923401D+01
 0.611302072616812D+02 -.821400684170401D+00 -.385923109304379D+02 0.474010662097442D+02
 0.000000000000000D+00 -.000000000000000D+00 -.000000000000000D+00 0.000000000000000D+00
 0.980926244634463D+02 0.000000000000000D+00 0.000000000000000D+00 0.980926244634463D+02
 0.880226190850942D+02 0.000000000000000D+00 0.000000000000000D+00 -.880226190850942D+02
 0.755920176959223D+02 0.184199893035594D+02 0.153320056590533D+02 -.513788549489782D+02
 0.278114581654715D+02 -.544192725287771D+01 0.269822132118583D+02 0.397778873923401D+01
 0.600963718425814D+02 0.638450394775940D+01 -.363861366479364D+02 0.474010662097442D+02
 0.226153958445653D+02 -.193625659984411D+02 -.592808222297529D+01 0.100700053783521D+02
0.815247334519D-06 0.000000000000D+00 0.000000000000D+00 0.289122716611D-06 0.000000000000D+00  6 2 22 9900012 -13 1 21 0 0.35740666D+00 0.43578473D-03 0.35077119D+04 0.35077119D+04 0.35077119D+04 0.12595575D+01  1  2  2  1  6  1        2 0.184810576194D-03 0.100000000000D+01
0.102323068213D-07 0.000000000000D+00 -.156538221205D-08 0.289122716611D-06 0.000000000000D+00  6 2 22 9900012 -13 1 21 2 0.35740666D+00 0.43578473D-03 0.35077119D+04 0.35077119D+04 0.35077119D+04 0.12595575D+01  1  2  3  1  6  1        2 0.367999299019D-05 0.100000000000D+01
-.115871067600D-06 0.000000000000D+00 0.000000000000D+00 0.289122716611D-06 0.000000000000D+00  6 2 22 9900012 -13 1 21 2 0.35740666D+00 0.43578473D-03 0.35077119D+04 0.35077119D+04 0.35077119D+04 0.12595575D+01  1  2 15  1  6  1        2 -.416723935255D-04 0.100000000000D+01
0.478356755055D-06 0.000000000000D+00 0.000000000000D+00 0.289122716611D-06 0.000000000000D+00  6 2 22 9900012 -13 1 21 2 0.46895581D+00 0.43578473D-03 0.49115029D+04 0.49115029D+04 0.49115029D+04 0.12427200D+01  1  2 12  1  6  1        2 0.662743367745D-04 0.100000000000D+01
-.802530119695D-07 0.000000000000D+00 0.000000000000D+00 0.289122716611D-06 0.000000000000D+00  6 2 22 9900012 -13 1 21 2 0.35740666D+00 0.43578473D-03 0.35077119D+04 0.35077119D+04 0.35077119D+04 0.12595575D+01  1  2  4  1  6  1        2 -.288625553012D-04 0.100000000000D+01
-.111151833724D-05 0.000000000000D+00 -.329357802612D-06 0.289122716611D-06 0.000000000000D+00  6 2 22 9900012 -13 1 21 2 0.44404796D+00 0.43578473D-03 0.35077119D+04 0.35077119D+04 0.35077119D+04 0.12595575D+01  1  2  5  1  6  1        2 -.194754176528D-03 0.100000000000D+01
0.116311016353D-05 0.000000000000D+00 0.321748515381D-06 0.289122716611D-06 0.000000000000D+00  6 2 22 9900012 -13 1 21 2 0.35740666D+00 0.43578473D-03 0.35077119D+04 0.35077119D+04 0.35077119D+04 0.12595575D+01  1  2  6  1  6  1        2 0.418306186802D-03 0.100000000000D+01
0.172051515355D-07 0.000000000000D+00 0.000000000000D+00 0.289122716611D-06 0.000000000000D+00  6 21 22 9900012 -13 1 -2 2 0.46895581D+00 0.43578473D-03 0.49115029D+04 0.49115029D+04 0.49115029D+04 0.12427200D+01  1  2 12  3  6  1        2 0.315309058282D-06 0.100000000000D+01
-.294910848778D-07 0.000000000000D+00 -.100310311414D-07 0.289122716611D-06 0.000000000000D+00  6 21 22 9900012 -13 1 -2 2 0.44404796D+00 0.43578473D-03 0.35077119D+04 0.35077119D+04 0.35077119D+04 0.12595575D+01  1  2  5  3  6  1        2 -.775154961940D-06 0.100000000000D+01
  </mgrwgt>
  </event>
  <event>
  6     66 0.80203028E-06 0.45141188E+02 0.78161638E-02 0.11835015E+00
        2 -1    0    0  501    0 0.00000000E+00 0.00000000E+00 0.36590394E+02 0.36590394E+02 0.00000000E+00 0.0000E+00 0.9000E+01
       22 -1    0    0    0    0 0.00000000E+00 0.00000000E+00 -.68719927E+03 0.68719927E+03 0.00000000E+00 0.0000E+00 0.9000E+01
       24  2    1    2    0    0 0.52327165E+02 -.25559987E+02 -.65775933E+03 0.66511622E+03 0.79629150E+02 0.0000E+00 0.0000E+00
  9900012  1    3    3    0    0 0.12889535E+02 -.99647601E+01 -.45076549E+03 0.45382262E+03 0.50000000E+02 0.0000E+00 0.9000E+01
      -13  1    3    3    0    0 0.39437630E+02 -.15595227E+02 -.20699383E+03 0.21129360E+03 0.00000000E+00 0.0000E+00 0.9000E+01
        1  1    1    2  501    0 -.52327165E+02 0.25559987E+02 0.71504473E+01 0.58673452E+02 0.00000000E+00 0.0000E+00 0.9000E+01
#aMCatNLO 1  0  0  1  5 0.33388331D+02 0.00000000D+00  -5  6  0 0.00000000D+00 0.00000000D+00 0.00000000D+00 0.00000000D+00 0.00000000D+00
  <mgrwgt>
 0.9186283458D-04    9    2    0
 0.158571409746939D+03 0.000000000000000D+00 0.000000000000000D+00 0.158571409746939D+03
 0.158571409746939D+03 0.000000000000000D+00 0.000000000000000D+00 -.158571409746939D+03
 0.110991279536264D+03 0.128895351166656D+02 -.996476005767828D+01 -.977426599523777D+02
 0.575768905612862D+02 0.394376298076943D+02 -.155952270095749D+02 -.389430427210999D+02
 0.148574649396328D+03 -.523271649243599D+02 0.255599870672532D+02 0.136685702673478D+03
 0.000000000000000D+00 -.000000000000000D+00 0.000000000000000D+00 0.000000000000000D+00
 0.188764283966596D+03 0.000000000000000D+00 0.000000000000000D+00 0.188764283966596D+03
 0.166618017039657D+03 0.000000000000000D+00 0.000000000000000D+00 -.166618017039657D+03
 0.112983320852816D+03 0.213257178742520D+02 -.160255100858626D+02 -.977426599523777D+02
 0.616482516994006D+02 0.439283403063989D+02 -.188214579440714D+02 -.389430427210999D+02
 0.143878508064098D+03 -.413116824541002D+02 0.176462080974871D+02 0.136685702673478D+03
 0.368722203899389D+02 -.239423757265507D+02 0.172007599324469D+02 0.221462669269390D+02
0.218558331265D-05 0.000000000000D+00 0.000000000000D+00 0.630550621289D-05 0.000000000000D+00  6 2 22 9900012 -13 1 21 0 0.56292913D-02 0.10572297D+00 0.58700654D+04 0.58700654D+04 0.58700654D+04 0.12340790D+01  1  2  2  1  6  1        2 0.365809626849D-04 0.100000000000D+01
0.519164309382D-07 0.000000000000D+00 -.419660769895D-08 0.630550621289D-05 0.000000000000D+00  6 2 22 9900012 -13 1 21 2 0.56292913D-02 0.10572297D+00 0.58700654D+04 0.58700654D+04 0.58700654D+04 0.12340790D+01  1  2  3  1  6  1        2 0.132336166674D-05 0.100000000000D+01
-.315228909092D-06 0.000000000000D+00 0.000000000000D+00 0.630550621289D-05 0.000000000000D+00  6 2 22 9900012 -13 1 21 2 0.56292913D-02 0.10572297D+00 0.58700654D+04 0.58700654D+04 0.58700654D+04 0.12340790D+01  1  2 15  1  6  1        2 -.803525679637D-05 0.100000000000D+01
0.234250858478D-05 0.000000000000D+00 0.000000000000D+00 0.630550621289D-05 0.000000000000D+00  6 2 22 9900012 -13 1 21 2 0.70411847D-02 0.10572297D+00 0.79981598D+04 0.79981598D+04 0.79981598D+04 0.12195212D+01  1  2 12  1  6  1        2 0.450261468928D-04 0.100000000000D+01
-.246467599494D-06 0.000000000000D+00 0.000000000000D+00 0.630550621289D-05 0.000000000000D+00  6 2 22 9900012 -13 1 21 2 0.56292913D-02 0.10572297D+00 0.58700654D+04 0.58700654D+04 0.58700654D+04 0.12340790D+01  1  2  4  1  6  1        2 -.628251533028D-05 0.100000000000D+01
-.412625578678D-05 0.000000000000D+00 -.133455324386D-05 0.630550621289D-05 0.000000000000D+00  6 2 22 9900012 -13 1 21 2 0.70368700D-02 0.10572297D+00 0.58700654D+04 0.58700654D+04 0.58700654D+04 0.12340790D+01  1  2  5  1  6  1        2 -.792485598719D-04 0.100000000000D+01
0.434792795829D-05 0.000000000000D+00 0.130199277322D-05 0.630550621289D-05 0.000000000000D+00  6 2 22 9900012 -13 1 21 2 0.56292913D-02 0.10572297D+00 0.58700654D+04 0.58700654D+04 0.58700654D+04 0.12340790D+01  1  2  6  1  6  1        2 0.110829675418D-03 0.100000000000D+01
0.730055492883D-07 0.000000000000D+00 0.000000000000D+00 0.630550621289D-05 0.000000000000D+00  6 21 22 9900012 -13 1 -2 2 0.70411847D-02 0.10572297D+00 0.79981598D+04 0.79981598D+04 0.79981598D+04 0.12195212D+01  1  2 12  3  6  1        2 0.165029143909D-04 0.100000000000D+01
-.109809308812D-06 0.000000000000D+00 -.415064335036D-07 0.630550621289D-05 0.000000000000D+00  6 21 22 9900012 -13 1 -2 2 0.70368700D-02 0.10572297D+00 0.58700654D+04 0.58700654D+04 0.58700654D+04 0.12340790D+01  1  2  5  3  6  1        2 -.248338944702D-04 0.100000000000D+01
  </mgrwgt>
  </event>
  <event>
  6     66 0.80203028E-06 0.23817980E+02 0.78161638E-02 0.12737576E+00
        2 -1    0    0  501    0 0.00000000E+00 0.00000000E+00 0.13173265E+03 0.13173265E+03 0.00000000E+00 0.0000E+00 0.9000E+01
       22 -1    0    0    0    0 0.00000000E+00 0.00000000E+00 -.77291453E+02 0.77291453E+02 0.00000000E+00 0.0000E+00 0.9000E+01
       24  2    1    2    0    0 0.28320188E+01 -.29264654E+02 -.51153720E+02 0.99412394E+02 0.80010503E+02 0.0000E+00 0.0000E+00
  9900012  1    3    3    0    0 0.10407708E+02 -.34395469E+01 -.51340719E+02 0.72498416E+02 0.50000000E+02 0.0000E+00 0.9000E+01
      -13  1    3    3    0    0 -.75756897E+01 -.25825107E+02 0.18699876E+00 0.26913978E+02 0.00000000E+00 0.0000E+00 0.9000E+01
        1  1    1    2  501    0 -.28320188E+01 0.29264654E+02 0.10559492E+03 0.10961171E+03 0.00000000E+00 0.0000E+00 0.9000E+01
#aMCatNLO 1  0  0  1  5 0.54212279D+01 0.00000000D+00  -5  6  0 0.00000000D+00 0.00000000D+00 0.00000000D+00 0.00000000D+00 0.00000000D+00
  <mgrwgt>
 0.1418697712D-03    8    2    0
 0.100904946290633D+03 0.000000000000000D+00 0.000000000000000D+00 0.100904946290633D+03
 0.100904946290633D+03 0.000000000000000D+00 0.000000000000000D+00 -.100904946290633D+03
 0.889399755651410D+02 0.104077084971249D+02 -.343954693888533D+01 -.727335436660552D+02
 0.278256417805337D+02 -.757568968682908D+01 -.258251074128862D+02 -.706675975114109D+01
 0.850442752355919D+02 -.283201881029582D+01 0.292646543517715D+02 0.798003034171963D+02
 0.000000000000000D+00 -.000000000000000D+00 -.000000000000000D+00 -.000000000000000D+00
 0.102685832040359D+03 0.000000000000000D+00 0.000000000000000D+00 0.102685832040359D+03
 0.102892139474645D+03 0.000000000000000D+00 0.000000000000000D+00 -.102892139474645D+03
 0.889776840219407D+02 0.110937453719284D+02 -.194645660346772D+01 -.727335436660552D+02
 0.273384742550415D+02 -.736298107850893D+01 -.253621684966160D+02 -.706675975114109D+01
 0.855281637132068D+02 -.217430454395691D+01 0.306961033752925D+02 0.798003034171963D+02
 0.373364952481485D+01 -.155645974946260D+01 -.338747827520876D+01 -.206307434285935D+00
0.747485153751D-06 0.000000000000D+00 0.000000000000D+00 0.182322792896D-05 0.000000000000D+00  6 2 22 9900012 -13 1 21 0 0.20266562D-01 0.11890993D-01 0.28891756D+04 0.28891756D+04 0.28891756D+04 0.12695906D+01  1  2  2  1  6  1        2 0.846129217202D-04 0.100000000000D+01
0.414977186783D-07 0.000000000000D+00 -.143526990388D-08 0.182322792896D-05 0.000000000000D+00  6 2 22 9900012 -13 1 21 2 0.20266562D-01 0.11890993D-01 0.28891756D+04 0.28891756D+04 0.28891756D+04 0.12695906D+01  1  2  3  1  6  1        2 0.757156699991D-05 0.100000000000D+01
-.104593094407D-06 0.000000000000D+00 0.000000000000D+00 0.182322792896D-05 0.000000000000D+00  6 2 22 9900012 -13 1 21 2 0.20266562D-01 0.11890993D-01 0.28891756D+04 0.28891756D+04 0.28891756D+04 0.12695906D+01  1  2 15  1  6  1        2 -.190837869466D-04 0.100000000000D+01
0.328355762631D-06 0.000000000000D+00 0.000000000000D+00 0.182322792896D-05 0.000000000000D+00  6 2 22 9900012 -13 1 21 2 0.21030418D-01 0.11890993D-01 0.31451457D+04 0.31451457D+04 0.31451457D+04 0.12651684D+01  1  2 12  1  6  1        2 0.575476496082D-04 0.100000000000D+01
-.321106149392D-07 0.000000000000D+00 0.000000000000D+00 0.182322792896D-05 0.000000000000D+00  6 2 22 9900012 -13 1 21 2 0.20266562D-01 0.11890993D-01 0.28891756D+04 0.28891756D+04 0.28891756D+04 0.12695906D+01  1  2  4  1  6  1        2 -.585882019937D-05 0.100000000000D+01
0.214496830425D-07 0.000000000000D+00 0.000000000000D+00 0.182322792896D-05 0.214633160429D-07  6 2 22 9900012 -13 1 21 2 0.20624250D-01 0.12125171D-01 0.31451457D+04 0.31451457D+04 0.31451457D+04 0.12651684D+01  1  2 11  1  6  1        2 0.373716765642D-05 0.100000000000D+01
0.878513284094D-08 0.000000000000D+00 0.000000000000D+00 0.182322792896D-05 0.000000000000D+00  6 21 22 9900012 -13 1 -2 2 0.21030418D-01 0.11890993D-01 0.31451457D+04 0.31451457D+04 0.31451457D+04 0.12651684D+01  1  2 12  3  6  1        2 0.106884868287D-04 0.100000000000D+01
0.216752638624D-08 0.000000000000D+00 0.000000000000D+00 0.182322792896D-05 0.179971405760D-08  6 21 22 9900012 -13 1 -2 2 0.20624250D-01 0.12125171D-01 0.31451457D+04 0.31451457D+04 0.31451457D+04 0.12651684D+01  1  2 11  3  6  1        2 0.265458553024D-05 0.100000000000D+01
  </mgrwgt>
  </event>
  <event>
  6     66 -.80203028E-06 0.53733346E+02 0.78161638E-02 0.10624519E+00
        2 -1    0    0  501    0 0.00000000E+00 0.00000000E+00 0.11377571E+04 0.11377571E+04 0.00000000E+00 0.0000E+00 0.9000E+01
       22 -1    0    0    0    0 0.00000000E+00 0.00000000E+00 -.72172805E+02 0.72172805E+02 0.00000000E+00 0.0000E+00 0.9000E+01
       24  2    1    2    0    0 -.13022994E+03 -.12382983E+03 0.86858254E+02 0.21484281E+03 0.79494738E+02 0.0000E+00 0.0000E+00
  9900012  1    3    3    0    0 -.93103558E+02 -.66772531E+02 0.36689369E+02 0.13028029E+03 0.50000000E+02 0.0000E+00 0.9000E+01
      -13  1    3    3    0    0 -.37126382E+02 -.57057296E+02 0.50168884E+02 0.84562522E+02 0.00000000E+00 0.0000E+00 0.9000E+01
        1  1    1    2  501    0 0.13022994E+03 0.12382983E+03 0.97872607E+03 0.99508713E+03 0.00000000E+00 0.0000E+00 0.9000E+01
#aMCatNLO 1  0  0  1  5 0.73956423D+01 0.00000000D+00  -5  6  0 0.00000000D+00 0.00000000D+00 0.00000000D+00 0.00000000D+00 0.00000000D+00
  <mgrwgt>
 -.1959558809D-03   11    2    0
 0.286557364622593D+03 0.000000000000000D+00 0.000000000000000D+00 0.286557364622593D+03
 0.286557364622593D+03 0.000000000000000D+00 0.000000000000000D+00 -.286557364622593D+03
 0.206824911194712D+03 -.931035579117950D+02 -.667725313659433D+02 -.164771661549703D+03
 0.852456718431571D+02 -.371263816406646D+02 -.570572955829489D+02 -.513120003022972D+02
 0.281044146207316D+03 0.130229939552460D+03 0.123829826948892D+03 0.216083661852000D+03
 0.000000000000000D+00 0.000000000000000D+00 0.000000000000000D+00 0.000000000000000D+00
 0.328799959409824D+03 0.000000000000000D+00 0.000000000000000D+00 0.328799959409824D+03
 0.286902098141810D+03 0.000000000000000D+00 0.000000000000000D+00 -.286902098141810D+03
 0.208154228379940D+03 -.943305853141753D+02 -.691391569002955D+02 -.164771661549703D+03
 0.861230927393134D+02 -.376330918581234D+02 -.580346114414447D+02 -.513120003022972D+02
 0.278884711649392D+03 0.128574318856253D+03 0.120636553345350D+03 0.216083661852000D+03
 0.425400247829887D+02 0.338935831604540D+01 0.653721499639013D+01 0.418978612680136D+02
0.405249173163D-06 0.000000000000D+00 0.000000000000D+00 0.324952036019D-05 0.000000000000D+00  6 2 22 9900012 -13 1 21 0 0.17503956D+00 0.11103508D-01 0.34742076D+05 0.34742076D+05 0.34742076D+05 0.11569815D+01  1  2  2  1  6  1        2 0.521845344750D-05 0.100000000000D+01
-.207178366184D-08 0.000000000000D+00 -.778131764752D-09 0.324952036019D-05 0.000000000000D+00  6 2 22 9900012 -13 1 21 2 0.17503956D+00 0.11103508D-01 0.34742076D+05 0.34742076D+05 0.34742076D+05 0.11569815D+01  1  2  3  1  6  1        2 -.357122240377D-07 0.100000000000D+01
-.597050334781D-07 0.000000000000D+00 0.000000000000D+00 0.324952036019D-05 0.000000000000D+00  6 2 22 9900012 -13 1 21 2 0.17503956D+00 0.11103508D-01 0.34742076D+05 0.34742076D+05 0.34742076D+05 0.11569815D+01  1  2 15  1  6  1        2 -.102916128311D-05 0.100000000000D+01
0.178007303298D-04 0.000000000000D+00 0.000000000000D+00 0.324952036019D-05 0.000000000000D+00  6 2 22 9900012 -13 1 21 2 0.20108447D+00 0.11103508D-01 0.36106600D+05 0.36106600D+05 0.36106600D+05 0.11554724D+01  1  2 12  1  6  1        2 0.247352187761D-03 0.100000000000D+01
-.299217112229D-04 0.000000000000D+00 0.000000000000D+00 0.324952036019D-05 0.000000000000D+00  6 2 22 9900012 -13 1 21 2 0.17503956D+00 0.11103508D-01 0.34742076D+05 0.34742076D+05 0.34742076D+05 0.11569815D+01  1  2  4  1  6  1        2 -.515773376567D-03 0.100000000000D+01
-.189133845870D-04 0.000000000000D+00 -.313840198104D-06 0.324952036019D-05 0.000000000000D+00  6 2 22 9900012 -13 1 21 2 0.20093399D+00 0.11103508D-01 0.34742076D+05 0.34742076D+05 0.34742076D+05 0.11569815D+01  1  2  5  1  6  1        2 -.263514943794D-03 0.100000000000D+01
0.187806260898D-04 0.000000000000D+00 0.310876858794D-06 0.324952036019D-05 0.000000000000D+00  6 2 22 9900012 -13 1 21 2 0.17503956D+00 0.11103508D-01 0.34742076D+05 0.34742076D+05 0.34742076D+05 0.11569815D+01  1  2  6  1  6  1        2 0.323729711185D-03 0.100000000000D+01
0.589780713760D-06 0.000000000000D+00 0.000000000000D+00 0.324952036019D-05 0.729290410145D-06  6 2 22 9900012 -13 1 21 2 0.20084286D+00 0.11116866D-01 0.36106600D+05 0.36106600D+05 0.36106600D+05 0.11554724D+01  1  2 11  1  6  1        2 0.819714310965D-05 0.100000000000D+01
0.380966338727D-06 0.000000000000D+00 0.000000000000D+00 0.324952036019D-05 0.000000000000D+00  6 21 22 9900012 -13 1 -2 2 0.20108447D+00 0.11103508D-01 0.36106600D+05 0.36106600D+05 0.36106600D+05 0.11554724D+01  1  2 12  3  6  1        2 0.265398294282D-05 0.100000000000D+01
-.401111184628D-06 0.000000000000D+00 -.668693750453D-08 0.324952036019D-05 0.000000000000D+00  6 21 22 9900012 -13 1 -2 2 0.20093399D+00 0.11103508D-01 0.34742076D+05 0.34742076D+05 0.34742076D+05 0.11569815D+01  1  2  5  3  6  1        2 -.280977650673D-05 0.100000000000D+01
0.796562893685D-08 0.000000000000D+00 0.000000000000D+00 0.324952036019D-05 0.940324277605D-08  6 21 22 9900012 -13 1 -2 2 0.20084286D+00 0.11116866D-01 0.36106600D+05 0.36106600D+05 0.36106600D+05 0.11554724D+01  1  2 11  3  6  1        2 0.556109953375D-07 0.100000000000D+01
  </mgrwgt>
  </event>
  <event>
  6     66 0.80203028E-06 0.33856417E+02 0.78161638E-02 0.94790878E-01
        2 -1    0    0  501    0 0.00000000E+00 0.00000000E+00 0.15535604E+04 0.15535604E+04 0.00000000E+00 0.0000E+00 0.9000E+01
       22 -1    0    0    0    0 0.00000000E+00 0.00000000E+00 -.47072141E+03 0.47072141E+03 0.00000000E+00 0.0000E+00 0.9000E+01
       24  2    1    2    0    0 -.19779109E+02 0.27478061E+02 -.46626224E+03 0.47481066E+03 0.83056750E+02 0.0000E+00 0.0000E+00
  9900012  1    3    3    0    0 0.13470707E+02 0.13162718E+02 -.28654718E+03 0.29148585E+03 0.50000000E+02 0.0000E+00 0.9000E+01
      -13  1    3    3    0    0 -.33249815E+02 0.14315343E+02 -.17971507E+03 0.18332481E+03 0.00000000E+00 0.0000E+00 0.9000E+01
        1  1    1    2  501    0 0.19779109E+02 -.27478061E+02 0.15491012E+04 0.15494712E+04 0.00000000E+00 0.0000E+00 0.9000E+01
#aMCatNLO 1  0  0  5  1 0.13250509D+02 0.00000000D+00  -5  6  0 0.00000000D+00 0.00000000D+00 0.00000000D+00 0.00000000D+00 0.00000000D+00
  <mgrwgt>
 0.6770347892D-02    3    2    0
 0.855157386442436D+03 0.000000000000000D+00 0.000000000000000D+00 0.855157386442436D+03
 0.855157386442436D+03 -.000000000000000D+00 -.000000000000000D+00 -.855157386442436D+03
 0.526414191657605D+03 0.134707066259754D+02 0.131627179095188D+02 -.523695697995278D+03
 0.330759906506598D+03 -.332498154710269D+02 0.143153426958223D+02 -.328772925416460D+03
 0.853140674720669D+03 0.197791088450514D+02 -.274780606053410D+02 0.852468623411738D+03
 0.000000000000000D+00 -.000000000000000D+00 0.000000000000000D+00 0.000000000000000D+00
 0.855157386442436D+03 0.000000000000000D+00 0.000000000000000D+00 0.855157386442436D+03
 0.855157386442436D+03 -.000000000000000D+00 -.000000000000000D+00 -.855157386442436D+03
 0.396561166364644D+03 0.165043301073054D+02 0.894826666569406D+01 -.392948208139286D+03
 0.248914292465875D+03 -.313445498035965D+02 0.116684587593892D+02 -.246657031648355D+03
 0.495833069149705D+03 0.427774433454033D+03 0.181883961295024D+02 0.250057291018944D+03
 0.569006244904649D+03 -.412934213757742D+03 -.388051215545856D+02 0.389547948768696D+03
0.187152734948D-01 0.000000000000D+00 0.000000000000D+00 0.126308796389D-02 0.000000000000D+00  6 2 22 9900012 -13 1 21 0 0.23900929D+00 0.72418679D-01 0.38122296D+04 0.38122296D+04 0.38122296D+04 0.12553290D+01  1  2  2  2  6  5        1 0.742647934707D-02 0.100000000000D+01
0.155688625145D-02 0.000000000000D+00 -.359357890323D-04 0.126308796389D-02 0.000000000000D+00  6 2 22 9900012 -13 1 21 2 0.23900929D+00 0.72418679D-01 0.38122296D+04 0.38122296D+04 0.38122296D+04 0.12553290D+01  1  2  3  2  6  5        1 0.973551176084D-03 0.100000000000D+01
-.260616035922D-02 0.000000000000D+00 0.000000000000D+00 0.126308796389D-02 0.000000000000D+00  6 2 22 9900012 -13 1 21 2 0.23900929D+00 0.72418679D-01 0.38122296D+04 0.38122296D+04 0.38122296D+04 0.12553290D+01  1  2 15  2  6  5        1 -.162968263122D-02 0.100000000000D+01
  </mgrwgt>
  </event>
  <event>
  6     66 0.80203028E-06 0.28306631E+02 0.78161638E-02 0.12621739E+00
        4 -1    0    0  501    0 0.00000000E+00 0.00000000E+00 0.30578448E+01 0.30578448E+01 0.00000000E+00 0.0000E+00 0.9000E+01
       22 -1    0    0    0    0 0.00000000E+00 0.00000000E+00 -.25847749E+04 0.25847749E+04 0.00000000E+00 0.0000E+00 0.9000E+01
       24  2    1    2    0    0 -.17593781E+02 -.22174856E+02 -.24994780E+04 0.25008585E+04 0.78111781E+02 0.0000E+00 0.0000E+00
  9900012  1    3    3    0    0 -.35779301E+02 -.13698941E+02 -.19231226E+04 0.19241539E+04 0.50000000E+02 0.0000E+00 0.9000E+01
      -13  1    3    3    0    0 0.18185520E+02 -.84759151E+01 -.57635549E+03 0.57670461E+03 0.00000000E+00 0.0000E+00 0.9000E+01
        3  1    1    2  501    0 0.17593781E+02 0.22174856E+02 -.82239017E+02 0.86974257E+02 0.00000000E+00 0.0000E+00 0.9000E+01
#aMCatNLO 1  0  0  1  5 0.18774622D+02 0.00000000D+00  -5  6  0 0.00000000D+00 0.00000000D+00 0.00000000D+00 0.00000000D+00 0.00000000D+00
  <mgrwgt>
 0.2909926551D-04    6    2    0
 0.889035463263181D+02 0.000000000000000D+00 0.000000000000000D+00 0.889035463263181D+02
 0.889035463263181D+02 0.000000000000000D+00 0.000000000000000D+00 -.889035463263181D+02
 0.811561295020374D+02 -.357793011064161D+02 -.136989409210819D+02 -.511712613263401D+02
 0.249049168276885D+02 0.181855203238497D+02 -.847591514453573D+01 -.147546804508794D+02
 0.717460463229104D+02 0.175937807825664D+02 0.221748560656177D+02 0.659259417772195D+02
 0.000000000000000D+00 -.000000000000000D+00 -.000000000000000D+00 -.000000000000000D+00
 0.899815677306540D+02 0.000000000000000D+00 0.000000000000000D+00 0.899815677306540D+02
 0.982213130040343D+02 0.000000000000000D+00 0.000000000000000D+00 -.982213130040343D+02
 0.798786608748565D+02 -.331289927882908D+02 -.128285741321910D+02 -.511712613263401D+02
 0.254269925014629D+02 0.190138821806259D+02 -.820387938009605D+01 -.147546804508794D+02
 0.726081831463360D+02 0.199695606635691D+02 0.229550671421926D+02 0.659259417772195D+02
 0.102890442120329D+02 -.585445005590425D+01 -.192261362990552D+01 -.823974527338028D+01
0.197599559974D-05 0.000000000000D+00 0.000000000000D+00 0.312178932241D-06 0.000000000000D+00  6 4 22 9900012 -13 3 21 0 0.47043766D-03 0.39765768D+00 0.31003190D+04 0.31003190D+04 0.31003190D+04 0.12659126D+01  1  2  2  1  6  1        4 0.176274390319D-04 0.100000000000D+01
0.120536410233D-06 0.000000000000D+00 -.379417169730D-08 0.312178932241D-06 0.000000000000D+00  6 4 22 9900012 -13 3 21 2 0.47043766D-03 0.39765768D+00 0.31003190D+04 0.31003190D+04 0.31003190D+04 0.12659126D+01  1  2  3  1  6  1        4 0.172317338748D-05 0.100000000000D+01
-.283644849881D-06 0.000000000000D+00 0.000000000000D+00 0.312178932241D-06 0.000000000000D+00  6 4 22 9900012 -13 3 21 2 0.47043766D-03 0.39765768D+00 0.31003190D+04 0.31003190D+04 0.31003190D+04 0.12659126D+01  1  2 15  1  6  1        4 -.405495116261D-05 0.100000000000D+01
0.776996545657D-06 0.000000000000D+00 0.000000000000D+00 0.312178932241D-06 0.000000000000D+00  6 4 22 9900012 -13 3 21 2 0.52604537D-03 0.39765768D+00 0.35183825D+04 0.35183825D+04 0.35183825D+04 0.12594024D+01  1  2 12  1  6  1        4 0.959313623490D-05 0.100000000000D+01
-.154081941013D-07 0.000000000000D+00 0.000000000000D+00 0.312178932241D-06 0.000000000000D+00  6 4 22 9900012 -13 3 21 2 0.47043766D-03 0.39765768D+00 0.31003190D+04 0.31003190D+04 0.31003190D+04 0.12659126D+01  1  2  4  1  6  1        4 -.220273608391D-06 0.100000000000D+01
0.138781710727D-07 0.000000000000D+00 0.000000000000D+00 0.312178932241D-06 0.000000000000D+00  6 21 22 9900012 -13 3 -4 2 0.52604537D-03 0.39765768D+00 0.35183825D+04 0.35183825D+04 0.35183825D+04 0.12594024D+01  1  2 12  3  6  1        4 0.443074162222D-05 0.100000000000D+01
  </mgrwgt>
  </event>
  <event>
  6     66 0.80203028E-06 0.25016129E+02 0.78161638E-02 0.12451959E+00
        2 -1    0    0  501    0 0.00000000E+00 0.00000000E+00 0.14241249E+04 0.14241249E+04 0.00000000E+00 0.0000E+00 0.9000E+01
       22 -1    0    0    0    0 0.00000000E+00 0.00000000E+00 -.11592626E+02 0.11592626E+02 0.00000000E+00 0.0000E+00 0.9000E+01
       24  2    1    2    0    0 -.23421624E+02 -.18647659E+02 0.15903751E+03 0.18186529E+03 0.82980397E+02 0.0000E+00 0.0000E+00
  9900012  1    3    3    0    0 0.39242584E+01 -.10360733E+02 0.60484240E+02 0.79253315E+02 0.50000000E+02 0.0000E+00 0.9000E+01
      -13  1    3    3    0    0 -.27345882E+02 -.82869250E+01 0.98553267E+02 0.10261197E+03 0.00000000E+00 0.0000E+00 0.9000E+01
        1  1    1    2  501    0 0.23421624E+02 0.18647659E+02 0.12534948E+04 0.12538523E+04 0.00000000E+00 0.0000E+00 0.9000E+01
#aMCatNLO 1  0  0  1  5 0.22284449D+02 0.00000000D+00  -5  6  0 0.00000000D+00 0.00000000D+00 0.00000000D+00 0.00000000D+00 0.00000000D+00
  <mgrwgt>
 0.1445803159D-03    9    2    0
 0.128488707399295D+03 0.000000000000000D+00 0.000000000000000D+00 0.128488707399295D+03
 0.128488707399295D+03 0.000000000000000D+00 0.000000000000000D+00 -.128488707399295D+03
 0.110318770221269D+03 0.392425842346643D+01 -.103607334932831D+02 -.977112401949750D+02
 0.315675081330241D+02 -.273458821225448D+02 -.828692502184564D+01 -.134177931997307D+02
 0.115091136444297D+03 0.234216236990783D+02 0.186476585151287D+02 0.111129033394706D+03
 0.000000000000000D+00 0.000000000000000D+00 -.000000000000000D+00 0.000000000000000D+00
 0.176276035495410D+03 0.000000000000000D+00 0.000000000000000D+00 0.176276035495410D+03
 0.131391897035230D+03 0.000000000000000D+00 0.000000000000000D+00 -.131391897035230D+03
 0.110131916195708D+03 -.487921701507585D+01 -.759906216701287D+01 -.977112401949750D+02
 0.336581946176007D+02 -.299506046637152D+02 -.746981732329436D+01 -.134177931997307D+02
 0.114089157321224D+03 0.142695402106810D+02 0.215186890214310D+02 0.111129033394706D+03
 0.497886643961085D+02 0.205602814681100D+02 -.644980953112379D+01 0.448841384601803D+02
0.334118192729D-06 0.000000000000D+00 0.000000000000D+00 0.539469873699D-06 0.000000000000D+00  6 2 22 9900012 -13 1 21 0 0.21909614D+00 0.17834809D-02 0.30098984D+04 0.30098984D+04 0.30098984D+04 0.12674518D+01  1  2  2  1  6  1        2 0.335398279321D-04 0.100000000000D+01
0.220522607254D-07 0.000000000000D+00 -.641550917710D-09 0.539469873699D-06 0.000000000000D+00  6 2 22 9900012 -13 1 21 2 0.21909614D+00 0.17834809D-02 0.30098984D+04 0.30098984D+04 0.30098984D+04 0.12674518D+01  1  2  3  1  6  1        2 0.355612261616D-05 0.100000000000D+01
-.482612794103D-07 0.000000000000D+00 0.000000000000D+00 0.539469873699D-06 0.000000000000D+00  6 2 22 9900012 -13 1 21 2 0.21909614D+00 0.17834809D-02 0.30098984D+04 0.30098984D+04 0.30098984D+04 0.12674518D+01  1  2 15  1  6  1        2 -.778255931819D-05 0.100000000000D+01
0.806191621428D-06 0.000000000000D+00 0.000000000000D+00 0.539469873699D-06 0.000000000000D+00  6 2 22 9900012 -13 1 21 2 0.30737368D+00 0.17834809D-02 0.41631704D+04 0.41631704D+04 0.41631704D+04 0.12509034D+01  1  2 12  1  6  1        2 0.665155423882D-04 0.100000000000D+01
-.109240289768D-06 0.000000000000D+00 0.000000000000D+00 0.539469873699D-06 0.000000000000D+00  6 2 22 9900012 -13 1 21 2 0.21909614D+00 0.17834809D-02 0.30098984D+04 0.30098984D+04 0.30098984D+04 0.12674518D+01  1  2  4  1  6  1        2 -.176159655410D-04 0.100000000000D+01
-.892964135788D-06 0.000000000000D+00 -.119104645684D-06 0.539469873699D-06 0.000000000000D+00  6 2 22 9900012 -13 1 21 2 0.30277373D+00 0.17834809D-02 0.30098984D+04 0.30098984D+04 0.30098984D+04 0.12674518D+01  1  2  5  1  6  1        2 -.771676335502D-04 0.100000000000D+01
0.890467094194D-06 0.000000000000D+00 0.113133906244D-06 0.539469873699D-06 0.000000000000D+00  6 2 22 9900012 -13 1 21 2 0.21909614D+00 0.17834809D-02 0.30098984D+04 0.30098984D+04 0.30098984D+04 0.12674518D+01  1  2  6  1  6  1        2 0.143595716196D-03 0.100000000000D+01
0.340014456111D-07 0.000000000000D+00 0.000000000000D+00 0.539469873699D-06 0.000000000000D+00  6 21 22 9900012 -13 1 -2 2 0.30737368D+00 0.17834809D-02 0.41631704D+04 0.41631704D+04 0.41631704D+04 0.12509034D+01  1  2 12  3  6  1        2 0.782715616958D-06 0.100000000000D+01
-.334484065669D-07 0.000000000000D+00 -.486110164423D-08 0.539469873699D-06 0.000000000000D+00  6 21 22 9900012 -13 1 -2 2 0.30277373D+00 0.17834809D-02 0.30098984D+04 0.30098984D+04 0.30098984D+04 0.12674518D+01  1  2  5  3  6  1        2 -.843450449816D-06 0.100000000000D+01
  </mgrwgt>
  </event>
  <event>
  6     66 0.80203028E-06 0.29667467E+02 0.78161638E-02 0.11682264E+00
        2 -1    0    0  501    0 0.00000000E+00 0.00000000E+00 0.93486430E+03 0.93486430E+03 0.00000000E+00 0.0000E+00 0.9000E+01
       22 -1    0    0    0    0 0.00000000E+00 0.00000000E+00 -.14586414E+02 0.14586414E+02 0.00000000E+00 0.0000E+00 0.9000E+01
       24  2    1    2    0    0 -.21719002E+02 0.20209987E+02 0.11189440E+03 0.14052302E+03 0.79663060E+02 0.0000E+00 0.0000E+00
  9900012  1    3    3    0    0 -.18443596E+02 -.83980058E+01 0.56682366E+02 0.78253328E+02 0.50000000E+02 0.0000E+00 0.9000E+01
      -13  1    3    3    0    0 -.32754054E+01 0.28607993E+02 0.55212036E+02 0.62269692E+02 0.00000000E+00 0.0000E+00 0.9000E+01
        1  1    1    2  501    0 0.21719002E+02 -.20209987E+02 0.80838348E+03 0.80892770E+03 0.00000000E+00 0.0000E+00 0.9000E+01
#aMCatNLO 1  0  0  5  1 0.79894681D+02 0.00000000D+00  -5  6  0 0.00000000D+00 0.00000000D+00 0.00000000D+00 0.00000000D+00 0.00000000D+00
  <mgrwgt>
 0.1693585271D-03    3    2    0
 0.116774646273266D+03 0.000000000000000D+00 0.000000000000000D+00 0.116774646273266D+03
 0.116774646273266D+03 -.000000000000000D+00 -.000000000000000D+00 -.116774646273266D+03
 0.947729284303156D+02 -.184435964646933D+02 -.839800583024667D+01 -.779180031236711D+02
 0.355881499357696D+02 -.327540537146762D+01 0.286079931090681D+02 -.209134135371270D+02
 0.103188214180446D+03 0.217190018361609D+02 -.202099872788215D+02 0.988314166607981D+02
 0.000000000000000D+00 0.000000000000000D+00 0.000000000000000D+00 -.000000000000000D+00
 0.116774646273266D+03 0.000000000000000D+00 0.000000000000000D+00 0.116774646273266D+03
 0.116774646273266D+03 -.000000000000000D+00 -.000000000000000D+00 -.116774646273266D+03
 0.652321719769744D+02 -.950016026356375D+01 -.167200610157132D+02 -.372212677837684D+02
 0.259471813187308D+02 0.164093168198455D+00 0.254074674929948D+02 -.526211814877361D+01
 0.812171348034299D+02 0.356339437250593D+02 0.442959722557899D+02 0.580026885772729D+02
 0.611528044473960D+02 -.262978766296940D+02 -.529833787330715D+02 -.155193026447308D+02
0.143035867807D-05 0.000000000000D+00 0.000000000000D+00 0.348589749787D-05 0.000000000000D+00  6 2 22 9900012 -13 1 21 0 0.14382528D+00 0.22440637D-02 0.31591814D+04 0.31591814D+04 0.31591814D+04 0.12649378D+01  1  2  2  2  6  5        1 0.191966901432D-03 0.100000000000D+01
0.993758451212D-07 0.000000000000D+00 -.274647697294D-08 0.348589749787D-05 0.000000000000D+00  6 2 22 9900012 -13 1 21 2 0.14382528D+00 0.22440637D-02 0.31591814D+04 0.31591814D+04 0.31591814D+04 0.12649378D+01  1  2  3  2  6  5        1 0.213403025965D-04 0.100000000000D+01
-.204656747299D-06 0.000000000000D+00 0.000000000000D+00 0.348589749787D-05 0.000000000000D+00  6 2 22 9900012 -13 1 21 2 0.14382528D+00 0.22440637D-02 0.31591814D+04 0.31591814D+04 0.31591814D+04 0.12649378D+01  1  2 15  2  6  5        1 -.439486769693D-04 0.100000000000D+01
  </mgrwgt>
  </event>
  <event>
  7     66 -.80203028E-06 0.31227302E+02 0.78161638E-02 0.11823770E+00
        4 -1    0    0  501    0 0.00000000E+00 0.00000000E+00 0.29449001E+03 0.29449001E+03 0.00000000E+00 0.0000E+00 0.9000E+01
       22 -1    0    0    0    0 0.00000000E+00 0.00000000E+00 -.54146500E+02 0.54146500E+02 0.00000000E+00 0.0000E+00 0.9000E+01
       24  2    1    2    0    0 0.70488060E+02 0.52746469E+01 0.15293858E+02 0.10613471E+03 0.77680667E+02 0.0000E+00 0.0000E+00
  9900012  1    3    3    0    0 0.21538315E+02 0.13544557E+01 -.78100982E+00 0.54464149E+02 0.50000000E+02 0.0000E+00 0.9000E+01
      -13  1    3    3    0    0 0.48949745E+02 0.39201913E+01 0.16074868E+02 0.51670561E+02 0.00000000E+00 0.0000E+00 0.9000E+01
        3  1    1    2  502    0 -.42901083E+02 -.17394139E+02 0.19315391E+03 0.19862399E+03 0.00000000E+00 0.0000E+00 0.9000E+01
       21  1    1    2  501  502 -.27586976E+02 0.12119492E+02 0.31895743E+02 0.43877805E+02 0.00000000E+00 0.0000E+00 0.9000E+01
#aMCatNLO 2  0  0  5  1 0.24373034D+02 0.00000000D+00  -5  6  0 0.00000000D+00 0.00000000D+00 0.00000000D+00 0.00000000D+00 0.00000000D+00
  <mgrwgt>
 -.1192809063D-04    2    2    0
 0.126275901000099D+03 0.000000000000000D+00 0.000000000000000D+00 0.126275901000099D+03
 0.126275901000099D+03 -.000000000000000D+00 -.000000000000000D+00 -.126275901000099D+03
 0.791094153936385D+02 0.244415098844361D+02 0.157170279359164D+01 -.562000173382613D+02
 0.591131158676192D+02 0.511059009591559D+02 0.408153717890723D+01 -.294259818695776D+02
 0.114329270738941D+03 -.755474108435920D+02 -.565323997249885D+01 0.856259992078390D+02
 0.000000000000000D+00 -.000000000000000D+00 0.000000000000000D+00 0.000000000000000D+00
 0.126275901000099D+03 0.000000000000000D+00 0.000000000000000D+00 0.126275901000099D+03
 0.126275901000099D+03 -.000000000000000D+00 -.000000000000000D+00 -.126275901000099D+03
 0.759285865135257D+02 0.215383147083451D+02 0.135445565256886D+01 -.529095142611560D+02
 0.560310931308142D+02 0.489497449973470D+02 0.392019125144089D+01 -.269821786125731D+02
 0.903746783184285D+02 -.429010833977815D+02 -.173941390693800D+02 0.776178036953578D+02
 0.302174440374299D+02 -.275869763079106D+02 0.121194921653703D+02 0.227388917837143D+01
-.737934515493D-06 0.000000000000D+00 0.000000000000D+00 0.228324347561D-06 0.000000000000D+00  6 4 22 9900012 -13 3 21 2 0.45306155D-01 0.83302307D-02 0.80990975D+04 0.80990975D+04 0.80990975D+04 0.12189417D+01  1  2 13  2  6  5        3 -.151267365048D-04 0.100000000000D+01
0.156041006628D-06 0.000000000000D+00 0.000000000000D+00 0.228324347561D-06 0.444081744784D-09  6 4 22 9900012 -13 3 21 2 0.45306155D-01 0.83302307D-02 0.80990975D+04 0.80990975D+04 0.80990975D+04 0.12189417D+01  1  2  1  2  6  5        3 0.319864587120D-05 0.100000000000D+01
  </mgrwgt>
  </event>
  <event>
  7     66 0.80203028E-06 0.16620651E+03 0.78161638E-02 0.99853094E-01
       21 -1    0    0  501  502 0.00000000E+00 0.00000000E+00 0.40822511E+03 0.40822511E+03 0.00000000E+00 0.0000E+00 0.9000E+01
       22 -1    0    0    0    0 0.00000000E+00 0.00000000E+00 -.43181644E+03 0.43181644E+03 0.00000000E+00 0.0000E+00 0.9000E+01
       24  2    1    2    0    0 0.17238556E+03 -.23024042E+03 -.25523259E+03 0.39244891E+03 0.78390305E+02 0.0000E+00 0.0000E+00
  9900012  1    3    3    0    0 0.94984622E+02 -.10881407E+03 -.11330950E+03 0.19026724E+03 0.50000000E+02 0.0000E+00 0.9000E+01
      -13  1    3    3    0    0 0.77400934E+02 -.12142635E+03 -.14192309E+03 0.20218167E+03 0.00000000E+00 0.0000E+00 0.9000E+01
        3  1    1    2  501    0 -.16984391E+03 0.13221218E+03 0.22258911E+02 0.21638501E+03 0.00000000E+00 0.0000E+00 0.9000E+01
       -4  1    1    2    0  502 -.25416487E+01 0.98028246E+02 0.20938236E+03 0.23120763E+03 0.00000000E+00 0.0000E+00 0.9000E+01
#aMCatNLO 2  0  0  1  5 0.10033103D+03 0.00000000D+00  -5  6  0 0.00000000D+00 0.00000000D+00 0.00000000D+00 0.00000000D+00 0.00000000D+00
  <mgrwgt>
 0.7054908667D-06    2    2    0
 0.276941332876026D+03 0.000000000000000D+00 0.000000000000000D+00 0.276941332876026D+03
 0.276941332876026D+03 0.000000000000000D+00 0.000000000000000D+00 -.276941332876026D+03
 0.141789506078559D+03 0.942997927437311D+02 -.824010579903054D+02 -.438392377279704D+02
 0.140699066520174D+03 0.767162086587726D+02 -.950173391089956D+02 -.698752883165296D+02
 0.271394093153318D+03 -.171016001402504D+03 0.177418397099301D+03 0.113714526044500D+03
 0.000000000000000D+00 -.000000000000000D+00 0.000000000000000D+00 0.000000000000000D+00
 0.610932105541011D+03 0.000000000000000D+00 0.000000000000000D+00 0.610932105541011D+03
 0.288539941874771D+03 0.000000000000000D+00 0.000000000000000D+00 -.288539941874771D+03
 0.159010880161370D+03 0.949846219948632D+02 -.108814074593396D+03 -.438392377279704D+02
 0.160055672699687D+03 0.774009339857876D+02 -.121426347487516D+03 -.698752883165296D+02
 0.243429673240000D+03 -.169843907247934D+03 0.132212176258328D+03 0.113714526044500D+03
 0.336975821314725D+03 -.254164873271695D+01 0.980282458225841D+02 0.322392163666240D+03
-.154354468241D-06 0.000000000000D+00 0.000000000000D+00 0.176348895908D-06 0.000000000000D+00  6 21 22 9900012 -13 3 -4 2 0.65434159D-01 0.63762840D-01 0.93068915D+05 0.93068915D+05 0.93068915D+05 0.11201745D+01  1  2 13  3  6  1        4 -.128012636454D-05 0.100000000000D+01
0.234741713693D-06 0.000000000000D+00 0.000000000000D+00 0.176348895908D-06 0.183707911894D-10  6 21 22 9900012 -13 3 -4 2 0.62803864D-01 0.66433298D-01 0.93068915D+05 0.93068915D+05 0.93068915D+05 0.11201745D+01  1  2  1  3  6  1        4 0.198561723126D-05 0.100000000000D+01
  </mgrwgt>
  </event>
  <event>
  6     66 0.80203028E-06 0.37403024E+02 0.78161638E-02 0.11030162E+00
        2 -1    0    0  501    0 0.00000000E+00 0.00000000E+00 0.87323136E+02 0.87323136E+02 0.00000000E+00 0.0000E+00 0.9000E+01
       22 -1    0    0    0    0 0.00000000E+00 0.00000000E+00 -.45651593E+03 0.45651593E+03 0.00000000E+00 0.0000E+00 0.9000E+01
       24  2    1    2    0    0 0.31334608E+02 0.10363068E+03 -.40733744E+03 0.42905149E+03 0.80250922E+02 0.0000E+00 0.0000E+00
  9900012  1    3    3    0    0 -.34444052E+01 0.68627186E+02 -.27406341E+03 0.28693606E+03 0.50000000E+02 0.0000E+00 0.9000E+01
      -13  1    3    3    0    0 0.34779013E+02 0.35003491E+02 -.13327404E+03 0.14211542E+03 0.00000000E+00 0.0000E+00 0.9000E+01
        1  1    1    2  501    0 -.31334608E+02 -.10363068E+03 0.38144647E+02 0.11478758E+03 0.00000000E+00 0.0000E+00 0.9000E+01
#aMCatNLO 1  0  0  1  5 0.10745968D+03 0.00000000D+00  -5  6  0 0.00000000D+00 0.00000000D+00 0.00000000D+00 0.00000000D+00 0.00000000D+00
  <mgrwgt>
 0.5813972994D-04    6    2    0
 0.199660719707508D+03 0.000000000000000D+00 0.000000000000000D+00 0.199660719707508D+03
 0.199660719707508D+03 0.000000000000000D+00 0.000000000000000D+00 -.199660719707508D+03
 0.137395094586765D+03 -.344440517072350D+01 0.686271864442534D+02 -.107962296058724D+03
 0.703295678677911D+02 0.347790134231095D+02 0.350034909056118D+02 -.501141094523903D+02
 0.191596776960461D+03 -.313346082523860D+02 -.103630677349865D+03 0.158076405511114D+03
 0.000000000000000D+00 -.000000000000000D+00 0.000000000000000D+00 -.000000000000000D+00
 0.209238470709033D+03 0.000000000000000D+00 0.000000000000000D+00 0.209238470709033D+03
 0.255227942300051D+03 0.000000000000000D+00 0.000000000000000D+00 -.255227942300051D+03
 0.131132402578114D+03 0.143136726467150D+01 0.551162482702755D+02 -.107962296058724D+03
 0.684673055514646D+02 0.372992095917763D+02 0.280199380281292D+02 -.501141094523903D+02
 0.202013432071248D+03 -.241876537402807D+02 -.123435141529594D+03 0.158076405511114D+03
 0.628532728082571D+02 -.145429231161671D+02 0.402989552311889D+02 -.459894715910183D+02
0.563726262200D-05 0.000000000000D+00 0.000000000000D+00 0.432933782076D-05 0.000000000000D+00  6 2 22 9900012 -13 1 21 0 0.13434329D-01 0.70233220D-01 0.14712240D+05 0.14712240D+05 0.14712240D+05 0.11923237D+01  1  2  2  1  6  1        2 0.736430130958D-04 0.100000000000D+01
0.192620521230D-07 0.000000000000D+00 -.108242863969D-07 0.432933782076D-05 0.000000000000D+00  6 2 22 9900012 -13 1 21 2 0.13434329D-01 0.70233220D-01 0.14712240D+05 0.14712240D+05 0.14712240D+05 0.11923237D+01  1  2  3  1  6  1        2 0.357729003934D-06 0.100000000000D+01
-.808552642813D-06 0.000000000000D+00 0.000000000000D+00 0.432933782076D-05 0.000000000000D+00  6 2 22 9900012 -13 1 21 2 0.13434329D-01 0.70233220D-01 0.14712240D+05 0.14712240D+05 0.14712240D+05 0.11923237D+01  1  2 15  1  6  1        2 -.150161950396D-04 0.100000000000D+01
0.332842663878D-07 0.000000000000D+00 0.000000000000D+00 0.432933782076D-05 0.000000000000D+00  6 2 22 9900012 -13 1 21 2 0.17997014D-01 0.70233220D-01 0.20982527D+05 0.20982527D+05 0.20982527D+05 0.11773237D+01  1  2 12  1  6  1        2 0.436076431074D-06 0.100000000000D+01
-.755983443438D-07 0.000000000000D+00 0.000000000000D+00 0.432933782076D-05 0.000000000000D+00  6 2 22 9900012 -13 1 21 2 0.13434329D-01 0.70233220D-01 0.14712240D+05 0.14712240D+05 0.14712240D+05 0.11923237D+01  1  2  4  1  6  1        2 -.140398957746D-05 0.100000000000D+01
0.126293248604D-08 0.000000000000D+00 0.000000000000D+00 0.432933782076D-05 0.000000000000D+00  6 21 22 9900012 -13 1 -2 2 0.17997014D-01 0.70233220D-01 0.20982527D+05 0.20982527D+05 0.20982527D+05 0.11773237D+01  1  2 12  3  6  1        2 0.123096026338D-06 0.100000000000D+01
  </mgrwgt>
  </event>
  <event>
  7     66 -.80203028E-06 0.64822614E+02 0.78161638E-02 0.11812846E+00
        2 -1    0    0  501    0 0.00000000E+00 0.00000000E+00 0.45412962E+02 0.45412962E+02 0.00000000E+00 0.0000E+00 0.9000E+01
       22 -1    0    0    0    0 -.00000000E+00 -.00000000E+00 -.13349460E+04 0.13349460E+04 0.00000000E+00 0.0000E+00 0.9000E+01
       24  2    1    2    0    0 0.26604260E+02 0.73703956E+02 -.12907147E+04 0.12955177E+04 0.79258221E+02 0.0000E+00 0.0000E+00
  9900012  1    3    3    0    0 0.25200701E+02 0.40956443E+02 -.10842937E+04 0.10865106E+04 0.50000000E+02 0.0000E+00 0.9000E+01
      -13  1    3    3    0    0 0.14035597E+01 0.32747513E+02 -.20642098E+03 0.20900716E+03 0.00000000E+00 0.0000E+00 0.9000E+01
        1  1    1    2  502    0 -.67092952E+01 -.32512240E+02 0.15870880E+02 0.36795995E+02 0.00000000E+00 0.0000E+00 0.9000E+01
       21  1    1    2  501  502 -.19894965E+02 -.41191715E+02 -.14689246E+02 0.48045198E+02 0.00000000E+00 0.0000E+00 0.9000E+01
#aMCatNLO 2  0  0  5  1 0.15919807D+02 0.00000000D+00  -5  6  0 0.00000000D+00 0.00000000D+00 0.00000000D+00 0.00000000D+00 0.00000000D+00
  <mgrwgt>
 -.1767828926D-03    2    2    0
 0.246219112459662D+03 0.000000000000000D+00 0.000000000000000D+00 0.246219112459662D+03
 0.246219112459662D+03 -.000000000000000D+00 -.000000000000000D+00 -.246219112459662D+03
 0.207096512987176D+03 0.253039609099710D+02 0.412425133582636D+02 -.195058274230056D+03
 0.455009280252907D+02 0.142625114206866D+01 0.328103766700081D+02 -.314925299335354D+02
 0.239840783906858D+03 -.267302120520397D+02 -.740528900282717D+02 0.226550804163591D+03
 0.000000000000000D+00 -.000000000000000D+00 0.000000000000000D+00 0.000000000000000D+00
 0.246219112459662D+03 0.000000000000000D+00 0.000000000000000D+00 0.246219112459662D+03
 0.246219112459662D+03 -.000000000000000D+00 -.000000000000000D+00 -.246219112459662D+03
 0.206202766257176D+03 0.252007007712225D+02 0.409564433606086D+02 -.194183097204675D+03
 0.453218783191312D+02 0.140355965419141D+01 0.327475125874830D+02 -.313002091686925D+02
 0.144703846552126D+03 -.670929517151641D+01 -.325122404795155D+02 0.140844392093845D+03
 0.962097337908915D+02 -.198949652538976D+02 -.411917154685762D+02 0.846389142795221D+02
-.692424586749D-04 0.000000000000D+00 0.000000000000D+00 0.207760344733D-04 0.000000000000D+00  6 2 22 9900012 -13 1 21 2 0.69866096D-02 0.20537630D+00 0.81985494D+04 0.81985494D+04 0.81985494D+04 0.12183785D+01  1  2 13  2  6  5        1 -.311076687196D-03 0.100000000000D+01
0.298924120843D-04 0.000000000000D+00 0.000000000000D+00 0.207760344733D-04 0.122325527427D-06  6 2 22 9900012 -13 1 21 2 0.69866096D-02 0.20537630D+00 0.81985494D+04 0.81985494D+04 0.81985494D+04 0.12183785D+01  1  2  1  2  6  5        1 0.134293794609D-03 0.100000000000D+01
  </mgrwgt>
  </event>
  <event>
  6     66 0.80203028E-06 0.46151203E+02 0.78161638E-02 0.11886439E+00
        4 -1    0    0  501    0 0.00000000E+00 0.00000000E+00 0.99006465E+01 0.99006465E+01 0.00000000E+00 0.0000E+00 0.9000E+01
       22 -1    0    0    0    0 0.00000000E+00 0.00000000E+00 -.72121007E+03 0.72121007E+03 0.00000000E+00 0.0000E+00 0.9000E+01
       24  2    1    2    0    0 -.22028086E+02 0.48731670E+02 -.59835240E+03 0.60613351E+03 0.80698379E+02 0.0000E+00 0.0000E+00
  9900012  1    3    3    0    0 -.11519329E+02 0.12855956E+02 -.45189865E+03 0.45498391E+03 0.50000000E+02 0.0000E+00 0.9000E+01
      -13  1    3    3    0    0 -.10508757E+02 0.35875714E+02 -.14645375E+03 0.15114960E+03 0.00000000E+00 0.0000E+00 0.9000E+01
        3  1    1    2  501    0 0.22028086E+02 -.48731670E+02 -.11295702E+03 0.12497720E+03 0.00000000E+00 0.0000E+00 0.9000E+01
#aMCatNLO 1  0  0  1  5 0.44225964D+02 0.00000000D+00  -5  6  0 0.00000000D+00 0.00000000D+00 0.00000000D+00 0.00000000D+00 0.00000000D+00
  <mgrwgt>
 0.8835108707D-04    6    2    0
 0.845011592105180D+02 0.000000000000000D+00 0.000000000000000D+00 0.845011592105180D+02
 0.845011592105180D+02 0.000000000000000D+00 0.000000000000000D+00 -.845011592105180D+02
 0.662940363699251D+02 -.115193293104619D+02 0.128559559157068D+02 -.399615904081342D+02
 0.374738061805296D+02 -.105087570550036D+02 0.358757136808339D+02 0.260486903809638D+01
 0.652344758705813D+02 0.220280863654654D+02 -.487316695965407D+02 0.373567213700379D+02
 0.000000000000000D+00 -.000000000000000D+00 -.000000000000000D+00 -.000000000000000D+00
 0.961368499487825D+02 0.000000000000000D+00 0.000000000000000D+00 0.961368499487825D+02
 0.103587102504347D+03 0.000000000000000D+00 0.000000000000000D+00 -.103587102504347D+03
 0.659681992528484D+02 -.127282874535586D+01 0.159139722162954D+02 -.399615904081342D+02
 0.379978194036121D+02 -.466188738312710D+01 0.376206823801872D+02 0.260486903809638D+01
 0.672601505434866D+02 0.322925905002458D+02 -.456682802215856D+02 0.373567213700379D+02
 0.284977832531825D+02 -.263578743717629D+02 -.786637437489700D+01 -.745025255556466D+01
0.156132586306D-05 0.000000000000D+00 0.000000000000D+00 0.150411810475D-06 0.000000000000D+00  6 4 22 9900012 -13 3 21 0 0.15231764D-02 0.11095539D+00 0.51665971D+04 0.51665971D+04 0.51665971D+04 0.12402459D+01  1  2  2  1  6  1        4 0.893459416653D-04 0.100000000000D+01
-.126298788034D-07 0.000000000000D+00 -.299795121034D-08 0.150411810475D-06 0.000000000000D+00  6 4 22 9900012 -13 3 21 2 0.15231764D-02 0.11095539D+00 0.51665971D+04 0.51665971D+04 0.51665971D+04 0.12402459D+01  1  2  3  1  6  1        4 -.111172169888D-05 0.100000000000D+01
-.202949345080D-06 0.000000000000D+00 0.000000000000D+00 0.150411810475D-06 0.000000000000D+00  6 4 22 9900012 -13 3 21 2 0.15231764D-02 0.11095539D+00 0.51665971D+04 0.51665971D+04 0.51665971D+04 0.12402459D+01  1  2 15  1  6  1        4 -.178642403629D-04 0.100000000000D+01
0.220526470447D-06 0.000000000000D+00 0.000000000000D+00 0.150411810475D-06 0.000000000000D+00  6 4 22 9900012 -13 3 21 2 0.21243224D-02 0.11095539D+00 0.75545768D+04 0.75545768D+04 0.75545768D+04 0.12221677D+01  1  2 12  1  6  1        4 0.122237890759D-04 0.100000000000D+01
-.744099675809D-07 0.000000000000D+00 0.000000000000D+00 0.150411810475D-06 0.000000000000D+00  6 4 22 9900012 -13 3 21 2 0.15231764D-02 0.11095539D+00 0.51665971D+04 0.51665971D+04 0.51665971D+04 0.12402459D+01  1  2  4  1  6  1        4 -.654979963469D-05 0.100000000000D+01
0.918376222071D-08 0.000000000000D+00 0.000000000000D+00 0.150411810475D-06 0.000000000000D+00  6 21 22 9900012 -13 3 -4 2 0.21243224D-02 0.11095539D+00 0.75545768D+04 0.75545768D+04 0.75545768D+04 0.12221677D+01  1  2 12  3  6  1        4 0.123071180241D-04 0.100000000000D+01
  </mgrwgt>
  </event>
  <event>
  6     66 0.80203028E-06 0.48157826E+02 0.78161638E-02 0.11626657E+00
        2 -1    0    0  501    0 0.00000000E+00 0.00000000E+00 0.86273508E+03 0.86273508E+03 0.00000000E+00 0.0000E+00 0.9000E+01
       22 -1    0    0    0    0 0.00000000E+00 0.00000000E+00 -.25328016E+03 0.25328016E+03 0.00000000E+00 0.0000E+00 0.9000E+01
       24  2    1    2    0    0 -.86085822E+02 0.13976434E+02 -.23706993E+03 0.26500970E+03 0.80136609E+02 0.0000E+00 0.0000E+00
  9900012  1    3    3    0    0 -.49296338E+02 0.18210979E+02 -.19940473E+03 0.21218863E+03 0.50000000E+02 0.0000E+00 0.9000E+01
      -13  1    3    3    0    0 -.36789484E+02 -.42345448E+01 -.37665209E+02 0.52821070E+02 0.00000000E+00 0.0000E+00 0.9000E+01
        1  1    1    2  501    0 0.86085822E+02 -.13976434E+02 0.84652486E+03 0.85100555E+03 0.00000000E+00 0.0000E+00 0.9000E+01
#aMCatNLO 1  0  0  5  1 0.31560232D+02 0.00000000D+00  -5  6  0 0.00000000D+00 0.00000000D+00 0.00000000D+00 0.00000000D+00 0.00000000D+00
  <mgrwgt>
 0.1445605951D-02    5    2    0
 0.467454469323895D+03 0.000000000000000D+00 0.000000000000000D+00 0.467454469323895D+03
 0.467454469323895D+03 -.000000000000000D+00 -.000000000000000D+00 -.467454469323895D+03
 0.383282177072754D+03 -.492963384399271D+02 0.182109791875025D+02 -.376355494865000D+03
 0.876067850784404D+02 -.367894837364503D+02 -.423454483710813D+01 -.793949073190972D+02
 0.464019976496594D+03 0.860858221763775D+02 -.139764343503944D+02 0.455750402184097D+03
 0.000000000000000D+00 0.000000000000000D+00 0.000000000000000D+00 -.000000000000000D+00
 0.467454469323895D+03 0.000000000000000D+00 0.000000000000000D+00 0.467454469323895D+03
 0.467454469323895D+03 -.000000000000000D+00 -.000000000000000D+00 -.467454469323895D+03
 0.373415624885366D+03 -.474463561765557D+02 0.179106259469837D+02 -.366561429602574D+03
 0.854050624366380D+02 -.363665026620666D+02 -.430321778543022D+01 -.771555862567780D+02
 0.454053732886420D+03 0.667612107043279D+02 -.267822988913149D+02 0.448319575257964D+03
 0.220345184393645D+02 0.170516481342945D+02 0.131748907297615D+02 -.460255939861194D+01
0.218372675605D-03 0.000000000000D+00 0.000000000000D+00 0.329843950448D-03 0.000000000000D+00  6 2 22 9900012 -13 1 21 0 0.13272847D+00 0.38966179D-01 0.96809312D+04 0.96809312D+04 0.96809312D+04 0.12107923D+01  1  2  2  2  6  5        1 0.586507976842D-03 0.100000000000D+01
0.354754591435D-05 0.000000000000D+00 -.419304286585D-06 0.329843950448D-03 0.000000000000D+00  6 2 22 9900012 -13 1 21 2 0.13272847D+00 0.38966179D-01 0.96809312D+04 0.96809312D+04 0.96809312D+04 0.12107923D+01  1  2  3  2  6  5        1 0.139682815678D-04 0.100000000000D+01
-.311269668600D-04 0.000000000000D+00 0.000000000000D+00 0.329843950448D-03 0.000000000000D+00  6 2 22 9900012 -13 1 21 2 0.13272847D+00 0.38966179D-01 0.96809312D+04 0.96809312D+04 0.96809312D+04 0.12107923D+01  1  2 15  2  6  5        1 -.122560848528D-03 0.100000000000D+01
0.248407298378D-03 0.000000000000D+00 0.000000000000D+00 0.329843950448D-03 0.000000000000D+00  6 2 22 9900012 -13 1 21 2 0.13272847D+00 0.38966179D-01 0.10132360D+05 0.10132360D+05 0.10132360D+05 0.12087385D+01  1  2 12  2  6  5        1 0.976175085307D-03 0.100000000000D+01
-.215483271729D-05 0.000000000000D+00 0.000000000000D+00 0.329843950448D-03 0.000000000000D+00  6 2 22 9900012 -13 1 21 2 0.13272847D+00 0.38966179D-01 0.96809312D+04 0.96809312D+04 0.96809312D+04 0.12107923D+01  1  2  4  2  6  5        1 -.848454420418D-05 0.100000000000D+01
  </mgrwgt>
  </event>
  <event>
  6     66 0.80203028E-06 0.44477979E+02 0.78161638E-02 0.11115221E+00
        2 -1    0    0  501    0 0.00000000E+00 0.00000000E+00 0.10766305E+04 0.10766305E+04 0.00000000E+00 0.0000E+00 0.9000E+01
       22 -1    0    0    0    0 0.00000000E+00 0.00000000E+00 -.57402563E+03 0.57402563E+03 0.00000000E+00 0.0000E+00 0.9000E+01
       24  2    1    2    0    0 -.87216695E+02 -.74957701E+02 -.56234903E+03 0.57951084E+03 0.79818383E+02 0.0000E+00 0.0000E+00
  9900012  1    3    3    0    0 -.47500909E+02 -.32360528E+02 -.23554866E+03 0.24756153E+03 0.50000000E+02 0.0000E+00 0.9000E+01
      -13  1    3    3    0    0 -.39715786E+02 -.42597173E+02 -.32680037E+03 0.33194931E+03 0.00000000E+00 0.0000E+00 0.9000E+01
        1  1    1    2  501    0 0.87216695E+02 0.74957701E+02 0.10649539E+04 0.10711453E+04 0.00000000E+00 0.0000E+00 0.9000E+01
#aMCatNLO 1  0  0  1  5 0.23714637D+02 0.00000000D+00  -5  6  0 0.00000000D+00 0.00000000D+00 0.00000000D+00 0.00000000D+00 0.00000000D+00
  <mgrwgt>
 0.2711409804D-02    9    2    0
 0.786138340115741D+03 0.000000000000000D+00 0.000000000000000D+00 0.786138340115741D+03
 0.786138340115741D+03 0.000000000000000D+00 0.000000000000000D+00 -.786138340115741D+03
 0.335199817241121D+03 -.475009089766688D+02 -.323605283529250D+02 -.326428211601863D+03
 0.452964557567052D+03 -.397157859874880D+02 -.425971726696931D+02 -.449204883806777D+03
 0.784112305423308D+03 0.872166949641568D+02 0.749577010226181D+02 0.775633095408640D+03
 0.000000000000000D+00 -.000000000000000D+00 -.000000000000000D+00 0.000000000000000D+00
 0.130837887659794D+04 0.000000000000000D+00 0.000000000000000D+00 0.130837887659794D+04
 0.786496712794853D+03 0.000000000000000D+00 0.000000000000000D+00 -.786496712794853D+03
 0.334698689249399D+03 -.471296180616999D+02 -.273246108304116D+02 -.326428211601863D+03
 0.452331527844181D+03 -.392140260811538D+02 -.357916694846375D+02 -.449204883806777D+03
 0.785425143667808D+03 0.880866103168629D+02 0.867565945349009D+02 0.775633095408640D+03
 0.522420228631405D+03 -.174296617400926D+01 -.236403142198518D+02 0.521882163803087D+03
0.623606085006D-04 0.000000000000D+00 0.000000000000D+00 0.177577593038D-02 0.000000000000D+00  6 2 22 9900012 -13 1 21 0 0.16563546D+00 0.88311635D-01 0.15552889D+05 0.15552889D+05 0.15552889D+05 0.11899355D+01  1  2  2  1  6  1        2 0.310097504850D-04 0.100000000000D+01
0.783989941134D-06 0.000000000000D+00 -.119740578284D-06 0.177577593038D-02 0.000000000000D+00  6 2 22 9900012 -13 1 21 2 0.16563546D+00 0.88311635D-01 0.15552889D+05 0.15552889D+05 0.15552889D+05 0.11899355D+01  1  2  3  1  6  1        2 0.552007829003D-06 0.100000000000D+01
-.931389433371D-05 0.000000000000D+00 0.000000000000D+00 0.177577593038D-02 0.000000000000D+00  6 2 22 9900012 -13 1 21 2 0.16563546D+00 0.88311635D-01 0.15552889D+05 0.15552889D+05 0.15552889D+05 0.11899355D+01  1  2 15  1  6  1        2 -.655791907646D-05 0.100000000000D+01
0.102033730126D-01 0.000000000000D+00 0.000000000000D+00 0.177577593038D-02 0.000000000000D+00  6 2 22 9900012 -13 1 21 2 0.27579462D+00 0.88311635D-01 0.18820808D+05 0.18820808D+05 0.18820808D+05 0.11818544D+01  1  2 12  1  6  1        2 0.296605866619D-02 0.100000000000D+01
-.516638080234D-02 0.000000000000D+00 0.000000000000D+00 0.177577593038D-02 0.000000000000D+00  6 2 22 9900012 -13 1 21 2 0.16563546D+00 0.88311635D-01 0.15552889D+05 0.15552889D+05 0.15552889D+05 0.11899355D+01  1  2  4  1  6  1        2 -.363765209331D-02 0.100000000000D+01
-.102722192626D-01 0.000000000000D+00 -.176900183249D-04 0.177577593038D-02 0.000000000000D+00  6 2 22 9900012 -13 1 21 2 0.27570319D+00 0.88311635D-01 0.15552889D+05 0.15552889D+05 0.15552889D+05 0.11899355D+01  1  2  5  1  6  1        2 -.303290872332D-02 0.100000000000D+01
0.907900844085D-02 0.000000000000D+00 0.156183086001D-04 0.177577593038D-02 0.000000000000D+00  6 2 22 9900012 -13 1 21 2 0.16563546D+00 0.88311635D-01 0.15552889D+05 0.15552889D+05 0.15552889D+05 0.11899355D+01  1  2  6  1  6  1        2 0.639253576606D-02 0.100000000000D+01
0.584314279052D-03 0.000000000000D+00 0.000000000000D+00 0.177577593038D-02 0.000000000000D+00  6 21 22 9900012 -13 1 -2 2 0.27579462D+00 0.88311635D-01 0.18820808D+05 0.18820808D+05 0.18820808D+05 0.11818544D+01  1  2 12  3  6  1        2 0.522943725060D-04 0.100000000000D+01
-.587135899027D-03 0.000000000000D+00 -.101252319922D-05 0.177577593038D-02 0.000000000000D+00  6 21 22 9900012 -13 1 -2 2 0.27570319D+00 0.88311635D-01 0.15552889D+05 0.15552889D+05 0.15552889D+05 0.11899355D+01  1  2  5  3  6  1        2 -.539220232566D-04 0.100000000000D+01
  </mgrwgt>
  </event>
  <event>
  7     66 0.80203028E-06 0.28254882E+02 0.78161638E-02 0.12562890E+00
       21 -1    0    0  501  502 0.00000000E+00 0.00000000E+00 0.41616631E+03 0.41616631E+03 0.00000000E+00 0.0000E+00 0.9000E+01
       22 -1    0    0    0    0 0.00000000E+00 0.00000000E+00 -.34892242E+03 0.34892242E+03 0.00000000E+00 0.0000E+00 0.9000E+01
       24  2    1    2    0    0 -.41578006E+01 -.25474817E+02 -.34275594E+03 0.35309964E+03 0.80817502E+02 0.0000E+00 0.0000E+00
  9900012  1    3    3    0    0 -.22886649E+02 -.41956955E+01 -.25434945E+03 0.26025957E+03 0.50000000E+02 0.0000E+00 0.9000E+01
      -13  1    3    3    0    0 0.18728848E+02 -.21279122E+02 -.88406484E+02 0.92840063E+02 0.00000000E+00 0.0000E+00 0.9000E+01
        1  1    1    2  501    0 0.30164387E+01 -.62126098E+01 0.13323176E+03 0.13341063E+03 0.00000000E+00 0.0000E+00 0.9000E+01
       -2  1    1    2    0  502 0.11413619E+01 0.31687427E+02 0.27676807E+03 0.27857847E+03 0.00000000E+00 0.0000E+00 0.9000E+01
#aMCatNLO 2  0  0  1  5 0.31704459D+02 0.00000000D+00  -5  6  0 0.00000000D+00 0.00000000D+00 0.00000000D+00 0.00000000D+00 0.00000000D+00
  <mgrwgt>
 0.6003306102D-04    1    2    0
 0.218967156490689D+03 0.000000000000000D+00 0.000000000000000D+00 0.218967156490689D+03
 0.218967156490689D+03 0.000000000000000D+00 0.000000000000000D+00 -.218967156490689D+03
 0.167074193385891D+03 -.224518790022778D+02 0.787474798776229D+01 -.157631492947768D+03
 0.593500957899089D+02 0.188850603502522D+02 -.169422378993965D+02 -.536539741379793D+02
 0.211510023805579D+03 0.356681865202558D+01 0.906748991163421D+01 0.211285467085748D+03
 0.000000000000000D+00 0.000000000000000D+00 0.000000000000000D+00 0.000000000000000D+00
 0.659710369858167D+03 0.000000000000000D+00 0.000000000000000D+00 0.659710369858167D+03
 0.220111375271081D+03 0.000000000000000D+00 0.000000000000000D+00 -.220111375271081D+03
 0.167000269863341D+03 -.228866490484121D+02 -.419569551102446D+01 -.157631492947768D+03
 0.606821202572771D+02 0.187288484339002D+02 -.212791215622188D+02 -.536539741379793D+02
 0.211398306579638D+03 0.301643873814701D+01 -.621260979258266D+01 0.211285467085748D+03
 0.440741048428992D+03 0.114136187636484D+01 0.316874268658259D+02 0.439598994587087D+03
0.419877519415D-05 0.000000000000D+00 0.000000000000D+00 0.410531736159D-04 0.906629359834D-06  6 21 22 9900012 -13 1 -2 2 0.64025587D-01 0.53680372D-01 0.37277374D+04 0.37277374D+04 0.37277374D+04 0.12564630D+01  1  2  1  3  6  1        2 0.600330610208D-04 0.100000000000D+01
  </mgrwgt>
  </event>
  <event>
  6     66 0.80203028E-06 0.12167275E+03 0.78161638E-02 0.95901435E-01
        2 -1    0    0  501    0 0.00000000E+00 0.00000000E+00 0.29605175E+03 0.29605175E+03 0.00000000E+00 0.0000E+00 0.9000E+01
       22 -1    0    0    0    0 0.00000000E+00 0.00000000E+00 -.44475355E+03 0.44475355E+03 0.00000000E+00 0.0000E+00 0.9000E+01
       24  2    1    2    0    0 -.10135066E+03 -.67322370E+02 -.41941423E+03 0.44400659E+03 0.80182911E+02 0.0000E+00 0.0000E+00
  9900012  1    3    3    0    0 -.37952755E+02 -.17815318E+02 -.19216699E+03 0.20294322E+03 0.50000000E+02 0.0000E+00 0.9000E+01
      -13  1    3    3    0    0 -.63397905E+02 -.49507052E+02 -.22724724E+03 0.24106337E+03 0.00000000E+00 0.0000E+00 0.9000E+01
        1  1    1    2  501    0 0.10135066E+03 0.67322370E+02 0.27071242E+03 0.29679871E+03 0.00000000E+00 0.0000E+00 0.9000E+01
#aMCatNLO 1  0  0  1  5 0.81659180D+03 0.00000000D+00  -5  6  0 0.00000000D+00 0.00000000D+00 0.00000000D+00 0.00000000D+00 0.00000000D+00
  <mgrwgt>
 0.2217205604D-03    3    2    0
 0.362863702743246D+03 0.000000000000000D+00 0.000000000000000D+00 0.362863702743246D+03
 0.362863702743246D+03 0.000000000000000D+00 0.000000000000000D+00 -.362863702743246D+03
 0.167784532320940D+03 -.379527545762120D+02 -.178153176887075D+02 -.154576363529114D+03
 0.199508725623108D+03 -.633979047184554D+02 -.495070524188684D+02 -.182574612248970D+03
 0.358434147542445D+03 0.101350659294667D+03 0.673223701075760D+02 0.337150975778083D+03
 0.000000000000000D+00 0.000000000000000D+00 0.000000000000000D+00 -.000000000000000D+00
 0.513006945202828D+03 0.000000000000000D+00 0.000000000000000D+00 0.513006945202828D+03
 0.877702799467887D+03 0.000000000000000D+00 0.000000000000000D+00 -.877702799467887D+03
 0.216635462563817D+03 -.115210822266460D+03 -.852263921038586D+02 -.154576363529114D+03
 0.276196079197498D+03 -.159001761178690D+03 -.132925637362714D+03 -.182574612248970D+03
 0.344061564006514D+03 -.398320626166331D+02 -.558657869021756D+02 0.337150975778083D+03
 0.553816638902885D+03 0.314044646061783D+03 0.274017816368748D+03 -.364695854265059D+03
0.785839249659D-04 0.000000000000D+00 0.000000000000D+00 0.563108951489D-04 0.000000000000D+00  6 2 22 9900012 -13 1 21 0 0.45546423D-01 0.68423624D-01 0.17870658D+05 0.17870658D+05 0.17870658D+05 0.11840322D+01  1  2  2  1  6  1        2 0.273212216575D-03 0.100000000000D+01
0.879297884398D-06 0.000000000000D+00 -.150891481746D-06 0.563108951489D-04 0.000000000000D+00  6 2 22 9900012 -13 1 21 2 0.45546423D-01 0.68423624D-01 0.17870658D+05 0.17870658D+05 0.17870658D+05 0.11840322D+01  1  2  3  1  6  1        2 0.428577561836D-05 0.100000000000D+01
-.114436643704D-04 0.000000000000D+00 0.000000000000D+00 0.563108951489D-04 0.000000000000D+00  6 2 22 9900012 -13 1 21 2 0.45546423D-01 0.68423624D-01 0.17870658D+05 0.17870658D+05 0.17870658D+05 0.11840322D+01  1  2 15  1  6  1        2 -.557774317593D-04 0.100000000000D+01
  </mgrwgt>
  </event>
  <event>
  7     66 -.80203028E-06 0.27728316E+02 0.78161638E-02 0.12756143E+00
        2 -1    0    0  501    0 0.00000000E+00 0.00000000E+00 0.30199048E+04 0.30199048E+04 0.00000000E+00 0.0000E+00 0.9000E+01
       22 -1    0    0    0    0 0.00000000E+00 0.00000000E+00 -.10013913E+02 0.10013913E+02 0.00000000E+00 0.0000E+00 0.9000E+01
       24  2    1    2    0    0 0.24077154E+02 -.14337058E+02 0.17480557E+03 0.19464684E+03 0.80902068E+02 0.0000E+00 0.0000E+00
  9900012  1    3    3    0    0 -.32717580E+00 -.25200682E+02 0.92627153E+02 0.10823572E+03 0.50000000E+02 0.0000E+00 0.9000E+01
      -13  1    3    3    0    0 0.24404329E+02 0.10863624E+02 0.82178422E+02 0.86411126E+02 0.00000000E+00 0.0000E+00 0.9000E+01
        1  1    1    2  502    0 -.24281523E+02 0.13890479E+02 0.20990688E+04 0.20992552E+04 0.00000000E+00 0.0000E+00 0.9000E+01
       21  1    1    2  501  502 0.20436944E+00 0.44657889E+00 0.73601652E+03 0.73601669E+03 0.00000000E+00 0.0000E+00 0.9000E+01
#aMCatNLO 2  0  0  5  1 0.72151147D+01 0.00000000D+00  -5  6  0 0.00000000D+00 0.00000000D+00 0.00000000D+00 0.00000000D+00 0.00000000D+00
  <mgrwgt>
 -.6192140290D-03    2    2    0
 0.173899582080482D+03 0.000000000000000D+00 0.000000000000000D+00 0.173899582080482D+03
 0.173899582080482D+03 -.000000000000000D+00 -.000000000000000D+00 -.173899582080482D+03
 0.141621378064141D+03 -.277647957303200D+00 -.252301735834071D+02 -.130076807991853D+03
 0.416875776957753D+02 0.244189101313713D+02 0.108549417845174D+02 -.319959560099718D+02
 0.164490208401048D+03 -.241412621740681D+02 0.143752317988897D+02 0.162072764001825D+03
 0.000000000000000D+00 0.000000000000000D+00 0.000000000000000D+00 0.000000000000000D+00
 0.173899582080482D+03 0.000000000000000D+00 0.000000000000000D+00 0.173899582080482D+03
 0.173899582080482D+03 -.000000000000000D+00 -.000000000000000D+00 -.173899582080482D+03
 0.141310881751488D+03 -.327175797582077D+00 -.252006815800738D+02 -.129744302014694D+03
 0.416062058137231D+02 0.244043293931813D+02 0.108636240766763D+02 -.318980679823034D+02
 0.122497536172287D+03 -.242815230361519D+02 0.138904786117679D+02 0.119260675041111D+03
 0.423845404234666D+02 0.204369440552680D+00 0.446578891629613D+00 0.423816949558863D+02
-.231984499625D-04 0.000000000000D+00 0.000000000000D+00 0.116972090491D-04 0.000000000000D+00  6 2 22 9900012 -13 1 21 2 0.46460074D+00 0.15406020D-02 0.30897359D+04 0.30897359D+04 0.30897359D+04 0.12660901D+01  1  2 13  2  6  5        1 -.649944258873D-03 0.100000000000D+01
0.109685359901D-05 0.000000000000D+00 0.000000000000D+00 0.116972090491D-04 0.238838377176D-03  6 2 22 9900012 -13 1 21 2 0.46460074D+00 0.15406020D-02 0.30897359D+04 0.30897359D+04 0.30897359D+04 0.12660901D+01  1  2  1  2  6  5        1 0.307302298494D-04 0.100000000000D+01
  </mgrwgt>
  </event>
  <event>
  6     66 0.80203028E-06 0.77081189E+02 0.78161638E-02 0.11175480E+00
        2 -1    0    0  501    0 0.00000000E+00 0.00000000E+00 0.95167579E+03 0.95167579E+03 0.00000000E+00 0.0000E+00 0.9000E+01
       22 -1    0    0    0    0 0.00000000E+00 0.00000000E+00 -.96915656E+03 0.96915656E+03 0.00000000E+00 0.0000E+00 0.9000E+01
       24  2    1    2    0    0 -.28871409E+02 -.11727846E+03 -.95984974E+03 0.97075494E+03 0.80410368E+02 0.0000E+00 0.0000E+00
  9900012  1    3    3    0    0 -.92738473E+01 -.10772750E+03 -.70689246E+03 0.71685993E+03 0.50000000E+02 0.0000E+00 0.9000E+01
      -13  1    3    3    0    0 -.19597562E+02 -.95509584E+01 -.25295729E+03 0.25389501E+03 0.00000000E+00 0.0000E+00 0.9000E+01
        1  1    1    2  501    0 0.28871409E+02 0.11727846E+03 0.94236898E+03 0.95007741E+03 0.00000000E+00 0.0000E+00 0.9000E+01
#aMCatNLO 1  0  0  1  5 0.22297940D+01 0.00000000D+00  -5  6  0 0.00000000D+00 0.00000000D+00 0.00000000D+00 0.00000000D+00 0.00000000D+00
  <mgrwgt>
 0.1534871403D-02   11    2    0
 0.960376401946629D+03 0.000000000000000D+00 0.000000000000000D+00 0.960376401946629D+03
 0.960376401946629D+03 0.000000000000000D+00 0.000000000000000D+00 -.960376401946629D+03
 0.710456194800814D+03 -.927384726161738D+01 -.107727500286464D+03 -.700397591493467D+03
 0.251603356393216D+03 -.195975620480097D+02 -.955095839507006D+01 -.250657063941637D+03
 0.958693252699228D+03 0.288714093096271D+02 0.117278458681534D+03 0.951054655435104D+03
 0.000000000000000D+00 0.000000000000000D+00 -.000000000000000D+00 0.000000000000000D+00
 0.120801076013839D+04 0.000000000000000D+00 0.000000000000000D+00 0.120801076013839D+04
 0.960382068433405D+03 0.000000000000000D+00 0.000000000000000D+00 -.960382068433405D+03
 0.710361617393695D+03 -.975689025134254D+01 -.107059069624949D+03 -.700397591493467D+03
 0.251607864715641D+03 -.197686414437080D+02 -.931422022461596D+01 -.250657063941637D+03
 0.958784616029870D+03 0.282195141584731D+02 0.118180545486214D+03 0.951054655435104D+03
 0.247638730432587D+03 0.130601753657741D+01 -.180725563664889D+01 0.247628691704982D+03
0.206087356124D-04 0.000000000000D+00 0.000000000000D+00 0.240743636843D-02 0.000000000000D+00  6 2 22 9900012 -13 1 21 0 0.14641166D+00 0.14910101D+00 0.17122754D+05 0.17122754D+05 0.17122754D+05 0.11858390D+01  1  2  2  1  6  1        2 0.419392087042D-05 0.100000000000D+01
0.254954757933D-06 0.000000000000D+00 -.395714855782D-07 0.240743636843D-02 0.000000000000D+00  6 2 22 9900012 -13 1 21 2 0.14641166D+00 0.14910101D+00 0.17122754D+05 0.17122754D+05 0.17122754D+05 0.11858390D+01  1  2  3  1  6  1        2 0.729597679632D-07 0.100000000000D+01
-.311213229472D-05 0.000000000000D+00 0.000000000000D+00 0.240743636843D-02 0.000000000000D+00  6 2 22 9900012 -13 1 21 2 0.14641166D+00 0.14910101D+00 0.17122754D+05 0.17122754D+05 0.17122754D+05 0.11858390D+01  1  2 15  1  6  1        2 -.890591146187D-06 0.100000000000D+01
0.507188200803D-03 0.000000000000D+00 0.000000000000D+00 0.240743636843D-02 0.000000000000D+00  6 2 22 9900012 -13 1 21 2 0.18416519D+00 0.14910101D+00 0.17443454D+05 0.17443454D+05 0.17443454D+05 0.11850537D+01  1  2 12  1  6  1        2 0.105405467722D-03 0.100000000000D+01
-.181667685976D+00 0.000000000000D+00 0.000000000000D+00 0.240743636843D-02 0.000000000000D+00  6 2 22 9900012 -13 1 21 2 0.14641166D+00 0.14910101D+00 0.17122754D+05 0.17122754D+05 0.17122754D+05 0.11858390D+01  1  2  4  1  6  1        2 -.519873891457D-01 0.100000000000D+01
-.206989145314D+00 0.000000000000D+00 -.105553163879D-04 0.240743636843D-02 0.000000000000D+00  6 2 22 9900012 -13 1 21 2 0.18416450D+00 0.14910101D+00 0.17122754D+05 0.17122754D+05 0.17122754D+05 0.11858390D+01  1  2  5  1  6  1        2 -.430707649428D-01 0.100000000000D+01
0.201662028140D+00 0.000000000000D+00 0.102835286898D-04 0.240743636843D-02 0.000000000000D+00  6 2 22 9900012 -13 1 21 2 0.14641166D+00 0.14910101D+00 0.17122754D+05 0.17122754D+05 0.17122754D+05 0.11858390D+01  1  2  6  1  6  1        2 0.577091202353D-01 0.100000000000D+01
0.186617375781D+00 0.000000000000D+00 0.000000000000D+00 0.240743636843D-02 0.336550638981D-02  6 2 22 9900012 -13 1 21 2 0.18416411D+00 0.14910189D+00 0.17443454D+05 0.17443454D+05 0.17443454D+05 0.11850537D+01  1  2 11  1  6  1        2 0.387832558599D-01 0.100000000000D+01
0.161033547309D-04 0.000000000000D+00 0.000000000000D+00 0.240743636843D-02 0.000000000000D+00  6 21 22 9900012 -13 1 -2 2 0.18416519D+00 0.14910101D+00 0.17443454D+05 0.17443454D+05 0.17443454D+05 0.11850537D+01  1  2 12  3  6  1        2 0.198991348903D-05 0.100000000000D+01
-.657172397601D-02 0.000000000000D+00 -.335129869381D-06 0.240743636843D-02 0.000000000000D+00  6 21 22 9900012 -13 1 -2 2 0.18416450D+00 0.14910101D+00 0.17122754D+05 0.17122754D+05 0.17122754D+05 0.11858390D+01  1  2  5  3  6  1        2 -.813757629533D-03 0.100000000000D+01
0.650337818485D-02 0.000000000000D+00 0.000000000000D+00 0.240743636843D-02 0.117237677538D-03  6 21 22 9900012 -13 1 -2 2 0.18416411D+00 0.14910189D+00 0.17443454D+05 0.17443454D+05 0.17443454D+05 0.11850537D+01  1  2 11  3  6  1        2 0.803635355569D-03 0.100000000000D+01
  </mgrwgt>
  </event>
  <event>
  6     66 0.80203028E-06 0.25450100E+03 0.78161638E-02 0.90144791E-01
        2 -1    0    0  501    0 0.00000000E+00 0.00000000E+00 0.87547493E+03 0.87547493E+03 0.00000000E+00 0.0000E+00 0.9000E+01
       22 -1    0    0    0    0 0.00000000E+00 0.00000000E+00 -.73524194E+03 0.73524194E+03 0.00000000E+00 0.0000E+00 0.9000E+01
       24  2    1    2    0    0 -.35294461E+02 0.25204178E+03 -.69120671E+03 0.74119820E+03 0.82688009E+02 0.0000E+00 0.0000E+00
  9900012  1    3    3    0    0 -.49675386E+02 0.22778293E+03 -.63553443E+03 0.67879063E+03 0.50000000E+02 0.0000E+00 0.9000E+01
      -13  1    3    3    0    0 0.14380925E+02 0.24258852E+02 -.55672279E+02 0.62407576E+02 0.00000000E+00 0.0000E+00 0.9000E+01
        1  1    1    2  501    0 0.35294461E+02 -.25204178E+03 0.83143969E+03 0.86951867E+03 0.00000000E+00 0.0000E+00 0.9000E+01
#aMCatNLO 1  0  0  1  1 0.28291157D-02 0.00000000D+00  -5  6  0 0.00000000D+00 0.00000000D+00 0.00000000D+00 0.00000000D+00 0.00000000D+00
  <mgrwgt>
 0.1544586725D-03    3    2    0
 0.802300373324555D+03 0.000000000000000D+00 0.000000000000000D+00 0.802300373324555D+03
 0.802300373324555D+03 0.000000000000000D+00 0.000000000000000D+00 -.802300373324555D+03
 0.736920014574708D+03 -.496753864831366D+02 0.227782926647506D+03 -.697279285642730D+03
 0.675108908712283D+02 0.143809252882252D+02 0.242588515968501D+02 -.613385481836944D+02
 0.800169841203174D+03 0.352944611949114D+02 -.252041778244356D+03 0.758617833826425D+03
 0.000000000000000D+00 0.000000000000000D+00 0.000000000000000D+00 -.000000000000000D+00
 0.103812580118624D+04 0.000000000000000D+00 0.000000000000000D+00 0.103812580118624D+04
 0.139869524082569D+04 0.000000000000000D+00 0.000000000000000D+00 -.139869524082569D+04
 0.801648011316499D+03 -.335348228206024D+03 0.203673016623073D+03 -.697279285642730D+03
 0.660474830361493D+02 -.104174583827912D+02 0.221659442156174D+02 -.613385481836944D+02
 0.852338492881784D+03 -.271534189748459D+03 -.277937173559318D+03 0.758617833826425D+03
 0.716787054777497D+03 0.617299876337274D+03 0.520982127206269D+02 -.360569439639441D+03
0.454437437153D-03 0.000000000000D+00 0.000000000000D+00 0.169600842380D-04 0.000000000000D+00  6 2 22 9900012 -13 1 21 0 0.13468845D+00 0.11311415D+00 0.67896768D+05 0.67896768D+05 0.67896768D+05 0.11315598D+01  1  2  2  1  6  1        2 0.187889695787D-03 0.100000000000D+01
0.259243644731D-05 0.000000000000D+00 -.872579707396D-06 0.169600842380D-04 0.000000000000D+00  6 2 22 9900012 -13 1 21 2 0.13468845D+00 0.11311415D+00 0.67896768D+05 0.67896768D+05 0.67896768D+05 0.11315598D+01  1  2  3  1  6  1        2 0.137243564612D-05 0.100000000000D+01
-.657413378926D-04 0.000000000000D+00 0.000000000000D+00 0.169600842380D-04 0.000000000000D+00  6 2 22 9900012 -13 1 21 2 0.13468845D+00 0.11311415D+00 0.67896768D+05 0.67896768D+05 0.67896768D+05 0.11315598D+01  1  2 15  1  6  1        2 -.348034589781D-04 0.100000000000D+01
  </mgrwgt>
  </event>
  <event>
  7     66 -.80203028E-06 0.23090563E+02 0.78161638E-02 0.12680773E+00
        2 -1    0    0  501    0 0.00000000E+00 0.00000000E+00 0.53012767E+03 0.53012767E+03 0.00000000E+00 0.0000E+00 0.9000E+01
       22 -1    0    0    0    0 0.00000000E+00 0.00000000E+00 -.50303551E+02 0.50303551E+02 0.00000000E+00 0.0000E+00 0.9000E+01
       24  2    1    2    0    0 -.16719723E+02 -.22498100E+02 -.13019514E+02 0.85035361E+02 0.79219891E+02 0.0000E+00 0.0000E+00
  9900012  1    3    3    0    0 -.91745394E+01 0.65742267E+01 0.23179412E+01 0.51310481E+02 0.50000000E+02 0.0000E+00 0.9000E+01
      -13  1    3    3    0    0 -.75451837E+01 -.29072327E+02 -.15337455E+02 0.33724880E+02 0.00000000E+00 0.0000E+00 0.9000E+01
        1  1    1    2  502    0 0.98475761E+01 0.24839859E+02 0.47916873E+03 0.47991319E+03 0.00000000E+00 0.0000E+00 0.9000E+01
       21  1    1    2  501  502 0.68721470E+01 -.23417590E+01 0.13674905E+02 0.15482676E+02 0.00000000E+00 0.0000E+00 0.9000E+01
#aMCatNLO 2  0  0  5  1 0.88628478D+01 0.00000000D+00  -5  6  0 0.00000000D+00 0.00000000D+00 0.00000000D+00 0.00000000D+00 0.00000000D+00
  <mgrwgt>
 -.2202314686D-03    3    2    0
 0.163301267991980D+03 0.000000000000000D+00 0.000000000000000D+00 0.163301267991980D+03
 0.163301267991980D+03 -.000000000000000D+00 -.000000000000000D+00 -.163301267991980D+03
 0.890197051012848D+02 -.934585923562528D+01 0.634369834234995D+01 -.727799443721199D+02
 0.838892519094546D+02 -.770638237750349D+01 -.292892359830359D+02 -.782314445227088D+02
 0.153693578973221D+03 0.170522416131287D+02 0.229455376406860D+02 0.151011388894829D+03
 0.000000000000000D+00 0.000000000000000D+00 0.000000000000000D+00 0.000000000000000D+00
 0.163301267991980D+03 0.000000000000000D+00 0.000000000000000D+00 0.163301267991980D+03
 0.163301267991980D+03 -.000000000000000D+00 -.000000000000000D+00 -.163301267991980D+03
 0.877825432072652D+02 -.917453944788925D+01 0.657422666392058D+01 -.712627691128117D+02
 0.824679878728487D+02 -.754518370904471D+01 -.290723266640933D+02 -.768038999591123D+02
 0.148926834547840D+03 0.984757612386516D+01 0.248398590001448D+02 0.146510097596641D+03
 0.742517035600747D+01 0.687214703306878D+01 -.234175899997216D+01 0.155657147528325D+01
-.294143843712D-05 0.000000000000D+00 0.000000000000D+00 0.139795515889D-04 0.000000000000D+00  6 2 22 9900012 -13 1 21 2 0.81558103D-01 0.77390078D-02 0.33220476D+04 0.33220476D+04 0.33220476D+04 0.12623442D+01  1  2 13  2  6  5        1 -.222681396704D-03 0.100000000000D+01
-.496574747736D-07 0.000000000000D+00 0.000000000000D+00 0.139795515889D-04 0.000000000000D+00  6 2 22 9900012 -13 1 21 2 0.81558103D-01 0.77390078D-02 0.30323826D+04 0.30323826D+04 0.30323826D+04 0.12670642D+01  1  2  8  2  6  5        1 -.376283316641D-05 0.100000000000D+01
0.820654757008D-07 0.000000000000D+00 0.000000000000D+00 0.139795515889D-04 0.287791972478D-07  6 2 22 9900012 -13 1 21 2 0.81558103D-01 0.77390078D-02 0.33220476D+04 0.33220476D+04 0.33220476D+04 0.12623442D+01  1  2  1  2  6  5        1 0.621276125300D-05 0.100000000000D+01
  </mgrwgt>
  </event>
  <event>
  6     66 -.80203028E-06 0.41091099E+02 0.78161638E-02 0.12663754E+00
        2 -1    0    0  501    0 0.00000000E+00 0.00000000E+00 0.15919283E+03 0.15919283E+03 0.00000000E+00 0.0000E+00 0.9000E+01
       22 -1    0    0    0    0 0.00000000E+00 0.00000000E+00 -.20116614E+03 0.20116614E+03 0.00000000E+00 0.0000E+00 0.9000E+01
       24  2    1    2    0    0 -.40447258E+02 -.72455296E+01 -.18763271E+03 0.20901452E+03 0.82416964E+02 0.0000E+00 0.0000E+00
  9900012  1    3    3    0    0 -.19579745E+02 -.78151289E+01 -.17788187E+03 0.18597420E+03 0.50000000E+02 0.0000E+00 0.9000E+01
      -13  1    3    3    0    0 -.20867513E+02 0.56959925E+00 -.97508457E+01 0.23040324E+02 0.00000000E+00 0.0000E+00 0.9000E+01
        1  1    1    2  501    0 0.40447258E+02 0.72455296E+01 0.14565941E+03 0.15134445E+03 0.00000000E+00 0.0000E+00 0.9000E+01
#aMCatNLO 1  0  0  1  5 0.46538275D+03 0.00000000D+00  -5  6  0 0.00000000D+00 0.00000000D+00 0.00000000D+00 0.00000000D+00 0.00000000D+00
  <mgrwgt>
 -.2037912501D-04    1    2    0
 0.178953087369507D+03 0.000000000000000D+00 0.000000000000000D+00 0.178953087369507D+03
 0.178953087369507D+03 0.000000000000000D+00 0.000000000000000D+00 -.178953087369507D+03
 0.166387687377713D+03 -.195797451695933D+02 -.781512888138700D+01 -.157290876564931D+03
 0.220546969800355D+02 -.208675128240906D+02 0.569599253539834D+00 -.711562534904476D+01
 0.169463790381267D+03 0.404472579936839D+02 0.724552962784717D+01 0.164406501913976D+03
 0.000000000000000D+00 0.000000000000000D+00 0.000000000000000D+00 -.000000000000000D+00
 0.207503721788378D+03 0.000000000000000D+00 0.000000000000000D+00 0.207503721788378D+03
 0.254919965291403D+03 0.000000000000000D+00 0.000000000000000D+00 -.254919965291403D+03
 0.175128194919629D+03 -.458669364223699D+02 -.364100116515955D+02 -.157290876564931D+03
 0.257906384671602D+02 -.245502682935966D+02 -.343645677234857D+01 -.711562534904476D+01
 0.166367927252519D+03 0.145975887753674D+02 -.208734220638194D+02 0.164406501913976D+03
 0.951369264404738D+02 0.558196159405991D+02 0.607198904877635D+02 -.474162435030249D+02
-.562546165110D-06 0.000000000000D+00 0.000000000000D+00 0.307930123233D-05 0.000000000000D+00  6 2 22 9900012 -13 1 21 2 0.24491205D-01 0.30948636D-01 0.33773011D+04 0.33773011D+04 0.33773011D+04 0.12614969D+01  1  2 14  1  6  1        2 -.203791250116D-04 0.100000000000D+01
  </mgrwgt>
  </event>
  <event>
  6     66 0.80203028E-06 0.52643635E+02 0.78161638E-02 0.11362056E+00
        2 -1    0    0  501    0 0.00000000E+00 0.00000000E+00 0.18536107E+04 0.18536107E+04 0.00000000E+00 0.0000E+00 0.9000E+01
       22 -1    0    0    0    0 0.00000000E+00 0.00000000E+00 -.84899298E+02 0.84899298E+02 0.00000000E+00 0.0000E+00 0.9000E+01
       24  2    1    2    0    0 0.89875535E+02 0.27359062E+02 -.37890964E+02 0.12946654E+03 0.80620897E+02 0.0000E+00 0.0000E+00
  9900012  1    3    3    0    0 0.49134718E+02 -.66736008E+01 -.17176862E+02 0.72483116E+02 0.50000000E+02 0.0000E+00 0.9000E+01
      -13  1    3    3    0    0 0.40740817E+02 0.34032663E+02 -.20714102E+02 0.56983422E+02 0.00000000E+00 0.0000E+00 0.9000E+01
        1  1    1    2  501    0 -.89875535E+02 -.27359062E+02 0.18066023E+04 0.18090434E+04 0.00000000E+00 0.0000E+00 0.9000E+01
#aMCatNLO 1  0  0  1  5 0.18514477D+02 0.00000000D+00  -5  6  0 0.00000000D+00 0.00000000D+00 0.00000000D+00 0.00000000D+00 0.00000000D+00
  <mgrwgt>
 0.3698536832D-03    9    2    0
 0.396699184443649D+03 0.000000000000000D+00 0.000000000000000D+00 0.396699184443649D+03
 0.396699184443649D+03 0.000000000000000D+00 0.000000000000000D+00 -.396699184443649D+03
 0.215390098621012D+03 0.491347179525380D+02 -.667360084447385D+01 -.203553769622335D+03
 0.185405217908170D+03 0.407408170946748D+02 0.340326629346731D+02 -.177643064890271D+03
 0.392603052358116D+03 -.898755350472128D+02 -.273590620901993D+02 0.381196834512606D+03
 0.000000000000000D+00 0.000000000000000D+00 -.000000000000000D+00 0.000000000000000D+00
 0.412581266415673D+03 0.000000000000000D+00 0.000000000000000D+00 0.412581266415673D+03
 0.401032737762463D+03 0.000000000000000D+00 0.000000000000000D+00 -.401032737762463D+03
 0.214545103770224D+03 0.456024712417364D+02 -.398485143512454D+01 -.203553769622335D+03
 0.185200964237201D+03 0.376960036888293D+02 0.363503776688990D+02 -.177643064890271D+03
 0.393821486387217D+03 -.963366144722679D+02 -.224408825545651D+02 0.381196834512606D+03
 0.200464497834943D+02 0.130381395417021D+02 -.992464367920943D+01 0.115485286532091D+02
0.176139871572D-04 0.000000000000D+00 0.000000000000D+00 0.110048680155D-03 0.000000000000D+00  6 2 22 9900012 -13 1 21 0 0.28517087D+00 0.13061430D-01 0.11821246D+05 0.11821246D+05 0.11821246D+05 0.12018712D+01  1  2  2  1  6  1        2 0.731657118858D-04 0.100000000000D+01
0.326041832666D-06 0.000000000000D+00 -.338211742764D-07 0.110048680155D-03 0.000000000000D+00  6 2 22 9900012 -13 1 21 2 0.28517087D+00 0.13061430D-01 0.11821246D+05 0.11821246D+05 0.11821246D+05 0.12018712D+01  1  2  3  1  6  1        2 0.195631647793D-05 0.100000000000D+01
-.251926848042D-05 0.000000000000D+00 0.000000000000D+00 0.110048680155D-03 0.000000000000D+00  6 2 22 9900012 -13 1 21 2 0.28517087D+00 0.13061430D-01 0.11821246D+05 0.11821246D+05 0.11821246D+05 0.12018712D+01  1  2 15  1  6  1        2 -.151161168500D-04 0.100000000000D+01
0.385482403799D-04 0.000000000000D+00 0.000000000000D+00 0.110048680155D-03 0.000000000000D+00  6 2 22 9900012 -13 1 21 2 0.29982779D+00 0.13061430D-01 0.13860202D+05 0.13860202D+05 0.13860202D+05 0.11949051D+01  1  2 12  1  6  1        2 0.204449510803D-03 0.100000000000D+01
-.118484347277D-05 0.000000000000D+00 0.000000000000D+00 0.110048680155D-03 0.000000000000D+00  6 2 22 9900012 -13 1 21 2 0.28517087D+00 0.13061430D-01 0.11821246D+05 0.11821246D+05 0.11821246D+05 0.12018712D+01  1  2  4  1  6  1        2 -.710929879947D-05 0.100000000000D+01
-.185923211056D-03 0.000000000000D+00 -.352199380155D-04 0.110048680155D-03 0.000000000000D+00  6 2 22 9900012 -13 1 21 2 0.29794743D+00 0.13061430D-01 0.11821246D+05 0.11821246D+05 0.11821246D+05 0.12018712D+01  1  2  5  1  6  1        2 -.101034971249D-02 0.100000000000D+01
0.187320704890D-03 0.000000000000D+00 0.351861373856D-04 0.110048680155D-03 0.000000000000D+00  6 2 22 9900012 -13 1 21 2 0.28517087D+00 0.13061430D-01 0.11821246D+05 0.11821246D+05 0.11821246D+05 0.12018712D+01  1  2  6  1  6  1        2 0.112396185065D-02 0.100000000000D+01
0.704457896665D-06 0.000000000000D+00 0.000000000000D+00 0.110048680155D-03 0.000000000000D+00  6 21 22 9900012 -13 1 -2 2 0.29982779D+00 0.13061430D-01 0.13860202D+05 0.13860202D+05 0.13860202D+05 0.11949051D+01  1  2 12  3  6  1        2 0.101494379632D-05 0.100000000000D+01
-.140827939336D-05 0.000000000000D+00 -.271321139006D-06 0.110048680155D-03 0.000000000000D+00  6 21 22 9900012 -13 1 -2 2 0.29794743D+00 0.13061430D-01 0.11821246D+05 0.11821246D+05 0.11821246D+05 0.12018712D+01  1  2  5  3  6  1        2 -.211952230549D-05 0.100000000000D+01
  </mgrwgt>
  </event>
  <event>
  7     66 -.80203028E-06 0.33555522E+02 0.78161638E-02 0.12342116E+00
        2 -1    0    0  501    0 0.00000000E+00 0.00000000E+00 0.17001669E+04 0.17001669E+04 0.00000000E+00 0.0000E+00 0.9000E+01
       22 -1    0    0    0    0 0.00000000E+00 0.00000000E+00 -.77896118E+01 0.77896118E+01 0.00000000E+00 0.0000E+00 0.9000E+01
       24  2    1    2    0    0 -.20246983E+02 0.39025031E+02 0.26498423E+03 0.27963379E+03 0.77752973E+02 0.0000E+00 0.0000E+00
  9900012  1    3    3    0    0 0.98015942E+00 0.44989108E+02 0.20082998E+03 0.21179627E+03 0.50000000E+02 0.0000E+00 0.9000E+01
      -13  1    3    3    0    0 -.21227143E+02 -.59640767E+01 0.64154247E+02 0.67837521E+02 0.00000000E+00 0.0000E+00 0.9000E+01
        1  1    1    2  502    0 0.11642083E+02 -.36252308E+02 0.13202436E+04 0.13207926E+04 0.00000000E+00 0.0000E+00 0.9000E+01
       21  1    1    2  501  502 0.86049002E+01 -.27727232E+01 0.10714947E+03 0.10753019E+03 0.00000000E+00 0.0000E+00 0.9000E+01
#aMCatNLO 2  0  0  5  1 0.79650892D+01 0.00000000D+00  -5  6  0 0.00000000D+00 0.00000000D+00 0.00000000D+00 0.00000000D+00 0.00000000D+00
  <mgrwgt>
 -.1753850840D-03    3    2    0
 0.115081016983318D+03 0.000000000000000D+00 0.000000000000000D+00 0.115081016983318D+03
 0.115081016983318D+03 -.000000000000000D+00 -.000000000000000D+00 -.115081016983318D+03
 0.961876451207005D+02 0.679441256679019D+00 0.455687268392260D+02 -.683746485745744D+02
 0.320265648388815D+02 -.213273536797737D+02 -.577092545406079D+01 -.231849360534076D+02
 0.101947824007055D+03 0.206479124230947D+02 -.397978013851652D+02 0.915595846279820D+02
 0.000000000000000D+00 0.000000000000000D+00 0.000000000000000D+00 0.000000000000000D+00
 0.115081016983318D+03 0.000000000000000D+00 0.000000000000000D+00 0.115081016983318D+03
 0.115081016983318D+03 -.000000000000000D+00 -.000000000000000D+00 -.115081016983318D+03
 0.949710402397274D+02 0.980159422818253D+00 0.449891078635307D+02 -.670411660501619D+02
 0.316748364414657D+02 -.212271428599650D+02 -.596407671418195D+01 -.227405685624523D+02
 0.934382375309693D+02 0.116420832609407D+02 -.362523079431954D+02 0.853284026513498D+02
 0.100779197544746D+02 0.860490017620603D+01 -.277272320615332D+01 0.445333196126428D+01
-.101657149176D-05 0.000000000000D+00 0.000000000000D+00 0.507583662585D-06 0.000000000000D+00  6 2 22 9900012 -13 1 21 2 0.26156414D+00 0.11984018D-02 0.46535224D+04 0.46535224D+04 0.46535224D+04 0.12453738D+01  1  2 13  2  6  5        1 -.200374874223D-03 0.100000000000D+01
-.258461545927D-08 0.000000000000D+00 0.000000000000D+00 0.507583662585D-06 0.000000000000D+00  6 2 22 9900012 -13 1 21 2 0.26156414D+00 0.11984018D-02 0.45281401D+04 0.45281401D+04 0.45281401D+04 0.12467236D+01  1  2  8  2  6  5        1 -.509706205131D-06 0.100000000000D+01
0.129367822380D-06 0.000000000000D+00 0.000000000000D+00 0.507583662585D-06 0.943262986813D-08  6 2 22 9900012 -13 1 21 2 0.26156414D+00 0.11984018D-02 0.46535224D+04 0.46535224D+04 0.46535224D+04 0.12453738D+01  1  2  1  2  6  5        1 0.254994964426D-04 0.100000000000D+01
  </mgrwgt>
  </event>
  <event>
  6     66 -.80203028E-06 0.43120121E+02 0.78161638E-02 0.12327948E+00
        2 -1    0    0  501    0 0.00000000E+00 0.00000000E+00 0.18328186E+03 0.18328186E+03 0.00000000E+00 0.0000E+00 0.9000E+01
       22 -1    0    0    0    0 0.00000000E+00 0.00000000E+00 -.63709220E+02 0.63709220E+02 0.00000000E+00 0.0000E+00 0.9000E+01
       24  2    1    2    0    0 -.44747935E+02 0.53760386E+01 -.25266563E+02 0.95301678E+02 0.80079531E+02 0.0000E+00 0.0000E+00
  9900012  1    3    3    0    0 -.20945450E+02 -.19356560E+02 -.16228445E+02 0.59805942E+02 0.50000000E+02 0.0000E+00 0.9000E+01
      -13  1    3    3    0    0 -.23802485E+02 0.24732598E+02 -.90381177E+01 0.35495736E+02 0.00000000E+00 0.0000E+00 0.9000E+01
        1  1    1    2  501    0 0.44747935E+02 -.53760386E+01 0.14483920E+03 0.15168940E+03 0.00000000E+00 0.0000E+00 0.9000E+01
#aMCatNLO 1  0  0  1  5 0.54924573D+00 0.00000000D+00  -5  6  0 0.00000000D+00 0.00000000D+00 0.00000000D+00 0.00000000D+00 0.00000000D+00
  <mgrwgt>
 -.6992315720D-04   11    2    0
 0.108058985033275D+03 0.000000000000000D+00 0.000000000000000D+00 0.108058985033275D+03
 0.108058985033275D+03 0.000000000000000D+00 0.000000000000000D+00 -.108058985033275D+03
 0.773281938703401D+02 -.209454498949631D+02 -.193565597897936D+02 -.516358527483631D+02
 0.455669734978311D+02 -.238024851104174D+02 0.247325983848666D+02 -.299681389721366D+02
 0.932228026983788D+02 0.447479350053805D+02 -.537603859507299D+01 0.816039917204998D+02
 0.000000000000000D+00 0.000000000000000D+00 -.000000000000000D+00 0.000000000000000D+00
 0.111883064815099D+03 0.000000000000000D+00 0.000000000000000D+00 0.111883064815099D+03
 0.108078951530601D+03 0.000000000000000D+00 0.000000000000000D+00 -.108078951530601D+03
 0.773548030807407D+02 -.211218391939440D+02 -.192710191654384D+02 -.516358527483631D+02
 0.456487598194109D+02 -.239065009335718D+02 0.247830412320623D+02 -.299681389721366D+02
 0.931151014087954D+02 0.445354487403940D+02 -.527299261734731D+01 0.816039917204998D+02
 0.384335203675306D+01 0.492891387121827D+00 -.239029449276530D+00 0.380411328449792D+01
0.917026727526D-07 0.000000000000D+00 0.000000000000D+00 0.183516347517D-05 0.000000000000D+00  6 2 22 9900012 -13 1 21 0 0.28197209D-01 0.98014184D-02 0.46893422D+04 0.46893422D+04 0.46893422D+04 0.12449957D+01  1  2  2  1  6  1        2 0.989574192385D-05 0.100000000000D+01
0.275183607654D-08 0.000000000000D+00 -.176081204619D-09 0.183516347517D-05 0.000000000000D+00  6 2 22 9900012 -13 1 21 2 0.28197209D-01 0.98014184D-02 0.46893422D+04 0.46893422D+04 0.46893422D+04 0.12449957D+01  1  2  3  1  6  1        2 0.460282655518D-06 0.100000000000D+01
-.131683197721D-07 0.000000000000D+00 0.000000000000D+00 0.183516347517D-05 0.000000000000D+00  6 2 22 9900012 -13 1 21 2 0.28197209D-01 0.98014184D-02 0.46893422D+04 0.46893422D+04 0.46893422D+04 0.12449957D+01  1  2 15  1  6  1        2 -.220258366589D-05 0.100000000000D+01
0.467843047665D-14 0.000000000000D+00 0.000000000000D+00 0.183516347517D-05 0.000000000000D+00  6 2 22 9900012 -13 1 21 2 0.29200470D-01 0.98014184D-02 0.47215025D+04 0.47215025D+04 0.47215025D+04 0.12446589D+01  1  2 12  1  6  1        2 0.753306431551D-12 0.100000000000D+01
-.504711346671D-04 0.000000000000D+00 0.000000000000D+00 0.183516347517D-05 0.000000000000D+00  6 2 22 9900012 -13 1 21 2 0.28197209D-01 0.98014184D-02 0.46893422D+04 0.46893422D+04 0.46893422D+04 0.12449957D+01  1  2  4  1  6  1        2 -.844199554239D-02 0.100000000000D+01
-.311019356471D-04 0.000000000000D+00 -.311827966770D-06 0.183516347517D-05 0.000000000000D+00  6 2 22 9900012 -13 1 21 2 0.29197773D-01 0.98014184D-02 0.46893422D+04 0.46893422D+04 0.46893422D+04 0.12449957D+01  1  2  5  1  6  1        2 -.500819764244D-02 0.100000000000D+01
0.310940931711D-04 0.000000000000D+00 0.311638490491D-06 0.183516347517D-05 0.000000000000D+00  6 2 22 9900012 -13 1 21 2 0.28197209D-01 0.98014184D-02 0.46893422D+04 0.46893422D+04 0.46893422D+04 0.12449957D+01  1  2  6  1  6  1        2 0.520091727038D-02 0.100000000000D+01
0.507709432015D-04 0.000000000000D+00 0.000000000000D+00 0.183516347517D-05 0.932003341869D-04  6 2 22 9900012 -13 1 21 2 0.29195075D-01 0.98032294D-02 0.47215025D+04 0.47215025D+04 0.47215025D+04 0.12446589D+01  1  2 11  1  6  1        2 0.817450076363D-02 0.100000000000D+01
0.135425371740D-15 0.000000000000D+00 0.000000000000D+00 0.183516347517D-05 0.000000000000D+00  6 21 22 9900012 -13 1 -2 2 0.29200470D-01 0.98014184D-02 0.47215025D+04 0.47215025D+04 0.47215025D+04 0.12446589D+01  1  2 12  3  6  1        2 0.119205655837D-12 0.100000000000D+01
-.192981910504D-06 0.000000000000D+00 -.193620053185D-08 0.183516347517D-05 0.000000000000D+00  6 21 22 9900012 -13 1 -2 2 0.29197773D-01 0.98014184D-02 0.46893422D+04 0.46893422D+04 0.46893422D+04 0.12449957D+01  1  2  5  3  6  1        2 -.169914446770D-03 0.100000000000D+01
0.189267399599D-06 0.000000000000D+00 0.000000000000D+00 0.183516347517D-05 0.322628078375D-06  6 21 22 9900012 -13 1 -2 2 0.29195075D-01 0.98032294D-02 0.47215025D+04 0.47215025D+04 0.47215025D+04 0.12446589D+01  1  2 11  3  6  1        2 0.166612998609D-03 0.100000000000D+01
  </mgrwgt>
  </event>
  <event>
  7     66 -.80203028E-06 0.70715857E+02 0.78161638E-02 0.11682087E+00
        2 -1    0    0  501    0 0.00000000E+00 0.00000000E+00 0.41167123E+04 0.41167123E+04 0.00000000E+00 0.0000E+00 0.9000E+01
       22 -1    0    0    0    0 0.00000000E+00 0.00000000E+00 -.36563633E+02 0.36563633E+02 0.00000000E+00 0.0000E+00 0.9000E+01
       24  2    1    2    0    0 0.37150422E+02 -.69922181E+02 0.51155841E+02 0.12338757E+03 0.79613491E+02 0.0000E+00 0.0000E+00
  9900012  1    3    3    0    0 0.95111497E+01 -.19085071E+02 0.26818756E+02 0.60613097E+02 0.50000000E+02 0.0000E+00 0.9000E+01
      -13  1    3    3    0    0 0.27639272E+02 -.50837110E+02 0.24337085E+02 0.62774476E+02 0.00000000E+00 0.0000E+00 0.9000E+01
        1  1    1    2  502    0 0.12085897E+01 0.18926428E+02 0.13630975E+04 0.13632294E+04 0.00000000E+00 0.0000E+00 0.9000E+01
       21  1    1    2  501  502 -.38359012E+02 0.50995753E+02 0.26658954E+04 0.26666590E+04 0.00000000E+00 0.0000E+00 0.9000E+01
#aMCatNLO 2  0  0  5  1 0.14540404D+02 0.00000000D+00  -5  6  0 0.00000000D+00 0.00000000D+00 0.00000000D+00 0.00000000D+00 0.00000000D+00
  <mgrwgt>
 -.1649598527D-03    2    2    0
 0.387971592912974D+03 0.000000000000000D+00 0.000000000000000D+00 0.387971592912974D+03
 0.387971592912974D+03 -.000000000000000D+00 -.000000000000000D+00 -.387971592912974D+03
 0.183693561250030D+03 0.953947671851662D+01 -.191383865833282D+02 -.175459525212062D+03
 0.208362291985461D+03 0.276714024101335D+02 -.508975834150474D+02 -.200146381962301D+03
 0.383887332590458D+03 -.372108791286500D+02 0.700359699983755D+02 0.375605907174363D+03
 0.000000000000000D+00 -.000000000000000D+00 0.000000000000000D+00 0.000000000000000D+00
 0.387971592912974D+03 0.000000000000000D+00 0.000000000000000D+00 0.387971592912974D+03
 0.387971592912974D+03 -.000000000000000D+00 -.000000000000000D+00 -.387971592912974D+03
 0.183413438496003D+03 0.951114966807606D+01 -.190850711954294D+02 -.175173592502934D+03
 0.208031721134660D+03 0.276392722295023D+02 -.508371100153477D+02 -.199822060529262D+03
 0.129168621390419D+03 0.120858971146614D+01 0.189264280949873D+02 0.127768784851293D+03
 0.255329404804865D+03 -.383590116090445D+02 0.509957531157898D+02 0.247226868180903D+03
-.614710880770D-03 0.000000000000D+00 0.000000000000D+00 0.206946897416D-03 0.000000000000D+00  6 2 22 9900012 -13 1 21 2 0.63334036D+00 0.56251743D-02 0.95061595D+04 0.95061595D+04 0.95061595D+04 0.12116164D+01  1  2 13  2  6  5        1 -.456596879043D-03 0.100000000000D+01
0.392627417203D-03 0.000000000000D+00 0.000000000000D+00 0.206946897416D-03 0.963994443844D-06  6 2 22 9900012 -13 1 21 2 0.63334036D+00 0.56251743D-02 0.95061595D+04 0.95061595D+04 0.95061595D+04 0.12116164D+01  1  2  1  2  6  5        1 0.291637026332D-03 0.100000000000D+01
  </mgrwgt>
  </event>
  <event>
  6     66 0.80203028E-06 0.29702698E+02 0.78161638E-02 0.12311931E+00
        2 -1    0    0  501    0 0.00000000E+00 0.00000000E+00 0.16427240E+04 0.16427240E+04 0.00000000E+00 0.0000E+00 0.9000E+01
       22 -1    0    0    0    0 0.00000000E+00 0.00000000E+00 -.10300176E+02 0.10300176E+02 0.00000000E+00 0.0000E+00 0.9000E+01
       24  2    1    2    0    0 -.90890416E+01 -.28277899E+02 0.16539176E+03 0.18569145E+03 0.79022975E+02 0.0000E+00 0.0000E+00
  9900012  1    3    3    0    0 0.92744634E+01 -.36490455E+02 0.13954444E+03 0.15293862E+03 0.50000000E+02 0.0000E+00 0.9000E+01
      -13  1    3    3    0    0 -.18363505E+02 0.82125559E+01 0.25847319E+02 0.32752836E+02 0.00000000E+00 0.0000E+00 0.9000E+01
        1  1    1    2  501    0 0.90890416E+01 0.28277899E+02 0.14670320E+04 0.14673327E+04 0.00000000E+00 0.0000E+00 0.9000E+01
#aMCatNLO 1  0  0  1  5 0.27688582D+02 0.00000000D+00  -5  6  0 0.00000000D+00 0.00000000D+00 0.00000000D+00 0.00000000D+00 0.00000000D+00
  <mgrwgt>
 0.1352324442D-03    9    2    0
 0.130078232533559D+03 0.000000000000000D+00 0.000000000000000D+00 0.130078232533559D+03
 0.130078232533559D+03 0.000000000000000D+00 0.000000000000000D+00 -.130078232533559D+03
 0.961558179755567D+02 0.927446337283273D+01 -.364904551093027D+02 -.729957008707386D+02
 0.459240971381884D+02 -.183635049362143D+02 0.821255593238036D+01 -.412838746906456D+02
 0.118076549953372D+03 0.908904156338156D+01 0.282778991769224D+02 0.114279575561384D+03
 0.000000000000000D+00 0.000000000000000D+00 -.000000000000000D+00 0.000000000000000D+00
 0.140496789075047D+03 0.000000000000000D+00 0.000000000000000D+00 0.140496789075047D+03
 0.140148950080239D+03 0.000000000000000D+00 0.000000000000000D+00 -.140148950080239D+03
 0.936011670839883D+02 0.845022744699351D+01 -.293496131144591D+02 -.729957008707386D+02
 0.468348366636921D+02 -.187664163002311D+02 0.117032147330645D+02 -.412838746906456D+02
 0.120468182204060D+03 0.805288925466865D+01 0.372546977938692D+02 0.114279575561384D+03
 0.197415532035461D+02 0.226329959856890D+01 -.196082994124746D+02 0.347838994808410D+00
0.598426228510D-06 0.000000000000D+00 0.000000000000D+00 0.389746731846D-05 0.000000000000D+00  6 2 22 9900012 -13 1 21 0 0.25272676D+00 0.15846425D-02 0.31589714D+04 0.31589714D+04 0.31589714D+04 0.12649412D+01  1  2  2  1  6  1        2 0.548418517580D-04 0.100000000000D+01
0.443218137495D-07 0.000000000000D+00 -.114905714336D-08 0.389746731846D-05 0.000000000000D+00  6 2 22 9900012 -13 1 21 2 0.25272676D+00 0.15846425D-02 0.31589714D+04 0.31589714D+04 0.31589714D+04 0.12649412D+01  1  2  3  1  6  1        2 0.649919721840D-05 0.100000000000D+01
-.857884428250D-07 0.000000000000D+00 0.000000000000D+00 0.389746731846D-05 0.000000000000D+00  6 2 22 9900012 -13 1 21 2 0.25272676D+00 0.15846425D-02 0.31589714D+04 0.31589714D+04 0.31589714D+04 0.12649412D+01  1  2 15  1  6  1        2 -.125797200478D-04 0.100000000000D+01
0.353664357889D-06 0.000000000000D+00 0.000000000000D+00 0.389746731846D-05 0.000000000000D+00  6 2 22 9900012 -13 1 21 2 0.29410217D+00 0.15846425D-02 0.47997422D+04 0.47997422D+04 0.47997422D+04 0.12438500D+01  1  2 12  1  6  1        2 0.376015609573D-04 0.100000000000D+01
-.695905189810D-08 0.000000000000D+00 0.000000000000D+00 0.389746731846D-05 0.000000000000D+00  6 2 22 9900012 -13 1 21 2 0.25272676D+00 0.15846425D-02 0.31589714D+04 0.31589714D+04 0.31589714D+04 0.12649412D+01  1  2  4  1  6  1        2 -.102045126119D-05 0.100000000000D+01
-.138515027508D-05 0.000000000000D+00 -.479635453684D-06 0.389746731846D-05 0.000000000000D+00  6 2 22 9900012 -13 1 21 2 0.28477082D+00 0.15846425D-02 0.31589714D+04 0.31589714D+04 0.31589714D+04 0.12649412D+01  1  2  5  1  6  1        2 -.159982822216D-03 0.100000000000D+01
0.143556354078D-05 0.000000000000D+00 0.476238088105D-06 0.389746731846D-05 0.000000000000D+00  6 2 22 9900012 -13 1 21 2 0.25272676D+00 0.15846425D-02 0.31589714D+04 0.31589714D+04 0.31589714D+04 0.12649412D+01  1  2  6  1  6  1        2 0.210506064211D-03 0.100000000000D+01
0.813774197312D-08 0.000000000000D+00 0.000000000000D+00 0.389746731846D-05 0.000000000000D+00  6 21 22 9900012 -13 1 -2 2 0.29410217D+00 0.15846425D-02 0.47997422D+04 0.47997422D+04 0.47997422D+04 0.12438500D+01  1  2 12  3  6  1        2 0.257652188161D-06 0.100000000000D+01
-.239693431956D-07 0.000000000000D+00 -.906065364695D-08 0.389746731846D-05 0.000000000000D+00  6 21 22 9900012 -13 1 -2 2 0.28477082D+00 0.15846425D-02 0.31589714D+04 0.31589714D+04 0.31589714D+04 0.12649412D+01  1  2  5  3  6  1        2 -.890888620275D-06 0.100000000000D+01
  </mgrwgt>
  </event>
  <event>
  6     66 0.80203028E-06 0.21146437E+02 0.78161638E-02 0.12909047E+00
        4 -1    0    0  501    0 0.00000000E+00 0.00000000E+00 0.66469813E+02 0.66469813E+02 0.00000000E+00 0.0000E+00 0.9000E+01
       22 -1    0    0    0    0 -.00000000E+00 -.00000000E+00 -.15567077E+03 0.15567077E+03 0.00000000E+00 0.0000E+00 0.9000E+01
       24  2    1    2    0    0 0.19670924E+02 0.77605777E+01 -.14263625E+03 0.16467319E+03 0.79529800E+02 0.0000E+00 0.0000E+00
  9900012  1    3    3    0    0 -.63655554E+01 0.19078645E+02 -.92228162E+02 0.10682017E+03 0.50000000E+02 0.0000E+00 0.9000E+01
      -13  1    3    3    0    0 0.26036479E+02 -.11318068E+02 -.50408083E+02 0.57853018E+02 0.00000000E+00 0.0000E+00 0.9000E+01
        3  1    1    2  501    0 -.19670924E+02 -.77605777E+01 0.53435285E+02 0.57467396E+02 0.00000000E+00 0.0000E+00 0.9000E+01
#aMCatNLO 1  0  0  5  1 0.44773590D+01 0.00000000D+00  -5  6  0 0.00000000D+00 0.00000000D+00 0.00000000D+00 0.00000000D+00 0.00000000D+00
  <mgrwgt>
 0.3223021611D-04    7    2    0
 0.101722205356584D+03 0.000000000000000D+00 0.000000000000000D+00 0.101722205356584D+03
 0.101722205356584D+03 -.000000000000000D+00 -.000000000000000D+00 -.101722205356584D+03
 0.761989705293973D+02 -.636555536097689D+01 0.190786452108720D+02 -.538680620739597D+02
 0.410679946673591D+02 0.260364793730914D+02 -.113180675499184D+02 -.296746234144311D+02
 0.861774455164125D+02 -.196709240121145D+02 -.776057766095354D+01 0.835426854883908D+02
 0.000000000000000D+00 0.000000000000000D+00 -.000000000000000D+00 0.000000000000000D+00
 0.101722205356584D+03 0.000000000000000D+00 0.000000000000000D+00 0.101722205356584D+03
 0.101722205356584D+03 -.000000000000000D+00 -.000000000000000D+00 -.101722205356584D+03
 0.760761928401399D+02 -.640627868321113D+01 0.190625790360133D+02 -.536951095629661D+02
 0.409891613441688D+02 0.260145346256228D+02 -.113267251969550D+02 -.295814237693731D+02
 0.496689156244904D+02 -.942117886966982D+01 -.468786918620411D+00 0.487649752060161D+02
 0.367101409043699D+02 -.101870770727419D+02 -.726706692043786D+01 0.345115581263232D+02
0.154542792790D-06 0.000000000000D+00 0.000000000000D+00 0.219528413554D-05 0.000000000000D+00  6 4 22 9900012 -13 3 21 0 0.10226125D-01 0.23949350D-01 0.26744451D+04 0.26744451D+04 0.26744451D+04 0.12736557D+01  1  2  2  2  6  5        3 0.599295362275D-05 0.100000000000D+01
0.167998132523D-07 0.000000000000D+00 -.296742508183D-09 0.219528413554D-05 0.000000000000D+00  6 4 22 9900012 -13 3 21 2 0.10226125D-01 0.23949350D-01 0.26744451D+04 0.26744451D+04 0.26744451D+04 0.12736557D+01  1  2  3  2  6  5        3 0.105681914055D-05 0.100000000000D+01
-.219967033148D-07 0.000000000000D+00 0.000000000000D+00 0.219528413554D-05 0.000000000000D+00  6 4 22 9900012 -13 3 21 2 0.10226125D-01 0.23949350D-01 0.26744451D+04 0.26744451D+04 0.26744451D+04 0.12736557D+01  1  2 15  2  6  5        3 -.138373782749D-05 0.100000000000D+01
0.353570949442D-06 0.000000000000D+00 0.000000000000D+00 0.219528413554D-05 0.000000000000D+00  6 4 22 9900012 -13 3 21 2 0.10226125D-01 0.23949350D-01 0.27150565D+04 0.27150565D+04 0.27150565D+04 0.12728594D+01  1  2 12  2  6  5        3 0.222609174890D-04 0.100000000000D+01
-.768602034726D-06 0.000000000000D+00 0.000000000000D+00 0.219528413554D-05 0.000000000000D+00  6 4 22 9900012 -13 3 21 2 0.10226125D-01 0.23949350D-01 0.26744451D+04 0.26744451D+04 0.26744451D+04 0.12736557D+01  1  2  4  2  6  5        3 -.483501411332D-04 0.100000000000D+01
-.165964518757D-05 0.000000000000D+00 0.000000000000D+00 0.219528413554D-05 0.000000000000D+00  6 4 22 9900012 -13 3 21 2 0.10226125D-01 0.23949350D-01 0.26744451D+04 0.26744451D+04 0.26744451D+04 0.12736557D+01  1  2  5  2  6  5        3 -.104402636767D-03 0.100000000000D+01
0.249665441099D-05 0.000000000000D+00 -.000000000000D+00 0.219528413554D-05 0.000000000000D+00  6 4 22 9900012 -13 3 21 2 0.10226125D-01 0.23949350D-01 0.26744451D+04 0.26744451D+04 0.26744451D+04 0.12736557D+01  1  2  6  2  6  5        3 0.157056041590D-03 0.100000000000D+01
  </mgrwgt>
  </event>
  <event>
  6     66 0.80203028E-06 0.55547497E+02 0.78161638E-02 0.11890007E+00
        4 -1    0    0  501    0 0.00000000E+00 0.00000000E+00 0.85927146E+01 0.85927146E+01 0.00000000E+00 0.0000E+00 0.9000E+01
       22 -1    0    0    0    0 -.00000000E+00 -.00000000E+00 -.13681084E+04 0.13681084E+04 0.00000000E+00 0.0000E+00 0.9000E+01
       24  2    1    2    0    0 0.68905085E+02 -.18466596E+01 -.11702414E+04 0.11752660E+04 0.83869520E+02 0.0000E+00 0.0000E+00
  9900012  1    3    3    0    0 0.24829964E+02 -.63272216E+01 -.86545488E+03 0.86727660E+03 0.50000000E+02 0.0000E+00 0.9000E+01
      -13  1    3    3    0    0 0.44075121E+02 0.44805620E+01 -.30478649E+03 0.30798944E+03 0.00000000E+00 0.0000E+00 0.9000E+01
        3  1    1    2  501    0 -.68905085E+02 0.18466596E+01 -.18927435E+03 0.20143511E+03 0.00000000E+00 0.0000E+00 0.9000E+01
#aMCatNLO 1  0  0  5  1 0.15219744D+02 0.00000000D+00  -5  6  0 0.00000000D+00 0.00000000D+00 0.00000000D+00 0.00000000D+00 0.00000000D+00
  <mgrwgt>
 0.7011404114D-04    7    2    0
 0.108424006852557D+03 0.000000000000000D+00 0.000000000000000D+00 0.108424006852557D+03
 0.108424006852557D+03 -.000000000000000D+00 -.000000000000000D+00 -.108424006852557D+03
 0.801537654795888D+02 0.248299641029502D+02 -.632722161920260D+01 -.571669945841534D+02
 0.444891965687058D+02 0.440751208947166D+02 0.448056201622094D+01 -.407392850500082D+01
 0.922050516568191D+02 -.689050849976668D+02 0.184665960298166D+01 0.612409230891542D+02
 0.000000000000000D+00 0.000000000000000D+00 0.000000000000000D+00 0.000000000000000D+00
 0.108424006852557D+03 0.000000000000000D+00 0.000000000000000D+00 0.108424006852557D+03
 0.108424006852557D+03 -.000000000000000D+00 -.000000000000000D+00 -.108424006852557D+03
 0.783545698323632D+02 0.229052249727768D+02 -.627563851763485D+01 -.554563399780147D+02
 0.433569800361687D+02 0.430084200602478D+02 0.450914965005881D+01 -.312587447146968D+01
 0.723399714700419D+02 -.537900524437866D+02 0.160744121882020D+02 0.456214314021924D+02
 0.227964923665398D+02 -.121235925892379D+02 -.143079233206260D+02 0.129607830472920D+02
0.174902182023D-05 0.000000000000D+00 0.000000000000D+00 0.356195433893D-07 0.000000000000D+00  6 4 22 9900012 -13 3 21 0 0.13219561D-02 0.21047822D+00 0.71753929D+04 0.71753929D+04 0.71753929D+04 0.12245708D+01  1  2  2  2  6  5        3 0.308780292263D-04 0.100000000000D+01
-.107176331964D-07 0.000000000000D+00 -.335835215886D-08 0.356195433893D-07 0.000000000000D+00  6 4 22 9900012 -13 3 21 2 0.13219561D-02 0.21047822D+00 0.71753929D+04 0.71753929D+04 0.71753929D+04 0.12245708D+01  1  2  3  2  6  5        3 -.283740300955D-06 0.100000000000D+01
-.225409909998D-06 0.000000000000D+00 0.000000000000D+00 0.356195433893D-07 0.000000000000D+00  6 4 22 9900012 -13 3 21 2 0.13219561D-02 0.21047822D+00 0.71753929D+04 0.71753929D+04 0.71753929D+04 0.12245708D+01  1  2 15  2  6  5        3 -.596753728445D-05 0.100000000000D+01
0.232346087299D-05 0.000000000000D+00 0.000000000000D+00 0.356195433893D-07 0.000000000000D+00  6 4 22 9900012 -13 3 21 2 0.13219561D-02 0.21047822D+00 0.75248671D+04 0.75248671D+04 0.75248671D+04 0.12223511D+01  1  2 12  2  6  5        3 0.616836662167D-04 0.100000000000D+01
-.122737392437D-05 0.000000000000D+00 0.000000000000D+00 0.356195433893D-07 0.000000000000D+00  6 4 22 9900012 -13 3 21 2 0.13219561D-02 0.21047822D+00 0.71753929D+04 0.71753929D+04 0.71753929D+04 0.12245708D+01  1  2  4  2  6  5        3 -.324936896328D-04 0.100000000000D+01
-.222551204028D-05 0.000000000000D+00 0.000000000000D+00 0.356195433893D-07 0.000000000000D+00  6 4 22 9900012 -13 3 21 2 0.13219561D-02 0.21047822D+00 0.71753929D+04 0.71753929D+04 0.71753929D+04 0.12245708D+01  1  2  5  2  6  5        3 -.589185545459D-04 0.100000000000D+01
0.284110531804D-05 0.000000000000D+00 -.000000000000D+00 0.356195433893D-07 0.000000000000D+00  6 4 22 9900012 -13 3 21 2 0.13219561D-02 0.21047822D+00 0.71753929D+04 0.71753929D+04 0.71753929D+04 0.12245708D+01  1  2  6  2  6  5        3 0.752158674597D-04 0.100000000000D+01
  </mgrwgt>
  </event>
  <event>
  7     66 -.80203028E-06 0.30421050E+02 0.78161638E-02 0.12486933E+00
        2 -1    0    0  501    0 0.00000000E+00 0.00000000E+00 0.44054639E+03 0.44054639E+03 0.00000000E+00 0.0000E+00 0.9000E+01
       22 -1    0    0    0    0 0.00000000E+00 0.00000000E+00 -.18104759E+03 0.18104759E+03 0.00000000E+00 0.0000E+00 0.9000E+01
       24  2    1    2    0    0 0.29612391E+02 0.17306362E+02 -.16631907E+03 0.19337677E+03 0.92499385E+02 0.0000E+00 0.0000E+00
  9900012  1    3    3    0    0 -.75610549E+00 0.10270889E+01 -.14370934E+03 0.15216438E+03 0.50000000E+02 0.0000E+00 0.9000E+01
      -13  1    3    3    0    0 0.30368496E+02 0.16279273E+02 -.22609737E+02 0.41212383E+02 0.00000000E+00 0.0000E+00 0.9000E+01
        1  1    1    2  502    0 0.32707919E+01 -.72348519E+01 0.35008741E+02 0.35897815E+02 0.00000000E+00 0.0000E+00 0.9000E+01
       21  1    1    2  501  502 -.32883183E+02 -.10071510E+02 0.39080913E+03 0.39231941E+03 0.00000000E+00 0.0000E+00 0.9000E+01
#aMCatNLO 2  0  0  5  1 0.82377084D+01 0.00000000D+00  -5  6  0 0.00000000D+00 0.00000000D+00 0.00000000D+00 0.00000000D+00 0.00000000D+00
  <mgrwgt>
 -.8685017989D-04    2    2    0
 0.282417890174430D+03 0.000000000000000D+00 0.000000000000000D+00 0.282417890174430D+03
 0.282417890174430D+03 -.000000000000000D+00 -.000000000000000D+00 -.282417890174430D+03
 0.234116065168037D+03 -.684984168285451D+00 0.106865433553631D+01 -.228710998302148D+03
 0.558758284119293D+02 0.303854733007408D+02 0.162891952540746D+02 -.439715058985244D+02
 0.274843886768893D+03 -.297004891324554D+02 -.173578495896109D+02 0.272682504200672D+03
 0.000000000000000D+00 -.000000000000000D+00 0.000000000000000D+00 0.000000000000000D+00
 0.282417890174430D+03 0.000000000000000D+00 0.000000000000000D+00 0.282417890174430D+03
 0.282417890174430D+03 -.000000000000000D+00 -.000000000000000D+00 -.282417890174430D+03
 0.233478244554112D+03 -.756105494822052D+00 0.102708891608714D+01 -.228058027863325D+03
 0.557411025735797D+02 0.303684963101518D+02 0.162792733956225D+02 -.438156388255291D+02
 0.234212137359950D+02 0.327079188515064D+01 -.723485190542926D+01 0.220343389103844D+02
 0.252195219485173D+03 -.328831827004804D+02 -.100715104062804D+02 0.249839327778469D+03
-.133545152189D-04 0.000000000000D+00 0.000000000000D+00 0.718695187060D-06 0.000000000000D+00  6 2 22 9900012 -13 1 21 2 0.67776368D-01 0.27853476D-01 0.40197963D+04 0.40197963D+04 0.40197963D+04 0.12526589D+01  1  2 13  2  6  5        1 -.192472897592D-03 0.100000000000D+01
0.732851330560D-05 0.000000000000D+00 0.000000000000D+00 0.718695187060D-06 0.317815860393D-08  6 2 22 9900012 -13 1 21 2 0.67776368D-01 0.27853476D-01 0.40197963D+04 0.40197963D+04 0.40197963D+04 0.12526589D+01  1  2  1  2  6  5        1 0.105622717699D-03 0.100000000000D+01
  </mgrwgt>
  </event>
  <event>
  6     66 0.80203028E-06 0.10702812E+03 0.78161638E-02 0.11168580E+00
        2 -1    0    0  501    0 0.00000000E+00 0.00000000E+00 0.11541156E+04 0.11541156E+04 0.00000000E+00 0.0000E+00 0.9000E+01
       22 -1    0    0    0    0 0.00000000E+00 0.00000000E+00 -.89215296E+02 0.89215296E+02 0.00000000E+00 0.0000E+00 0.9000E+01
       24  2    1    2    0    0 0.10853930E+03 0.52554259E+02 -.26022399E+02 0.14576310E+03 0.77633667E+02 0.0000E+00 0.0000E+00
  9900012  1    3    3    0    0 0.53411424E+02 0.37141979E+02 0.19033062E+01 0.82072708E+02 0.50000000E+02 0.0000E+00 0.9000E+01
      -13  1    3    3    0    0 0.55127873E+02 0.15412280E+02 -.27925705E+02 0.63690389E+02 0.00000000E+00 0.0000E+00 0.9000E+01
        1  1    1    2  501    0 -.10853930E+03 -.52554259E+02 0.10909227E+04 0.10975678E+04 0.00000000E+00 0.0000E+00 0.9000E+01
#aMCatNLO 1  0  0  5  1 0.28396106D+02 0.00000000D+00  -5  6  0 0.00000000D+00 0.00000000D+00 0.00000000D+00 0.00000000D+00 0.00000000D+00
  <mgrwgt>
 0.2255974168D-03    7    2    0
 0.320881225917922D+03 0.000000000000000D+00 0.000000000000000D+00 0.320881225917922D+03
 0.320881225917922D+03 -.000000000000000D+00 -.000000000000000D+00 -.320881225917922D+03
 0.155846915421407D+03 0.534114237428106D+02 0.371419787757520D+02 -.132498884043431D+03
 0.169729962482967D+03 0.551278725140630D+02 0.154122804793050D+02 -.159786230467364D+03
 0.316185573931471D+03 -.108539296256874D+03 -.525542592550570D+02 0.292285114510795D+03
 0.000000000000000D+00 0.000000000000000D+00 0.000000000000000D+00 0.000000000000000D+00
 0.320881225917922D+03 0.000000000000000D+00 0.000000000000000D+00 0.320881225917922D+03
 0.320881225917922D+03 -.000000000000000D+00 -.000000000000000D+00 -.320881225917922D+03
 0.154036596829428D+03 0.527520640178151D+02 0.368227196398926D+02 -.130723296404941D+03
 0.167645464917376D+03 0.544100164157661D+02 0.150646976517138D+02 -.157853118137279D+03
 0.255369888234816D+03 -.111723184727083D+03 -.503538850641135D+02 0.224045075979033D+03
 0.647105018542245D+02 0.456110429350156D+01 -.153353222749285D+01 0.645313385631868D+02
0.372228507845D-05 0.000000000000D+00 0.000000000000D+00 0.570995412542D-05 0.000000000000D+00  6 2 22 9900012 -13 1 21 0 0.17755624D+00 0.13725430D-01 0.16885137D+05 0.16885137D+05 0.16885137D+05 0.11864315D+01  1  2  2  2  6  5        1 0.336849345870D-04 0.100000000000D+01
0.296119534036D-07 0.000000000000D+00 -.714727740072D-08 0.570995412542D-05 0.000000000000D+00  6 2 22 9900012 -13 1 21 2 0.17755624D+00 0.13725430D-01 0.16885137D+05 0.16885137D+05 0.16885137D+05 0.11864315D+01  1  2  3  2  6  5        1 0.377205877144D-06 0.100000000000D+01
-.560634665638D-06 0.000000000000D+00 0.000000000000D+00 0.570995412542D-05 0.000000000000D+00  6 2 22 9900012 -13 1 21 2 0.17755624D+00 0.13725430D-01 0.16885137D+05 0.16885137D+05 0.16885137D+05 0.11864315D+01  1  2 15  2  6  5        1 -.714153125689D-05 0.100000000000D+01
0.151197146891D-04 0.000000000000D+00 0.000000000000D+00 0.570995412542D-05 0.000000000000D+00  6 2 22 9900012 -13 1 21 2 0.17755624D+00 0.13725430D-01 0.17595154D+05 0.17595154D+05 0.17595154D+05 0.11846878D+01  1  2 12  2  6  5        1 0.192298448094D-03 0.100000000000D+01
-.291907885293D-05 0.000000000000D+00 0.000000000000D+00 0.570995412542D-05 0.000000000000D+00  6 2 22 9900012 -13 1 21 2 0.17755624D+00 0.13725430D-01 0.16885137D+05 0.16885137D+05 0.16885137D+05 0.11864315D+01  1  2  4  2  6  5        1 -.371840953606D-04 0.100000000000D+01
-.151947032246D-04 0.000000000000D+00 0.000000000000D+00 0.570995412542D-05 0.000000000000D+00  6 2 22 9900012 -13 1 21 2 0.17755624D+00 0.13725430D-01 0.16885137D+05 0.16885137D+05 0.16885137D+05 0.11864315D+01  1  2  5  2  6  5        1 -.193554652733D-03 0.100000000000D+01
0.186145051483D-04 0.000000000000D+00 -.000000000000D+00 0.570995412542D-05 0.000000000000D+00  6 2 22 9900012 -13 1 21 2 0.17755624D+00 0.13725430D-01 0.16885137D+05 0.16885137D+05 0.16885137D+05 0.11864315D+01  1  2  6  2  6  5        1 0.237117107622D-03 0.100000000000D+01
  </mgrwgt>
  </event>
  <event>
  5     66 0.80203028E-06 0.59598970E+02 0.78161638E-02 0.11185534E+00
        4 -1    0    0  501    0 0.00000000E+00 0.00000000E+00 0.26006222E+03 0.26006222E+03 0.00000000E+00 0.0000E+00 0.9000E+01
       22 -1    0    0    0    0 -.00000000E+00 -.00000000E+00 -.43174514E+03 0.43174514E+03 0.00000000E+00 0.0000E+00 0.9000E+01
  9900012  1    1    2    0    0 -.18191918E+00 0.13708202E+02 -.66223875E+02 0.84104396E+02 0.50000000E+02 0.0000E+00 0.9000E+01
      -13  1    1    2    0    0 0.89886492E+02 0.47834201E+02 -.33691042E+03 0.35196068E+03 0.00000000E+00 0.0000E+00 0.9000E+01
        3  1    1    2  501    0 -.89704573E+02 -.61542403E+02 0.23145138E+03 0.25574229E+03 0.00000000E+00 0.0000E+00 0.9000E+01
#aMCatNLO 1  0  0  5  1 0.12958979D+01 0.00000000D+00  -5  6  0 0.00000000D+00 0.00000000D+00 0.00000000D+00 0.00000000D+00 0.00000000D+00
  <mgrwgt>
 0.5483764709D-04    8    2    0
 0.335082977129446D+03 0.000000000000000D+00 0.000000000000000D+00 0.335082977129446D+03
 0.335082977129446D+03 -.000000000000000D+00 -.000000000000000D+00 -.335082977129446D+03
 0.698551343946604D+02 -.181919183917298D+00 0.137082015701735D+02 -.468165773676172D+02
 0.277016801185372D+03 0.898864923875520D+02 0.478342014779623D+02 -.257624951808252D+03
 0.323294018678860D+03 -.897045732036346D+02 -.615424030481357D+02 0.304441529175869D+03
 0.000000000000000D+00 0.000000000000000D+00 -.000000000000000D+00 0.000000000000000D+00
 0.335082977129446D+03 0.000000000000000D+00 0.000000000000000D+00 0.335082977129446D+03
 0.335082977129446D+03 -.000000000000000D+00 -.000000000000000D+00 -.335082977129446D+03
 0.698529160694603D+02 -.182840988405121D+00 0.137075691602384D+02 -.468134489254670D+02
 0.277003644442180D+03 0.898828369179393D+02 0.478316936193749D+02 -.257612545787923D+03
 0.294372526261738D+03 -.815095743283309D+02 -.547879034835760D+02 0.277506142530947D+03
 0.289368674855151D+02 -.819042160120317D+01 -.675135929603716D+01 0.269198521824437D+02
0.119304618214D-05 0.000000000000D+00 0.000000000000D+00 0.629186618048D-07 0.000000000000D+00  6 4 22 9900012 -13 3 21 0 0.40009573D-01 0.66422329D-01 0.17220423D+05 0.17220423D+05 0.17220423D+05 0.11855981D+01  1  2  2  2  6  5        3 0.935759325429D-06 0.100000000000D+01
0.217906107997D-07 0.000000000000D+00 -.229080573785D-08 0.629186618048D-07 0.000000000000D+00  6 4 22 9900012 -13 3 21 2 0.40009573D-01 0.66422329D-01 0.17220423D+05 0.17220423D+05 0.17220423D+05 0.11855981D+01  1  2  3  2  6  5        3 0.240243303994D-07 0.100000000000D+01
-.169326663613D-06 0.000000000000D+00 0.000000000000D+00 0.629186618048D-07 0.000000000000D+00  6 4 22 9900012 -13 3 21 2 0.40009573D-01 0.66422329D-01 0.17220423D+05 0.17220423D+05 0.17220423D+05 0.11855981D+01  1  2 15  2  6  5        3 -.186684060830D-06 0.100000000000D+01
0.106401892585D-06 0.000000000000D+00 0.000000000000D+00 0.629186618048D-07 0.000000000000D+00  6 4 22 9900012 -13 3 21 2 0.40009573D-01 0.66422329D-01 0.17225076D+05 0.17225076D+05 0.17225076D+05 0.11855866D+01  1  2 12  2  6  5        3 0.117308914273D-06 0.100000000000D+01
-.139959754115D-02 0.000000000000D+00 0.000000000000D+00 0.629186618048D-07 0.000000000000D+00  6 4 22 9900012 -13 3 21 2 0.40009573D-01 0.66422329D-01 0.17220423D+05 0.17220423D+05 0.17220423D+05 0.11855981D+01  1  2  4  2  6  5        3 -.154306797840D-02 0.100000000000D+01
-.156000803285D-02 0.000000000000D+00 0.000000000000D+00 0.629186618048D-07 0.000000000000D+00  6 4 22 9900012 -13 3 21 2 0.40009573D-01 0.66422329D-01 0.17220423D+05 0.17220423D+05 0.17220423D+05 0.11855981D+01  1  2  5  2  6  5        3 -.171992188522D-02 0.100000000000D+01
0.170586019957D-02 0.000000000000D+00 -.000000000000D+00 0.629186618048D-07 0.000000000000D+00  6 4 22 9900012 -13 3 21 2 0.40009573D-01 0.66422329D-01 0.17220423D+05 0.17220423D+05 0.17220423D+05 0.11855981D+01  1  2  6  2  6  5        3 0.188072511718D-02 0.100000000000D+01
0.130267741634D-02 0.000000000000D+00 0.000000000000D+00 0.629186618048D-07 0.195649466121D-06  6 4 22 9900012 -13 3 21 2 0.40009573D-01 0.66422329D-01 0.17225076D+05 0.17225076D+05 0.17225076D+05 0.11855866D+01  1  2 11  2  6  5        3 0.143621198502D-02 0.100000000000D+01
  </mgrwgt>
  </event>
  <event>
  7     66 0.80203028E-06 0.30708448E+02 0.78161638E-02 0.11947480E+00
        2 -1    0    0  502    0 0.00000000E+00 0.00000000E+00 0.93826108E+03 0.93826108E+03 0.00000000E+00 0.0000E+00 0.9000E+01
       22 -1    0    0    0    0 0.00000000E+00 0.00000000E+00 -.14970027E+03 0.14970027E+03 0.00000000E+00 0.0000E+00 0.9000E+01
       24  2    1    2    0    0 0.26575432E+02 -.57641601E+02 -.13007230E+03 0.16499017E+03 0.79209503E+02 0.0000E+00 0.0000E+00
  9900012  1    3    3    0    0 -.50132514E+01 -.32903422E+02 -.90631660E+02 0.10872840E+03 0.50000000E+02 0.0000E+00 0.9000E+01
      -13  1    3    3    0    0 0.31588683E+02 -.24738179E+02 -.39440644E+02 0.56261770E+02 0.00000000E+00 0.0000E+00 0.9000E+01
        1  1    1    2  501    0 -.68894996E+01 0.42555298E+02 0.23711801E+03 0.24100492E+03 0.00000000E+00 0.0000E+00 0.9000E+01
       21  1    1    2  502  501 -.19685932E+02 0.15086303E+02 0.68151510E+03 0.68196625E+03 0.00000000E+00 0.0000E+00 0.9000E+01
#aMCatNLO 2  0  0  1  5 0.24827568D+02 0.00000000D+00  -5  6  0 0.00000000D+00 0.00000000D+00 0.00000000D+00 0.00000000D+00 0.00000000D+00
  <mgrwgt>
 0.5755063011D-03    2    2    0
 0.195421403136806D+03 0.000000000000000D+00 0.000000000000000D+00 0.195421403136806D+03
 0.195421403136806D+03 0.000000000000000D+00 0.000000000000000D+00 -.195421403136806D+03
 0.136748655500431D+03 -.119127166746091D+02 -.276160205667949D+02 -.123675532627357D+03
 0.666991782747641D+02 0.281720052882608D+02 -.221198103382603D+02 -.562657310551134D+02
 0.187394972498417D+03 -.162592886136518D+02 0.497358309050552D+02 0.179941263682470D+03
 0.000000000000000D+00 -.000000000000000D+00 0.000000000000000D+00 0.000000000000000D+00
 0.716220217285850D+03 0.000000000000000D+00 0.000000000000000D+00 0.716220217285850D+03
 0.196109979377001D+03 0.000000000000000D+00 0.000000000000000D+00 -.196109979377001D+03
 0.137489655000082D+03 -.501325138303919D+01 -.329034218881806D+02 -.123675532627357D+03
 0.691061132833363D+02 0.315886828990824D+02 -.247381792916168D+02 -.562657310551134D+02
 0.185033178119407D+03 -.688949963667938D+01 0.425552984254612D+02 0.179941263682470D+03
 0.520701250260025D+03 -.196859318793638D+02 0.150863027543362D+02 0.520110237908849D+03
-.568105850036D-04 0.000000000000D+00 0.000000000000D+00 0.139551108778D-04 0.000000000000D+00  6 2 22 9900012 -13 1 21 2 0.14485647D+00 0.22949945D-01 0.70642792D+04 0.70642792D+04 0.70642792D+04 0.12253018D+01  1  2 13  1  6  1        2 -.461827840487D-03 0.100000000000D+01
0.127713979381D-03 0.000000000000D+00 0.000000000000D+00 0.139551108778D-04 0.808556422211D-06  6 2 22 9900012 -13 1 21 2 0.14434786D+00 0.23030810D-01 0.70642792D+04 0.70642792D+04 0.70642792D+04 0.12253018D+01  1  2  1  1  6  1        2 0.103733414158D-02 0.100000000000D+01
  </mgrwgt>
  </event>
  <event>
  6     66 0.80203028E-06 0.82799386E+02 0.78161638E-02 0.11569918E+00
        2 -1    0    0  501    0 0.00000000E+00 0.00000000E+00 0.68647620E+03 0.68647620E+03 0.00000000E+00 0.0000E+00 0.9000E+01
       22 -1    0    0    0    0 -.00000000E+00 -.00000000E+00 -.96927262E+03 0.96927262E+03 0.00000000E+00 0.0000E+00 0.9000E+01
       24  2    1    2    0    0 0.86306152E+02 -.27910363E+02 -.96221255E+03 0.97030443E+03 0.86081173E+02 0.0000E+00 0.0000E+00
  9900012  1    3    3    0    0 0.48606948E+02 -.35107882E+02 -.45565583E+03 0.46229583E+03 0.50000000E+02 0.0000E+00 0.9000E+01
      -13  1    3    3    0    0 0.37699204E+02 0.71975190E+01 -.50655672E+03 0.50800860E+03 0.00000000E+00 0.0000E+00 0.9000E+01
        1  1    1    2  501    0 -.86306152E+02 0.27910363E+02 0.67941612E+03 0.68544439E+03 0.00000000E+00 0.0000E+00 0.9000E+01
#aMCatNLO 1  0  0  5  1 0.58249954D+00 0.00000000D+00  -5  6  0 0.00000000D+00 0.00000000D+00 0.00000000D+00 0.00000000D+00 0.00000000D+00
  <mgrwgt>
 0.6135435388D-03    6    2    0
 0.815709866000889D+03 0.000000000000000D+00 0.000000000000000D+00 0.815709866000889D+03
 0.815709866000889D+03 -.000000000000000D+00 -.000000000000000D+00 -.815709866000889D+03
 0.390204877663652D+03 0.486069480463312D+02 -.351078820310738D+02 -.382314854241134D+03
 0.427776006710522D+03 0.376992043883862D+02 0.719751903644713D+01 -.426050792306978D+03
 0.813438847627603D+03 -.863061524347173D+02 0.279103629946266D+02 0.808365646548111D+03
 0.000000000000000D+00 -.000000000000000D+00 0.000000000000000D+00 0.000000000000000D+00
 0.815709866000889D+03 0.000000000000000D+00 0.000000000000000D+00 0.815709866000889D+03
 0.815709866000889D+03 -.000000000000000D+00 -.000000000000000D+00 -.815709866000889D+03
 0.390160064098155D+03 0.486021451466120D+02 -.351063288315531D+02 -.382269869045672D+03
 0.427726453635483D+03 0.376939390409741D+02 0.719922178594320D+01 -.426001475707349D+03
 0.897494183703957D+00 0.468162859202584D+00 -.448616491166698D-01 0.764399620260475D+00
 0.812635720084436D+03 -.867642470467885D+02 0.279519686947265D+02 0.807506945132760D+03
0.240200194924D-02 0.000000000000D+00 0.000000000000D+00 0.109779942250D-03 0.000000000000D+00  6 2 22 9900012 -13 1 21 0 0.10561172D+00 0.14911886D+00 0.10728690D+05 0.10728690D+05 0.10728690D+05 0.12061769D+01  1  2  2  2  6  5        1 0.718226596045D-03 0.100000000000D+01
0.425867083748D-04 0.000000000000D+00 -.461215997336D-05 0.109779942250D-03 0.000000000000D+00  6 2 22 9900012 -13 1 21 2 0.10561172D+00 0.14911886D+00 0.10728690D+05 0.10728690D+05 0.10728690D+05 0.12061769D+01  1  2  3  2  6  5        1 0.185261096868D-04 0.100000000000D+01
-.350944522911D-03 0.000000000000D+00 0.000000000000D+00 0.109779942250D-03 0.000000000000D+00  6 2 22 9900012 -13 1 21 2 0.10561172D+00 0.14911886D+00 0.10728690D+05 0.10728690D+05 0.10728690D+05 0.12061769D+01  1  2 15  2  6  5        1 -.152668214416D-03 0.100000000000D+01
0.580254178726D-11 0.000000000000D+00 0.000000000000D+00 0.109779942250D-03 0.000000000000D+00  6 2 22 9900012 -13 1 21 2 0.10561172D+00 0.14911886D+00 0.10823205D+05 0.10823205D+05 0.10823205D+05 0.12057855D+01  1  2 12  2  6  5        1 0.252309217760D-11 0.100000000000D+01
-.881672963322D-03 0.000000000000D+00 0.000000000000D+00 0.109779942250D-03 0.000000000000D+00  6 2 22 9900012 -13 1 21 2 0.10561172D+00 0.14911886D+00 0.10728690D+05 0.10728690D+05 0.10728690D+05 0.12061769D+01  1  2  5  2  6  5        1 -.383546196682D-03 0.100000000000D+01
0.949818716114D-03 0.000000000000D+00 0.000000000000D+00 0.109779942250D-03 0.134334682894D-05  6 2 22 9900012 -13 1 21 2 0.10561172D+00 0.14911886D+00 0.10823205D+05 0.10823205D+05 0.10823205D+05 0.12057855D+01  1  2 11  2  6  5        1 0.413005241604D-03 0.100000000000D+01
  </mgrwgt>
  </event>
</LesHouchesEvents>
