<LesHouchesEvents version="3.0">
  <!--
  <scalesfunctionalform>
    muR  H_T/2 := sum_i mT(i)/2, i=final state
    muF1 H_T/2 := sum_i mT(i)/2, i=final state
    muF2 H_T/2 := sum_i mT(i)/2, i=final state
    QES  H_T/2 := sum_i mT(i)/2, i=final state
  </scalesfunctionalform>
PYTHIA8   
  -->
  <header>
       53
  </header>
  <init>
   2212   2212 0.65000000D+04 0.65000000D+04 -1 -1  82200  82200 -4   1
 0.56936428D-04 0.34068370D-06 0.20026351D-05     66
  </init>
  <event>
  6     66 -.20026351E-05 0.11049302E+02 0.78161638E-02 0.13460279E+00
       -1 -1    0    0    0  501 0.00000000E+00 0.00000000E+00 0.27999395E+03 0.27999395E+03 0.00000000E+00 0.0000E+00 0.9000E+01
       22 -1    0    0    0    0 0.00000000E+00 0.00000000E+00 -.16374929E+02 0.16374929E+02 0.00000000E+00 0.0000E+00 0.9000E+01
       24  2    1    2    0    0 0.22080281E+01 -.10826435E+02 0.76786748E+02 0.10921016E+03 0.76867208E+02 0.0000E+00 0.0000E+00
  9900012  1    3    3    0    0 0.17751941E+02 -.11292602E+02 0.76342751E+02 0.93652923E+02 0.50000000E+02 0.0000E+00 0.9000E+01
      -11  1    3    3    0    0 -.15543913E+02 0.46616727E+00 0.44399616E+00 0.15557238E+02 0.00000000E+00 0.0000E+00 0.9000E+01
       -2  1    1    2    0  501 -.22080281E+01 0.10826435E+02 0.18683228E+03 0.18715872E+03 0.00000000E+00 0.0000E+00 0.9000E+01
#aMCatNLO 1  0  0  0  0 0.00000000D+00 0.00000000D+00  -5  6  0 0.00000000D+00 0.00000000D+00 0.00000000D+00 0.00000000D+00 0.00000000D+00
  <mgrwgt>
 -.9945431411D-05    1    2    0
 0.677117494586512D+02 0.000000000000000D+00 0.000000000000000D+00 0.677117494586512D+02
 0.677117494586512D+02 0.000000000000000D+00 0.000000000000000D+00 -.677117494586512D+02
 0.563448029880395D+02 0.177519407544255D+02 -.112926023899316D+02 -.152342559541078D+02
 0.331820955220791D+02 -.155439126573270D+02 0.466167274342809D+00 -.293124705647631D+02
 0.458966004071838D+02 -.220802809709852D+01 0.108264351155888D+02 0.445467265188709D+02
 0.000000000000000D+00 -.000000000000000D+00 0.000000000000000D+00 -.000000000000000D+00
 0.740572976830989D+02 0.000000000000000D+00 0.000000000000000D+00 0.740572976830989D+02
 0.978313413108541D+02 0.000000000000000D+00 0.000000000000000D+00 -.978313413108541D+02
 0.610114318099183D+02 0.276900663032768D+02 -.149523404569711D+02 -.152342559541078D+02
 0.310434361603134D+02 -.101050759529949D+02 -.153669711184485D+01 -.293124705647631D+02
 0.455924582310318D+02 0.553957689941613D+01 0.797336138505938D+01 0.445467265188709D+02
 0.342413127926896D+02 -.231245672496980D+02 0.851567618375658D+01 -.237740436277551D+02
-.383079085074D-07 0.000000000000D+00 0.000000000000D+00 0.566744558070D-07 0.000000000000D+00  6 -1 22 9900012 -11 -2 21 2 0.43075993D-01 0.25192198D-02 0.16340368D+04 0.16340368D+04 0.16340368D+04 0.13005647D+01  1  2 14  1  6  1       -1 -.994543141150D-05 0.100000000000D+01
  </mgrwgt>
  </event>
  <event>
  7     66 0.20026351E-05 0.36681134E+02 0.78161638E-02 0.11722531E+00
       21 -1    0    0  502  501 0.00000000E+00 0.00000000E+00 0.10738638E+03 0.10738638E+03 0.00000000E+00 0.0000E+00 0.9000E+01
       22 -1    0    0    0    0 0.00000000E+00 0.00000000E+00 -.11248958E+03 0.11248958E+03 0.00000000E+00 0.0000E+00 0.9000E+01
       24  2    1    2    0    0 0.44666599E+02 -.34860994E+02 -.49609865E+02 0.10917912E+03 0.79047758E+02 0.0000E+00 0.0000E+00
  9900012  1    3    3    0    0 0.12926467E+02 -.27693226E+02 -.12675636E+02 0.59955651E+02 0.50000000E+02 0.0000E+00 0.9000E+01
      -11  1    3    3    0    0 0.31740132E+02 -.71677686E+01 -.36934228E+02 0.49223471E+02 0.00000000E+00 0.0000E+00 0.9000E+01
        1  1    1    2  502    0 -.65867540E+02 0.40692040E+02 0.25159448E+02 0.81408678E+02 0.00000000E+00 0.0000E+00 0.9000E+01
       -2  1    1    2    0  501 0.21200941E+02 -.58310455E+01 0.19347216E+02 0.29288151E+02 0.00000000E+00 0.0000E+00 0.9000E+01
#aMCatNLO 2  0  0  1  5 0.22443894D-01 0.00000000D+00  -5  6  0 0.00000000D+00 0.00000000D+00 0.00000000D+00 0.00000000D+00 0.00000000D+00
  <mgrwgt>
 0.7840158163D-06    1    2    0
 0.553691764302391D+02 0.000000000000000D+00 0.000000000000000D+00 0.553691764302391D+02
 0.553691764302391D+02 0.000000000000000D+00 0.000000000000000D+00 -.553691764302391D+02
 0.536396699613391D+02 -.171440693303034D+02 -.911607149250722D+01 0.438544071481015D+00
 0.299426224748767D+02 0.124203121406022D+02 0.476774430789830D+01 -.268247106455503D+02
 0.000000000000000D+00 -.000000000000000D+00 0.000000000000000D+00 0.000000000000000D+00
 0.271560604242625D+02 0.472375718970113D+01 0.434832718460892D+01 0.263861665740693D+02
 0.134098007229621D+03 0.000000000000000D+00 0.000000000000000D+00 0.134098007229621D+03
 0.900822317562737D+02 0.000000000000000D+00 0.000000000000000D+00 -.900822317562737D+02
 0.586020530913736D+02 0.129264669889445D+02 -.276932258288064D+02 0.438544071481015D+00
 0.421708191034590D+02 0.317401319465482D+02 -.716776859663258D+01 -.268247106455503D+02
 0.890604484781412D+02 -.658675404160110D+02 0.406920399114207D+02 0.440157754733477D+02
 0.343469183129212D+02 0.212009414805183D+02 -.583104548598172D+01 0.263861665740693D+02
0.728693311030D-09 0.000000000000D+00 0.000000000000D+00 0.890335387497D-07 0.141799157534D-09  6 21 22 9900012 -11 1 -2 2 0.16520981D-01 0.17306089D-01 0.90774560D+04 0.90774560D+04 0.90774560D+04 0.12137119D+01  1  2  1  3  5  1       -1 0.784015816333D-06 0.100000000000D+01
  </mgrwgt>
  </event>
  <event>
  6     66 0.20026351E-05 0.19013137E+02 0.78161638E-02 0.13160159E+00
       -1 -1    0    0    0  501 0.00000000E+00 0.00000000E+00 0.14666551E+03 0.14666551E+03 0.00000000E+00 0.0000E+00 0.9000E+01
       22 -1    0    0    0    0 0.00000000E+00 0.00000000E+00 -.19102123E+02 0.19102123E+02 0.00000000E+00 0.0000E+00 0.9000E+01
       24  2    1    2    0    0 0.74513356E+01 -.17492197E+02 0.74252293E+02 0.10916753E+03 0.77734460E+02 0.0000E+00 0.0000E+00
  9900012  1    3    3    0    0 -.39933629E+01 0.23632443E+01 0.69532520E+02 0.85768894E+02 0.50000000E+02 0.0000E+00 0.9000E+01
      -11  1    3    3    0    0 0.11444698E+02 -.19855441E+02 0.47197721E+01 0.23398631E+02 0.00000000E+00 0.0000E+00 0.9000E+01
       -2  1    1    2    0  501 -.74513356E+01 0.17492197E+02 0.53311094E+02 0.56600107E+02 0.00000000E+00 0.0000E+00 0.9000E+01
#aMCatNLO 1  0  0  5  1 0.19963616D+00 0.00000000D+00  -5  6  0 0.00000000D+00 0.00000000D+00 0.00000000D+00 0.00000000D+00 0.00000000D+00
  <mgrwgt>
 0.8048289022D-04    5    2    0
 0.529303559576345D+02 0.000000000000000D+00 0.000000000000000D+00 0.529303559576345D+02
 0.529303559576345D+02 -.000000000000000D+00 -.000000000000000D+00 -.529303559576345D+02
 0.505182960808354D+02 -.399336289610430D+01 0.236324428229663D+01 0.552868593367015D+01
 0.309526117485042D+02 0.114446984590079D+02 -.198554413872393D+02 -.208049152498616D+02
 0.243898040859295D+02 -.745133556290360D+01 0.174921971049426D+02 0.152762293161915D+02
 0.000000000000000D+00 0.000000000000000D+00 -.000000000000000D+00 0.000000000000000D+00
 0.529303559576345D+02 0.000000000000000D+00 0.000000000000000D+00 0.529303559576345D+02
 0.529303559576345D+02 -.000000000000000D+00 -.000000000000000D+00 -.529303559576345D+02
 0.505293217596679D+02 -.401986723685823D+01 0.242546388691522D+01 0.558302335866108D+01
 0.308998264576449D+02 0.114284748395529D+02 -.198173560336988D+02 -.207716546714001D+02
 0.243209320326177D+02 -.739130354609477D+01 0.175011055164528D+02 0.151851135170825D+02
 0.110631665338643D+00 -.173040565999167D-01 -.109213369669226D+00 0.351779565656483D-02
0.270779789553D-06 0.000000000000D+00 0.000000000000D+00 0.217213640314D-07 0.000000000000D+00  6 -1 22 9900012 -11 -2 21 0 0.22563925D-01 0.29387881D-02 0.21227059D+04 0.21227059D+04 0.21227059D+04 0.12860539D+01  1  2  2  2  6  5       -2 0.964297331084D-04 0.100000000000D+01
0.797202278603D-08 0.000000000000D+00 -.519932844919D-09 0.217213640314D-07 0.000000000000D+00  6 -1 22 9900012 -11 -2 21 2 0.22563925D-01 0.29387881D-02 0.21227059D+04 0.21227059D+04 0.21227059D+04 0.12860539D+01  1  2  3  2  6  5       -2 0.469549735219D-05 0.100000000000D+01
-.310234986772D-07 0.000000000000D+00 0.000000000000D+00 0.217213640314D-07 0.000000000000D+00  6 -1 22 9900012 -11 -2 21 2 0.22563925D-01 0.29387881D-02 0.21227059D+04 0.21227059D+04 0.21227059D+04 0.12860539D+01  1  2 15  2  6  5       -2 -.182727470561D-04 0.100000000000D+01
-.119313219572D-05 0.000000000000D+00 0.000000000000D+00 0.217213640314D-07 0.000000000000D+00  6 -1 22 9900012 -11 -2 21 2 0.22563925D-01 0.29387881D-02 0.21227059D+04 0.21227059D+04 0.21227059D+04 0.12860539D+01  1  2  4  2  6  5       -2 -.702751261029D-03 0.100000000000D+01
0.118905550219D-05 0.000000000000D+00 0.000000000000D+00 0.217213640314D-07 0.182954804217D-05  6 -1 22 9900012 -11 -2 21 2 0.22563925D-01 0.29387881D-02 0.21254398D+04 0.21254398D+04 0.21254398D+04 0.12859838D+01  1  2 11  2  6  5       -2 0.700381667846D-03 0.100000000000D+01
  </mgrwgt>
  </event>
  <event>
  6     66 0.20026351E-05 0.78360053E+02 0.78161638E-02 0.10754497E+00
       -1 -1    0    0    0  501 0.00000000E+00 0.00000000E+00 0.32049456E+03 0.32049456E+03 0.00000000E+00 0.0000E+00 0.9000E+01
       22 -1    0    0    0    0 0.00000000E+00 0.00000000E+00 -.96861540E+02 0.96861540E+02 0.00000000E+00 0.0000E+00 0.9000E+01
       24  2    1    2    0    0 0.20134210E+02 0.11342639E+03 -.18715135E+02 0.14902131E+03 0.92661540E+02 0.0000E+00 0.0000E+00
  9900012  1    3    3    0    0 -.11874051E+01 0.62728142E+02 -.40494460E+02 0.89866740E+02 0.50000000E+02 0.0000E+00 0.9000E+01
      -11  1    3    3    0    0 0.21321615E+02 0.50698249E+02 0.21779325E+02 0.59154566E+02 0.00000000E+00 0.0000E+00 0.9000E+01
       -2  1    1    2    0  501 -.20134210E+02 -.11342639E+03 0.24234815E+03 0.26833479E+03 0.00000000E+00 0.0000E+00 0.9000E+01
#aMCatNLO 1  0  0  1  5 0.98854973D+02 0.00000000D+00  -5  6  0 0.00000000D+00 0.00000000D+00 0.00000000D+00 0.00000000D+00 0.00000000D+00
  <mgrwgt>
 0.2663355408D-04    9    4    0
 0.176191930141450D+03 0.000000000000000D+00 0.000000000000000D+00 0.176191930141450D+03
 0.176191930141450D+03 0.000000000000000D+00 0.000000000000000D+00 -.176191930141450D+03
 0.132135252110625D+03 -.118740510141282D+01 0.627281418961536D+02 -.104992833725544D+03
 0.562396437325433D+02 0.213216147037343D+02 0.506982492100871D+02 -.117462249519067D+02
 0.164008964439732D+03 -.201342096023214D+02 -.113426391106241D+03 0.116739058677450D+03
 0.000000000000000D+00 -.000000000000000D+00 0.000000000000000D+00 0.000000000000000D+00
 0.260074302985456D+03 0.000000000000000D+00 0.000000000000000D+00 0.260074302985456D+03
 0.203858513216650D+03 0.000000000000000D+00 0.000000000000000D+00 -.203858513216650D+03
 0.130890827293403D+03 0.283579277406240D+02 0.529598099514087D+02 -.104992833725544D+03
 0.588752625960461D+02 0.342523029087381D+02 0.464230814421086D+02 -.117462249519067D+02
 0.172622402770320D+03 0.176790970166517D+02 -.125928295652633D+03 0.116739058677450D+03
 0.101544323542338D+03 -.802893276660137D+02 0.265454042591162D+02 0.562157897688054D+02
 0.176191930141450D+03 0.000000000000000D+00 0.000000000000000D+00 0.176191930141450D+03
 0.176191930141450D+03 0.000000000000000D+00 0.000000000000000D+00 -.176191930141450D+03
 0.132135252110625D+03 -.118740510141282D+01 0.627281418961536D+02 -.104992833725544D+03
 0.562396437325433D+02 0.213216147037343D+02 0.506982492100871D+02 -.117462249519067D+02
 0.000000000000000D+00 -.000000000000000D+00 0.000000000000000D+00 0.000000000000000D+00
 0.164008964439732D+03 -.201342096023214D+02 -.113426391106241D+03 0.116739058677450D+03
 0.260074302985456D+03 0.000000000000000D+00 0.000000000000000D+00 0.260074302985456D+03
 0.203858513216650D+03 0.000000000000000D+00 0.000000000000000D+00 -.203858513216650D+03
 0.130890827293403D+03 0.283579277406240D+02 0.529598099514087D+02 -.104992833725544D+03
 0.588752625960461D+02 0.342523029087381D+02 0.464230814421086D+02 -.117462249519067D+02
 0.101544323542338D+03 -.802893276660137D+02 0.265454042591162D+02 0.562157897688054D+02
 0.172622402770320D+03 0.176790970166517D+02 -.125928295652633D+03 0.116739058677450D+03
0.165301125300D-05 0.000000000000D+00 0.000000000000D+00 0.156747198860D-07 0.000000000000D+00  6 -1 22 9900012 -11 -2 21 0 0.49306855D-01 0.14901775D-01 0.15678165D+05 0.15678165D+05 0.15678165D+05 0.11895920D+01  1  2  2  1  6  1       -1 0.206854251699D-04 0.100000000000D+01
-.139196503333D-07 0.000000000000D+00 -.317399922970D-08 0.156747198860D-07 0.000000000000D+00  6 -1 22 9900012 -11 -2 21 2 0.49306855D-01 0.14901775D-01 0.15678165D+05 0.15678165D+05 0.15678165D+05 0.11895920D+01  1  2  3  1  6  1       -1 -.246497777054D-06 0.100000000000D+01
-.188131552023D-06 0.000000000000D+00 0.000000000000D+00 0.156747198860D-07 0.000000000000D+00  6 -1 22 9900012 -11 -2 21 2 0.49306855D-01 0.14901775D-01 0.15678165D+05 0.15678165D+05 0.15678165D+05 0.11895920D+01  1  2 15  1  6  1       -1 -.333154987783D-05 0.100000000000D+01
0.918476631147D-07 0.000000000000D+00 0.000000000000D+00 0.156747198860D-07 0.000000000000D+00  6 -1 22 9900012 -11 -2 21 2 0.84209594D-01 0.14901775D-01 0.30202647D+05 0.30202647D+05 0.30202647D+05 0.11625188D+01  1  2 12  1  6  1       -1 0.585526186620D-06 0.100000000000D+01
-.214671155118D-06 0.000000000000D+00 0.000000000000D+00 0.156747198860D-07 0.000000000000D+00  6 -1 22 9900012 -11 -2 21 2 0.49306855D-01 0.14901775D-01 0.15678165D+05 0.15678165D+05 0.15678165D+05 0.11895920D+01  1  2  4  1  6  1       -1 -.380152958351D-05 0.100000000000D+01
-.977998074888D-06 0.000000000000D+00 -.569687992449D-06 0.156747198860D-07 0.000000000000D+00  6 -1 22 9900012 -11 -2 21 2 0.81718955D-01 0.14901775D-01 0.15678165D+05 0.15678165D+05 0.15678165D+05 0.11895920D+01  1  2  5  1  6  1       -1 -.675845393381D-05 0.100000000000D+01
0.117795674963D-05 0.000000000000D+00 0.503986779288D-06 0.156747198860D-07 0.000000000000D+00  6 -1 22 9900012 -11 -2 21 2 0.49306855D-01 0.14901775D-01 0.15678165D+05 0.15678165D+05 0.15678165D+05 0.11895920D+01  1  2  6  1  6  1       -1 0.208599866589D-04 0.100000000000D+01
0.547100939052D-08 0.000000000000D+00 0.000000000000D+00 0.156747198860D-07 0.000000000000D+00  6 21 22 9900012 -11 1 -2 2 0.84209594D-01 0.14901775D-01 0.30202647D+05 0.30202647D+05 0.30202647D+05 0.11625188D+01  3  4 12  3  5  1       -1 0.271103178044D-06 0.100000000000D+01
-.296026124792D-07 0.000000000000D+00 -.323867445318D-07 0.156747198860D-07 0.000000000000D+00  6 21 22 9900012 -11 1 -2 2 0.81718955D-01 0.14901775D-01 0.15678165D+05 0.15678165D+05 0.15678165D+05 0.11895920D+01  3  4  5  3  5  1       -1 -.163045594563D-05 0.100000000000D+01
  </mgrwgt>
  </event>
  <event>
  7     66 -.20026351E-05 0.32079474E+02 0.78161638E-02 0.11760709E+00
       21 -1    0    0  502  501 0.00000000E+00 0.00000000E+00 0.35198769E+02 0.35198769E+02 0.00000000E+00 0.0000E+00 0.9000E+01
       22 -1    0    0    0    0 0.00000000E+00 0.00000000E+00 -.23391344E+04 0.23391344E+04 0.00000000E+00 0.0000E+00 0.9000E+01
       24  2    1    2    0    0 -.40669923E+02 -.49310245E+02 -.22598549E+04 0.22621800E+04 0.80179875E+02 0.0000E+00 0.0000E+00
  9900012  1    3    3    0    0 -.39783312E+02 -.25799450E+02 -.11416791E+04 0.11437568E+04 0.50000000E+02 0.0000E+00 0.9000E+01
      -11  1    3    3    0    0 -.88661151E+00 -.23510795E+02 -.11181757E+04 0.11184232E+04 0.00000000E+00 0.0000E+00 0.9000E+01
        1  1    1    2  502    0 -.11191026E+02 0.39761549E+02 -.42689463E+02 0.59402106E+02 0.00000000E+00 0.0000E+00 0.9000E+01
       -2  1    1    2    0  501 0.51860950E+02 0.95486959E+01 -.13912732E+01 0.52751031E+02 0.00000000E+00 0.0000E+00 0.9000E+01
#aMCatNLO 2  0  0  1  5 0.43163157D+02 0.00000000D+00  -5  6  0 0.00000000D+00 0.00000000D+00 0.00000000D+00 0.00000000D+00 0.00000000D+00
  <mgrwgt>
 -.2675900494D-05    2    2    0
 0.246964256298787D+03 0.000000000000000D+00 0.000000000000000D+00 0.246964256298787D+03
 0.246964256298787D+03 0.000000000000000D+00 0.000000000000000D+00 -.246964256298787D+03
 0.132650610873640D+03 -.427915926646075D+02 -.151110733221899D+02 -.114178455171839D+03
 0.120821482224408D+03 -.363566537403614D+01 -.137434474372582D+02 -.119982207667347D+03
 0.000000000000000D+00 -.000000000000000D+00 0.000000000000000D+00 0.000000000000000D+00
 0.240456419499524D+03 0.464272580386437D+02 0.288545207594481D+02 0.234160662839186D+03
 0.324977154766689D+03 0.000000000000000D+00 0.000000000000000D+00 0.324977154766689D+03
 0.253355194621939D+03 0.000000000000000D+00 0.000000000000000D+00 -.253355194621939D+03
 0.133360575719050D+03 -.397833118713357D+02 -.257994501343893D+02 -.114178455171839D+03
 0.122267222554660D+03 -.886611505230566D+00 -.235107948512845D+02 -.119982207667347D+03
 0.826796530304691D+02 -.111910261459886D+02 0.397615490651752D+02 0.716219601447505D+02
 0.240024898084449D+03 0.518609495225549D+02 0.954869592049866D+01 0.234160662839186D+03
-.121820184917D-05 0.000000000000D+00 0.000000000000D+00 0.605754819280D-04 0.000000000000D+00  6 21 22 9900012 -11 1 -2 2 0.55553296D-02 0.35078911D+00 0.86932018D+04 0.86932018D+04 0.86932018D+04 0.12156868D+01  1  2 13  3  5  1       -1 -.187074689598D-04 0.100000000000D+01
0.110182452980D-05 0.000000000000D+00 0.000000000000D+00 0.605754819280D-04 0.122079740300D-07  6 21 22 9900012 -11 1 -2 2 0.54151953D-02 0.35986682D+00 0.86932018D+04 0.86932018D+04 0.86932018D+04 0.12156868D+01  1  2  1  3  5  1       -1 0.160315684655D-04 0.100000000000D+01
  </mgrwgt>
  </event>
  <event>
  7     66 -.20026351E-05 0.41431906E+02 0.78161638E-02 0.12273988E+00
       -3 -1    0    0    0  501 0.00000000E+00 0.00000000E+00 0.16533332E+03 0.16533332E+03 0.00000000E+00 0.0000E+00 0.9000E+01
       22 -1    0    0    0    0 0.00000000E+00 0.00000000E+00 -.74705651E+02 0.74705651E+02 0.00000000E+00 0.0000E+00 0.9000E+01
       24  2    1    2    0    0 0.27434569E+02 0.40316552E+02 -.35162228E+02 0.10339557E+03 0.84120045E+02 0.0000E+00 0.0000E+00
  9900012  1    3    3    0    0 0.75369744E+01 0.47542017E+02 -.42031578E+02 0.81140020E+02 0.50000000E+02 0.0000E+00 0.9000E+01
      -11  1    3    3    0    0 0.19897594E+02 -.72254653E+01 0.68693493E+01 0.22255551E+02 0.00000000E+00 0.0000E+00 0.9000E+01
       -4  1    1    2    0  502 -.24505921E+02 -.24554717E+02 0.10370239E+03 0.10935109E+03 0.00000000E+00 0.0000E+00 0.9000E+01
       21  1    1    2  502  501 -.29286472E+01 -.15761835E+02 0.22087507E+02 0.27292313E+02 0.00000000E+00 0.0000E+00 0.9000E+01
#aMCatNLO 2  0  0  5  1 0.88722965D+01 0.00000000D+00  -5  6  0 0.00000000D+00 0.00000000D+00 0.00000000D+00 0.00000000D+00 0.00000000D+00
  <mgrwgt>
 -.4996643850D-04    2    2    0
 0.111136553923175D+03 0.000000000000000D+00 0.000000000000000D+00 0.111136553923175D+03
 0.111136553923175D+03 -.000000000000000D+00 -.000000000000000D+00 -.111136553923175D+03
 0.105773232184128D+03 0.788156366785568D+01 0.480484094068835D+02 -.794808653343401D+02
 0.212810863692812D+02 0.199671789083426D+02 -.712320694772078D+01 -.185911975918323D+01
 0.952187892929406D+02 -.278487425761983D+02 -.409252024591627D+02 0.813399850935233D+02
 0.000000000000000D+00 0.000000000000000D+00 -.000000000000000D+00 0.000000000000000D+00
 0.111136553923175D+03 0.000000000000000D+00 0.000000000000000D+00 0.111136553923175D+03
 0.111136553923175D+03 -.000000000000000D+00 -.000000000000000D+00 -.111136553923175D+03
 0.104762971963853D+03 0.753697435511724D+01 0.475420171577362D+02 -.784743965688352D+02
 0.212335474942094D+02 0.198975942565074D+02 -.722546527973038D+01 -.165587846282924D+01
 0.758086171533506D+02 -.245059214253369D+02 -.245547169500129D+02 0.674052826216407D+02
 0.204679712349370D+02 -.292864718628776D+01 -.157618349279929D+02 0.127249924100237D+02
-.134653840410D-05 0.000000000000D+00 0.000000000000D+00 0.134683875737D-06 0.000000000000D+00  6 -3 22 9900012 -11 -4 21 2 0.25435896D-01 0.11493177D-01 0.49911811D+04 0.49911811D+04 0.49911811D+04 0.12419319D+01  1  2 13  2  6  5       -4 -.729163699392D-04 0.100000000000D+01
0.423813803117D-06 0.000000000000D+00 0.000000000000D+00 0.134683875737D-06 0.319343624105D-08  6 -3 22 9900012 -11 -4 21 2 0.25435896D-01 0.11493177D-01 0.49911811D+04 0.49911811D+04 0.49911811D+04 0.12419319D+01  1  2  1  2  6  5       -4 0.229499314386D-04 0.100000000000D+01
  </mgrwgt>
  </event>
  <event>
  6     66 0.20026351E-05 0.10996676E+02 0.78161638E-02 0.13391818E+00
       -3 -1    0    0    0  501 0.00000000E+00 0.00000000E+00 0.69297054E+02 0.69297054E+02 0.00000000E+00 0.0000E+00 0.9000E+01
       22 -1    0    0    0    0 0.00000000E+00 0.00000000E+00 -.49407621E+02 0.49407621E+02 0.00000000E+00 0.0000E+00 0.9000E+01
       24  2    1    2    0    0 -.10384100E+02 0.10162069E+02 -.15505022E+02 0.80444191E+02 0.77587145E+02 0.0000E+00 0.0000E+00
  9900012  1    3    3    0    0 0.29200173E+01 0.24584901E+01 -.30726001E+02 0.58810355E+02 0.50000000E+02 0.0000E+00 0.9000E+01
      -11  1    3    3    0    0 -.13304117E+02 0.77035793E+01 0.15220980E+02 0.21633837E+02 0.00000000E+00 0.0000E+00 0.9000E+01
       -4  1    1    2    0  501 0.10384100E+02 -.10162069E+02 0.35394454E+02 0.38260483E+02 0.00000000E+00 0.0000E+00 0.9000E+01
#aMCatNLO 1  0  0  5  1 0.59004820D+01 0.00000000D+00  -5  6  0 0.00000000D+00 0.00000000D+00 0.00000000D+00 0.00000000D+00 0.00000000D+00
  <mgrwgt>
 0.4713820947D-04    8    2    0
 0.585132682946809D+02 0.000000000000000D+00 0.000000000000000D+00 0.585132682946809D+02
 0.585132682946809D+02 -.000000000000000D+00 -.000000000000000D+00 -.585132682946809D+02
 0.648757708730054D+02 0.292001727611611D+01 0.245849012107916D+01 -.411618144862254D+02
 0.193571556199770D+02 -.133041169775593D+02 0.770357934155082D+01 0.117624321665145D+02
 0.327936100963795D+02 0.103840997014432D+02 -.101620694626300D+02 0.293993823197109D+02
 0.000000000000000D+00 0.000000000000000D+00 0.000000000000000D+00 0.000000000000000D+00
 0.585132682946809D+02 0.000000000000000D+00 0.000000000000000D+00 0.585132682946809D+02
 0.585132682946809D+02 -.000000000000000D+00 -.000000000000000D+00 -.585132682946809D+02
 0.641961731641458D+02 0.330438284775926D+01 0.208234295855352D+01 -.400736016689216D+02
 0.194347886278177D+02 -.131885977767200D+02 0.759053014355113D+01 0.120894892295617D+02
 0.184932166839924D+02 0.540554857961960D+00 -.845381248597865D+01 0.164389755830021D+02
 0.149023581134060D+02 0.934366007099878D+01 -.121906061612599D+01 0.115451368563578D+02
0.844797648469D-07 0.000000000000D+00 0.000000000000D+00 0.977074986793D-07 0.000000000000D+00  6 -3 22 9900012 -11 -4 21 0 0.10661085D-01 0.76011725D-02 0.16019279D+04 0.16019279D+04 0.16019279D+04 0.13016859D+01  1  2  2  2  6  5       -4 0.197909793610D-04 0.100000000000D+01
0.563171047780D-08 0.000000000000D+00 -.162212270522D-09 0.977074986793D-07 0.000000000000D+00  6 -3 22 9900012 -11 -4 21 2 0.10661085D-01 0.76011725D-02 0.16019279D+04 0.16019279D+04 0.16019279D+04 0.13016859D+01  1  2  3  2  6  5       -4 0.223546215002D-05 0.100000000000D+01
-.110754157077D-07 0.000000000000D+00 0.000000000000D+00 0.977074986793D-07 0.000000000000D+00  6 -3 22 9900012 -11 -4 21 2 0.10661085D-01 0.76011725D-02 0.16019279D+04 0.16019279D+04 0.16019279D+04 0.13016859D+01  1  2 15  2  6  5       -4 -.439629712996D-05 0.100000000000D+01
0.531065290941D-07 0.000000000000D+00 0.000000000000D+00 0.977074986793D-07 0.000000000000D+00  6 -3 22 9900012 -11 -4 21 2 0.10661085D-01 0.76011725D-02 0.17331895D+04 0.17331895D+04 0.17331895D+04 0.12972531D+01  1  2 12  2  6  5       -4 0.211637887385D-04 0.100000000000D+01
-.217296405464D-07 0.000000000000D+00 0.000000000000D+00 0.977074986793D-07 0.000000000000D+00  6 -3 22 9900012 -11 -4 21 2 0.10661085D-01 0.76011725D-02 0.16019279D+04 0.16019279D+04 0.16019279D+04 0.13016859D+01  1  2  4  2  6  5       -4 -.862540593422D-05 0.100000000000D+01
-.679661700086D-07 0.000000000000D+00 0.000000000000D+00 0.977074986793D-07 0.000000000000D+00  6 -3 22 9900012 -11 -4 21 2 0.10661085D-01 0.76011725D-02 0.16019279D+04 0.16019279D+04 0.16019279D+04 0.13016859D+01  1  2  5  2  6  5       -4 -.269786241916D-04 0.100000000000D+01
0.104752858438D-06 0.000000000000D+00 -.000000000000D+00 0.977074986793D-07 0.000000000000D+00  6 -3 22 9900012 -11 -4 21 2 0.10661085D-01 0.76011725D-02 0.16019279D+04 0.16019279D+04 0.16019279D+04 0.13016859D+01  1  2  6  2  6  5       -4 0.415808041036D-04 0.100000000000D+01
0.594079989167D-08 0.000000000000D+00 0.000000000000D+00 0.977074986793D-07 0.366216299392D-08  6 -3 22 9900012 -11 -4 21 2 0.10661085D-01 0.76011725D-02 0.17331895D+04 0.17331895D+04 0.17331895D+04 0.12972531D+01  1  2 11  2  6  5       -4 0.236750237663D-05 0.100000000000D+01
  </mgrwgt>
  </event>
  <event>
  6     66 0.20026351E-05 0.13076253E+02 0.78161638E-02 0.10970573E+00
       -1 -1    0    0    0  501 0.00000000E+00 0.00000000E+00 0.10996471E+02 0.10996471E+02 0.00000000E+00 0.0000E+00 0.9000E+01
       22 -1    0    0    0    0 0.00000000E+00 0.00000000E+00 -.19351941E+04 0.19351941E+04 0.00000000E+00 0.0000E+00 0.9000E+01
       24  2    1    2    0    0 0.30606728E+01 -.12713012E+02 -.19303549E+04 0.19317372E+04 0.71887148E+02 0.0000E+00 0.0000E+00
  9900012  1    3    3    0    0 0.28548661E+01 -.22907229E+02 -.11520407E+04 0.11533563E+04 0.50000000E+02 0.0000E+00 0.9000E+01
      -11  1    3    3    0    0 0.20580669E+00 0.10194216E+02 -.77831413E+03 0.77838091E+03 0.00000000E+00 0.0000E+00 0.9000E+01
       -2  1    1    2    0  501 -.30606728E+01 0.12713012E+02 0.61572275E+01 0.14453368E+02 0.00000000E+00 0.0000E+00 0.9000E+01
#aMCatNLO 1  0  0  1  1 0.80224731D+02 0.00000000D+00  -5  6  0 0.00000000D+00 0.00000000D+00 0.00000000D+00 0.00000000D+00 0.00000000D+00
  <mgrwgt>
 0.1129588323D-03    5    4    0
 0.145877710742323D+03 0.000000000000000D+00 0.000000000000000D+00 0.145877710742323D+03
 0.145877710742323D+03 0.000000000000000D+00 0.000000000000000D+00 -.145877710742323D+03
 0.956181004193853D+02 0.285486610091988D+01 -.229072288671058D+02 -.781660395119742D+02
 0.591159359368361D+02 0.205806694724767D+00 0.101942163826293D+02 -.582299706133934D+02
 0.137021385128424D+03 -.306067279564465D+01 0.127130124844765D+02 0.136396010125368D+03
 0.000000000000000D+00 0.000000000000000D+00 -.000000000000000D+00 0.000000000000000D+00
 0.313308831094577D+03 0.000000000000000D+00 0.000000000000000D+00 0.313308831094577D+03
 0.189252481340807D+03 0.000000000000000D+00 0.000000000000000D+00 -.189252481340807D+03
 0.945672447493979D+02 -.117061289394281D+01 0.182116367182513D+02 -.781660395119742D+02
 0.695891713465154D+02 -.251837641959923D+01 0.380207978778357D+02 -.582299706133934D+02
 0.156500101659488D+03 -.927337324612892D+01 0.761735832815336D+02 0.136396010125368D+03
 0.181904794679983D+03 0.129623625596710D+02 -.132406017877621D+03 0.124056349753769D+03
 0.145877710742323D+03 0.000000000000000D+00 0.000000000000000D+00 0.145877710742323D+03
 0.145877710742323D+03 0.000000000000000D+00 0.000000000000000D+00 -.145877710742323D+03
 0.956181004193853D+02 0.285486610091988D+01 -.229072288671058D+02 -.781660395119742D+02
 0.591159359368361D+02 0.205806694724767D+00 0.101942163826293D+02 -.582299706133934D+02
 0.000000000000000D+00 0.000000000000000D+00 -.000000000000000D+00 0.000000000000000D+00
 0.137021385128424D+03 -.306067279564465D+01 0.127130124844765D+02 0.136396010125368D+03
 0.313308831094577D+03 0.000000000000000D+00 0.000000000000000D+00 0.313308831094577D+03
 0.189252481340807D+03 0.000000000000000D+00 0.000000000000000D+00 -.189252481340807D+03
 0.945672447493979D+02 -.117061289394281D+01 0.182116367182513D+02 -.781660395119742D+02
 0.695891713465154D+02 -.251837641959923D+01 0.380207978778357D+02 -.582299706133934D+02
 0.181904794679983D+03 0.129623625596710D+02 -.132406017877621D+03 0.124056349753769D+03
 0.156500101659488D+03 -.927337324612892D+01 0.761735832815336D+02 0.136396010125368D+03
0.118479923571D-04 0.000000000000D+00 0.000000000000D+00 0.534160094652D-06 0.000000000000D+00  6 -1 22 9900012 -11 -2 21 0 0.16917648D-02 0.29772217D+00 0.15344550D+04 0.15344550D+04 0.15344550D+04 0.13041271D+01  1  2  2  1  6  1       -1 0.618572247737D-04 0.100000000000D+01
0.205126791358D-05 0.000000000000D+00 -.227497051497D-07 0.534160094652D-06 0.000000000000D+00  6 -1 22 9900012 -11 -2 21 2 0.16917648D-02 0.29772217D+00 0.15344550D+04 0.15344550D+04 0.15344550D+04 0.13041271D+01  1  2  3  1  6  1       -1 0.182141080319D-04 0.100000000000D+01
-.161666621874D-05 0.000000000000D+00 0.000000000000D+00 0.534160094652D-06 0.000000000000D+00  6 -1 22 9900012 -11 -2 21 2 0.16917648D-02 0.29772217D+00 0.15344550D+04 0.15344550D+04 0.15344550D+04 0.13041271D+01  1  2 15  1  6  1       -1 -.143550888525D-04 0.100000000000D+01
0.696645111960D-05 0.000000000000D+00 -.373955196880D-05 0.534160094652D-06 0.000000000000D+00  6 -1 22 9900012 -11 -2 21 2 0.49744228D-02 0.29772217D+00 0.15344550D+04 0.15344550D+04 0.15344550D+04 0.13041271D+01  1  2  5  1  6  1       -1 0.138332936938D-04 0.100000000000D+01
0.104551220405D-05 0.000000000000D+00 -.457154732274D-06 0.534160094652D-06 0.000000000000D+00  6 21 22 9900012 -11 1 -2 2 0.49744228D-02 0.29772217D+00 0.15344550D+04 0.15344550D+04 0.15344550D+04 0.13041271D+01  3  4  5  3  5  1       -1 0.334092946330D-04 0.100000000000D+01
  </mgrwgt>
  </event>
  <event>
  7     66 -.20026351E-05 0.30587626E+01 0.78161638E-02 0.13321078E+00
       -3 -1    0    0    0  501 0.00000000E+00 0.00000000E+00 0.15543728E+03 0.15543728E+03 0.00000000E+00 0.0000E+00 0.9000E+01
       22 -1    0    0    0    0 0.00000000E+00 0.00000000E+00 -.13579963E+02 0.13579963E+02 0.00000000E+00 0.0000E+00 0.9000E+01
       24  2    1    2    0    0 0.31374327E+01 0.23314782E+01 0.11422789E+03 0.13963576E+03 0.80217554E+02 0.0000E+00 0.0000E+00
  9900012  1    3    3    0    0 0.39478829E+01 -.22150236E+02 0.88532237E+02 0.10413537E+03 0.50000000E+02 0.0000E+00 0.9000E+01
      -11  1    3    3    0    0 -.81045023E+00 0.24481714E+02 0.25695655E+02 0.35500392E+02 0.00000000E+00 0.0000E+00 0.9000E+01
       -4  1    1    2    0  502 -.60163898E+00 -.11886707E+00 0.25255763E+02 0.25263208E+02 0.00000000E+00 0.0000E+00 0.9000E+01
       21  1    1    2  502  501 -.25357937E+01 -.22126111E+01 0.23736650E+01 0.41182743E+01 0.00000000E+00 0.0000E+00 0.9000E+01
#aMCatNLO 2  0  0  5  1 0.43675786D+01 0.00000000D+00  -5  6  0 0.00000000D+00 0.00000000D+00 0.00000000D+00 0.00000000D+00 0.00000000D+00
  <mgrwgt>
 -.1882290873D-05    2    2    0
 0.459437978585786D+02 0.000000000000000D+00 0.000000000000000D+00 0.459437978585786D+02
 0.459437978585786D+02 -.000000000000000D+00 -.000000000000000D+00 -.459437978585786D+02
 0.545496632579757D+02 0.528144091435521D+01 -.211592467952233D+02 -.241699163331757D+00
 0.264089588721501D+02 -.176215834719182D+00 0.249530241109338D+02 -.864572983672694D+01
 0.109289735870313D+02 -.510522507963603D+01 -.379377731571048D+01 0.888742900005871D+01
 0.000000000000000D+00 0.000000000000000D+00 0.000000000000000D+00 -.000000000000000D+00
 0.459437978585786D+02 0.000000000000000D+00 0.000000000000000D+00 0.459437978585786D+02
 0.459437978585786D+02 -.000000000000000D+00 -.000000000000000D+00 -.459437978585786D+02
 0.548684280541992D+02 0.394788293809820D+01 -.221502358154114D+02 0.207982469635498D+01
 0.256298113705054D+02 -.810450231421528D+00 0.244817140257721D+02 -.754162314560941D+01
 0.747873454361071D+01 -.601638984346414D+00 -.118867069467326D+00 0.745354757991836D+01
 0.391062174884190D+01 -.253579372233026D+01 -.221261114089332D+01 -.199174913066393D+01
-.316189678756D-08 0.000000000000D+00 0.000000000000D+00 0.118260422145D-06 0.000000000000D+00  6 -3 22 9900012 -11 -4 21 2 0.23913428D-01 0.20892251D-02 0.17348386D+04 0.17348386D+04 0.17348386D+04 0.12971998D+01  1  2 13  2  6  5       -4 -.187534880749D-05 0.100000000000D+01
-.116666799179D-10 0.000000000000D+00 0.000000000000D+00 0.118260422145D-06 0.000000000000D+00  6 -3 22 9900012 -11 -4 21 2 0.23913428D-01 0.20892251D-02 0.18431258D+04 0.18431258D+04 0.18431258D+04 0.12938223D+01  1  2  8  2  6  5       -4 -.694206525696D-08 0.100000000000D+01
  </mgrwgt>
  </event>
  <event>
  6     66 0.20026351E-05 0.34292831E+02 0.78161638E-02 0.11424482E+00
       -1 -1    0    0    0  501 0.00000000E+00 0.00000000E+00 0.66722329E+03 0.66722329E+03 0.00000000E+00 0.0000E+00 0.9000E+01
       22 -1    0    0    0    0 0.00000000E+00 0.00000000E+00 -.62022586E+01 0.62022586E+01 0.00000000E+00 0.0000E+00 0.9000E+01
       24  2    1    2    0    0 -.23899000E+02 0.24593414E+02 0.55853223E+03 0.56535172E+03 0.80550082E+02 0.0000E+00 0.0000E+00
  9900012  1    3    3    0    0 0.51325651E-01 0.13686679E+02 0.23011850E+03 0.23588525E+03 0.50000000E+02 0.0000E+00 0.9000E+01
      -11  1    3    3    0    0 -.23950326E+02 0.10906735E+02 0.32841373E+03 0.32946647E+03 0.00000000E+00 0.0000E+00 0.9000E+01
       -2  1    1    2    0  501 0.23899000E+02 -.24593414E+02 0.10248880E+03 0.10807383E+03 0.00000000E+00 0.0000E+00 0.9000E+01
#aMCatNLO 1  0  0  1  1 0.18661424D+03 0.00000000D+00  -5  6  0 0.00000000D+00 0.00000000D+00 0.00000000D+00 0.00000000D+00 0.00000000D+00
  <mgrwgt>
 0.1136257932D-03    3    2    0
 0.643295528647983D+02 0.000000000000000D+00 0.000000000000000D+00 0.643295528647983D+02
 0.643295528647983D+02 0.000000000000000D+00 0.000000000000000D+00 -.643295528647983D+02
 0.523708494327814D+02 0.513256512341496D-01 0.136866791373030D+02 -.744164297592251D+01
 0.371738472177164D+02 -.239503257842068D+02 0.109067352999149D+02 0.262549031019745D+02
 0.391144090790988D+02 0.238990001329727D+02 -.245934144372180D+02 -.188132601260520D+02
 0.000000000000000D+00 -.000000000000000D+00 -.000000000000000D+00 -.000000000000000D+00
 0.924897654079368D+02 0.000000000000000D+00 0.000000000000000D+00 0.924897654079368D+02
 0.198800063043975D+03 0.000000000000000D+00 0.000000000000000D+00 -.198800063043975D+03
 0.717263678351315D+02 0.106090411666369D+02 0.497668769179270D+02 -.744164297592251D+01
 0.471819259788590D+02 -.167736599805848D+02 0.354324502827025D+02 0.262549031019745D+02
 0.357504712072110D+02 0.302682171513620D+02 -.282709487727714D+01 -.188132601260520D+02
 0.136631063430710D+03 -.241035983374140D+02 -.823722323233524D+02 -.106310297636038D+03
0.125111111208D-05 0.000000000000D+00 0.000000000000D+00 0.222476397701D-06 0.000000000000D+00  6 -1 22 9900012 -11 -2 21 0 0.10264974D+00 0.95419363D-03 0.31611996D+04 0.31611996D+04 0.31611996D+04 0.12649047D+01  1  2  2  1  6  1       -1 0.148468133410D-03 0.100000000000D+01
-.602507615237D-07 0.000000000000D+00 -.240229804776D-08 0.222476397701D-06 0.000000000000D+00  6 -1 22 9900012 -11 -2 21 2 0.10264974D+00 0.95419363D-03 0.31611996D+04 0.31611996D+04 0.31611996D+04 0.12649047D+01  1  2  3  1  6  1       -1 -.114397239674D-04 0.100000000000D+01
-.123256946766D-06 0.000000000000D+00 0.000000000000D+00 0.222476397701D-06 0.000000000000D+00  6 -1 22 9900012 -11 -2 21 2 0.10264974D+00 0.95419363D-03 0.31611996D+04 0.31611996D+04 0.31611996D+04 0.12649047D+01  1  2 15  1  6  1       -1 -.234026162060D-04 0.100000000000D+01
  </mgrwgt>
  </event>
  <event>
  6     66 -.20026351E-05 0.21611457E+02 0.78161638E-02 0.13215135E+00
       -3 -1    0    0    0  501 0.00000000E+00 0.00000000E+00 0.53634115E+02 0.53634115E+02 0.00000000E+00 0.0000E+00 0.9000E+01
       22 -1    0    0    0    0 0.00000000E+00 0.00000000E+00 -.98172956E+02 0.98172956E+02 0.00000000E+00 0.0000E+00 0.9000E+01
       24  2    1    2    0    0 0.34266673E+01 -.21338065E+02 -.76859458E+02 0.11292678E+03 0.79862540E+02 0.0000E+00 0.0000E+00
  9900012  1    3    3    0    0 -.18408720E+01 -.39506928E+01 -.21389459E+02 0.54557362E+02 0.50000000E+02 0.0000E+00 0.9000E+01
      -11  1    3    3    0    0 0.52675393E+01 -.17387372E+02 -.55469999E+02 0.58369414E+02 0.00000000E+00 0.0000E+00 0.9000E+01
       -4  1    1    2    0  501 -.34266673E+01 0.21338065E+02 0.32320617E+02 0.38880296E+02 0.00000000E+00 0.0000E+00 0.9000E+01
#aMCatNLO 1  0  0  1  1 0.18661424D+03 0.00000000D+00  -5  6  0 0.00000000D+00 0.00000000D+00 0.00000000D+00 0.00000000D+00 0.00000000D+00
  <mgrwgt>
 -.1729064251D-05    1    2    0
 0.725632113410455D+02 0.000000000000000D+00 0.000000000000000D+00 0.725632113410455D+02
 0.725632113410455D+02 0.000000000000000D+00 0.000000000000000D+00 -.725632113410455D+02
 0.505044601043826D+02 -.184087199601809D+01 -.395069275776323D+01 -.563060453798773D+01
 0.440327832711752D+02 0.526753925771351D+01 -.173873724409954D+02 -.401100774416212D+02
 0.505891793065332D+02 -.342666726169542D+01 0.213380651987587D+02 0.457406819796089D+02
 0.000000000000000D+00 -.000000000000000D+00 -.000000000000000D+00 0.000000000000000D+00
 0.918095923693498D+02 0.000000000000000D+00 0.000000000000000D+00 0.918095923693498D+02
 0.744707028139314D+02 0.000000000000000D+00 0.000000000000000D+00 -.744707028139314D+02
 0.503198249066787D+02 -.572251533464171D+00 -.231515351639320D+00 -.563060453798773D+01
 0.430148071793290D+02 0.636281461175552D+01 -.141763858059251D+02 -.401100774416212D+02
 0.522333619519068D+02 -.213290376178128D+01 0.251309537101592D+02 0.457406819796089D+02
 0.207123011453668D+02 -.365765931651007D+01 -.107230525525949D+02 0.173388895554184D+02
-.755840809045D-08 0.000000000000D+00 0.000000000000D+00 0.630699323868D-06 0.000000000000D+00  6 -3 22 9900012 -11 -4 21 2 0.82514024D-02 0.15103532D-01 0.20235976D+04 0.20235976D+04 0.20235976D+04 0.12886671D+01  1  2 14  1  6  1       -3 -.172906425054D-05 0.100000000000D+01
  </mgrwgt>
  </event>
  <event>
  7     66 -.20026351E-05 0.27357254E+02 0.78161638E-02 0.12573801E+00
       -1 -1    0    0    0  502 0.00000000E+00 0.00000000E+00 0.32913034E+02 0.32913034E+02 0.00000000E+00 0.0000E+00 0.9000E+01
       22 -1    0    0    0    0 0.00000000E+00 0.00000000E+00 -.96342098E+03 0.96342098E+03 0.00000000E+00 0.0000E+00 0.9000E+01
       24  2    1    2    0    0 -.27510076E+02 0.11395782E+02 -.92833179E+03 0.93242661E+03 0.82053619E+02 0.0000E+00 0.0000E+00
  9900012  1    3    3    0    0 0.45248481E+01 0.67775600E+01 -.41596062E+03 0.41903418E+03 0.50000000E+02 0.0000E+00 0.9000E+01
      -11  1    3    3    0    0 -.32034924E+02 0.46182222E+01 -.51237117E+03 0.51339242E+03 0.00000000E+00 0.0000E+00 0.9000E+01
       -2  1    1    2    0  501 0.30685249E+02 -.47321251E+01 0.22375183E+02 0.38270437E+02 0.00000000E+00 0.0000E+00 0.9000E+01
       21  1    1    2  501  502 -.31751733E+01 -.66636571E+01 -.24551337E+02 0.25636970E+02 0.00000000E+00 0.0000E+00 0.9000E+01
#aMCatNLO 2  0  0  1  5 0.11854841D+02 0.00000000D+00  -5  6  0 0.00000000D+00 0.00000000D+00 0.00000000D+00 0.00000000D+00 0.00000000D+00
  <mgrwgt>
 -.6812569966D-04    3    2    0
 0.174241850929158D+03 0.000000000000000D+00 0.000000000000000D+00 0.174241850929158D+03
 0.174241850929158D+03 0.000000000000000D+00 0.000000000000000D+00 -.174241850929158D+03
 0.856666764675451D+02 0.374370209810425D+01 0.513818829916550D+01 -.692702185112623D+02
 0.982353054926096D+02 -.329288569105808D+02 0.274214724125518D+01 -.925113304211765D+02
 0.164581719898162D+03 0.291851548124766D+02 -.788033554042068D+01 0.161781548932439D+03
 0.000000000000000D+00 -.000000000000000D+00 -.000000000000000D+00 -.000000000000000D+00
 0.177203451519934D+03 0.000000000000000D+00 0.000000000000000D+00 0.177203451519934D+03
 0.178941818527146D+03 0.000000000000000D+00 0.000000000000000D+00 -.178941818527146D+03
 0.858182541338766D+02 0.452484812309616D+01 0.677755999246892D+01 -.692702185112623D+02
 0.980097473769112D+02 -.320349238843043D+02 0.461822220304229D+01 -.925113304211765D+02
 0.164733867477548D+03 0.306852490839920D+02 -.473212508126297D+01 0.161781548932439D+03
 0.758340105874353D+01 -.317517332278387D+01 -.666365711424824D+01 -.173836700721193D+01
-.568527768155D-05 0.000000000000D+00 0.000000000000D+00 0.550816720043D-05 0.000000000000D+00  6 -1 22 9900012 -11 -2 21 2 0.52001269D-02 0.14432560D+00 0.36878472D+04 0.36878472D+04 0.36878472D+04 0.12570085D+01  1  2 13  1  6  1       -1 -.684821497907D-04 0.100000000000D+01
-.686763377518D-07 0.000000000000D+00 0.000000000000D+00 0.550816720043D-05 0.000000000000D+00  6 -1 22 9900012 -11 -2 21 2 0.49789168D-02 0.14432560D+00 0.32305417D+04 0.32305417D+04 0.32305417D+04 0.12637832D+01  1  2  8  1  6  1       -1 -.878400868691D-06 0.100000000000D+01
0.104554428264D-06 0.000000000000D+00 0.000000000000D+00 0.550816720043D-05 0.441063985545D-08  6 -1 22 9900012 -11 -2 21 2 0.50635438D-02 0.14821861D+00 0.36878472D+04 0.36878472D+04 0.36878472D+04 0.12570085D+01  1  2  1  1  6  1       -1 0.123485100411D-05 0.100000000000D+01
  </mgrwgt>
  </event>
  <event>
  6     66 -.20026351E-05 0.17006563E+02 0.78161638E-02 0.13075945E+00
       -1 -1    0    0    0  501 0.00000000E+00 0.00000000E+00 0.94266467E+02 0.94266467E+02 0.00000000E+00 0.0000E+00 0.9000E+01
       22 -1    0    0    0    0 -.00000000E+00 -.00000000E+00 -.10425866E+03 0.10425866E+03 0.00000000E+00 0.0000E+00 0.9000E+01
       24  2    1    2    0    0 0.59304417E+01 -.15939041E+02 -.86824920E+02 0.11983275E+03 0.80821401E+02 0.0000E+00 0.0000E+00
  9900012  1    3    3    0    0 0.24406095E+02 -.21233723E+02 -.47916625E+02 0.76436454E+02 0.50000000E+02 0.0000E+00 0.9000E+01
      -11  1    3    3    0    0 -.18475654E+02 0.52946817E+01 -.38908295E+02 0.43396300E+02 0.00000000E+00 0.0000E+00 0.9000E+01
       -2  1    1    2    0  501 -.59304417E+01 0.15939041E+02 0.76832722E+02 0.78692378E+02 0.00000000E+00 0.0000E+00 0.9000E+01
#aMCatNLO 1  0  0  5  1 0.15780902D+03 0.00000000D+00  -5  6  0 0.00000000D+00 0.00000000D+00 0.00000000D+00 0.00000000D+00 0.00000000D+00
  <mgrwgt>
 -.6867678890D-05    1    2    0
 0.991367536875759D+02 0.000000000000000D+00 0.000000000000000D+00 0.991367536875759D+02
 0.991367536875759D+02 -.000000000000000D+00 -.000000000000000D+00 -.991367536875759D+02
 0.741186495774957D+02 0.244060954690834D+02 -.212337229890347D+02 -.441253410997641D+02
 0.414905491736415D+02 -.184756537967777D+02 0.529468172390887D+01 -.367706708254621D+02
 0.826643086240147D+02 -.593044167230568D+01 0.159390412651259D+02 0.808960119252262D+02
 0.000000000000000D+00 0.000000000000000D+00 -.000000000000000D+00 0.000000000000000D+00
 0.991367536875759D+02 0.000000000000000D+00 0.000000000000000D+00 0.991367536875759D+02
 0.991367536875759D+02 -.000000000000000D+00 -.000000000000000D+00 -.991367536875759D+02
 0.707805576333771D+02 0.240323447670107D+02 -.202292062612125D+02 -.390270798027814D+02
 0.391760052028043D+02 -.186837238194666D+02 0.585390426768029D+01 -.339324277456371D+02
 0.918168303850008D+01 -.216968474871762D+01 0.682134210418169D+01 -.575022290075597D+01
 0.791352615004704D+02 -.317893619882648D+01 0.755395988935045D+01 0.787097304491745D+02
-.620181691582D-07 0.000000000000D+00 0.000000000000D+00 0.140025536424D-05 0.000000000000D+00  6 -1 22 9900012 -11 -2 21 2 0.14502533D-01 0.16039795D-01 0.22933875D+04 0.22933875D+04 0.22933875D+04 0.12818626D+01  1  2 14  2  6  5       -2 -.686767889011D-05 0.100000000000D+01
  </mgrwgt>
  </event>
  <event>
  6     66 -.20026351E-05 0.31578054E+02 0.78161638E-02 0.11469308E+00
       -3 -1    0    0    0  501 0.00000000E+00 0.00000000E+00 0.76618487E+03 0.76618487E+03 0.00000000E+00 0.0000E+00 0.9000E+01
       22 -1    0    0    0    0 0.00000000E+00 0.00000000E+00 -.63146544E+03 0.63146544E+03 0.00000000E+00 0.0000E+00 0.9000E+01
       24  2    1    2    0    0 0.49319718E+02 -.81755036E+02 -.62227352E+03 0.63465973E+03 0.80326335E+02 0.0000E+00 0.0000E+00
  9900012  1    3    3    0    0 0.30938873E+02 -.55200334E+02 -.29595253E+03 0.30674450E+03 0.50000000E+02 0.0000E+00 0.9000E+01
      -11  1    3    3    0    0 0.18380845E+02 -.26554703E+02 -.32632099E+03 0.32791523E+03 0.00000000E+00 0.0000E+00 0.9000E+01
       -4  1    1    2    0  501 -.49319718E+02 0.81755036E+02 0.75699295E+03 0.76299059E+03 0.00000000E+00 0.0000E+00 0.9000E+01
#aMCatNLO 1  0  0  1  5 0.12969882D+02 0.00000000D+00  -5  6  0 0.00000000D+00 0.00000000D+00 0.00000000D+00 0.00000000D+00 0.00000000D+00
  <mgrwgt>
 -.1703373441D-02    9    4    0
 0.695571184630836D+03 0.000000000000000D+00 0.000000000000000D+00 0.695571184630836D+03
 0.695571184630836D+03 0.000000000000000D+00 0.000000000000000D+00 -.695571184630836D+03
 0.336839790611936D+03 0.309388729466163D+02 -.552003337490937D+02 -.327042434302148D+03
 0.361050466571826D+03 0.183808453306588D+02 -.265547027482728D+02 -.359603158632700D+03
 0.693252112077911D+03 -.493197182772752D+02 0.817550364973665D+02 0.686645592934848D+03
 0.000000000000000D+00 -.000000000000000D+00 0.000000000000000D+00 0.000000000000000D+00
 0.999142864022928D+03 0.000000000000000D+00 0.000000000000000D+00 0.999142864022928D+03
 0.695739849663801D+03 0.000000000000000D+00 0.000000000000000D+00 -.695739849663801D+03
 0.337439526753394D+03 0.321188551384061D+02 -.581124730662708D+02 -.327042434302148D+03
 0.361359860288459D+03 0.196450563169766D+02 -.296747146807237D+02 -.359603158632700D+03
 0.692403401654036D+03 -.468948347193043D+02 0.757705404618521D+02 0.686645592934848D+03
 0.303679924990840D+03 -.486907673607839D+01 0.120166472851424D+02 0.303403014359128D+03
 0.695571184630836D+03 0.000000000000000D+00 0.000000000000000D+00 0.695571184630836D+03
 0.695571184630836D+03 0.000000000000000D+00 0.000000000000000D+00 -.695571184630836D+03
 0.336839790611936D+03 0.309388729466163D+02 -.552003337490937D+02 -.327042434302148D+03
 0.361050466571826D+03 0.183808453306588D+02 -.265547027482728D+02 -.359603158632700D+03
 0.000000000000000D+00 -.000000000000000D+00 0.000000000000000D+00 0.000000000000000D+00
 0.693252112077911D+03 -.493197182772752D+02 0.817550364973665D+02 0.686645592934848D+03
 0.999142864022928D+03 0.000000000000000D+00 0.000000000000000D+00 0.999142864022928D+03
 0.695739849663801D+03 0.000000000000000D+00 0.000000000000000D+00 -.695739849663801D+03
 0.337439526753394D+03 0.321188551384061D+02 -.581124730662708D+02 -.327042434302148D+03
 0.361359860288459D+03 0.196450563169766D+02 -.296747146807237D+02 -.359603158632700D+03
 0.303679924990840D+03 -.486907673607839D+01 0.120166472851424D+02 0.303403014359128D+03
 0.692403401654036D+03 -.468948347193043D+02 0.757705404618521D+02 0.686645592934848D+03
0.824189329506D-04 0.000000000000D+00 0.000000000000D+00 0.145350650032D-02 0.000000000000D+00  6 -3 22 9900012 -11 -4 21 0 0.11787460D+00 0.97148530D-01 0.10860166D+05 0.10860166D+05 0.10860166D+05 0.12056335D+01  1  2  2  1  6  1       -3 0.391465605204D-05 0.100000000000D+01
0.107223547610D-05 0.000000000000D+00 -.158255201967D-06 0.145350650032D-02 0.000000000000D+00  6 -3 22 9900012 -11 -4 21 2 0.11787460D+00 0.97148530D-01 0.10860166D+05 0.10860166D+05 0.10860166D+05 0.12056335D+01  1  2  3  1  6  1       -3 0.740265356147D-07 0.100000000000D+01
-.117887154185D-04 0.000000000000D+00 0.000000000000D+00 0.145350650032D-02 0.000000000000D+00  6 -3 22 9900012 -11 -4 21 2 0.11787460D+00 0.97148530D-01 0.10860166D+05 0.10860166D+05 0.10860166D+05 0.12056335D+01  1  2 15  1  6  1       -3 -.813886297582D-06 0.100000000000D+01
0.247678620567D-01 0.000000000000D+00 0.000000000000D+00 0.145350650032D-02 0.000000000000D+00  6 -3 22 9900012 -11 -4 21 2 0.16936026D+00 0.97148530D-01 0.12186021D+05 0.12186021D+05 0.12186021D+05 0.12005315D+01  1  2 12  1  6  1       -3 0.603568672257D-03 0.100000000000D+01
-.477986259266D-01 0.000000000000D+00 0.000000000000D+00 0.145350650032D-02 0.000000000000D+00  6 -3 22 9900012 -11 -4 21 2 0.11787460D+00 0.97148530D-01 0.10860166D+05 0.10860166D+05 0.10860166D+05 0.12056335D+01  1  2  4  1  6  1       -3 -.329999031310D-02 0.100000000000D+01
-.247036476857D-01 0.000000000000D+00 -.324504775956D-04 0.145350650032D-02 0.000000000000D+00  6 -3 22 9900012 -11 -4 21 2 0.16933323D+00 0.97148530D-01 0.10860166D+05 0.10860166D+05 0.10860166D+05 0.12056335D+01  1  2  5  1  6  1       -3 -.606628008838D-03 0.100000000000D+01
0.231798518088D-01 0.000000000000D+00 0.304318662463D-04 0.145350650032D-02 0.000000000000D+00  6 -3 22 9900012 -11 -4 21 2 0.11787460D+00 0.97148530D-01 0.10860166D+05 0.10860166D+05 0.10860166D+05 0.12056335D+01  1  2  6  1  6  1       -3 0.160032396215D-02 0.100000000000D+01
0.109720601043D-02 0.000000000000D+00 0.000000000000D+00 0.145350650032D-02 0.000000000000D+00  6 21 22 9900012 -11 3 -4 2 0.16936026D+00 0.97148530D-01 0.12186021D+05 0.12186021D+05 0.12186021D+05 0.12005315D+01  3  4 12  3  5  1       -3 0.436139637383D-03 0.100000000000D+01
-.109304812423D-02 0.000000000000D+00 -.143708460294D-05 0.145350650032D-02 0.000000000000D+00  6 21 22 9900012 -11 3 -4 2 0.16933323D+00 0.97148530D-01 0.10860166D+05 0.10860166D+05 0.10860166D+05 0.12056335D+01  3  4  5  3  5  1       -3 -.439962187226D-03 0.100000000000D+01
  </mgrwgt>
  </event>
  <event>
  7     66 -.20026351E-05 0.18010481E+02 0.78161638E-02 0.12644908E+00
       -3 -1    0    0    0  501 0.00000000E+00 0.00000000E+00 0.12576822E+02 0.12576822E+02 0.00000000E+00 0.0000E+00 0.9000E+01
       22 -1    0    0    0    0 -.00000000E+00 -.00000000E+00 -.43244031E+03 0.43244031E+03 0.00000000E+00 0.0000E+00 0.9000E+01
       24  2    1    2    0    0 -.27125446E+02 0.17359532E+02 -.37834199E+03 0.38771595E+03 0.78382741E+02 0.0000E+00 0.0000E+00
  9900012  1    3    3    0    0 -.37845422E+01 0.26912658E+02 -.30202363E+03 0.30733839E+03 0.50000000E+02 0.0000E+00 0.9000E+01
      -11  1    3    3    0    0 -.23340904E+02 -.95531256E+01 -.76318361E+02 0.80377560E+02 0.00000000E+00 0.0000E+00 0.9000E+01
       -4  1    1    2    0  502 0.11431056E+02 0.43963058E+00 -.26241423E+01 0.11736628E+02 0.00000000E+00 0.0000E+00 0.9000E+01
       21  1    1    2  502  501 0.15694389E+02 -.17799163E+02 -.38897352E+02 0.45564548E+02 0.00000000E+00 0.0000E+00 0.9000E+01
#aMCatNLO 2  0  0  5  1 0.11423650D+02 0.00000000D+00  -5  6  0 0.00000000D+00 0.00000000D+00 0.00000000D+00 0.00000000D+00 0.00000000D+00
  <mgrwgt>
 -.2671076242D-04    2    2    0
 0.737477091898310D+02 0.000000000000000D+00 0.000000000000000D+00 0.737477091898310D+02
 0.737477091898310D+02 -.000000000000000D+00 -.000000000000000D+00 -.737477091898310D+02
 0.689344534095707D+02 -.507005268937805D+01 0.277353487168070D+02 -.381707199848302D+02
 0.256405269984588D+02 -.238203728530135D+02 -.924627852964667D+01 -.212903622663089D+01
 0.529204379716325D+02 0.288904255423915D+02 -.184890701871603D+02 0.402997562114611D+02
 0.000000000000000D+00 0.000000000000000D+00 -.000000000000000D+00 0.000000000000000D+00
 0.737477091898310D+02 0.000000000000000D+00 0.000000000000000D+00 0.737477091898310D+02
 0.737477091898310D+02 -.000000000000000D+00 -.000000000000000D+00 -.737477091898310D+02
 0.675421294446096D+02 -.378454217367868D+01 0.269126576797288D+02 -.363775390462546D+02
 0.252624665770176D+02 -.233409035392795D+02 -.955312557768372D+01 -.146021615591218D+01
 0.279413365258424D+02 0.114310562523895D+02 0.439630581905821D+00 0.254922726479327D+02
 0.267494858321924D+02 0.156943894605687D+02 -.177991626839509D+02 0.123454825542341D+02
-.185437256632D-06 0.000000000000D+00 0.000000000000D+00 0.190110626243D-06 0.000000000000D+00  6 -3 22 9900012 -11 -4 21 2 0.19348956D-02 0.66529278D-01 0.34397517D+04 0.34397517D+04 0.34397517D+04 0.12605578D+01  1  2 13  2  6  5       -4 -.366248728499D-04 0.100000000000D+01
0.501966367863D-07 0.000000000000D+00 0.000000000000D+00 0.190110626243D-06 0.116756419956D-08  6 -3 22 9900012 -11 -4 21 2 0.19348956D-02 0.66529278D-01 0.34397517D+04 0.34397517D+04 0.34397517D+04 0.12605578D+01  1  2  1  2  6  5       -4 0.991411042839D-05 0.100000000000D+01
  </mgrwgt>
  </event>
  <event>
  6     66 0.20026351E-05 0.56144042E+02 0.78161638E-02 0.11634841E+00
       -1 -1    0    0    0  501 0.00000000E+00 0.00000000E+00 0.44617094E+02 0.44617094E+02 0.00000000E+00 0.0000E+00 0.9000E+01
       22 -1    0    0    0    0 -.00000000E+00 -.00000000E+00 -.36255770E+03 0.36255770E+03 0.00000000E+00 0.0000E+00 0.9000E+01
       24  2    1    2    0    0 -.70200331E+02 -.51250139E+02 -.29454304E+03 0.31716308E+03 0.79260010E+02 0.0000E+00 0.0000E+00
  9900012  1    3    3    0    0 -.50768365E+02 -.17955117E+02 -.14277706E+03 0.16057740E+03 0.50000000E+02 0.0000E+00 0.9000E+01
      -11  1    3    3    0    0 -.19431966E+02 -.33295022E+02 -.15176598E+03 0.15658567E+03 0.00000000E+00 0.0000E+00 0.9000E+01
       -2  1    1    2    0  501 0.70200331E+02 0.51250139E+02 -.23397561E+02 0.90011716E+02 0.00000000E+00 0.0000E+00 0.9000E+01
#aMCatNLO 1  0  0  5  1 0.12177318D+02 0.00000000D+00  -5  6  0 0.00000000D+00 0.00000000D+00 0.00000000D+00 0.00000000D+00 0.00000000D+00
  <mgrwgt>
 0.5088843881D-04    7    2    0
 0.127185970024010D+03 0.000000000000000D+00 0.000000000000000D+00 0.127185970024010D+03
 0.127185970024010D+03 -.000000000000000D+00 -.000000000000000D+00 -.127185970024010D+03
 0.785796014829366D+02 -.507683646215591D+02 -.179551172625494D+02 -.278377565000785D+02
 0.609547218928442D+02 -.194319664052802D+02 -.332950220157985D+02 -.472156574837791D+02
 0.114837616672239D+03 0.702003310268393D+02 0.512501392783479D+02 0.750534139838576D+02
 0.000000000000000D+00 0.000000000000000D+00 0.000000000000000D+00 0.000000000000000D+00
 0.127185970024010D+03 0.000000000000000D+00 0.000000000000000D+00 0.127185970024010D+03
 0.127185970024010D+03 -.000000000000000D+00 -.000000000000000D+00 -.127185970024010D+03
 0.779947674206341D+02 -.502759466063646D+02 -.175956247716631D+02 -.273112966870419D+02
 0.603653058594101D+02 -.190504214072869D+02 -.330164729833069D+02 -.468077355513753D+02
 0.531166474734255D+02 0.394627568448568D+02 0.138311915427003D+02 0.327531250650835D+02
 0.628952192945505D+02 0.298636111687948D+02 0.367809062122697D+02 0.413659071733336D+02
0.998541292298D-06 0.000000000000D+00 0.000000000000D+00 0.873145235750D-06 0.000000000000D+00  6 -1 22 9900012 -11 -2 21 0 0.68641683D-02 0.55778107D-01 0.98954477D+04 0.98954477D+04 0.98954477D+04 0.12098033D+01  1  2  2  2  6  5       -2 0.336842075028D-04 0.100000000000D+01
-.889989150044D-08 0.000000000000D+00 -.191733074219D-08 0.873145235750D-06 0.000000000000D+00  6 -1 22 9900012 -11 -2 21 2 0.68641683D-02 0.55778107D-01 0.98954477D+04 0.98954477D+04 0.98954477D+04 0.12098033D+01  1  2  3  2  6  5       -2 -.439414669554D-06 0.100000000000D+01
-.128823936589D-06 0.000000000000D+00 0.000000000000D+00 0.873145235750D-06 0.000000000000D+00  6 -1 22 9900012 -11 -2 21 2 0.68641683D-02 0.55778107D-01 0.98954477D+04 0.98954477D+04 0.98954477D+04 0.12098033D+01  1  2 15  2  6  5       -2 -.636042894728D-05 0.100000000000D+01
0.181543039154D-05 0.000000000000D+00 0.000000000000D+00 0.873145235750D-06 0.000000000000D+00  6 -1 22 9900012 -11 -2 21 2 0.68641683D-02 0.55778107D-01 0.10036967D+05 0.10036967D+05 0.10036967D+05 0.12091639D+01  1  2 12  2  6  5       -2 0.896523758796D-04 0.100000000000D+01
-.249774195819D-05 0.000000000000D+00 0.000000000000D+00 0.873145235750D-06 0.000000000000D+00  6 -1 22 9900012 -11 -2 21 2 0.68641683D-02 0.55778107D-01 0.98954477D+04 0.98954477D+04 0.98954477D+04 0.12098033D+01  1  2  4  2  6  5       -2 -.123321105334D-03 0.100000000000D+01
-.176899129256D-05 0.000000000000D+00 0.000000000000D+00 0.873145235750D-06 0.000000000000D+00  6 -1 22 9900012 -11 -2 21 2 0.68641683D-02 0.55778107D-01 0.98954477D+04 0.98954477D+04 0.98954477D+04 0.12098033D+01  1  2  5  2  6  5       -2 -.873404719850D-04 0.100000000000D+01
0.293709453783D-05 0.000000000000D+00 -.000000000000D+00 0.873145235750D-06 0.000000000000D+00  6 -1 22 9900012 -11 -2 21 2 0.68641683D-02 0.55778107D-01 0.98954477D+04 0.98954477D+04 0.98954477D+04 0.12098033D+01  1  2  6  2  6  5       -2 0.145013276367D-03 0.100000000000D+01
  </mgrwgt>
  </event>
  <event>
  6     66 0.20026351E-05 0.31190245E+02 0.78161638E-02 0.11894916E+00
       -3 -1    0    0    0  501 0.00000000E+00 0.00000000E+00 0.60976380E+03 0.60976380E+03 0.00000000E+00 0.0000E+00 0.9000E+01
       22 -1    0    0    0    0 0.00000000E+00 0.00000000E+00 -.57955034E+01 0.57955034E+01 0.00000000E+00 0.0000E+00 0.9000E+01
       24  2    1    2    0    0 -.23786469E+02 0.20175116E+02 0.47905777E+03 0.48681355E+03 0.80735657E+02 0.0000E+00 0.0000E+00
  9900012  1    3    3    0    0 0.78898271E+01 0.10228702E+02 0.33656884E+03 0.34050765E+03 0.50000000E+02 0.0000E+00 0.9000E+01
      -11  1    3    3    0    0 -.31676296E+02 0.99464138E+01 0.14248893E+03 0.14630590E+03 0.00000000E+00 0.0000E+00 0.9000E+01
       -4  1    1    2    0  501 0.23786469E+02 -.20175116E+02 0.12491053E+03 0.12874576E+03 0.00000000E+00 0.0000E+00 0.9000E+01
#aMCatNLO 1  0  0  1  5 0.56290232D+02 0.00000000D+00  -5  6  0 0.00000000D+00 0.00000000D+00 0.00000000D+00 0.00000000D+00 0.00000000D+00
  <mgrwgt>
 0.1053950874D-03    5    4    0
 0.594465152639206D+02 0.000000000000000D+00 0.000000000000000D+00 0.594465152639206D+02
 0.594465152639206D+02 0.000000000000000D+00 0.000000000000000D+00 -.594465152639206D+02
 0.532053298978060D+02 0.788982711468604D+01 0.102287024126945D+02 0.128035699938444D+02
 0.336534159970158D+02 -.316762957729952D+02 0.994641377321647D+01 -.549850410765517D+01
 0.320342846330193D+02 0.237864686583091D+02 -.201751161859110D+02 -.730506588618928D+01
 0.000000000000000D+00 0.000000000000000D+00 -.000000000000000D+00 0.000000000000000D+00
 0.110541184971451D+03 0.000000000000000D+00 0.000000000000000D+00 0.110541184971451D+03
 0.764028286161450D+02 0.000000000000000D+00 0.000000000000000D+00 -.764028286161450D+02
 0.555067448121200D+02 -.122637378524311D+02 0.163299739417238D+02 0.128035699938444D+02
 0.496393966760460D+02 -.471175162260089D+02 0.146210745033232D+02 -.549850410765517D+01
 0.230157306951299D+02 0.135810332150340D+02 -.170855321439316D+02 -.730506588618928D+01
 0.587821414042999D+02 0.458002208634060D+02 -.138655163011155D+02 0.341383563553057D+02
 0.594465152639206D+02 0.000000000000000D+00 0.000000000000000D+00 0.594465152639206D+02
 0.594465152639206D+02 0.000000000000000D+00 0.000000000000000D+00 -.594465152639206D+02
 0.532053298978060D+02 0.788982711468604D+01 0.102287024126945D+02 0.128035699938444D+02
 0.336534159970158D+02 -.316762957729952D+02 0.994641377321647D+01 -.549850410765517D+01
 0.000000000000000D+00 0.000000000000000D+00 -.000000000000000D+00 0.000000000000000D+00
 0.320342846330193D+02 0.237864686583091D+02 -.201751161859110D+02 -.730506588618928D+01
 0.110541184971451D+03 0.000000000000000D+00 0.000000000000000D+00 0.110541184971451D+03
 0.764028286161450D+02 0.000000000000000D+00 0.000000000000000D+00 -.764028286161450D+02
 0.555067448121200D+02 -.122637378524311D+02 0.163299739417238D+02 0.128035699938444D+02
 0.496393966760460D+02 -.471175162260089D+02 0.146210745033232D+02 -.549850410765517D+01
 0.587821414042999D+02 0.458002208634060D+02 -.138655163011155D+02 0.341383563553057D+02
 0.230157306951299D+02 0.135810332150340D+02 -.170855321439316D+02 -.730506588618928D+01
0.204994588488D-05 0.000000000000D+00 0.000000000000D+00 0.915204567502D-07 0.000000000000D+00  6 -3 22 9900012 -11 -4 21 0 0.93809816D-01 0.89161590D-03 0.33659279D+04 0.33659279D+04 0.33659279D+04 0.12616700D+01  1  2  2  1  6  1       -3 0.155796029897D-03 0.100000000000D+01
-.573659808467D-07 0.000000000000D+00 -.393616598054D-08 0.915204567502D-07 0.000000000000D+00  6 -3 22 9900012 -11 -4 21 2 0.93809816D-01 0.89161590D-03 0.33659279D+04 0.33659279D+04 0.33659279D+04 0.12616700D+01  1  2  3  1  6  1       -3 -.694000775396D-05 0.100000000000D+01
-.222411750328D-06 0.000000000000D+00 0.000000000000D+00 0.915204567502D-07 0.000000000000D+00  6 -3 22 9900012 -11 -4 21 2 0.93809816D-01 0.89161590D-03 0.33659279D+04 0.33659279D+04 0.33659279D+04 0.12616700D+01  1  2 15  1  6  1       -3 -.269068749295D-04 0.100000000000D+01
-.740716233000D-06 0.000000000000D+00 -.576576045749D-06 0.915204567502D-07 0.000000000000D+00  6 -3 22 9900012 -11 -4 21 2 0.20340589D+00 0.89161590D-03 0.33659279D+04 0.33659279D+04 0.33659279D+04 0.12616700D+01  1  2  5  1  6  1       -3 -.101091519902D-04 0.100000000000D+01
-.259027901476D-07 0.000000000000D+00 -.483218585566D-07 0.915204567502D-07 0.000000000000D+00  6 21 22 9900012 -11 3 -4 2 0.20340589D+00 0.89161590D-03 0.33659279D+04 0.33659279D+04 0.33659279D+04 0.12616700D+01  3  4  5  3  5  1       -3 -.644490777720D-05 0.100000000000D+01
  </mgrwgt>
  </event>
  <event>
  6     66 0.20026351E-05 0.57959801E+02 0.78161638E-02 0.11171902E+00
       -1 -1    0    0    0  501 0.00000000E+00 0.00000000E+00 0.26214469E+03 0.26214469E+03 0.00000000E+00 0.0000E+00 0.9000E+01
       22 -1    0    0    0    0 0.00000000E+00 0.00000000E+00 -.16981815E+03 0.16981815E+03 0.00000000E+00 0.0000E+00 0.9000E+01
       24  2    1    2    0    0 0.11984681E+03 0.14511874E+02 -.11011772E+03 0.19625640E+03 0.10870516E+03 0.0000E+00 0.0000E+00
  9900012  1    3    3    0    0 0.60783187E+02 0.90775151E+01 -.11167313E+03 0.13692291E+03 0.50000000E+02 0.0000E+00 0.9000E+01
      -11  1    3    3    0    0 0.59063620E+02 0.54343586E+01 0.15554107E+01 0.59333488E+02 0.00000000E+00 0.0000E+00 0.9000E+01
       -2  1    1    2    0  501 -.11984681E+03 -.14511874E+02 0.20244425E+03 0.23570644E+03 0.00000000E+00 0.0000E+00 0.9000E+01
#aMCatNLO 1  0  0  1  5 0.28395803D+02 0.00000000D+00  -5  6  0 0.00000000D+00 0.00000000D+00 0.00000000D+00 0.00000000D+00 0.00000000D+00
  <mgrwgt>
 0.2723976811D-04    8    4    0
 0.210990347229278D+03 0.000000000000000D+00 0.000000000000000D+00 0.210990347229278D+03
 0.210990347229278D+03 0.000000000000000D+00 0.000000000000000D+00 -.210990347229278D+03
 0.164595214969994D+03 0.607831865479877D+02 0.907751508322631D+01 -.144272616057257D+03
 0.603967351313065D+02 0.590636201593148D+02 0.543435857713510D+01 -.113895625487769D+02
 0.196988744357257D+03 -.119846806707302D+03 -.145118736603614D+02 0.155662178606034D+03
 0.000000000000000D+00 0.000000000000000D+00 -.000000000000000D+00 -.000000000000000D+00
 0.211507405309319D+03 0.000000000000000D+00 0.000000000000000D+00 0.211507405309319D+03
 0.225400175523959D+03 0.000000000000000D+00 0.000000000000000D+00 -.225400175523959D+03
 0.164392072834393D+03 0.599134205411301D+02 0.109794310346810D+02 -.144272616057257D+03
 0.601521390111734D+02 0.587449169243241D+02 0.613126643698471D+01 -.113895625487769D+02
 0.197470589222620D+03 -.120889665602323D+03 -.122314557641483D+02 0.155662178606034D+03
 0.148927797650925D+02 0.223132813686870D+01 -.487924170751736D+01 -.138927702146400D+02
 0.210990347229278D+03 0.000000000000000D+00 0.000000000000000D+00 0.210990347229278D+03
 0.210990347229278D+03 0.000000000000000D+00 0.000000000000000D+00 -.210990347229278D+03
 0.164595214969994D+03 0.607831865479877D+02 0.907751508322631D+01 -.144272616057257D+03
 0.603967351313065D+02 0.590636201593148D+02 0.543435857713510D+01 -.113895625487769D+02
 0.000000000000000D+00 0.000000000000000D+00 -.000000000000000D+00 -.000000000000000D+00
 0.196988744357257D+03 -.119846806707302D+03 -.145118736603614D+02 0.155662178606034D+03
 0.211507405309319D+03 0.000000000000000D+00 0.000000000000000D+00 0.211507405309319D+03
 0.225400175523959D+03 0.000000000000000D+00 0.000000000000000D+00 -.225400175523959D+03
 0.164392072834393D+03 0.599134205411301D+02 0.109794310346810D+02 -.144272616057257D+03
 0.601521390111734D+02 0.587449169243241D+02 0.613126643698471D+01 -.113895625487769D+02
 0.148927797650925D+02 0.223132813686870D+01 -.487924170751736D+01 -.138927702146400D+02
 0.197470589222620D+03 -.120889665602323D+03 -.122314557641483D+02 0.155662178606034D+03
0.193561943251D-05 0.000000000000D+00 0.000000000000D+00 0.521936981045D-08 0.000000000000D+00  6 -1 22 9900012 -11 -2 21 0 0.40329952D-01 0.26125870D-01 0.16804301D+05 0.16804301D+05 0.16804301D+05 0.11866352D+01  1  2  2  1  6  1       -1 0.148375172573D-04 0.100000000000D+01
-.104357414293D-07 0.000000000000D+00 -.371664414057D-08 0.521936981045D-08 0.000000000000D+00  6 -1 22 9900012 -11 -2 21 2 0.40329952D-01 0.26125870D-01 0.16804301D+05 0.16804301D+05 0.16804301D+05 0.11866352D+01  1  2  3  1  6  1       -1 -.112641648318D-06 0.100000000000D+01
-.260619525800D-06 0.000000000000D+00 0.000000000000D+00 0.521936981045D-08 0.000000000000D+00  6 -1 22 9900012 -11 -2 21 2 0.40329952D-01 0.26125870D-01 0.16804301D+05 0.16804301D+05 0.16804301D+05 0.11866352D+01  1  2 15  1  6  1       -1 -.281308359054D-05 0.100000000000D+01
0.147829067864D-05 0.000000000000D+00 0.000000000000D+00 0.521936981045D-08 0.000000000000D+00  6 -1 22 9900012 -11 -2 21 2 0.43189916D-01 0.26125870D-01 0.17521914D+05 0.17521914D+05 0.17521914D+05 0.11848640D+01  1  2 12  1  6  1       -1 0.141938349167D-04 0.100000000000D+01
-.788736503375D-07 0.000000000000D+00 0.000000000000D+00 0.521936981045D-08 0.000000000000D+00  6 -1 22 9900012 -11 -2 21 2 0.40329952D-01 0.26125870D-01 0.16804301D+05 0.16804301D+05 0.16804301D+05 0.11866352D+01  1  2  4  1  6  1       -1 -.851348995476D-06 0.100000000000D+01
0.544230842289D-07 0.000000000000D+00 0.000000000000D+00 0.521936981045D-08 0.000000000000D+00  6 -1 22 9900012 -11 -2 21 2 0.43106818D-01 0.26125870D-01 0.16804301D+05 0.16804301D+05 0.16804301D+05 0.11866352D+01  1  2  5  1  6  1       -1 0.524676953456D-06 0.100000000000D+01
-.543026562972D-07 0.000000000000D+00 0.000000000000D+00 0.521936981045D-08 0.000000000000D+00  6 -1 22 9900012 -11 -2 21 2 0.40329952D-01 0.26125870D-01 0.16804301D+05 0.16804301D+05 0.16804301D+05 0.11866352D+01  1  2  6  1  6  1       -1 -.586133793636D-06 0.100000000000D+01
0.216573105761D-07 0.000000000000D+00 0.000000000000D+00 0.521936981045D-08 0.000000000000D+00  6 21 22 9900012 -11 1 -2 2 0.43189916D-01 0.26125870D-01 0.17521914D+05 0.17521914D+05 0.17521914D+05 0.11848640D+01  3  4 12  3  5  1       -1 0.204694700751D-05 0.100000000000D+01
  </mgrwgt>
  </event>
  <event>
  6     66 0.20026351E-05 0.76095909E+02 0.78161638E-02 0.10684053E+00
       -1 -1    0    0    0  501 0.00000000E+00 0.00000000E+00 0.41754707E+02 0.41754707E+02 0.00000000E+00 0.0000E+00 0.9000E+01
       22 -1    0    0    0    0 0.00000000E+00 0.00000000E+00 -.22437094E+03 0.22437094E+03 0.00000000E+00 0.0000E+00 0.9000E+01
       24  2    1    2    0    0 -.75448697E+02 -.99036085E+01 -.14711209E+03 0.18215463E+03 0.75813955E+02 0.0000E+00 0.0000E+00
  9900012  1    3    3    0    0 -.65262380E+02 0.55837393E+01 -.13969610E+03 0.16218926E+03 0.50000000E+02 0.0000E+00 0.9000E+01
      -11  1    3    3    0    0 -.10186317E+02 -.15487348E+02 -.74159840E+01 0.19965365E+02 0.00000000E+00 0.0000E+00 0.9000E+01
       -2  1    1    2    0  501 0.75448697E+02 0.99036085E+01 -.35504147E+02 0.83971017E+02 0.00000000E+00 0.0000E+00 0.9000E+01
#aMCatNLO 1  0  0  1  1 0.70903512D+03 0.00000000D+00  -5  6  0 0.00000000D+00 0.00000000D+00 0.00000000D+00 0.00000000D+00 0.00000000D+00
  <mgrwgt>
 0.4982157308D-04    5    4    0
 0.967912333097105D+02 0.000000000000000D+00 0.000000000000000D+00 0.967912333097105D+02
 0.967912333097105D+02 0.000000000000000D+00 0.000000000000000D+00 -.967912333097105D+02
 0.911856697708845D+02 -.652623802023323D+02 0.558373929414928D+01 -.390444612894839D+02
 0.204513185002928D+02 -.101863168710406D+02 -.154873477460710D+02 0.863929608217266D+01
 0.819454783482436D+02 0.754486970733729D+02 0.990360845192169D+01 0.304051652073112D+02
 0.000000000000000D+00 -.000000000000000D+00 -.000000000000000D+00 0.000000000000000D+00
 0.224502952919262D+03 0.000000000000000D+00 0.000000000000000D+00 0.224502952919262D+03
 0.168745799440217D+03 0.000000000000000D+00 0.000000000000000D+00 -.168745799440217D+03
 0.678587169371432D+02 -.148171347490245D+02 0.189944208861066D+02 -.390444612894839D+02
 0.152199885608827D+02 0.112780667388348D+01 -.124795299232102D+02 0.863929608217266D+01
 0.157239784155924D+03 0.151312797187681D+03 0.300717983725172D+02 0.304051652073112D+02
 0.152930262705529D+03 -.137623469112540D+03 -.365866893354136D+02 0.557571534790451D+02
 0.967912333097105D+02 0.000000000000000D+00 0.000000000000000D+00 0.967912333097105D+02
 0.967912333097105D+02 0.000000000000000D+00 0.000000000000000D+00 -.967912333097105D+02
 0.911856697708845D+02 -.652623802023323D+02 0.558373929414928D+01 -.390444612894839D+02
 0.204513185002928D+02 -.101863168710406D+02 -.154873477460710D+02 0.863929608217266D+01
 0.000000000000000D+00 -.000000000000000D+00 -.000000000000000D+00 0.000000000000000D+00
 0.819454783482436D+02 0.754486970733729D+02 0.990360845192169D+01 0.304051652073112D+02
 0.224502952919262D+03 0.000000000000000D+00 0.000000000000000D+00 0.224502952919262D+03
 0.168745799440217D+03 0.000000000000000D+00 0.000000000000000D+00 -.168745799440217D+03
 0.678587169371432D+02 -.148171347490245D+02 0.189944208861066D+02 -.390444612894839D+02
 0.152199885608827D+02 0.112780667388348D+01 -.124795299232102D+02 0.863929608217266D+01
 0.152930262705529D+03 -.137623469112540D+03 -.365866893354136D+02 0.557571534790451D+02
 0.157239784155924D+03 0.151312797187681D+03 0.300717983725172D+02 0.304051652073112D+02
0.640422321789D-06 0.000000000000D+00 0.000000000000D+00 0.275307011036D-07 0.000000000000D+00  6 -1 22 9900012 -11 -2 21 0 0.64238011D-02 0.34518606D-01 0.78354798D+04 0.78354798D+04 0.78354798D+04 0.12204724D+01  1  2  2  1  6  1       -1 0.509479756777D-04 0.100000000000D+01
-.159932040230D-07 0.000000000000D+00 -.122969517137D-08 0.275307011036D-07 0.000000000000D+00  6 -1 22 9900012 -11 -2 21 2 0.64238011D-02 0.34518606D-01 0.78354798D+04 0.78354798D+04 0.78354798D+04 0.12204724D+01  1  2  3  1  6  1       -1 -.189518622301D-05 0.100000000000D+01
-.725070865744D-07 0.000000000000D+00 0.000000000000D+00 0.275307011036D-07 0.000000000000D+00  6 -1 22 9900012 -11 -2 21 2 0.64238011D-02 0.34518606D-01 0.78354798D+04 0.78354798D+04 0.78354798D+04 0.12204724D+01  1  2 15  1  6  1       -1 -.859205143312D-05 0.100000000000D+01
0.203844763806D-06 0.000000000000D+00 -.228537678326D-06 0.275307011036D-07 0.000000000000D+00  6 -1 22 9900012 -11 -2 21 2 0.25534000D-01 0.34518606D-01 0.78354798D+04 0.78354798D+04 0.78354798D+04 0.12204724D+01  1  2  5  1  6  1       -1 0.303249917640D-05 0.100000000000D+01
0.364485704626D-07 0.000000000000D+00 -.376069747601D-07 0.275307011036D-07 0.000000000000D+00  6 21 22 9900012 -11 1 -2 2 0.25534000D-01 0.34518606D-01 0.78354798D+04 0.78354798D+04 0.78354798D+04 0.12204724D+01  3  4  5  3  5  1       -1 0.632833588227D-05 0.100000000000D+01
  </mgrwgt>
  </event>
  <event>
  7     66 -.20026351E-05 0.40162348E+02 0.78161638E-02 0.12436691E+00
       -1 -1    0    0    0  501 0.00000000E+00 0.00000000E+00 0.29819015E+03 0.29819015E+03 0.00000000E+00 0.0000E+00 0.9000E+01
       22 -1    0    0    0    0 0.00000000E+00 0.00000000E+00 -.19332805E+02 0.19332805E+02 0.00000000E+00 0.0000E+00 0.9000E+01
       24  2    1    2    0    0 0.78062035E+01 -.48838742E+02 0.14417431E+03 0.17226136E+03 0.80259481E+02 0.0000E+00 0.0000E+00
  9900012  1    3    3    0    0 0.17044673E+02 -.33958973E+02 0.62024889E+02 0.88265620E+02 0.50000000E+02 0.0000E+00 0.9000E+01
      -11  1    3    3    0    0 -.92384694E+01 -.14879769E+02 0.82149419E+02 0.83995737E+02 0.00000000E+00 0.0000E+00 0.9000E+01
       -2  1    1    2    0  502 -.85271480E+01 0.42503489E+02 0.13079895E+03 0.13779558E+03 0.00000000E+00 0.0000E+00 0.9000E+01
       21  1    1    2  502  501 0.72094451E+00 0.63352533E+01 0.38840897E+01 0.74660128E+01 0.00000000E+00 0.0000E+00 0.9000E+01
#aMCatNLO 2  0  0  5  1 0.81118212D+01 0.00000000D+00  -5  6  0 0.00000000D+00 0.00000000D+00 0.00000000D+00 0.00000000D+00 0.00000000D+00
  <mgrwgt>
 -.4981643231D-04    2    2    0
 0.759266227939402D+02 0.000000000000000D+00 0.000000000000000D+00 0.759266227939402D+02
 0.759266227939402D+02 -.000000000000000D+00 -.000000000000000D+00 -.759266227939402D+02
 0.721025575948592D+02 0.173888742073834D+02 -.361124346912716D+02 -.330499308045937D+02
 0.250339653994486D+02 -.911837439547098D+01 -.156311318892174D+02 0.172980457817263D+02
 0.547167225935726D+02 -.827049981191239D+01 0.517435665804890D+02 0.157518850228674D+02
 0.000000000000000D+00 0.000000000000000D+00 0.000000000000000D+00 0.000000000000000D+00
 0.759266227939402D+02 0.000000000000000D+00 0.000000000000000D+00 0.759266227939402D+02
 0.759266227939402D+02 -.000000000000000D+00 -.000000000000000D+00 -.759266227939402D+02
 0.706620681937497D+02 0.170446728529694D+02 -.339589728565274D+02 -.323943694379597D+02
 0.247779089532738D+02 -.923846937364499D+01 -.148797694999481D+02 0.175267770955576D+02
 0.479345328966205D+02 -.852714798844654D+01 0.425034890945791D+02 0.204563096864348D+02
 0.847873554423626D+01 0.720944509122108D+00 0.633525326189648D+01 -.558871734403270D+01
-.402833224182D-06 0.000000000000D+00 0.000000000000D+00 0.334251800025D-06 0.000000000000D+00  6 -1 22 9900012 -11 -2 21 2 0.45875407D-01 0.29742777D-02 0.42276123D+04 0.42276123D+04 0.42276123D+04 0.12501363D+01  1  2 13  2  6  5       -2 -.765845439617D-04 0.100000000000D+01
0.140799751044D-06 0.000000000000D+00 0.000000000000D+00 0.334251800025D-06 0.117450645444D-07  6 -1 22 9900012 -11 -2 21 2 0.45875407D-01 0.29742777D-02 0.42276123D+04 0.42276123D+04 0.42276123D+04 0.12501363D+01  1  2  1  2  6  5       -2 0.267681116559D-04 0.100000000000D+01
  </mgrwgt>
  </event>
  <event>
  7     66 -.20026351E-05 0.98727757E+01 0.78161638E-02 0.12744407E+00
       -1 -1    0    0    0  501 0.00000000E+00 0.00000000E+00 0.10372693E+04 0.10372693E+04 0.00000000E+00 0.0000E+00 0.9000E+01
       22 -1    0    0    0    0 0.00000000E+00 0.00000000E+00 -.14665437E+02 0.14665437E+02 0.00000000E+00 0.0000E+00 0.9000E+01
       24  2    1    2    0    0 -.18418584E+02 -.24474302E+02 0.11813004E+03 0.14625660E+03 0.80610494E+02 0.0000E+00 0.0000E+00
  9900012  1    3    3    0    0 0.21646178E+01 -.31822191E+02 0.60952241E+02 0.85044183E+02 0.50000000E+02 0.0000E+00 0.9000E+01
      -11  1    3    3    0    0 -.20583202E+02 0.73478888E+01 0.57177796E+02 0.61212418E+02 0.00000000E+00 0.0000E+00 0.9000E+01
       -2  1    1    2    0  502 0.81372686E+01 0.11196233E+02 0.77453162E+03 0.77465528E+03 0.00000000E+00 0.0000E+00 0.9000E+01
       21  1    1    2  502  501 0.10281315E+02 0.13278070E+02 0.12994223E+03 0.13102288E+03 0.00000000E+00 0.0000E+00 0.9000E+01
#aMCatNLO 2  0  0  5  1 0.13479630D+02 0.00000000D+00  -5  6  0 0.00000000D+00 0.00000000D+00 0.00000000D+00 0.00000000D+00 0.00000000D+00
  <mgrwgt>
 -.9043988488D-04    2    2    0
 0.123336970363247D+03 0.000000000000000D+00 0.000000000000000D+00 0.123336970363247D+03
 0.123336970363247D+03 -.000000000000000D+00 -.000000000000000D+00 -.123336970363247D+03
 0.112233924782992D+03 0.172145817171906D+01 -.324110539676606D+02 -.950947634450113D+02
 0.242743838289039D+02 -.206794804234655D+02 0.721995521216081D+01 -.104631279464056D+02
 0.110165632114599D+03 0.189580222517464D+02 0.251910987554998D+02 0.105557891391417D+03
 0.000000000000000D+00 0.000000000000000D+00 0.000000000000000D+00 0.000000000000000D+00
 0.123336970363247D+03 0.000000000000000D+00 0.000000000000000D+00 0.123336970363247D+03
 0.123336970363247D+03 -.000000000000000D+00 -.000000000000000D+00 -.123336970363247D+03
 0.109987029479650D+03 0.216461775026019D+01 -.318221910283080D+02 -.926272597128432D+02
 0.240042908076928D+02 -.205832016671463D+02 0.734788879227204D+01 -.992704974331615D+01
 0.926233668483293D+02 0.813726857800126D+01 0.111962325027838D+02 0.915833900014258D+02
 0.200592535908230D+02 0.102813153388848D+02 0.132780697332522D+02 0.109709194547336D+02
-.467670721225D-05 0.000000000000D+00 0.000000000000D+00 0.443263817806D-05 0.000000000000D+00  6 -1 22 9900012 -11 -2 21 2 0.15957990D+00 0.22562211D-02 0.31246261D+04 0.31246261D+04 0.31246261D+04 0.12655076D+01  1  2 13  2  6  5       -2 -.957813678031D-04 0.100000000000D+01
0.260808049441D-06 0.000000000000D+00 0.000000000000D+00 0.443263817806D-05 0.109774177793D-07  6 -1 22 9900012 -11 -2 21 2 0.15957990D+00 0.22562211D-02 0.31246261D+04 0.31246261D+04 0.31246261D+04 0.12655076D+01  1  2  1  2  6  5       -2 0.534148292288D-05 0.100000000000D+01
  </mgrwgt>
  </event>
  <event>
  6     66 0.20026351E-05 0.22892927E+02 0.78161638E-02 0.11940213E+00
       -1 -1    0    0    0  501 0.00000000E+00 0.00000000E+00 0.92480248E+02 0.92480248E+02 0.00000000E+00 0.0000E+00 0.9000E+01
       22 -1    0    0    0    0 0.00000000E+00 0.00000000E+00 -.45450866E+03 0.45450866E+03 0.00000000E+00 0.0000E+00 0.9000E+01
       24  2    1    2    0    0 -.22236986E+02 -.54408211E+01 -.44975076E+03 0.45632857E+03 0.73728774E+02 0.0000E+00 0.0000E+00
  9900012  1    3    3    0    0 0.15382058E+01 0.64165719E+01 -.27861625E+03 0.28314405E+03 0.50000000E+02 0.0000E+00 0.9000E+01
      -11  1    3    3    0    0 -.23775192E+02 -.11857393E+02 -.17113450E+03 0.17318452E+03 0.00000000E+00 0.0000E+00 0.9000E+01
       -2  1    1    2    0  501 0.22236986E+02 0.54408211E+01 0.87722349E+02 0.90660336E+02 0.00000000E+00 0.0000E+00 0.9000E+01
#aMCatNLO 1  0  0  1  5 0.23374189D+01 0.00000000D+00  -5  6  0 0.00000000D+00 0.00000000D+00 0.00000000D+00 0.00000000D+00 0.00000000D+00
  <mgrwgt>
 0.9494957968D-04    7    4    0
 0.205019690212576D+03 0.000000000000000D+00 0.000000000000000D+00 0.205019690212576D+03
 0.205019690212576D+03 0.000000000000000D+00 0.000000000000000D+00 -.205019690212576D+03
 0.131718219246060D+03 0.153820583364123D+01 0.641657193519006D+01 -.121680527648294D+03
 0.799300197222756D+02 -.237751919057747D+02 -.118573930739464D+02 -.753853469325232D+02
 0.198391141456816D+03 0.222369860721334D+02 0.544082113875633D+01 0.197065874580817D+03
 0.000000000000000D+00 0.000000000000000D+00 -.000000000000000D+00 0.000000000000000D+00
 0.238303630256895D+03 0.000000000000000D+00 0.000000000000000D+00 0.238303630256895D+03
 0.228292142840618D+03 0.000000000000000D+00 0.000000000000000D+00 -.228292142840618D+03
 0.133583181713962D+03 0.949369445017154D-01 0.232014356244359D+02 -.121680527648294D+03
 0.793305227177361D+02 -.246415868261912D+02 -.178143235056610D+01 -.753853469325232D+02
 0.200445890031459D+03 0.200672686213367D+02 0.306741036752587D+02 0.197065874580817D+03
 0.532361786343565D+02 0.447938126035278D+01 -.520941069491285D+02 0.100114874162770D+02
 0.205019690212576D+03 0.000000000000000D+00 0.000000000000000D+00 0.205019690212576D+03
 0.205019690212576D+03 0.000000000000000D+00 0.000000000000000D+00 -.205019690212576D+03
 0.131718219246060D+03 0.153820583364123D+01 0.641657193519006D+01 -.121680527648294D+03
 0.799300197222756D+02 -.237751919057747D+02 -.118573930739464D+02 -.753853469325232D+02
 0.000000000000000D+00 0.000000000000000D+00 -.000000000000000D+00 0.000000000000000D+00
 0.198391141456816D+03 0.222369860721334D+02 0.544082113875633D+01 0.197065874580817D+03
 0.238303630256895D+03 0.000000000000000D+00 0.000000000000000D+00 0.238303630256895D+03
 0.228292142840618D+03 0.000000000000000D+00 0.000000000000000D+00 -.228292142840618D+03
 0.133583181713962D+03 0.949369445017154D-01 0.232014356244359D+02 -.121680527648294D+03
 0.793305227177361D+02 -.246415868261912D+02 -.178143235056610D+01 -.753853469325232D+02
 0.532361786343565D+02 0.447938126035278D+01 -.520941069491285D+02 0.100114874162770D+02
 0.200445890031459D+03 0.200672686213367D+02 0.306741036752587D+02 0.197065874580817D+03
0.101407460110D-04 0.000000000000D+00 0.000000000000D+00 0.168339254566D-05 0.000000000000D+00  6 -1 22 9900012 -11 -2 21 0 0.14227730D-01 0.69924409D-01 0.24947233D+04 0.24947233D+04 0.24947233D+04 0.12773501D+01  1  2  2  1  6  1       -1 0.703024042341D-04 0.100000000000D+01
0.114119627184D-05 0.000000000000D+00 -.194715674010D-07 0.168339254566D-05 0.000000000000D+00  6 -1 22 9900012 -11 -2 21 2 0.14227730D-01 0.69924409D-01 0.24947233D+04 0.24947233D+04 0.24947233D+04 0.12773501D+01  1  2  3  1  6  1       -1 0.129086400419D-04 0.100000000000D+01
-.140393476025D-05 0.000000000000D+00 0.000000000000D+00 0.168339254566D-05 0.000000000000D+00  6 -1 22 9900012 -11 -2 21 2 0.14227730D-01 0.69924409D-01 0.24947233D+04 0.24947233D+04 0.24947233D+04 0.12773501D+01  1  2 15  1  6  1       -1 -.158806060883D-04 0.100000000000D+01
-.264197775935D-07 0.000000000000D+00 0.000000000000D+00 0.168339254566D-05 0.000000000000D+00  6 -1 22 9900012 -11 -2 21 2 0.14227730D-01 0.69924409D-01 0.24947233D+04 0.24947233D+04 0.24947233D+04 0.12773501D+01  1  2  4  1  6  1       -1 -.298847277509D-06 0.100000000000D+01
-.222433658683D-05 0.000000000000D+00 -.583772206154D-05 0.168339254566D-05 0.000000000000D+00  6 -1 22 9900012 -11 -2 21 2 0.18356587D-01 0.69924409D-01 0.24947233D+04 0.24947233D+04 0.24947233D+04 0.12773501D+01  1  2  5  1  6  1       -1 -.172124715165D-04 0.100000000000D+01
0.377312190005D-05 0.000000000000D+00 0.565322136796D-05 0.168339254566D-05 0.000000000000D+00  6 -1 22 9900012 -11 -2 21 2 0.14227730D-01 0.69924409D-01 0.24947233D+04 0.24947233D+04 0.24947233D+04 0.12773501D+01  1  2  6  1  6  1       -1 0.426796631255D-04 0.100000000000D+01
0.245794477599D-07 0.000000000000D+00 -.200352207051D-06 0.168339254566D-05 0.000000000000D+00  6 21 22 9900012 -11 1 -2 2 0.18356587D-01 0.69924409D-01 0.24947233D+04 0.24947233D+04 0.24947233D+04 0.12773501D+01  3  4  5  3  5  1       -1 0.245079715892D-05 0.100000000000D+01
  </mgrwgt>
  </event>
  <event>
  6     66 0.20026351E-05 0.98579558E+02 0.78161638E-02 0.11540845E+00
       -3 -1    0    0    0  501 0.00000000E+00 0.00000000E+00 0.14695286E+03 0.14695286E+03 0.00000000E+00 0.0000E+00 0.9000E+01
       22 -1    0    0    0    0 -.00000000E+00 -.00000000E+00 -.23118591E+03 0.23118591E+03 0.00000000E+00 0.0000E+00 0.9000E+01
       24  2    1    2    0    0 -.94129929E+02 0.29282857E+02 -.19428346E+03 0.23039229E+03 0.74944062E+02 0.0000E+00 0.0000E+00
  9900012  1    3    3    0    0 -.81765189E+02 0.31546026E+02 -.12830179E+03 0.16322392E+03 0.50000000E+02 0.0000E+00 0.9000E+01
      -11  1    3    3    0    0 -.12364741E+02 -.22631686E+01 -.65981672E+02 0.67168369E+02 0.00000000E+00 0.0000E+00 0.9000E+01
       -4  1    1    2    0  501 0.94129929E+02 -.29282857E+02 0.11005041E+03 0.14774648E+03 0.00000000E+00 0.0000E+00 0.9000E+01
#aMCatNLO 1  0  0  5  5 0.15249138D+01 0.00000000D+00  -5  6  0 0.00000000D+00 0.00000000D+00 0.00000000D+00 0.00000000D+00 0.00000000D+00
  <mgrwgt>
 0.1311864554D-04    7    2    0
 0.184318827223921D+03 0.000000000000000D+00 0.000000000000000D+00 0.184318827223921D+03
 0.184318827223921D+03 -.000000000000000D+00 -.000000000000000D+00 -.184318827223921D+03
 0.138114051284201D+03 -.817651887142919D+02 0.315460255342916D+02 -.943122120917596D+02
 0.538228426364365D+02 -.123647406240861D+02 -.226316860383845D+01 -.523344021331694D+02
 0.176700760527205D+03 0.941299293383780D+02 -.292828569304532D+02 0.146646614224929D+03
 0.000000000000000D+00 0.000000000000000D+00 -.000000000000000D+00 0.000000000000000D+00
 0.184318827223921D+03 0.000000000000000D+00 0.000000000000000D+00 0.184318827223921D+03
 0.184318827223921D+03 -.000000000000000D+00 -.000000000000000D+00 -.184318827223921D+03
 0.137776046862786D+03 -.815694163032393D+02 0.314851227423308D+02 -.940072149304815D+02
 0.536907728746248D+02 -.122884486517719D+02 -.228690225503654D+01 -.522155455748881D+02
 0.175974010377984D+03 0.930562011054219D+02 -.284083663315217D+02 0.146630012230485D+03
 0.119682433244784D+01 0.801663849589367D+00 -.789854155772565D+00 -.407251725115545D+00
0.145548656302D-05 0.000000000000D+00 0.000000000000D+00 0.114394822147D-06 0.000000000000D+00  6 -3 22 9900012 -11 -4 21 0 0.22608132D-01 0.35567063D-01 0.11241211D+05 0.11241211D+05 0.11241211D+05 0.12040991D+01  1  2  2  2  6  5       -4 0.125319976853D-04 0.100000000000D+01
-.811553763593D-09 0.000000000000D+00 -.279472582020D-08 0.114394822147D-06 0.000000000000D+00  6 -3 22 9900012 -11 -4 21 2 0.22608132D-01 0.35567063D-01 0.11241211D+05 0.11241211D+05 0.11241211D+05 0.12040991D+01  1  2  3  2  6  5       -4 -.101310365484D-07 0.100000000000D+01
-.202270980173D-06 0.000000000000D+00 0.000000000000D+00 0.114394822147D-06 0.000000000000D+00  6 -3 22 9900012 -11 -4 21 2 0.22608132D-01 0.35567063D-01 0.11241211D+05 0.11241211D+05 0.11241211D+05 0.12040991D+01  1  2 15  2  6  5       -4 -.252505106222D-05 0.100000000000D+01
-.328030904844D-05 0.000000000000D+00 0.000000000000D+00 0.114394822147D-06 0.000000000000D+00  6 -3 22 9900012 -11 -4 21 2 0.22608132D-01 0.35567063D-01 0.11241211D+05 0.11241211D+05 0.11241211D+05 0.12040991D+01  1  2  4  2  6  5       -4 -.409497587843D-04 0.100000000000D+01
-.373640896298D-04 0.000000000000D+00 0.000000000000D+00 0.114394822147D-06 0.000000000000D+00  6 -3 22 9900012 -11 -4 21 2 0.22608132D-01 0.35567063D-01 0.11241211D+05 0.11241211D+05 0.11241211D+05 0.12040991D+01  1  2  5  2  6  5       -4 -.466434849565D-03 0.100000000000D+01
0.376180200043D-04 0.000000000000D+00 -.000000000000D+00 0.114394822147D-06 0.000000000000D+00  6 -3 22 9900012 -11 -4 21 2 0.22608132D-01 0.35567063D-01 0.11241211D+05 0.11241211D+05 0.11241211D+05 0.12040991D+01  1  2  6  2  6  5       -4 0.469604791004D-03 0.100000000000D+01
0.327649257754D-05 0.000000000000D+00 0.000000000000D+00 0.114394822147D-06 0.474447040144D-07  6 -3 22 9900012 -11 -4 21 2 0.22608132D-01 0.35567063D-01 0.11198142D+05 0.11198142D+05 0.11198142D+05 0.12042696D+01  1  2 11  2  6  5       -4 0.409016473010D-04 0.100000000000D+01
  </mgrwgt>
  </event>
  <event>
  6     66 0.20026351E-05 0.44900663E+02 0.78161638E-02 0.12216936E+00
       -3 -1    0    0    0  501 0.00000000E+00 0.00000000E+00 0.11792172E+02 0.11792172E+02 0.00000000E+00 0.0000E+00 0.9000E+01
       22 -1    0    0    0    0 -.00000000E+00 -.00000000E+00 -.44962093E+03 0.44962093E+03 0.00000000E+00 0.0000E+00 0.9000E+01
       24  2    1    2    0    0 0.37199968E+01 -.50361071E+02 -.28009187E+03 0.29579003E+03 0.80561843E+02 0.0000E+00 0.0000E+00
  9900012  1    3    3    0    0 0.92359153E+01 -.69831812E+01 -.14752304E+03 0.15619576E+03 0.50000000E+02 0.0000E+00 0.9000E+01
      -11  1    3    3    0    0 -.55159185E+01 -.43377890E+02 -.13256883E+03 0.13959427E+03 0.00000000E+00 0.0000E+00 0.9000E+01
       -4  1    1    2    0  501 -.37199968E+01 0.50361071E+02 -.15773688E+03 0.16562307E+03 0.00000000E+00 0.0000E+00 0.9000E+01
#aMCatNLO 1  0  0  5  5 0.15249138D+01 0.00000000D+00  -5  6  0 0.00000000D+00 0.00000000D+00 0.00000000D+00 0.00000000D+00 0.00000000D+00
  <mgrwgt>
 0.8895453716D-05    1    2    0
 0.728148835903492D+02 0.000000000000000D+00 0.000000000000000D+00 0.728148835903492D+02
 0.728148835903492D+02 -.000000000000000D+00 -.000000000000000D+00 -.728148835903492D+02
 0.513695732553882D+02 0.923591527983107D+01 -.698318124026001D+01 0.218314112007304D+01
 0.437285658246081D+02 -.551591846946651D+01 -.433778901231996D+02 -.347506798355391D+00
 0.505316281007021D+02 -.371999681036456D+01 0.503610713634596D+02 -.183563432171766D+01
 0.000000000000000D+00 0.000000000000000D+00 0.000000000000000D+00 0.000000000000000D+00
 0.728148835903492D+02 0.000000000000000D+00 0.000000000000000D+00 0.728148835903492D+02
 0.728148835903492D+02 -.000000000000000D+00 -.000000000000000D+00 -.728148835903492D+02
 0.510392626164796D+02 0.829408229278356D+01 0.576729159375071D+01 0.171839315267335D+01
 0.342485726381671D+02 -.623305816365951D+01 -.336693002619938D+02 -.701379745896379D+00
 0.369521589930552D+02 -.244429608954655D+02 0.266251876915231D+02 -.768785388141203D+01
 0.233897729329964D+02 0.223819367663415D+02 0.127682097671997D+01 0.667084047463506D+01
0.430636512383D-07 0.000000000000D+00 0.000000000000D+00 0.196117866701D-06 0.000000000000D+00  6 -3 22 9900012 -11 -4 21 2 0.18141803D-02 0.69172451D-01 0.52961004D+04 0.52961004D+04 0.52961004D+04 0.12390422D+01  1  2 14  2  6  5       -4 0.889545371572D-05 0.100000000000D+01
  </mgrwgt>
  </event>
  <event>
  6     66 0.20026351E-05 0.43312672E+02 0.78161638E-02 0.11802720E+00
       -1 -1    0    0    0  501 0.00000000E+00 0.00000000E+00 0.24385903E+03 0.24385903E+03 0.00000000E+00 0.0000E+00 0.9000E+01
       22 -1    0    0    0    0 0.00000000E+00 0.00000000E+00 -.41493616E+02 0.41493616E+02 0.00000000E+00 0.0000E+00 0.9000E+01
       24  2    1    2    0    0 -.27061784E+02 -.71038476E+02 0.61234437E+02 0.12505056E+03 0.78161254E+02 0.0000E+00 0.0000E+00
  9900012  1    3    3    0    0 -.40724066E+00 -.46719176E+02 0.56336801E+02 0.88637929E+02 0.50000000E+02 0.0000E+00 0.9000E+01
      -11  1    3    3    0    0 -.26654544E+02 -.24319300E+02 0.48976356E+01 0.36412634E+02 0.00000000E+00 0.0000E+00 0.9000E+01
       -2  1    1    2    0  501 0.27061784E+02 0.71038476E+02 0.14113098E+03 0.16030209E+03 0.00000000E+00 0.0000E+00 0.9000E+01
#aMCatNLO 1  0  0  5  1 0.14913700D+02 0.00000000D+00  -5  6  0 0.00000000D+00 0.00000000D+00 0.00000000D+00 0.00000000D+00 0.00000000D+00
  <mgrwgt>
 0.9472328230D-04    7    2    0
 0.100591217488575D+03 0.000000000000000D+00 0.000000000000000D+00 0.100591217488575D+03
 0.100591217488575D+03 -.000000000000000D+00 -.000000000000000D+00 -.100591217488575D+03
 0.690539779495824D+02 -.407240660025270D+00 -.467191755292896D+02 -.925227883116686D+01
 0.467204281010842D+02 -.266545438262299D+02 -.243193003161219D+02 -.296800493176551D+02
 0.854080289264844D+02 0.270617844862552D+02 0.710384758454115D+02 0.389323281488220D+02
 0.000000000000000D+00 0.000000000000000D+00 0.000000000000000D+00 0.000000000000000D+00
 0.100591217488575D+03 0.000000000000000D+00 0.000000000000000D+00 0.100591217488575D+03
 0.100591217488575D+03 -.000000000000000D+00 -.000000000000000D+00 -.100591217488575D+03
 0.668282034508242D+02 0.750737722517001D+00 -.436794270086583D+02 -.758635785683956D+01
 0.445163040831001D+02 -.258770308184592D+02 -.222782915626131D+02 -.285614833349172D+02
 0.767089689536916D+02 0.122040791268083D+02 0.674732351628306D+02 0.343902443618300D+02
 0.131289584895352D+02 0.129222139691338D+02 -.151551659155924D+01 0.175759682992679D+01
0.781147887315D-06 0.000000000000D+00 0.000000000000D+00 0.123820703978D-06 0.000000000000D+00  6 -1 22 9900012 -11 -2 21 0 0.37516774D-01 0.63836332D-02 0.81479093D+04 0.81479093D+04 0.81479093D+04 0.12186643D+01  1  2  2  2  6  5       -2 0.495719719998D-04 0.100000000000D+01
-.149490944874D-07 0.000000000000D+00 -.149990678413D-08 0.123820703978D-06 0.000000000000D+00  6 -1 22 9900012 -11 -2 21 2 0.37516774D-01 0.63836332D-02 0.81479093D+04 0.81479093D+04 0.81479093D+04 0.12186643D+01  1  2  3  2  6  5       -2 -.140891885215D-05 0.100000000000D+01
-.998001384379D-07 0.000000000000D+00 0.000000000000D+00 0.123820703978D-06 0.000000000000D+00  6 -1 22 9900012 -11 -2 21 2 0.37516774D-01 0.63836332D-02 0.81479093D+04 0.81479093D+04 0.81479093D+04 0.12186643D+01  1  2 15  2  6  5       -2 -.940594071510D-05 0.100000000000D+01
0.755676626373D-06 0.000000000000D+00 0.000000000000D+00 0.123820703978D-06 0.000000000000D+00  6 -1 22 9900012 -11 -2 21 2 0.37516774D-01 0.63836332D-02 0.82920091D+04 0.82920091D+04 0.82920091D+04 0.12178561D+01  1  2 12  2  6  5       -2 0.712267664403D-04 0.100000000000D+01
-.279290805657D-06 0.000000000000D+00 0.000000000000D+00 0.123820703978D-06 0.000000000000D+00  6 -1 22 9900012 -11 -2 21 2 0.37516774D-01 0.63836332D-02 0.81479093D+04 0.81479093D+04 0.81479093D+04 0.12186643D+01  1  2  4  2  6  5       -2 -.263225362349D-04 0.100000000000D+01
-.709735117968D-06 0.000000000000D+00 0.000000000000D+00 0.123820703978D-06 0.000000000000D+00  6 -1 22 9900012 -11 -2 21 2 0.37516774D-01 0.63836332D-02 0.81479093D+04 0.81479093D+04 0.81479093D+04 0.12186643D+01  1  2  5  2  6  5       -2 -.668909537353D-04 0.100000000000D+01
0.827105952319D-06 0.000000000000D+00 -.000000000000D+00 0.123820703978D-06 0.000000000000D+00  6 -1 22 9900012 -11 -2 21 2 0.37516774D-01 0.63836332D-02 0.81479093D+04 0.81479093D+04 0.81479093D+04 0.12186643D+01  1  2  6  2  6  5       -2 0.779528933967D-04 0.100000000000D+01
  </mgrwgt>
  </event>
  <event>
  6     66 0.20026351E-05 0.69981641E+02 0.78161638E-02 0.10982914E+00
       -1 -1    0    0    0  501 0.00000000E+00 0.00000000E+00 0.11276426E+04 0.11276426E+04 0.00000000E+00 0.0000E+00 0.9000E+01
       22 -1    0    0    0    0 0.00000000E+00 0.00000000E+00 -.12524099E+03 0.12524099E+03 0.00000000E+00 0.0000E+00 0.9000E+01
       24  2    1    2    0    0 0.58922514E+02 0.37756687E+02 -.10140443E+03 0.14686135E+03 0.79924768E+02 0.0000E+00 0.0000E+00
  9900012  1    3    3    0    0 0.69957098E+02 0.38193489E+02 -.83352895E+02 0.12569981E+03 0.50000000E+02 0.0000E+00 0.9000E+01
      -11  1    3    3    0    0 -.11034584E+02 -.43680207E+00 -.18051531E+02 0.21161536E+02 0.00000000E+00 0.0000E+00 0.9000E+01
       -2  1    1    2    0  501 -.58922514E+02 -.37756687E+02 0.11038061E+04 0.11060223E+04 0.00000000E+00 0.0000E+00 0.9000E+01
#aMCatNLO 1  0  0  5  1 0.13452168D+02 0.00000000D+00  -5  6  0 0.00000000D+00 0.00000000D+00 0.00000000D+00 0.00000000D+00 0.00000000D+00
  <mgrwgt>
 0.2129800595D-03    3    2    0
 0.375801913044857D+03 0.000000000000000D+00 0.000000000000000D+00 0.375801913044857D+03
 0.375801913044857D+03 -.000000000000000D+00 -.000000000000000D+00 -.375801913044857D+03
 0.320701285934921D+03 0.699570979123579D+02 0.381934893178881D+02 -.306588611376413D+03
 0.593501853741536D+02 -.110345838610984D+02 -.436802066707994D+00 -.583137348050466D+02
 0.371552354780639D+03 -.589225140512593D+02 -.377566872511800D+02 0.364902346181460D+03
 0.000000000000000D+00 0.000000000000000D+00 0.000000000000000D+00 -.000000000000000D+00
 0.375801913044857D+03 0.000000000000000D+00 0.000000000000000D+00 0.375801913044857D+03
 0.375801913044857D+03 -.000000000000000D+00 -.000000000000000D+00 -.375801913044857D+03
 0.286920677917556D+03 0.645121629373039D+02 0.347044544342563D+02 -.272868571096492D+03
 0.534408512814255D+02 -.120453107552758D+02 -.108446111273261D+01 -.520543852003579D+02
 0.890575426345039D+02 -.380104908846251D+02 0.772548177315964D+02 0.227627243550534D+02
 0.322184754256229D+03 -.144563612974029D+02 -.110874811053120D+03 0.302160231941797D+03
0.488087211563D-03 0.000000000000D+00 0.000000000000D+00 0.222495991536D-03 0.000000000000D+00  6 -1 22 9900012 -11 -2 21 0 0.17348348D+00 0.19267845D-01 0.76662158D+04 0.76662158D+04 0.76662158D+04 0.12214857D+01  1  2  2  2  6  5       -2 0.253179052619D-03 0.100000000000D+01
0.135873665135D-04 0.000000000000D+00 -.937191704358D-06 0.222495991536D-03 0.000000000000D+00  6 -1 22 9900012 -11 -2 21 2 0.17348348D+00 0.19267845D-01 0.76662158D+04 0.76662158D+04 0.76662158D+04 0.12214857D+01  1  2  3  2  6  5       -2 0.105158025809D-04 0.100000000000D+01
-.655280956094D-04 0.000000000000D+00 0.000000000000D+00 0.222495991536D-03 0.000000000000D+00  6 -1 22 9900012 -11 -2 21 2 0.17348348D+00 0.19267845D-01 0.76662158D+04 0.76662158D+04 0.76662158D+04 0.12214857D+01  1  2 15  2  6  5       -2 -.507147957070D-04 0.100000000000D+01
  </mgrwgt>
  </event>
  <event>
  6     66 0.20026351E-05 0.21055952E+02 0.78161638E-02 0.12873218E+00
       -1 -1    0    0    0  501 0.00000000E+00 0.00000000E+00 0.59364227E+02 0.59364227E+02 0.00000000E+00 0.0000E+00 0.9000E+01
       22 -1    0    0    0    0 0.00000000E+00 0.00000000E+00 -.56892689E+02 0.56892689E+02 0.00000000E+00 0.0000E+00 0.9000E+01
       24  2    1    2    0    0 -.17254295E+02 0.12068239E+02 -.21876391E+02 0.84067247E+02 0.78392426E+02 0.0000E+00 0.0000E+00
  9900012  1    3    3    0    0 0.55439842E+01 -.63536257E+01 -.20593303E+02 0.54728315E+02 0.50000000E+02 0.0000E+00 0.9000E+01
      -11  1    3    3    0    0 -.22798279E+02 0.18421865E+02 -.12830879E+01 0.29338933E+02 0.00000000E+00 0.0000E+00 0.9000E+01
       -2  1    1    2    0  501 0.17254295E+02 -.12068239E+02 0.24347929E+02 0.32189669E+02 0.00000000E+00 0.0000E+00 0.9000E+01
#aMCatNLO 1  0  0  1  5 0.44373339D+01 0.00000000D+00  -5  6  0 0.00000000D+00 0.00000000D+00 0.00000000D+00 0.00000000D+00 0.00000000D+00
  <mgrwgt>
 0.3376154472D-04   11    4    0
 0.581153207687555D+02 0.000000000000000D+00 0.000000000000000D+00 0.581153207687555D+02
 0.581153207687555D+02 0.000000000000000D+00 0.000000000000000D+00 -.581153207687555D+02
 0.551785843088767D+02 0.554398424172704D+01 -.635362572077873D+01 -.217617059363359D+02
 0.293728484610158D+02 -.227982794107113D+02 0.184218648512024D+02 -.190724356833853D+01
 0.316792087676184D+02 0.172542951689843D+02 -.120682391304236D+02 0.236689495046745D+02
 0.000000000000000D+00 -.000000000000000D+00 -.000000000000000D+00 0.000000000000000D+00
 0.647626122582156D+02 0.000000000000000D+00 0.000000000000000D+00 0.647626122582156D+02
 0.588234183817337D+02 0.000000000000000D+00 0.000000000000000D+00 -.588234183817337D+02
 0.550153491016741D+02 0.582572688952741D+01 -.437923483363782D+01 -.217617059363359D+02
 0.299358400337098D+02 -.226466396024488D+02 0.194845234792050D+02 -.190724356833853D+01
 0.313556249470674D+02 0.174154619447292D+02 -.109388175968894D+02 0.236689495046745D+02
 0.727921655749800D+01 -.594549231807847D+00 -.416647104867778D+01 0.593919387648186D+01
 0.581153207687555D+02 0.000000000000000D+00 0.000000000000000D+00 0.581153207687555D+02
 0.581153207687555D+02 0.000000000000000D+00 0.000000000000000D+00 -.581153207687555D+02
 0.551785843088767D+02 0.554398424172704D+01 -.635362572077873D+01 -.217617059363359D+02
 0.293728484610158D+02 -.227982794107113D+02 0.184218648512024D+02 -.190724356833853D+01
 0.000000000000000D+00 -.000000000000000D+00 -.000000000000000D+00 0.000000000000000D+00
 0.316792087676184D+02 0.172542951689843D+02 -.120682391304236D+02 0.236689495046745D+02
 0.647626122582156D+02 0.000000000000000D+00 0.000000000000000D+00 0.647626122582156D+02
 0.588234183817337D+02 0.000000000000000D+00 0.000000000000000D+00 -.588234183817337D+02
 0.550153491016741D+02 0.582572688952741D+01 -.437923483363782D+01 -.217617059363359D+02
 0.299358400337098D+02 -.226466396024488D+02 0.194845234792050D+02 -.190724356833853D+01
 0.727921655749800D+01 -.594549231807847D+00 -.416647104867778D+01 0.593919387648186D+01
 0.313556249470674D+02 0.174154619447292D+02 -.109388175968894D+02 0.236689495046745D+02
0.384602141955D-07 0.000000000000D+00 0.000000000000D+00 0.955121009759D-07 0.000000000000D+00  6 -1 22 9900012 -11 -2 21 0 0.91329581D-02 0.87527213D-02 0.25539314D+04 0.25539314D+04 0.25539314D+04 0.12761008D+01  1  2  2  1  6  1       -1 0.121484477165D-04 0.100000000000D+01
0.169112993942D-08 0.000000000000D+00 -.738486746588D-10 0.955121009759D-07 0.000000000000D+00  6 -1 22 9900012 -11 -2 21 2 0.91329581D-02 0.87527213D-02 0.25539314D+04 0.25539314D+04 0.25539314D+04 0.12761008D+01  1  2  3  1  6  1       -1 0.869873355206D-06 0.100000000000D+01
-.474983451439D-08 0.000000000000D+00 0.000000000000D+00 0.955121009759D-07 0.000000000000D+00  6 -1 22 9900012 -11 -2 21 2 0.91329581D-02 0.87527213D-02 0.25539314D+04 0.25539314D+04 0.25539314D+04 0.12761008D+01  1  2 15  1  6  1       -1 -.244319161372D-05 0.100000000000D+01
0.433684964497D-07 0.000000000000D+00 0.000000000000D+00 0.955121009759D-07 0.000000000000D+00  6 -1 22 9900012 -11 -2 21 2 0.10301603D-01 0.87527213D-02 0.27656014D+04 0.27656014D+04 0.27656014D+04 0.12718869D+01  1  2 12  1  6  1       -1 0.187810775873D-04 0.100000000000D+01
-.779038179638D-07 0.000000000000D+00 0.000000000000D+00 0.955121009759D-07 0.000000000000D+00  6 -1 22 9900012 -11 -2 21 2 0.91329581D-02 0.87527213D-02 0.25539314D+04 0.25539314D+04 0.25539314D+04 0.12761008D+01  1  2  4  1  6  1       -1 -.400717023192D-04 0.100000000000D+01
-.358070661377D-06 0.000000000000D+00 -.433994130445D-07 0.955121009759D-07 0.000000000000D+00  6 -1 22 9900012 -11 -2 21 2 0.10290546D-01 0.87527213D-02 0.25539314D+04 0.25539314D+04 0.25539314D+04 0.12761008D+01  1  2  5  1  6  1       -1 -.154862765759D-03 0.100000000000D+01
0.360983528168D-06 0.000000000000D+00 0.430922089092D-07 0.955121009759D-07 0.000000000000D+00  6 -1 22 9900012 -11 -2 21 2 0.91329581D-02 0.87527213D-02 0.25539314D+04 0.25539314D+04 0.25539314D+04 0.12761008D+01  1  2  6  1  6  1       -1 0.185680559195D-03 0.100000000000D+01
0.638480140850D-07 0.000000000000D+00 0.000000000000D+00 0.955121009759D-07 0.487336094006D-07  6 -1 22 9900012 -11 -2 21 2 0.10177595D-01 0.88593676D-02 0.27656014D+04 0.27656014D+04 0.27656014D+04 0.12718869D+01  1  2 11  1  6  1       -1 0.276726591616D-04 0.100000000000D+01
0.825225462450D-09 0.000000000000D+00 0.000000000000D+00 0.955121009759D-07 0.000000000000D+00  6 21 22 9900012 -11 1 -2 2 0.10301603D-01 0.87527213D-02 0.27656014D+04 0.27656014D+04 0.27656014D+04 0.12718869D+01  3  4 12  3  5  1       -1 0.514864135573D-05 0.100000000000D+01
-.656362823720D-08 0.000000000000D+00 -.819615741120D-09 0.955121009759D-07 0.000000000000D+00  6 21 22 9900012 -11 1 -2 2 0.10290546D-01 0.87527213D-02 0.25539314D+04 0.25539314D+04 0.25539314D+04 0.12761008D+01  3  4  5  3  5  1       -1 -.409351336747D-04 0.100000000000D+01
0.347961594987D-08 0.000000000000D+00 0.000000000000D+00 0.955121009759D-07 0.910748658036D-09  6 21 22 9900012 -11 1 -2 2 0.10177595D-01 0.88593676D-02 0.27656014D+04 0.27656014D+04 0.27656014D+04 0.12718869D+01  3  4 11  3  5  1       -1 0.217730797154D-04 0.100000000000D+01
  </mgrwgt>
  </event>
  <event>
  6     66 0.20026351E-05 0.41706415E+02 0.78161638E-02 0.11678264E+00
       -1 -1    0    0    0  501 0.00000000E+00 0.00000000E+00 0.45288985E+03 0.45288985E+03 0.00000000E+00 0.0000E+00 0.9000E+01
       22 -1    0    0    0    0 0.00000000E+00 0.00000000E+00 -.10431842E+03 0.10431842E+03 0.00000000E+00 0.0000E+00 0.9000E+01
       24  2    1    2    0    0 0.51758560E+02 0.52828989E+02 -.71983833E+02 0.13019939E+03 0.79374791E+02 0.0000E+00 0.0000E+00
  9900012  1    3    3    0    0 0.12116744E+02 0.44339118E+02 -.43530754E+02 0.80670313E+02 0.50000000E+02 0.0000E+00 0.9000E+01
      -11  1    3    3    0    0 0.39641815E+02 0.84898716E+01 -.28453080E+02 0.49529074E+02 0.00000000E+00 0.0000E+00 0.9000E+01
       -2  1    1    2    0  501 -.51758560E+02 -.52828989E+02 0.42055526E+03 0.42700887E+03 0.00000000E+00 0.0000E+00 0.9000E+01
#aMCatNLO 1  0  0  5  1 0.17678988D+02 0.00000000D+00  -5  6  0 0.00000000D+00 0.00000000D+00 0.00000000D+00 0.00000000D+00 0.00000000D+00
  <mgrwgt>
 0.1230707015D-03    5    2    0
 0.217358578002030D+03 0.000000000000000D+00 0.000000000000000D+00 0.217358578002030D+03
 0.217358578002030D+03 -.000000000000000D+00 -.000000000000000D+00 -.217358578002030D+03
 0.138305426452816D+03 0.121167443856496D+02 0.443391176763445D+02 -.120480779112153D+03
 0.862996535577207D+02 0.396418153677257D+02 0.848987159327737D+01 -.761845047162704D+02
 0.210112075993523D+03 -.517585597533754D+02 -.528289892696219D+02 0.196665283828424D+03
 0.000000000000000D+00 0.000000000000000D+00 0.000000000000000D+00 0.000000000000000D+00
 0.217358578002030D+03 0.000000000000000D+00 0.000000000000000D+00 0.217358578002030D+03
 0.217358578002030D+03 -.000000000000000D+00 -.000000000000000D+00 -.217358578002030D+03
 0.133547338957783D+03 0.108350339367293D+02 0.430308999076236D+02 -.115610706404879D+03
 0.831766280756986D+02 0.388427816676800D+02 0.767431291144926D+01 -.731484428521701D+02
 0.207549482676902D+03 -.595555469227587D+02 -.519455797381235D+02 0.191915557826485D+03
 0.104437062936768D+02 0.987773131834937D+01 0.124036691905062D+01 -.315640856943600D+01
0.104738151814D-04 0.000000000000D+00 0.000000000000D+00 0.158827380868D-04 0.000000000000D+00  6 -1 22 9900012 -11 -2 21 0 0.69675361D-01 0.16048987D-01 0.83189516D+04 0.83189516D+04 0.83189516D+04 0.12177068D+01  1  2  2  2  6  5       -2 0.608162127961D-04 0.100000000000D+01
0.219626596274D-06 0.000000000000D+00 -.201111040577D-07 0.158827380868D-04 0.000000000000D+00  6 -1 22 9900012 -11 -2 21 2 0.69675361D-01 0.16048987D-01 0.83189516D+04 0.83189516D+04 0.83189516D+04 0.12177068D+01  1  2  3  2  6  5       -2 0.189097087657D-05 0.100000000000D+01
-.144355274154D-05 0.000000000000D+00 0.000000000000D+00 0.158827380868D-04 0.000000000000D+00  6 -1 22 9900012 -11 -2 21 2 0.69675361D-01 0.16048987D-01 0.83189516D+04 0.83189516D+04 0.83189516D+04 0.12177068D+01  1  2 15  2  6  5       -2 -.124288963148D-04 0.100000000000D+01
0.867716574512D-05 0.000000000000D+00 0.000000000000D+00 0.158827380868D-04 0.000000000000D+00  6 -1 22 9900012 -11 -2 21 2 0.69675361D-01 0.16048987D-01 0.95478860D+04 0.95478860D+04 0.95478860D+04 0.12114181D+01  1  2 12  2  6  5       -2 0.744338485440D-04 0.100000000000D+01
-.190644209576D-06 0.000000000000D+00 0.000000000000D+00 0.158827380868D-04 0.000000000000D+00  6 -1 22 9900012 -11 -2 21 2 0.69675361D-01 0.16048987D-01 0.83189516D+04 0.83189516D+04 0.83189516D+04 0.12177068D+01  1  2  4  2  6  5       -2 -.164143439006D-05 0.100000000000D+01
  </mgrwgt>
  </event>
  <event>
  7     66 -.20026351E-05 0.31157233E+02 0.78161638E-02 0.12165757E+00
       -1 -1    0    0    0  501 0.00000000E+00 0.00000000E+00 0.65765414E+02 0.65765414E+02 0.00000000E+00 0.0000E+00 0.9000E+01
       22 -1    0    0    0    0 -.00000000E+00 -.00000000E+00 -.11344551E+03 0.11344551E+03 0.00000000E+00 0.0000E+00 0.9000E+01
       24  2    1    2    0    0 -.37764032E+02 0.24235611E+02 -.54746667E+02 0.10700451E+03 0.80245126E+02 0.0000E+00 0.0000E+00
  9900012  1    3    3    0    0 -.30969621E+02 0.51579826E+01 -.61886214E+02 0.85531431E+02 0.50000000E+02 0.0000E+00 0.9000E+01
      -11  1    3    3    0    0 -.67944104E+01 0.19077628E+02 0.71395469E+01 0.21473077E+02 0.00000000E+00 0.0000E+00 0.9000E+01
       -2  1    1    2    0  502 0.44166004E+02 0.10056060E+01 0.11829827E+02 0.45733926E+02 0.00000000E+00 0.0000E+00 0.9000E+01
       21  1    1    2  502  501 -.64019725E+01 -.25241217E+02 -.47632611E+01 0.26472494E+02 0.00000000E+00 0.0000E+00 0.9000E+01
#aMCatNLO 2  0  0  5  1 0.26592325D+02 0.00000000D+00  -5  6  0 0.00000000D+00 0.00000000D+00 0.00000000D+00 0.00000000D+00 0.00000000D+00
  <mgrwgt>
 -.2490581218D-04    2    2    0
 0.863758714383167D+02 0.000000000000000D+00 0.000000000000000D+00 0.863758714383167D+02
 0.863758714383167D+02 -.000000000000000D+00 -.000000000000000D+00 -.863758714383167D+02
 0.794534938173442D+02 -.392112403026988D+02 0.104471602428585D+02 -.465423802202552D+02
 0.255597592587934D+02 -.951101134431743D+01 0.208210460611755D+02 0.113721588756993D+02
 0.677384898004957D+02 0.487222516470163D+02 -.312682063040340D+02 0.351702213445559D+02
 0.000000000000000D+00 0.000000000000000D+00 0.000000000000000D+00 -.000000000000000D+00
 0.863758714383167D+02 0.000000000000000D+00 0.000000000000000D+00 0.863758714383167D+02
 0.863758714383167D+02 -.000000000000000D+00 -.000000000000000D+00 -.863758714383167D+02
 0.716486328424984D+02 -.309696212031576D+02 0.515798255561377D+01 -.405931566484802D+02
 0.242464957981714D+02 -.679441038026764D+01 0.190776282896602D+02 0.133331408496577D+02
 0.507089913427409D+02 0.441660040406187D+02 0.100560596262945D+01 0.248948718962388D+02
 0.261476228932226D+02 -.640197245719347D+01 -.252412168079035D+02 0.236514390258363D+01
-.215001537781D-06 0.000000000000D+00 0.000000000000D+00 0.555408350953D-06 0.000000000000D+00  6 -1 22 9900012 -11 -2 21 2 0.10117756D-01 0.17453156D-01 0.55882584D+04 0.55882584D+04 0.55882584D+04 0.12364441D+01  1  2 13  2  6  5       -2 -.365129798794D-04 0.100000000000D+01
0.683471717070D-07 0.000000000000D+00 0.000000000000D+00 0.555408350953D-06 0.125652446222D-08  6 -1 22 9900012 -11 -2 21 2 0.10117756D-01 0.17453156D-01 0.55882584D+04 0.55882584D+04 0.55882584D+04 0.12364441D+01  1  2  1  2  6  5       -2 0.116071677027D-04 0.100000000000D+01
  </mgrwgt>
  </event>
  <event>
  6     66 0.20026351E-05 0.65576253E+02 0.78161638E-02 0.11457109E+00
       -1 -1    0    0    0  501 0.00000000E+00 0.00000000E+00 0.73896912E+03 0.73896912E+03 0.00000000E+00 0.0000E+00 0.9000E+01
       22 -1    0    0    0    0 0.00000000E+00 0.00000000E+00 -.44088471E+02 0.44088471E+02 0.00000000E+00 0.0000E+00 0.9000E+01
       24  2    1    2    0    0 0.27797924E+02 0.93067693E+02 0.53929841E+02 0.13478893E+03 0.76323703E+02 0.0000E+00 0.0000E+00
  9900012  1    3    3    0    0 0.26689834E+02 0.99139733E+02 0.42595206E+02 0.12188267E+03 0.50000000E+02 0.0000E+00 0.9000E+01
      -11  1    3    3    0    0 0.11080903E+01 -.60720406E+01 0.11334635E+02 0.12906257E+02 0.00000000E+00 0.0000E+00 0.9000E+01
       -2  1    1    2    0  501 -.27797924E+02 -.93067693E+02 0.64095080E+03 0.64826866E+03 0.00000000E+00 0.0000E+00 0.9000E+01
#aMCatNLO 1  0  0  1  5 0.12731676D+02 0.00000000D+00  -5  6  0 0.00000000D+00 0.00000000D+00 0.00000000D+00 0.00000000D+00 0.00000000D+00
  <mgrwgt>
 0.1327912085D-03    6    4    0
 0.180499358689147D+03 0.000000000000000D+00 0.000000000000000D+00 0.180499358689147D+03
 0.180499358689147D+03 0.000000000000000D+00 0.000000000000000D+00 -.180499358689147D+03
 0.182390027770524D+03 0.266898340359843D+02 0.991397332216890D+02 -.142214936929975D+03
 0.617765261001824D+01 0.110809026305572D+01 -.607204064034334D+01 -.256612940057849D+00
 0.172431036997752D+03 -.277979242990401D+02 -.930676925813456D+02 0.142471549870032D+03
 0.000000000000000D+00 -.000000000000000D+00 -.000000000000000D+00 -.000000000000000D+00
 0.181598210417819D+03 0.000000000000000D+00 0.000000000000000D+00 0.181598210417819D+03
 0.186436025024688D+03 0.000000000000000D+00 0.000000000000000D+00 -.186436025024688D+03
 0.183797057651648D+03 0.279797746106879D+02 0.101357793623095D+03 -.142214936929975D+03
 0.611250395023331D+01 0.115138390242110D+01 -.599759697294326D+01 -.256612940057849D+00
 0.171124606370065D+03 -.265877058569079D+02 -.909867148555608D+02 0.142471549870032D+03
 0.700006747056005D+01 -.254345265620106D+01 -.437348179459064D+01 -.483781460686960D+01
 0.180499358689147D+03 0.000000000000000D+00 0.000000000000000D+00 0.180499358689147D+03
 0.180499358689147D+03 0.000000000000000D+00 0.000000000000000D+00 -.180499358689147D+03
 0.182390027770524D+03 0.266898340359843D+02 0.991397332216890D+02 -.142214936929975D+03
 0.617765261001824D+01 0.110809026305572D+01 -.607204064034334D+01 -.256612940057849D+00
 0.000000000000000D+00 -.000000000000000D+00 -.000000000000000D+00 -.000000000000000D+00
 0.172431036997752D+03 -.277979242990401D+02 -.930676925813456D+02 0.142471549870032D+03
 0.181598210417819D+03 0.000000000000000D+00 0.000000000000000D+00 0.181598210417819D+03
 0.186436025024688D+03 0.000000000000000D+00 0.000000000000000D+00 -.186436025024688D+03
 0.183797057651648D+03 0.279797746106879D+02 0.101357793623095D+03 -.142214936929975D+03
 0.611250395023331D+01 0.115138390242110D+01 -.599759697294326D+01 -.256612940057849D+00
 0.700006747056005D+01 -.254345265620106D+01 -.437348179459064D+01 -.483781460686960D+01
 0.171124606370065D+03 -.265877058569079D+02 -.909867148555608D+02 0.142471549870032D+03
0.114450749459D-04 0.000000000000D+00 0.000000000000D+00 0.598282150074D-06 0.000000000000D+00  6 -1 22 9900012 -11 -2 21 0 0.11368756D+00 0.67828417D-02 0.11826573D+05 0.11826573D+05 0.11826573D+05 0.12018513D+01  1  2  2  1  6  1       -1 0.832805288998D-04 0.100000000000D+01
0.335506389416D-07 0.000000000000D+00 -.219760506748D-07 0.598282150074D-06 0.000000000000D+00  6 -1 22 9900012 -11 -2 21 2 0.11368756D+00 0.67828417D-02 0.11826573D+05 0.11826573D+05 0.11826573D+05 0.12018513D+01  1  2  3  1  6  1       -1 0.352636379140D-06 0.100000000000D+01
-.162699704583D-05 0.000000000000D+00 0.000000000000D+00 0.598282150074D-06 0.000000000000D+00  6 -1 22 9900012 -11 -2 21 2 0.11368756D+00 0.67828417D-02 0.11826573D+05 0.11826573D+05 0.11826573D+05 0.12018513D+01  1  2 15  1  6  1       -1 -.171006682798D-04 0.100000000000D+01
0.613312562361D-05 0.000000000000D+00 0.000000000000D+00 0.598282150074D-06 0.000000000000D+00  6 -1 22 9900012 -11 -2 21 2 0.11814164D+00 0.67828417D-02 0.12364286D+05 0.12364286D+05 0.12364286D+05 0.11998928D+01  1  2 12  1  6  1       -1 0.588006279830D-04 0.100000000000D+01
-.319521929036D-06 0.000000000000D+00 0.000000000000D+00 0.598282150074D-06 0.000000000000D+00  6 -1 22 9900012 -11 -2 21 2 0.11368756D+00 0.67828417D-02 0.11826573D+05 0.11826573D+05 0.11826573D+05 0.12018513D+01  1  2  4  1  6  1       -1 -.335835798261D-05 0.100000000000D+01
0.155763312449D-06 0.000000000000D+00 0.000000000000D+00 0.598282150074D-06 0.000000000000D+00  6 21 22 9900012 -11 1 -2 2 0.11814164D+00 0.67828417D-02 0.12364286D+05 0.12364286D+05 0.12364286D+05 0.11998928D+01  3  4 12  3  5  1       -1 0.108164414547D-04 0.100000000000D+01
  </mgrwgt>
  </event>
  <event>
  6     66 0.20026351E-05 0.60436741E+02 0.78161638E-02 0.12136896E+00
       -1 -1    0    0    0  501 0.00000000E+00 0.00000000E+00 0.22145420E+02 0.22145420E+02 0.00000000E+00 0.0000E+00 0.9000E+01
       22 -1    0    0    0    0 -.00000000E+00 -.00000000E+00 -.32399646E+03 0.32399646E+03 0.00000000E+00 0.0000E+00 0.9000E+01
       24  2    1    2    0    0 0.52629534E+02 0.38256012E+02 -.19547857E+03 0.22144829E+03 0.81203949E+02 0.0000E+00 0.0000E+00
  9900012  1    3    3    0    0 0.45542393E+02 0.78636210E+01 -.99840842E+02 0.12084759E+03 0.50000000E+02 0.0000E+00 0.9000E+01
      -11  1    3    3    0    0 0.70871415E+01 0.30392391E+02 -.95637730E+02 0.10060070E+03 0.00000000E+00 0.0000E+00 0.9000E+01
       -2  1    1    2    0  501 -.52629534E+02 -.38256012E+02 -.10637247E+03 0.12469359E+03 0.00000000E+00 0.0000E+00 0.9000E+01
#aMCatNLO 1  0  0  5  1 0.26757889D+02 0.00000000D+00  -5  6  0 0.00000000D+00 0.00000000D+00 0.00000000D+00 0.00000000D+00 0.00000000D+00
  <mgrwgt>
 0.9781832039D-04    5    2    0
 0.847055947874272D+02 0.000000000000000D+00 0.000000000000000D+00 0.847055947874272D+02
 0.847055947874272D+02 -.000000000000000D+00 -.000000000000000D+00 -.847055947874272D+02
 0.690234796165349D+02 0.455423927674665D+02 0.786362097245746D+01 0.113267234710463D+02
 0.351438797367490D+02 0.708714147772341D+01 0.303923911565271D+02 -.161606704197092D+02
 0.652438302215705D+02 -.526295342451899D+02 -.382560121289846D+02 0.483394694866293D+01
 0.000000000000000D+00 0.000000000000000D+00 0.000000000000000D+00 0.000000000000000D+00
 0.847055947874272D+02 0.000000000000000D+00 0.000000000000000D+00 0.847055947874272D+02
 0.847055947874272D+02 -.000000000000000D+00 -.000000000000000D+00 -.847055947874272D+02
 0.638089436783507D+02 0.377063066206236D+02 0.216762896004882D+01 0.120464567018691D+02
 0.318845470618391D+02 0.313298244295926D+01 0.275181427299852D+02 -.157974866052453D+02
 0.350133547596234D+02 -.917251370837680D+01 -.283024713318328D+02 -.184599599215076D+02
 0.387043440750412D+02 -.316667753552060D+02 -.138330035820122D+01 0.222109898248838D+02
0.108327709214D-05 0.000000000000D+00 0.000000000000D+00 0.730322316427D-07 0.000000000000D+00  6 -1 22 9900012 -11 -2 21 0 0.34069877D-02 0.49845609D-01 0.67535576D+04 0.67535576D+04 0.67535576D+04 0.12274162D+01  1  2  2  2  6  5       -2 0.116805146348D-03 0.100000000000D+01
-.387415684658D-07 0.000000000000D+00 -.208003463361D-08 0.730322316427D-07 0.000000000000D+00  6 -1 22 9900012 -11 -2 21 2 0.34069877D-02 0.49845609D-01 0.67535576D+04 0.67535576D+04 0.67535576D+04 0.12274162D+01  1  2  3  2  6  5       -2 -.629337079363D-05 0.100000000000D+01
-.127457323153D-06 0.000000000000D+00 0.000000000000D+00 0.730322316427D-07 0.000000000000D+00  6 -1 22 9900012 -11 -2 21 2 0.34069877D-02 0.49845609D-01 0.67535576D+04 0.67535576D+04 0.67535576D+04 0.12274162D+01  1  2 15  2  6  5       -2 -.207047940166D-04 0.100000000000D+01
0.183915561587D-06 0.000000000000D+00 0.000000000000D+00 0.730322316427D-07 0.000000000000D+00  6 -1 22 9900012 -11 -2 21 2 0.34069877D-02 0.49845609D-01 0.57612742D+04 0.57612742D+04 0.57612742D+04 0.12349766D+01  1  2 12  2  6  5       -2 0.297238107757D-04 0.100000000000D+01
-.133660520764D-06 0.000000000000D+00 0.000000000000D+00 0.730322316427D-07 0.000000000000D+00  6 -1 22 9900012 -11 -2 21 2 0.34069877D-02 0.49845609D-01 0.67535576D+04 0.67535576D+04 0.67535576D+04 0.12274162D+01  1  2  4  2  6  5       -2 -.217124719249D-04 0.100000000000D+01
  </mgrwgt>
  </event>
  <event>
  7     66 -.20026351E-05 0.12894633E+02 0.78161638E-02 0.12938330E+00
       -1 -1    0    0    0  502 0.00000000E+00 0.00000000E+00 0.46377031E+03 0.46377031E+03 0.00000000E+00 0.0000E+00 0.9000E+01
       22 -1    0    0    0    0 0.00000000E+00 0.00000000E+00 -.16695186E+02 0.16695186E+02 0.00000000E+00 0.0000E+00 0.9000E+01
       24  2    1    2    0    0 -.73435242E+01 -.74776430E+01 0.88806850E+02 0.12115243E+03 0.81739904E+02 0.0000E+00 0.0000E+00
  9900012  1    3    3    0    0 -.41914615E+01 -.30210203E+02 0.55377007E+02 0.80602962E+02 0.50000000E+02 0.0000E+00 0.9000E+01
      -11  1    3    3    0    0 -.31520626E+01 0.22732560E+02 0.33429844E+02 0.40549466E+02 0.00000000E+00 0.0000E+00 0.9000E+01
       -2  1    1    2    0  501 0.98034434E+01 0.11920253E+02 0.34005611E+03 0.34040617E+03 0.00000000E+00 0.0000E+00 0.9000E+01
       21  1    1    2  501  502 -.24599192E+01 -.44426099E+01 0.18212161E+02 0.18906898E+02 0.00000000E+00 0.0000E+00 0.9000E+01
#aMCatNLO 2  0  0  1  5 0.62606417D+01 0.00000000D+00  -5  6  0 0.00000000D+00 0.00000000D+00 0.00000000D+00 0.00000000D+00 0.00000000D+00
  <mgrwgt>
 -.3055760187D-04    3    2    0
 0.852747173643950D+02 0.000000000000000D+00 0.000000000000000D+00 0.852747173643950D+02
 0.852747173643950D+02 0.000000000000000D+00 0.000000000000000D+00 -.852747173643950D+02
 0.797326940888243D+02 -.533486917672840D+01 -.322751948860737D+02 -.527934983932226D+02
 0.251299270417969D+02 -.351830348197603D+01 0.220711292576697D+02 -.114891264692311D+02
 0.656868135981687D+02 0.885317265870443D+01 0.102040656284040D+02 0.642826248624537D+02
 0.000000000000000D+00 -.000000000000000D+00 -.000000000000000D+00 0.000000000000000D+00
 0.888689382052875D+02 0.000000000000000D+00 0.000000000000000D+00 0.888689382052875D+02
 0.871252833147817D+02 0.000000000000000D+00 0.000000000000000D+00 -.871252833147817D+02
 0.788503529672973D+02 -.419146151727454D+01 -.302102025948416D+02 -.527934983932226D+02
 0.256652448198297D+02 -.315206264067535D+01 0.227325595951064D+02 -.114891264692311D+02
 0.661094228631652D+02 0.980344337839713D+01 0.119202529344137D+02 0.642826248624537D+02
 0.536920086977714D+01 -.245991922044724D+01 -.444260993467861D+01 0.174365489050579D+01
-.294366963653D-06 0.000000000000D+00 0.000000000000D+00 0.379149744705D-06 0.000000000000D+00  6 -1 22 9900012 -11 -2 21 2 0.72897645D-01 0.25139346D-02 0.26025345D+04 0.26025345D+04 0.26025345D+04 0.12750994D+01  1  2 13  1  6  1       -1 -.308064230593D-04 0.100000000000D+01
-.146920563338D-08 0.000000000000D+00 0.000000000000D+00 0.379149744705D-06 0.000000000000D+00  6 -1 22 9900012 -11 -2 21 2 0.68463623D-01 0.25139346D-02 0.22853100D+04 0.22853100D+04 0.22853100D+04 0.12820529D+01  1  2  8  1  6  1       -1 -.172663943116D-06 0.100000000000D+01
0.398167625749D-08 0.000000000000D+00 0.000000000000D+00 0.379149744705D-06 0.161555416256D-08  6 -1 22 9900012 -11 -2 21 2 0.71349278D-01 0.25684901D-02 0.26025345D+04 0.26025345D+04 0.26025345D+04 0.12750994D+01  1  2  1  1  6  1       -1 0.421485130457D-06 0.100000000000D+01
  </mgrwgt>
  </event>
  <event>
  6     66 0.20026351E-05 0.75290461E+02 0.78161638E-02 0.11873936E+00
       -1 -1    0    0    0  501 0.00000000E+00 0.00000000E+00 0.56176309E+03 0.56176309E+03 0.00000000E+00 0.0000E+00 0.9000E+01
       22 -1    0    0    0    0 0.00000000E+00 0.00000000E+00 -.21029007E+03 0.21029007E+03 0.00000000E+00 0.0000E+00 0.9000E+01
       24  2    1    2    0    0 0.32153136E+02 0.68079581E+02 -.19436732E+03 0.22104469E+03 0.73576126E+02 0.0000E+00 0.0000E+00
  9900012  1    3    3    0    0 0.39808479E+02 0.65874391E+02 -.14912920E+03 0.17511045E+03 0.50000000E+02 0.0000E+00 0.9000E+01
      -11  1    3    3    0    0 -.76553431E+01 0.22051902E+01 -.45238120E+02 0.45934243E+02 0.00000000E+00 0.0000E+00 0.9000E+01
       -2  1    1    2    0  501 -.32153136E+02 -.68079581E+02 0.54584034E+03 0.55100847E+03 0.00000000E+00 0.0000E+00 0.9000E+01
#aMCatNLO 1  0  0  1  1 0.12084668D+03 0.00000000D+00  -5  6  0 0.00000000D+00 0.00000000D+00 0.00000000D+00 0.00000000D+00 0.00000000D+00
  <mgrwgt>
 0.1027664259D-03    7    4    0
 0.343705104267868D+03 0.000000000000000D+00 0.000000000000000D+00 0.343705104267868D+03
 0.343705104267868D+03 0.000000000000000D+00 0.000000000000000D+00 -.343705104267868D+03
 0.272922138563959D+03 0.398084789942267D+02 0.658743910873611D+02 -.257025958450427D+03
 0.747205317970777D+02 -.765534310496070D+01 0.220519021841529D+01 -.742946211383034D+02
 0.339767538174699D+03 -.321531358892660D+02 -.680795813057764D+02 0.331320579588730D+03
 0.000000000000000D+00 -.000000000000000D+00 -.000000000000000D+00 0.000000000000000D+00
 0.395221450436532D+03 0.000000000000000D+00 0.000000000000000D+00 0.395221450436532D+03
 0.387106304141504D+03 0.000000000000000D+00 0.000000000000000D+00 -.387106304141504D+03
 0.281920942154298D+03 0.748020999769634D+02 0.729501209515321D+02 -.257025958450427D+03
 0.744286744851055D+02 0.175140805747293D+01 0.410724059947452D+01 -.742946211383034D+02
 0.336776536968565D+03 0.105160939640323D+02 -.594518390065985D+02 0.331320579588730D+03
 0.892016009700672D+02 -.870696019984686D+02 -.176055225444081D+02 0.811514629502794D+01
 0.343705104267868D+03 0.000000000000000D+00 0.000000000000000D+00 0.343705104267868D+03
 0.343705104267868D+03 0.000000000000000D+00 0.000000000000000D+00 -.343705104267868D+03
 0.272922138563959D+03 0.398084789942267D+02 0.658743910873611D+02 -.257025958450427D+03
 0.747205317970777D+02 -.765534310496070D+01 0.220519021841529D+01 -.742946211383034D+02
 0.000000000000000D+00 -.000000000000000D+00 -.000000000000000D+00 0.000000000000000D+00
 0.339767538174699D+03 -.321531358892660D+02 -.680795813057764D+02 0.331320579588730D+03
 0.395221450436532D+03 0.000000000000000D+00 0.000000000000000D+00 0.395221450436532D+03
 0.387106304141504D+03 0.000000000000000D+00 0.000000000000000D+00 -.387106304141504D+03
 0.281920942154298D+03 0.748020999769634D+02 0.729501209515321D+02 -.257025958450427D+03
 0.744286744851055D+02 0.175140805747293D+01 0.410724059947452D+01 -.742946211383034D+02
 0.892016009700672D+02 -.870696019984686D+02 -.176055225444081D+02 0.811514629502794D+01
 0.336776536968565D+03 0.105160939640323D+02 -.594518390065985D+02 0.331320579588730D+03
0.655418915879D-04 0.000000000000D+00 0.000000000000D+00 0.681361498699D-05 0.000000000000D+00  6 -1 22 9900012 -11 -2 21 0 0.86425091D-01 0.32352318D-01 0.76597730D+04 0.76597730D+04 0.76597730D+04 0.12215248D+01  1  2  2  1  6  1       -1 0.866620139282D-04 0.100000000000D+01
0.123842234489D-05 0.000000000000D+00 -.125849060637D-06 0.681361498699D-05 0.000000000000D+00  6 -1 22 9900012 -11 -2 21 2 0.86425091D-01 0.32352318D-01 0.76597730D+04 0.76597730D+04 0.76597730D+04 0.12215248D+01  1  2  3  1  6  1       -1 0.244333576302D-05 0.100000000000D+01
-.891875767023D-05 0.000000000000D+00 0.000000000000D+00 0.681361498699D-05 0.000000000000D+00  6 -1 22 9900012 -11 -2 21 2 0.86425091D-01 0.32352318D-01 0.76597730D+04 0.76597730D+04 0.76597730D+04 0.12215248D+01  1  2 15  1  6  1       -1 -.175961937923D-04 0.100000000000D+01
-.545276190638D-06 0.000000000000D+00 0.000000000000D+00 0.681361498699D-05 0.000000000000D+00  6 -1 22 9900012 -11 -2 21 2 0.86425091D-01 0.32352318D-01 0.76597730D+04 0.76597730D+04 0.76597730D+04 0.12215248D+01  1  2  4  1  6  1       -1 -.107579843243D-05 0.100000000000D+01
-.192830031283D-04 0.000000000000D+00 -.372813663266D-04 0.681361498699D-05 0.000000000000D+00  6 -1 22 9900012 -11 -2 21 2 0.10939850D+00 0.32352318D-01 0.76597730D+04 0.76597730D+04 0.76597730D+04 0.12215248D+01  1  2  5  1  6  1       -1 -.229753652475D-04 0.100000000000D+01
0.282935354050D-04 0.000000000000D+00 0.362690738939D-04 0.681361498699D-05 0.000000000000D+00  6 -1 22 9900012 -11 -2 21 2 0.86425091D-01 0.32352318D-01 0.76597730D+04 0.76597730D+04 0.76597730D+04 0.12215248D+01  1  2  6  1  6  1       -1 0.558215112984D-04 0.100000000000D+01
-.577745227715D-07 0.000000000000D+00 -.120790185577D-05 0.681361498699D-05 0.000000000000D+00  6 21 22 9900012 -11 1 -2 2 0.10939850D+00 0.32352318D-01 0.76597730D+04 0.76597730D+04 0.76597730D+04 0.12215248D+01  3  4  5  3  5  1       -1 -.513077652154D-06 0.100000000000D+01
  </mgrwgt>
  </event>
  <event>
  6     66 0.20026351E-05 0.46047122E+02 0.78161638E-02 0.11144302E+00
       -1 -1    0    0    0  501 0.00000000E+00 0.00000000E+00 0.38673913E+03 0.38673913E+03 0.00000000E+00 0.0000E+00 0.9000E+01
       22 -1    0    0    0    0 0.00000000E+00 0.00000000E+00 -.12127754E+02 0.12127754E+02 0.00000000E+00 0.0000E+00 0.9000E+01
       24  2    1    2    0    0 0.91308276E+01 -.45132754E+02 0.23973460E+03 0.25634642E+03 0.78233443E+02 0.0000E+00 0.0000E+00
  9900012  1    3    3    0    0 -.11456277E+02 -.18247366E+02 0.11737052E+03 0.12938335E+03 0.50000000E+02 0.0000E+00 0.9000E+01
      -11  1    3    3    0    0 0.20587105E+02 -.26885388E+02 0.12236408E+03 0.12696307E+03 0.00000000E+00 0.0000E+00 0.9000E+01
       -2  1    1    2    0  501 -.91308276E+01 0.45132754E+02 0.13487678E+03 0.14252046E+03 0.00000000E+00 0.0000E+00 0.9000E+01
#aMCatNLO 1  0  0  1  5 0.35070748D+02 0.00000000D+00  -5  6  0 0.00000000D+00 0.00000000D+00 0.00000000D+00 0.00000000D+00 0.00000000D+00
  <mgrwgt>
 0.2131360949D-03    3    2    0
 0.684855963034227D+02 0.000000000000000D+00 0.000000000000000D+00 0.684855963034227D+02
 0.684855963034227D+02 0.000000000000000D+00 0.000000000000000D+00 -.684855963034227D+02
 0.557664860528092D+02 -.114562772624079D+02 -.182473655623437D+02 -.120701420041021D+02
 0.350612958322251D+02 0.205871049051316D+02 -.268853883522887D+02 0.909073540515466D+01
 0.461434107218111D+02 -.913082764272374D+01 0.451327539146324D+02 0.297940659894744D+01
 0.000000000000000D+00 -.000000000000000D+00 -.000000000000000D+00 -.000000000000000D+00
 0.121575843965268D+03 0.000000000000000D+00 0.000000000000000D+00 0.121575843965268D+03
 0.156532618559753D+03 0.000000000000000D+00 0.000000000000000D+00 -.156532618559753D+03
 0.540734089705025D+02 -.133493840518138D+01 0.166271816356953D+02 -.120701420041021D+02
 0.287583914449363D+02 0.264678523380865D+02 -.662241654555960D+01 0.909073540515466D+01
 0.877553287582848D+02 0.320744448095148D+01 0.876460675768994D+02 0.297940659894744D+01
 0.107521333351297D+03 -.283403584138566D+02 -.976508326670351D+02 -.349567745944846D+02
0.185536407911D-05 0.000000000000D+00 0.000000000000D+00 0.661336197022D-07 0.000000000000D+00  6 -1 22 9900012 -11 -2 21 0 0.59498327D-01 0.18658083D-02 0.45127474D+04 0.45127474D+04 0.45127474D+04 0.12468922D+01  1  2  2  1  6  1       -1 0.270168282400D-03 0.100000000000D+01
-.538755474693D-07 0.000000000000D+00 -.356254329618D-08 0.661336197022D-07 0.000000000000D+00  6 -1 22 9900012 -11 -2 21 2 0.59498327D-01 0.18658083D-02 0.45127474D+04 0.45127474D+04 0.45127474D+04 0.12468922D+01  1  2  3  1  6  1       -1 -.121970472517D-04 0.100000000000D+01
-.198041188089D-06 0.000000000000D+00 0.000000000000D+00 0.661336197022D-07 0.000000000000D+00  6 -1 22 9900012 -11 -2 21 2 0.59498327D-01 0.18658083D-02 0.45127474D+04 0.45127474D+04 0.45127474D+04 0.12468922D+01  1  2 15  1  6  1       -1 -.448351402886D-04 0.100000000000D+01
  </mgrwgt>
  </event>
  <event>
  6     66 0.20026351E-05 0.51256832E+02 0.78161638E-02 0.11886818E+00
       -3 -1    0    0    0  501 0.00000000E+00 0.00000000E+00 0.50027967E+02 0.50027967E+02 0.00000000E+00 0.0000E+00 0.9000E+01
       22 -1    0    0    0    0 -.00000000E+00 -.00000000E+00 -.11021601E+04 0.11021601E+04 0.00000000E+00 0.0000E+00 0.9000E+01
       24  2    1    2    0    0 -.22283264E+02 0.46159712E+02 -.10863722E+04 0.10905468E+04 0.80378376E+02 0.0000E+00 0.0000E+00
  9900012  1    3    3    0    0 -.88288862E+01 0.17373605E+02 -.41955479E+03 0.42297283E+03 0.50000000E+02 0.0000E+00 0.9000E+01
      -11  1    3    3    0    0 -.13454378E+02 0.28786106E+02 -.66681737E+03 0.66757402E+03 0.00000000E+00 0.0000E+00 0.9000E+01
       -4  1    1    2    0  501 0.22283264E+02 -.46159712E+02 0.34240017E+02 0.61641233E+02 0.00000000E+00 0.0000E+00 0.9000E+01
#aMCatNLO 1  0  0  5  1 0.77498444D+02 0.00000000D+00  -5  6  0 0.00000000D+00 0.00000000D+00 0.00000000D+00 0.00000000D+00 0.00000000D+00
  <mgrwgt>
 0.1987066051D-03    3    2    0
 0.234816586504952D+03 0.000000000000000D+00 0.000000000000000D+00 0.234816586504952D+03
 0.234816586504952D+03 -.000000000000000D+00 -.000000000000000D+00 -.234816586504952D+03
 0.977724132820066D+02 -.882888619570398D+01 0.173736052837460D+02 -.817291466184212D+02
 0.143922609039163D+03 -.134543779693000D+02 0.287861062793138D+02 -.140371140877942D+03
 0.227938150688733D+03 0.222832641650040D+02 -.461597115630598D+02 0.222100287496364D+03
 0.000000000000000D+00 -.000000000000000D+00 0.000000000000000D+00 0.000000000000000D+00
 0.234816586504952D+03 0.000000000000000D+00 0.000000000000000D+00 0.234816586504952D+03
 0.234816586504952D+03 -.000000000000000D+00 -.000000000000000D+00 -.234816586504952D+03
 0.830845044281479D+02 -.710185879305300D+01 0.137960734563817D+02 -.645156324850078D+02
 0.118308469873316D+03 -.109502975899452D+02 0.235989116571154D+02 -.115412635335377D+03
 0.530516114912788D+02 0.438435772714848D+02 0.669336497170667D+01 -.291103603415770D+02
 0.215188587217160D+03 -.257914208884866D+02 -.440883500852037D+02 0.209038628161962D+03
0.925149545368D-04 0.000000000000D+00 0.000000000000D+00 0.602213084859D-04 0.000000000000D+00  6 -3 22 9900012 -11 -4 21 0 0.76966103D-02 0.16956309D+00 0.46714266D+04 0.46714266D+04 0.46714266D+04 0.12451844D+01  1  2  2  2  6  5       -4 0.242256025153D-03 0.100000000000D+01
0.302287551253D-05 0.000000000000D+00 -.177640892584D-06 0.602213084859D-04 0.000000000000D+00  6 -3 22 9900012 -11 -4 21 2 0.76966103D-02 0.16956309D+00 0.46714266D+04 0.46714266D+04 0.46714266D+04 0.12451844D+01  1  2  3  2  6  5       -4 0.122729866712D-04 0.100000000000D+01
-.137492356850D-04 0.000000000000D+00 0.000000000000D+00 0.602213084859D-04 0.000000000000D+00  6 -3 22 9900012 -11 -4 21 2 0.76966103D-02 0.16956309D+00 0.46714266D+04 0.46714266D+04 0.46714266D+04 0.12451844D+01  1  2 15  2  6  5       -4 -.558224067124D-04 0.100000000000D+01
  </mgrwgt>
  </event>
  <event>
  7     66 0.20026351E-05 0.20491979E+02 0.78161638E-02 0.12102847E+00
       -1 -1    0    0    0  502 0.00000000E+00 0.00000000E+00 0.21078510E+03 0.21078510E+03 0.00000000E+00 0.0000E+00 0.9000E+01
       22 -1    0    0    0    0 0.00000000E+00 0.00000000E+00 -.71771554E+02 0.71771554E+02 0.00000000E+00 0.0000E+00 0.9000E+01
       24  2    1    2    0    0 -.29681633E+02 -.38723481E+02 0.14538205E+03 0.17140843E+03 0.76579388E+02 0.0000E+00 0.0000E+00
  9900012  1    3    3    0    0 0.13067297E+01 -.29412725E+02 0.85243052E+02 0.10311738E+03 0.50000000E+02 0.0000E+00 0.9000E+01
      -11  1    3    3    0    0 -.30988363E+02 -.93107560E+01 0.60138998E+02 0.68291053E+02 0.00000000E+00 0.0000E+00 0.9000E+01
       -2  1    1    2    0  501 0.33645004E+02 0.98588514E+01 -.48548220E+02 0.59884163E+02 0.00000000E+00 0.0000E+00 0.9000E+01
       21  1    1    2  501  502 -.39633710E+01 0.28864630E+02 0.42179713E+02 0.51264055E+02 0.00000000E+00 0.0000E+00 0.9000E+01
#aMCatNLO 2  0  0  1  5 0.33033963D+02 0.00000000D+00  -5  6  0 0.00000000D+00 0.00000000D+00 0.00000000D+00 0.00000000D+00 0.00000000D+00
  <mgrwgt>
 0.2397956750D-04    2    2    0
 0.104007930834414D+03 0.000000000000000D+00 0.000000000000000D+00 0.104007930834414D+03
 0.104007930834414D+03 0.000000000000000D+00 0.000000000000000D+00 -.104007930834414D+03
 0.708681944480630D+02 -.690367311734228D-01 -.193932268515361D+02 0.463270867910241D+02
 0.472357832797348D+02 -.318862427663928D+02 -.277163212054187D+01 0.347390961264267D+02
 0.899118839410301D+02 0.319552794975663D+02 0.221648589720779D+02 -.810661829174508D+02
 0.000000000000000D+00 -.000000000000000D+00 0.000000000000000D+00 0.000000000000000D+00
 0.134931657953670D+03 0.000000000000000D+00 0.000000000000000D+00 0.134931657953670D+03
 0.112118787202312D+03 0.000000000000000D+00 0.000000000000000D+00 -.112118787202312D+03
 0.742496795165593D+02 0.130672968933330D+01 -.294127250571535D+02 0.463270867910241D+02
 0.474739255176409D+02 -.309883627637464D+02 -.931075601634257D+01 0.347390961264267D+02
 0.883227561859724D+02 0.336450040377536D+02 0.985885139256549D+01 -.810661829174508D+02
 0.370040839358099D+02 -.396337096334045D+01 0.288646296809306D+02 0.228128707513578D+02
-.633966816306D-06 0.000000000000D+00 0.000000000000D+00 0.572212414243D-07 0.000000000000D+00  6 -1 22 9900012 -11 -2 21 2 0.34957348D-01 0.10242997D-01 0.59734612D+04 0.59734612D+04 0.59734612D+04 0.12332431D+01  1  2 13  1  6  1       -1 -.345823200444D-04 0.100000000000D+01
0.105759116746D-05 0.000000000000D+00 0.000000000000D+00 0.572212414243D-07 0.573306679621D-09  6 -1 22 9900012 -11 -2 21 2 0.32428476D-01 0.11041777D-01 0.59734612D+04 0.59734612D+04 0.59734612D+04 0.12332431D+01  1  2  1  1  6  1       -1 0.585618875436D-04 0.100000000000D+01
  </mgrwgt>
  </event>
  <event>
  7     66 -.20026351E-05 0.12893006E+02 0.78161638E-02 0.12758282E+00
       -3 -1    0    0    0  501 0.00000000E+00 0.00000000E+00 0.22705988E+02 0.22705988E+02 0.00000000E+00 0.0000E+00 0.9000E+01
       22 -1    0    0    0    0 -.00000000E+00 -.00000000E+00 -.14294942E+03 0.14294942E+03 0.00000000E+00 0.0000E+00 0.9000E+01
       24  2    1    2    0    0 -.18714962E+01 0.28245998E+02 -.88297175E+02 0.12000277E+03 0.76177003E+02 0.0000E+00 0.0000E+00
  9900012  1    3    3    0    0 -.20913661E+02 0.17710846E+02 -.75985957E+02 0.94999584E+02 0.50000000E+02 0.0000E+00 0.9000E+01
      -11  1    3    3    0    0 0.19042164E+02 0.10535152E+02 -.12311218E+02 0.25003191E+02 0.00000000E+00 0.0000E+00 0.9000E+01
       -4  1    1    2    0  502 -.68408655E+01 -.10963484E+02 -.96521351E+01 0.16129449E+02 0.00000000E+00 0.0000E+00 0.9000E+01
       21  1    1    2  502  501 0.87123617E+01 -.17282514E+02 -.22294118E+02 0.29523181E+02 0.00000000E+00 0.0000E+00 0.9000E+01
#aMCatNLO 2  0  0  5  1 0.79532552D+01 0.00000000D+00  -5  6  0 0.00000000D+00 0.00000000D+00 0.00000000D+00 0.00000000D+00 0.00000000D+00
  <mgrwgt>
 -.1073083432D-04    2    2    0
 0.569719911799472D+02 0.000000000000000D+00 0.000000000000000D+00 0.569719911799472D+02
 0.569719911799472D+02 -.000000000000000D+00 -.000000000000000D+00 -.569719911799472D+02
 0.587248476505435D+02 -.210616294235976D+02 0.199440997949778D+02 -.103560794208312D+02
 0.237111290305711D+02 0.189824579042547D+02 0.114362861993670D+02 0.843180228561828D+01
 0.315080056787797D+02 0.207917151934288D+01 -.313803859943447D+02 0.192427713521287D+01
 0.000000000000000D+00 0.000000000000000D+00 0.000000000000000D+00 0.000000000000000D+00
 0.569719911799472D+02 0.000000000000000D+00 0.000000000000000D+00 0.569719911799472D+02
 0.569719911799472D+02 -.000000000000000D+00 -.000000000000000D+00 -.569719911799472D+02
 0.579265567326746D+02 -.209136606478547D+02 0.177108461866411D+02 -.102191340417517D+02
 0.233585882613793D+02 0.190421644159686D+02 0.105351516048763D+02 0.848706077403331D+01
 0.132637512539473D+02 -.684086549803337D+01 -.109634840219774D+02 0.298859074887336D+01
 0.193950861118931D+02 0.871236172991939D+01 -.172825137695399D+02 -.125651748115493D+01
-.671715439546D-07 0.000000000000D+00 0.000000000000D+00 0.137992485208D-07 0.000000000000D+00  6 -3 22 9900012 -11 -4 21 2 0.34932290D-02 0.21992218D-01 0.30834277D+04 0.30834277D+04 0.30834277D+04 0.12661963D+01  1  2 13  2  6  5       -4 -.328748380337D-04 0.100000000000D+01
0.452457565620D-07 0.000000000000D+00 0.000000000000D+00 0.137992485208D-07 0.297429998361D-09  6 -3 22 9900012 -11 -4 21 2 0.34932290D-02 0.21992218D-01 0.30834277D+04 0.30834277D+04 0.30834277D+04 0.12661963D+01  1  2  1  2  6  5       -4 0.221440037122D-04 0.100000000000D+01
  </mgrwgt>
  </event>
  <event>
  6     66 0.20026351E-05 0.12904612E+02 0.78161638E-02 0.12948177E+00
       -1 -1    0    0    0  501 0.00000000E+00 0.00000000E+00 0.55690329E+02 0.55690329E+02 0.00000000E+00 0.0000E+00 0.9000E+01
       22 -1    0    0    0    0 0.00000000E+00 0.00000000E+00 -.82936164E+02 0.82936164E+02 0.00000000E+00 0.0000E+00 0.9000E+01
       24  2    1    2    0    0 0.10196788E+02 0.79091414E+01 -.61473269E+02 0.10204718E+03 0.80424715E+02 0.0000E+00 0.0000E+00
  9900012  1    3    3    0    0 0.18673750E+02 0.27369674E+02 -.41838402E+02 0.73131798E+02 0.50000000E+02 0.0000E+00 0.9000E+01
      -11  1    3    3    0    0 -.84769613E+01 -.19460533E+02 -.19634868E+02 0.28915381E+02 0.00000000E+00 0.0000E+00 0.9000E+01
       -2  1    1    2    0  501 -.10196788E+02 -.79091414E+01 0.34227434E+02 0.36579314E+02 0.00000000E+00 0.0000E+00 0.9000E+01
#aMCatNLO 1  0  0  1  5 0.10364826D+02 0.00000000D+00  -5  6  0 0.00000000D+00 0.00000000D+00 0.00000000D+00 0.00000000D+00 0.00000000D+00
  <mgrwgt>
 0.2628640547D-04    9    4    0
 0.679613289073048D+02 0.000000000000000D+00 0.000000000000000D+00 0.679613289073048D+02
 0.679613289073048D+02 0.000000000000000D+00 0.000000000000000D+00 -.679613289073048D+02
 0.662000180208722D+02 0.186737495100479D+02 0.273696740115699D+02 -.280113264537790D+02
 0.255547491684674D+02 -.847696134947707D+01 -.194605326512318D+02 -.142293359041487D+02
 0.441678906252701D+02 -.101967881605708D+02 -.790914136033811D+01 0.422406623579277D+02
 0.000000000000000D+00 -.000000000000000D+00 -.000000000000000D+00 0.000000000000000D+00
 0.742437923098416D+02 0.000000000000000D+00 0.000000000000000D+00 0.742437923098416D+02
 0.710119177518023D+02 0.000000000000000D+00 0.000000000000000D+00 -.710119177518023D+02
 0.681296078230936D+02 0.190375126159345D+02 0.315369967788070D+02 -.280113264537790D+02
 0.243497813900781D+02 -.834182044575061D+01 -.179123389070873D+02 -.142293359041487D+02
 0.437071510025307D+02 -.995882354277628D+01 -.518298427215555D+01 0.422406623579277D+02
 0.906916984594166D+01 -.736868627407656D+00 -.844167359956415D+01 0.323187455803926D+01
 0.679613289073048D+02 0.000000000000000D+00 0.000000000000000D+00 0.679613289073048D+02
 0.679613289073048D+02 0.000000000000000D+00 0.000000000000000D+00 -.679613289073048D+02
 0.662000180208722D+02 0.186737495100479D+02 0.273696740115699D+02 -.280113264537790D+02
 0.255547491684674D+02 -.847696134947707D+01 -.194605326512318D+02 -.142293359041487D+02
 0.000000000000000D+00 -.000000000000000D+00 -.000000000000000D+00 0.000000000000000D+00
 0.441678906252701D+02 -.101967881605708D+02 -.790914136033811D+01 0.422406623579277D+02
 0.742437923098416D+02 0.000000000000000D+00 0.000000000000000D+00 0.742437923098416D+02
 0.710119177518023D+02 0.000000000000000D+00 0.000000000000000D+00 -.710119177518023D+02
 0.681296078230936D+02 0.190375126159345D+02 0.315369967788070D+02 -.280113264537790D+02
 0.243497813900781D+02 -.834182044575061D+01 -.179123389070873D+02 -.142293359041487D+02
 0.906916984594166D+01 -.736868627407656D+00 -.844167359956415D+01 0.323187455803926D+01
 0.437071510025307D+02 -.995882354277628D+01 -.518298427215555D+01 0.422406623579277D+02
0.372862002991D-07 0.000000000000D+00 0.000000000000D+00 0.437620530298D-06 0.000000000000D+00  6 -1 22 9900012 -11 -2 21 0 0.85677429D-02 0.12759410D-01 0.22143144D+04 0.22143144D+04 0.22143144D+04 0.12837588D+01  1  2  2  1  6  1       -1 0.748286352393D-05 0.100000000000D+01
0.539285917475D-08 0.000000000000D+00 -.715944134152D-10 0.437620530298D-06 0.000000000000D+00  6 -1 22 9900012 -11 -2 21 2 0.85677429D-02 0.12759410D-01 0.22143144D+04 0.22143144D+04 0.22143144D+04 0.12837588D+01  1  2  3  1  6  1       -1 0.178363359745D-05 0.100000000000D+01
-.480053220152D-08 0.000000000000D+00 0.000000000000D+00 0.437620530298D-06 0.000000000000D+00  6 -1 22 9900012 -11 -2 21 2 0.85677429D-02 0.12759410D-01 0.22143144D+04 0.22143144D+04 0.22143144D+04 0.12837588D+01  1  2 15  1  6  1       -1 -.158772744528D-05 0.100000000000D+01
0.581887465444D-07 0.000000000000D+00 0.000000000000D+00 0.437620530298D-06 0.000000000000D+00  6 -1 22 9900012 -11 -2 21 2 0.97798926D-02 0.12759410D-01 0.25788581D+04 0.25788581D+04 0.25788581D+04 0.12755846D+01  1  2 12  1  6  1       -1 0.159715605309D-04 0.100000000000D+01
-.128284135327D-08 0.000000000000D+00 0.000000000000D+00 0.437620530298D-06 0.000000000000D+00  6 -1 22 9900012 -11 -2 21 2 0.85677429D-02 0.12759410D-01 0.22143144D+04 0.22143144D+04 0.22143144D+04 0.12837588D+01  1  2  4  1  6  1       -1 -.424286795511D-06 0.100000000000D+01
-.159475231632D-06 0.000000000000D+00 -.385897913090D-07 0.437620530298D-06 0.000000000000D+00  6 -1 22 9900012 -11 -2 21 2 0.97682548D-02 0.12759410D-01 0.22143144D+04 0.22143144D+04 0.22143144D+04 0.12837588D+01  1  2  5  1  6  1       -1 -.436338494056D-04 0.100000000000D+01
0.163457656475D-06 0.000000000000D+00 0.382603571991D-07 0.437620530298D-06 0.000000000000D+00  6 -1 22 9900012 -11 -2 21 2 0.85677429D-02 0.12759410D-01 0.22143144D+04 0.22143144D+04 0.22143144D+04 0.12837588D+01  1  2  6  1  6  1       -1 0.540619657221D-04 0.100000000000D+01
0.119787280839D-08 0.000000000000D+00 0.000000000000D+00 0.437620530298D-06 0.000000000000D+00  6 21 22 9900012 -11 1 -2 2 0.97798926D-02 0.12759410D-01 0.25788581D+04 0.25788581D+04 0.25788581D+04 0.12755846D+01  3  4 12  3  5  1       -1 0.478225820453D-05 0.100000000000D+01
-.304849442326D-08 0.000000000000D+00 -.788484884840D-09 0.437620530298D-06 0.000000000000D+00  6 21 22 9900012 -11 1 -2 2 0.97682548D-02 0.12759410D-01 0.22143144D+04 0.22143144D+04 0.22143144D+04 0.12837588D+01  3  4  5  3  5  1       -1 -.121500124620D-04 0.100000000000D+01
  </mgrwgt>
  </event>
  <event>
  7     66 -.20026351E-05 0.12234901E+03 0.78161638E-02 0.11121082E+00
       -1 -1    0    0    0  502 0.00000000E+00 0.00000000E+00 0.33311526E+03 0.33311526E+03 0.00000000E+00 0.0000E+00 0.9000E+01
       22 -1    0    0    0    0 0.00000000E+00 0.00000000E+00 -.23044985E+03 0.23044985E+03 0.00000000E+00 0.0000E+00 0.9000E+01
       24  2    1    2    0    0 -.24693240E+02 0.11790952E+03 -.19184508E+03 0.23984630E+03 0.78799137E+02 0.0000E+00 0.0000E+00
  9900012  1    3    3    0    0 -.30334181E+02 0.69391821E+02 -.94987944E+02 0.13137008E+03 0.50000000E+02 0.0000E+00 0.9000E+01
      -11  1    3    3    0    0 0.56409406E+01 0.48517697E+02 -.96857135E+02 0.10847623E+03 0.00000000E+00 0.0000E+00 0.9000E+01
       -2  1    1    2    0  501 0.30903400E+02 -.12231133E+03 0.28382825E+03 0.31060193E+03 0.00000000E+00 0.0000E+00 0.9000E+01
       21  1    1    2  501  502 -.62101598E+01 0.44018146E+01 0.10682244E+02 0.13116875E+02 0.00000000E+00 0.0000E+00 0.9000E+01
#aMCatNLO 2  0  0  1  5 0.81553755D+01 0.00000000D+00  -5  6  0 0.00000000D+00 0.00000000D+00 0.00000000D+00 0.00000000D+00 0.00000000D+00
  <mgrwgt>
 -.7057037084D-04    3    2    0
 0.271327481188845D+03 0.000000000000000D+00 0.000000000000000D+00 0.271327481188845D+03
 0.271327481188845D+03 0.000000000000000D+00 0.000000000000000D+00 -.271327481188845D+03
 0.150267764224511D+03 -.320484741908231D+02 0.706069267198654D+02 -.118608423673232D+03
 0.126780943516401D+03 0.419208064025528D+01 0.495446616765482D+02 -.116624013814355D+03
 0.265606254636778D+03 0.278563935505678D+02 -.120151588396414D+03 0.235232437487588D+03
 0.000000000000000D+00 -.000000000000000D+00 0.000000000000000D+00 0.000000000000000D+00
 0.281406593699140D+03 0.000000000000000D+00 0.000000000000000D+00 0.281406593699140D+03
 0.272795171349901D+03 0.000000000000000D+00 0.000000000000000D+00 -.272795171349901D+03
 0.149343046408278D+03 -.303341809368095D+02 0.693918209240043D+02 -.118608423673232D+03
 0.126439502369558D+03 0.564094058373926D+01 0.485176972930645D+02 -.116624013814355D+03
 0.266925798540850D+03 0.309034001134495D+02 -.122311332842655D+03 0.235232437487588D+03
 0.114934177303541D+02 -.621015976037925D+01 0.440181462558571D+01 0.861142234923851D+01
-.184324824328D-04 0.000000000000D+00 0.000000000000D+00 0.675364719549D-05 0.000000000000D+00  6 -1 22 9900012 -11 -2 21 2 0.51525720D-01 0.35263074D-01 0.18681493D+05 0.18681493D+05 0.18681493D+05 0.11821660D+01  1  2 13  1  6  1       -1 -.814529029273D-04 0.100000000000D+01
-.578815655586D-05 0.000000000000D+00 0.000000000000D+00 0.675364719549D-05 0.000000000000D+00  6 -1 22 9900012 -11 -2 21 2 0.49412939D-01 0.35263074D-01 0.17599085D+05 0.17599085D+05 0.17599085D+05 0.11846783D+01  1  2  8  1  6  1       -1 -.275763139036D-04 0.100000000000D+01
0.869477911762D-05 0.000000000000D+00 0.000000000000D+00 0.675364719549D-05 0.152413103065D-06  6 -1 22 9900012 -11 -2 21 2 0.51248501D-01 0.35453822D-01 0.18681493D+05 0.18681493D+05 0.18681493D+05 0.11821660D+01  1  2  1  1  6  1       -1 0.384588459861D-04 0.100000000000D+01
  </mgrwgt>
  </event>
  <event>
  6     66 0.20026351E-05 0.13447726E+02 0.78161638E-02 0.12653161E+00
       -1 -1    0    0    0  501 0.00000000E+00 0.00000000E+00 0.40877968E+03 0.40877968E+03 0.00000000E+00 0.0000E+00 0.9000E+01
       22 -1    0    0    0    0 0.00000000E+00 0.00000000E+00 -.55128239E+01 0.55128239E+01 0.00000000E+00 0.0000E+00 0.9000E+01
       24  2    1    2    0    0 -.92953684E+01 0.97178936E+01 0.34635224E+03 0.35581075E+03 0.80377723E+02 0.0000E+00 0.0000E+00
  9900012  1    3    3    0    0 -.15564286E+02 0.26325037E+02 0.20076953E+03 0.20914984E+03 0.50000000E+02 0.0000E+00 0.9000E+01
      -11  1    3    3    0    0 0.62689172E+01 -.16607143E+02 0.14558271E+03 0.14666091E+03 0.00000000E+00 0.0000E+00 0.9000E+01
       -2  1    1    2    0  501 0.92953684E+01 -.97178936E+01 0.56914617E+02 0.58481749E+02 0.00000000E+00 0.0000E+00 0.9000E+01
#aMCatNLO 1  0  0  1  5 0.34228723D+02 0.00000000D+00  -5  6  0 0.00000000D+00 0.00000000D+00 0.00000000D+00 0.00000000D+00 0.00000000D+00
  <mgrwgt>
 0.1272041132D-03    7    4    0
 0.474713636201231D+02 0.000000000000000D+00 0.000000000000000D+00 0.474713636201231D+02
 0.474713636201231D+02 0.000000000000000D+00 0.000000000000000D+00 -.474713636201231D+02
 0.598836478473214D+02 -.155642855908157D+02 0.263250366674377D+02 -.122799323291131D+02
 0.216112718149039D+02 0.626891721195959D+01 -.166071430328915D+02 0.123268222479412D+02
 0.134478075780209D+02 0.929536837885610D+01 -.971789363454612D+01 -.468899188281624D-01
 0.000000000000000D+00 -.000000000000000D+00 0.000000000000000D+00 0.000000000000000D+00
 0.706039149269701D+02 0.000000000000000D+00 0.000000000000000D+00 0.706039149269701D+02
 0.552383116472303D+02 0.000000000000000D+00 0.000000000000000D+00 -.552383116472303D+02
 0.544229028648316D+02 -.120725645443975D+02 0.128572471217077D+02 -.122799323291131D+02
 0.266222100445782D+02 0.774230489360605D+01 -.222900927736908D+02 0.123268222479412D+02
 0.167530838918225D+02 0.102179147045815D+02 -.132762133272953D+02 -.468899188281624D-01
 0.280440297729681D+02 -.588765505379006D+01 0.227090589792784D+02 0.153656032797399D+02
 0.474713636201231D+02 0.000000000000000D+00 0.000000000000000D+00 0.474713636201231D+02
 0.474713636201231D+02 0.000000000000000D+00 0.000000000000000D+00 -.474713636201231D+02
 0.598836478473214D+02 -.155642855908157D+02 0.263250366674377D+02 -.122799323291131D+02
 0.216112718149039D+02 0.626891721195959D+01 -.166071430328915D+02 0.123268222479412D+02
 0.000000000000000D+00 -.000000000000000D+00 0.000000000000000D+00 0.000000000000000D+00
 0.134478075780209D+02 0.929536837885610D+01 -.971789363454612D+01 -.468899188281624D-01
 0.706039149269701D+02 0.000000000000000D+00 0.000000000000000D+00 0.706039149269701D+02
 0.552383116472303D+02 0.000000000000000D+00 0.000000000000000D+00 -.552383116472303D+02
 0.544229028648316D+02 -.120725645443975D+02 0.128572471217077D+02 -.122799323291131D+02
 0.266222100445782D+02 0.774230489360605D+01 -.222900927736908D+02 0.123268222479412D+02
 0.280440297729681D+02 -.588765505379006D+01 0.227090589792784D+02 0.153656032797399D+02
 0.167530838918225D+02 0.102179147045815D+02 -.132762133272953D+02 -.468899188281624D-01
0.251041299348D-06 0.000000000000D+00 0.000000000000D+00 0.280125176431D-06 0.000000000000D+00  6 -1 22 9900012 -11 -2 21 0 0.62889181D-01 0.84812675D-03 0.20164468D+04 0.20164468D+04 0.20164468D+04 0.12888612D+01  1  2  2  1  6  1       -1 0.862226925965D-04 0.100000000000D+01
0.851730592438D-08 0.000000000000D+00 -.482032345095D-09 0.280125176431D-06 0.000000000000D+00  6 -1 22 9900012 -11 -2 21 2 0.62889181D-01 0.84812675D-03 0.20164468D+04 0.20164468D+04 0.20164468D+04 0.12888612D+01  1  2  3  1  6  1       -1 0.485949294518D-05 0.100000000000D+01
-.242070119318D-07 0.000000000000D+00 0.000000000000D+00 0.280125176431D-06 0.000000000000D+00  6 -1 22 9900012 -11 -2 21 2 0.62889181D-01 0.84812675D-03 0.20164468D+04 0.20164468D+04 0.20164468D+04 0.12888612D+01  1  2 15  1  6  1       -1 -.138111516424D-04 0.100000000000D+01
-.366289588490D-07 0.000000000000D+00 0.000000000000D+00 0.280125176431D-06 0.000000000000D+00  6 -1 22 9900012 -11 -2 21 2 0.62889181D-01 0.84812675D-03 0.20164468D+04 0.20164468D+04 0.20164468D+04 0.12888612D+01  1  2  4  1  6  1       -1 -.208984118566D-04 0.100000000000D+01
-.190073358305D-06 0.000000000000D+00 -.848197155110D-07 0.280125176431D-06 0.000000000000D+00  6 -1 22 9900012 -11 -2 21 2 0.10477416D+00 0.84812675D-03 0.20164468D+04 0.20164468D+04 0.20164468D+04 0.12888612D+01  1  2  5  1  6  1       -1 -.401783847678D-04 0.100000000000D+01
0.214745342086D-06 0.000000000000D+00 0.748547496575D-07 0.280125176431D-06 0.000000000000D+00  6 -1 22 9900012 -11 -2 21 2 0.62889181D-01 0.84812675D-03 0.20164468D+04 0.20164468D+04 0.20164468D+04 0.12888612D+01  1  2  6  1  6  1       -1 0.122521544270D-03 0.100000000000D+01
-.697972932820D-08 0.000000000000D+00 -.486166600822D-08 0.280125176431D-06 0.000000000000D+00  6 21 22 9900012 -11 1 -2 2 0.10477416D+00 0.84812675D-03 0.20164468D+04 0.20164468D+04 0.20164468D+04 0.12888612D+01  3  4  5  3  5  1       -1 -.115116683801D-04 0.100000000000D+01
  </mgrwgt>
  </event>
  <event>
  6     66 0.20026351E-05 0.31742013E+02 0.78161638E-02 0.12670940E+00
       -1 -1    0    0    0  501 0.00000000E+00 0.00000000E+00 0.89447135E+02 0.89447135E+02 0.00000000E+00 0.0000E+00 0.9000E+01
       22 -1    0    0    0    0 -.00000000E+00 -.00000000E+00 -.43770652E+03 0.43770652E+03 0.00000000E+00 0.0000E+00 0.9000E+01
       24  2    1    2    0    0 0.96569196E+00 -.31727320E+02 -.43070919E+03 0.43880477E+03 0.77663789E+02 0.0000E+00 0.0000E+00
  9900012  1    3    3    0    0 0.27189202E+01 -.46911088E+02 -.35185061E+03 0.35847858E+03 0.50000000E+02 0.0000E+00 0.9000E+01
      -11  1    3    3    0    0 -.17532282E+01 0.15183768E+02 -.78858581E+02 0.80326188E+02 0.00000000E+00 0.0000E+00 0.9000E+01
       -2  1    1    2    0  501 -.96569196E+00 0.31727320E+02 0.82449804E+02 0.88348886E+02 0.00000000E+00 0.0000E+00 0.9000E+01
#aMCatNLO 1  0  0  5  1 0.13200226D+01 0.00000000D+00  -5  6  0 0.00000000D+00 0.00000000D+00 0.00000000D+00 0.00000000D+00 0.00000000D+00
  <mgrwgt>
 0.1098309869D-03    8    2    0
 0.197867617409166D+03 0.000000000000000D+00 0.000000000000000D+00 0.197867617409166D+03
 0.197867617409166D+03 -.000000000000000D+00 -.000000000000000D+00 -.197867617409166D+03
 0.167885019462692D+03 0.271892015894310D+01 -.469110877873670D+02 -.153223161029146D+03
 0.376034307642406D+02 -.175322819878320D+01 0.151837681778220D+02 -.343569116779460D+02
 0.190246784591399D+03 -.965691960159889D+00 0.317273196095449D+02 0.187580072707092D+03
 0.000000000000000D+00 0.000000000000000D+00 0.000000000000000D+00 0.000000000000000D+00
 0.197867617409166D+03 0.000000000000000D+00 0.000000000000000D+00 0.197867617409166D+03
 0.197867617409166D+03 -.000000000000000D+00 -.000000000000000D+00 -.197867617409166D+03
 0.167859601220469D+03 0.271878384998782D+01 -.469066094257691D+02 -.153196683803698D+03
 0.375984188742537D+02 -.175325872998141D+01 0.151847712648553D+02 -.343509811694455D+02
 0.175338228677874D+03 -.193234740745619D+01 0.284425066083856D+02 0.173005156822631D+03
 0.149389860457345D+02 0.966822287449783D+00 0.327933155252807D+01 0.145425081505129D+02
0.332524705276D-06 0.000000000000D+00 0.000000000000D+00 0.825170213647D-05 0.000000000000D+00  6 -1 22 9900012 -11 -2 21 0 0.13761098D-01 0.67339464D-01 0.33432590D+04 0.33432590D+04 0.33432590D+04 0.12620170D+01  1  2  2  2  6  5       -2 0.265163319943D-05 0.100000000000D+01
0.260593618183D-07 0.000000000000D+00 -.638491212012D-09 0.825170213647D-05 0.000000000000D+00  6 -1 22 9900012 -11 -2 21 2 0.13761098D-01 0.67339464D-01 0.33432590D+04 0.33432590D+04 0.33432590D+04 0.12620170D+01  1  2  3  2  6  5       -2 0.330966279040D-06 0.100000000000D+01
-.458491919451D-07 0.000000000000D+00 0.000000000000D+00 0.825170213647D-05 0.000000000000D+00  6 -1 22 9900012 -11 -2 21 2 0.13761098D-01 0.67339464D-01 0.33432590D+04 0.33432590D+04 0.33432590D+04 0.12620170D+01  1  2 15  2  6  5       -2 -.582306526188D-06 0.100000000000D+01
0.884105802525D-08 0.000000000000D+00 0.000000000000D+00 0.825170213647D-05 0.000000000000D+00  6 -1 22 9900012 -11 -2 21 2 0.13761098D-01 0.67339464D-01 0.33538414D+04 0.33538414D+04 0.33538414D+04 0.12618547D+01  1  2 12  2  6  5       -2 0.112286126138D-06 0.100000000000D+01
-.625812305639D-04 0.000000000000D+00 0.000000000000D+00 0.825170213647D-05 0.000000000000D+00  6 -1 22 9900012 -11 -2 21 2 0.13761098D-01 0.67339464D-01 0.33432590D+04 0.33432590D+04 0.33432590D+04 0.12620170D+01  1  2  4  2  6  5       -2 -.794811368058D-03 0.100000000000D+01
-.122661255594D-03 0.000000000000D+00 0.000000000000D+00 0.825170213647D-05 0.000000000000D+00  6 -1 22 9900012 -11 -2 21 2 0.13761098D-01 0.67339464D-01 0.33432590D+04 0.33432590D+04 0.33432590D+04 0.12620170D+01  1  2  5  2  6  5       -2 -.155785623721D-02 0.100000000000D+01
0.132670045833D-03 0.000000000000D+00 -.000000000000D+00 0.825170213647D-05 0.000000000000D+00  6 -1 22 9900012 -11 -2 21 2 0.13761098D-01 0.67339464D-01 0.33432590D+04 0.33432590D+04 0.33432590D+04 0.12620170D+01  1  2  6  2  6  5       -2 0.168497262964D-02 0.100000000000D+01
0.610221273904D-04 0.000000000000D+00 0.000000000000D+00 0.825170213647D-05 0.180656139751D-04  6 -1 22 9900012 -11 -2 21 2 0.13761098D-01 0.67339464D-01 0.33538414D+04 0.33538414D+04 0.33538414D+04 0.12618547D+01  1  2 11  2  6  5       -2 0.775013383440D-03 0.100000000000D+01
  </mgrwgt>
  </event>
  <event>
  7     66 0.20026351E-05 0.48545202E+01 0.78161638E-02 0.13300897E+00
       -1 -1    0    0    0  501 0.00000000E+00 0.00000000E+00 0.48580440E+02 0.48580440E+02 0.00000000E+00 0.0000E+00 0.9000E+01
       22 -1    0    0    0    0 0.00000000E+00 0.00000000E+00 -.43823080E+02 0.43823080E+02 0.00000000E+00 0.0000E+00 0.9000E+01
       24  2    1    2    0    0 0.25236357E+01 -.59431963E+01 0.61772416E+01 0.82412611E+02 0.81926735E+02 0.0000E+00 0.0000E+00
  9900012  1    3    3    0    0 -.20846573E+02 -.94351477E+01 -.68788929E+01 0.55415889E+02 0.50000000E+02 0.0000E+00 0.9000E+01
      -11  1    3    3    0    0 0.23370208E+02 0.34919514E+01 0.13056134E+02 0.26996722E+02 0.00000000E+00 0.0000E+00 0.9000E+01
       -2  1    1    2    0  502 -.21019259E+01 0.52461372E-01 -.31943944E+01 0.38242647E+01 0.00000000E+00 0.0000E+00 0.9000E+01
       21  1    1    2  502  501 -.42170978E+00 0.58907349E+01 0.17745133E+01 0.61666437E+01 0.00000000E+00 0.0000E+00 0.9000E+01
#aMCatNLO 2  0  0  5  1 0.36640105D+01 0.00000000D+00  -5  6  0 0.00000000D+00 0.00000000D+00 0.00000000D+00 0.00000000D+00 0.00000000D+00
  <mgrwgt>
 0.1900361844D-04    2    2    0
 0.461404865578663D+02 0.000000000000000D+00 0.000000000000000D+00 0.461404865578663D+02
 0.461404865578663D+02 -.000000000000000D+00 -.000000000000000D+00 -.461404865578663D+02
 0.557977846211731D+02 -.200771287512882D+02 -.112471987762604D+02 -.915435357752263D+01
 0.267098406305739D+02 0.237359661148689D+02 0.263058712731145D+01 0.119624207612873D+02
 0.977334786398560D+01 -.365883736358067D+01 0.861661164894890D+01 -.280806718376468D+01
 0.000000000000000D+00 0.000000000000000D+00 0.000000000000000D+00 0.000000000000000D+00
 0.461404865578663D+02 0.000000000000000D+00 0.000000000000000D+00 0.461404865578663D+02
 0.461404865578663D+02 -.000000000000000D+00 -.000000000000000D+00 -.461404865578663D+02
 0.558441075596218D+02 -.208465727646539D+02 -.943514768189505D+01 -.974488282738302D+01
 0.263594904006124D+02 0.233702084386272D+02 0.349195141892132D+01 0.116817107909324D+02
 0.399402382170699D+01 -.210192589129742D+01 0.524613717372679D-01 -.339578880973655D+01
 0.608335133379147D+01 -.421709782675876D+00 0.589073489123647D+01 0.145896084618718D+01
-.140693882583D-08 0.000000000000D+00 0.000000000000D+00 0.948257640169D-07 0.000000000000D+00  6 -1 22 9900012 -11 -2 21 2 0.74739139D-02 0.67420123D-02 0.18759868D+04 0.18759868D+04 0.18759868D+04 0.12928418D+01  1  2 13  2  6  5       -2 -.136530393692D-05 0.100000000000D+01
0.209900718530D-07 0.000000000000D+00 0.000000000000D+00 0.948257640169D-07 0.218858250588D-06  6 -1 22 9900012 -11 -2 21 2 0.74739139D-02 0.67420123D-02 0.18759868D+04 0.18759868D+04 0.18759868D+04 0.12928418D+01  1  2  1  2  6  5       -2 0.203689223802D-04 0.100000000000D+01
  </mgrwgt>
  </event>
  <event>
  6     66 0.20026351E-05 0.52165168E+02 0.78161638E-02 0.12182287E+00
       -1 -1    0    0    0  501 0.00000000E+00 0.00000000E+00 0.35977095E+03 0.35977095E+03 0.00000000E+00 0.0000E+00 0.9000E+01
       22 -1    0    0    0    0 0.00000000E+00 0.00000000E+00 -.19450721E+03 0.19450721E+03 0.00000000E+00 0.0000E+00 0.9000E+01
       24  2    1    2    0    0 0.28347345E+02 -.45038465E+02 -.18058588E+03 0.20435818E+03 0.79491945E+02 0.0000E+00 0.0000E+00
  9900012  1    3    3    0    0 0.40799035E+02 -.50388831E+02 -.15961213E+03 0.17938681E+03 0.50000000E+02 0.0000E+00 0.9000E+01
      -11  1    3    3    0    0 -.12451690E+02 0.53503660E+01 -.20973751E+02 0.24971368E+02 0.00000000E+00 0.0000E+00 0.9000E+01
       -2  1    1    2    0  501 -.28347345E+02 0.45038465E+02 0.34584962E+03 0.34991999E+03 0.00000000E+00 0.0000E+00 0.9000E+01
#aMCatNLO 1  0  0  5  1 0.18241450D+02 0.00000000D+00  -5  6  0 0.00000000D+00 0.00000000D+00 0.00000000D+00 0.00000000D+00 0.00000000D+00
  <mgrwgt>
 0.3187348282D-03    7    2    0
 0.264533636120039D+03 0.000000000000000D+00 0.000000000000000D+00 0.264533636120039D+03
 0.264533636120039D+03 -.000000000000000D+00 -.000000000000000D+00 -.264533636120039D+03
 0.237792613011686D+03 0.407990352023939D+02 -.503888309216156D+02 -.223252617560987D+03
 0.327128244337539D+02 -.124516899713681D+02 0.535036600732535D+01 -.297734425768703D+02
 0.258561834794637D+03 -.283473452310257D+02 0.450384649142903D+02 0.253026060137857D+03
 0.000000000000000D+00 -.000000000000000D+00 0.000000000000000D+00 0.000000000000000D+00
 0.264533636120039D+03 0.000000000000000D+00 0.000000000000000D+00 0.264533636120039D+03
 0.264533636120039D+03 -.000000000000000D+00 -.000000000000000D+00 -.264533636120039D+03
 0.236291641777711D+03 0.406301378334216D+02 -.501204855734153D+02 -.221745053607805D+03
 0.325390863775288D+02 -.124749366325789D+02 0.538730046897535D+01 -.295659448006384D+02
 0.195033983740278D+03 -.102474932447378D+02 0.198950088002929D+02 0.193745793039845D+03
 0.652025603445598D+02 -.179077079561050D+02 0.248381763041471D+02 0.575652053685985D+02
0.779737253711D-05 0.000000000000D+00 0.000000000000D+00 0.785276962132D-04 0.000000000000D+00  6 -1 22 9900012 -11 -2 21 0 0.55349377D-01 0.29924186D-01 0.55238255D+04 0.55238255D+04 0.55238255D+04 0.12370037D+01  1  2  2  2  6  5       -2 0.265384390472D-04 0.100000000000D+01
0.314225032735D-06 0.000000000000D+00 -.149719818189D-07 0.785276962132D-04 0.000000000000D+00  6 -1 22 9900012 -11 -2 21 2 0.55349377D-01 0.29924186D-01 0.55238255D+04 0.55238255D+04 0.55238255D+04 0.12370037D+01  1  2  3  2  6  5       -2 0.163647697974D-05 0.100000000000D+01
-.101752501196D-05 0.000000000000D+00 0.000000000000D+00 0.785276962132D-04 0.000000000000D+00  6 -1 22 9900012 -11 -2 21 2 0.55349377D-01 0.29924186D-01 0.55238255D+04 0.55238255D+04 0.55238255D+04 0.12370037D+01  1  2 15  2  6  5       -2 -.529924762485D-05 0.100000000000D+01
0.492794519091D-04 0.000000000000D+00 0.000000000000D+00 0.785276962132D-04 0.000000000000D+00  6 -1 22 9900012 -11 -2 21 2 0.55349377D-01 0.29924186D-01 0.54918892D+04 0.54918892D+04 0.54918892D+04 0.12372839D+01  1  2 12  2  6  5       -2 0.256688322527D-03 0.100000000000D+01
-.656534425496D-05 0.000000000000D+00 0.000000000000D+00 0.785276962132D-04 0.000000000000D+00  6 -1 22 9900012 -11 -2 21 2 0.55349377D-01 0.29924186D-01 0.55238255D+04 0.55238255D+04 0.55238255D+04 0.12370037D+01  1  2  4  2  6  5       -2 -.341921668169D-04 0.100000000000D+01
-.498337507017D-04 0.000000000000D+00 0.000000000000D+00 0.785276962132D-04 0.000000000000D+00  6 -1 22 9900012 -11 -2 21 2 0.55349377D-01 0.29924186D-01 0.55238255D+04 0.55238255D+04 0.55238255D+04 0.12370037D+01  1  2  5  2  6  5       -2 -.259533064975D-03 0.100000000000D+01
0.639204092132D-04 0.000000000000D+00 -.000000000000D+00 0.785276962132D-04 0.000000000000D+00  6 -1 22 9900012 -11 -2 21 2 0.55349377D-01 0.29924186D-01 0.55238255D+04 0.55238255D+04 0.55238255D+04 0.12370037D+01  1  2  6  2  6  5       -2 0.332896069109D-03 0.100000000000D+01
  </mgrwgt>
  </event>
  <event>
  6     66 -.20026351E-05 0.54342500E+02 0.78161638E-02 0.11819257E+00
       -1 -1    0    0    0  501 0.00000000E+00 0.00000000E+00 0.40066798E+03 0.40066798E+03 0.00000000E+00 0.0000E+00 0.9000E+01
       22 -1    0    0    0    0 0.00000000E+00 0.00000000E+00 -.61725355E+02 0.61725355E+02 0.00000000E+00 0.0000E+00 0.9000E+01
       24  2    1    2    0    0 0.13297433E+02 0.72568129E+02 -.69637623E+01 0.10870677E+03 0.79534354E+02 0.0000E+00 0.0000E+00
  9900012  1    3    3    0    0 0.16129487E+02 0.28263814E+02 -.19174960E+02 0.62663248E+02 0.50000000E+02 0.0000E+00 0.9000E+01
      -11  1    3    3    0    0 -.28320539E+01 0.44304315E+02 0.12211198E+02 0.46043525E+02 0.00000000E+00 0.0000E+00 0.9000E+01
       -2  1    1    2    0  501 -.13297433E+02 -.72568129E+02 0.34590639E+03 0.35368656E+03 0.00000000E+00 0.0000E+00 0.9000E+01
#aMCatNLO 1  0  0  1  5 0.28324281D+01 0.00000000D+00  -5  6  0 0.00000000D+00 0.00000000D+00 0.00000000D+00 0.00000000D+00 0.00000000D+00
  <mgrwgt>
 -.1153905865D-03   11    4    0
 0.157262116081365D+03 0.000000000000000D+00 0.000000000000000D+00 0.157262116081365D+03
 0.157262116081365D+03 0.000000000000000D+00 0.000000000000000D+00 -.157262116081365D+03
 0.112787109924164D+03 0.161294865550143D+02 0.282638140261302D+02 -.957179640674273D+02
 0.545310094111770D+02 -.283205388059568D+01 0.443043153350343D+02 -.316660401836591D+02
 0.147206112827390D+03 -.132974326744186D+02 -.725681293611645D+02 0.127384004251086D+03
 0.000000000000000D+00 -.000000000000000D+00 -.000000000000000D+00 0.000000000000000D+00
 0.282939527883079D+03 0.000000000000000D+00 0.000000000000000D+00 0.282939527883079D+03
 0.157284447287081D+03 0.000000000000000D+00 0.000000000000000D+00 -.157284447287081D+03
 0.113074174287174D+03 0.168500246329016D+02 0.289813201111254D+02 -.957179640674273D+02
 0.547966438123691D+02 -.248327902354705D+01 0.446516225626544D+02 -.316660401836591D+02
 0.146666164518842D+03 -.123599273086680D+02 -.716345689772164D+02 0.127384004251086D+03
 0.125686992551775D+03 -.200681830068652D+01 -.199837369656339D+01 0.125655080595998D+03
 0.157262116081365D+03 0.000000000000000D+00 0.000000000000000D+00 0.157262116081365D+03
 0.157262116081365D+03 0.000000000000000D+00 0.000000000000000D+00 -.157262116081365D+03
 0.112787109924164D+03 0.161294865550143D+02 0.282638140261302D+02 -.957179640674273D+02
 0.545310094111770D+02 -.283205388059568D+01 0.443043153350343D+02 -.316660401836591D+02
 0.000000000000000D+00 -.000000000000000D+00 -.000000000000000D+00 0.000000000000000D+00
 0.147206112827390D+03 -.132974326744186D+02 -.725681293611645D+02 0.127384004251086D+03
 0.282939527883079D+03 0.000000000000000D+00 0.000000000000000D+00 0.282939527883079D+03
 0.157284447287081D+03 0.000000000000000D+00 0.000000000000000D+00 -.157284447287081D+03
 0.113074174287174D+03 0.168500246329016D+02 0.289813201111254D+02 -.957179640674273D+02
 0.547966438123691D+02 -.248327902354705D+01 0.446516225626544D+02 -.316660401836591D+02
 0.125686992551775D+03 -.200681830068652D+01 -.199837369656339D+01 0.125655080595998D+03
 0.146666164518842D+03 -.123599273086680D+02 -.716345689772164D+02 0.127384004251086D+03
0.151348495663D-06 0.000000000000D+00 0.000000000000D+00 0.456168256302D-05 0.000000000000D+00  6 -1 22 9900012 -11 -2 21 0 0.61641227D-01 0.94962084D-02 0.79057447D+04 0.79057447D+04 0.79057447D+04 0.12200589D+01  1  2  2  1  6  1       -1 0.233409870233D-05 0.100000000000D+01
0.160710537538D-08 0.000000000000D+00 -.290609037160D-09 0.456168256302D-05 0.000000000000D+00  6 -1 22 9900012 -11 -2 21 2 0.61641227D-01 0.94962084D-02 0.79057447D+04 0.79057447D+04 0.79057447D+04 0.12200589D+01  1  2  3  1  6  1       -1 0.368932615172D-07 0.100000000000D+01
-.199809456643D-07 0.000000000000D+00 0.000000000000D+00 0.456168256302D-05 0.000000000000D+00  6 -1 22 9900012 -11 -2 21 2 0.61641227D-01 0.94962084D-02 0.79057447D+04 0.79057447D+04 0.79057447D+04 0.12200589D+01  1  2 15  1  6  1       -1 -.458689433218D-06 0.100000000000D+01
0.116281328921D-05 0.000000000000D+00 0.000000000000D+00 0.456168256302D-05 0.000000000000D+00  6 -1 22 9900012 -11 -2 21 2 0.11091811D+00 0.94962084D-02 0.81400198D+04 0.81400198D+04 0.81400198D+04 0.12187090D+01  1  2 12  1  6  1       -1 0.816655309272D-05 0.100000000000D+01
-.977747411341D-04 0.000000000000D+00 0.000000000000D+00 0.456168256302D-05 0.000000000000D+00  6 -1 22 9900012 -11 -2 21 2 0.61641227D-01 0.94962084D-02 0.79057447D+04 0.79057447D+04 0.79057447D+04 0.12200589D+01  1  2  4  1  6  1       -1 -.224455045058D-02 0.100000000000D+01
-.104808764382D-03 0.000000000000D+00 -.478864585757D-07 0.456168256302D-05 0.000000000000D+00  6 -1 22 9900012 -11 -2 21 2 0.11090737D+00 0.94962084D-02 0.79057447D+04 0.79057447D+04 0.79057447D+04 0.12200589D+01  1  2  5  1  6  1       -1 -.737019555361D-03 0.100000000000D+01
0.890384380562D-04 0.000000000000D+00 0.406673819353D-07 0.456168256302D-05 0.000000000000D+00  6 -1 22 9900012 -11 -2 21 2 0.61641227D-01 0.94962084D-02 0.79057447D+04 0.79057447D+04 0.79057447D+04 0.12200589D+01  1  2  6  1  6  1       -1 0.204399688447D-02 0.100000000000D+01
0.114325553482D-03 0.000000000000D+00 0.000000000000D+00 0.456168256302D-05 0.584901299158D-05  6 -1 22 9900012 -11 -2 21 2 0.11090236D+00 0.94975569D-02 0.81400198D+04 0.81400198D+04 0.81400198D+04 0.12187090D+01  1  2 11  1  6  1       -1 0.803019049984D-03 0.100000000000D+01
0.749251893684D-07 0.000000000000D+00 0.000000000000D+00 0.456168256302D-05 0.000000000000D+00  6 21 22 9900012 -11 1 -2 2 0.11091811D+00 0.94962084D-02 0.81400198D+04 0.81400198D+04 0.81400198D+04 0.12187090D+01  3  4 12  3  5  1       -1 0.390320665822D-05 0.100000000000D+01
-.674978050731D-05 0.000000000000D+00 -.308509422731D-08 0.456168256302D-05 0.000000000000D+00  6 21 22 9900012 -11 1 -2 2 0.11090737D+00 0.94962084D-02 0.79057447D+04 0.79057447D+04 0.79057447D+04 0.12200589D+01  3  4  5  3  5  1       -1 -.352339202323D-03 0.100000000000D+01
0.686181748294D-05 0.000000000000D+00 0.000000000000D+00 0.456168256302D-05 0.350992624166D-06  6 21 22 9900012 -11 1 -2 2 0.11090236D+00 0.94975569D-02 0.81400198D+04 0.81400198D+04 0.81400198D+04 0.12187090D+01  3  4 11  3  5  1       -1 0.357520625075D-03 0.100000000000D+01
  </mgrwgt>
  </event>
  <event>
  6     66 0.20026351E-05 0.17762155E+02 0.78161638E-02 0.13060283E+00
       -1 -1    0    0    0  501 0.00000000E+00 0.00000000E+00 0.18964517E+02 0.18964517E+02 0.00000000E+00 0.0000E+00 0.9000E+01
       22 -1    0    0    0    0 -.00000000E+00 -.00000000E+00 -.37269636E+03 0.37269636E+03 0.00000000E+00 0.0000E+00 0.9000E+01
       24  2    1    2    0    0 -.11008661E+02 -.13939281E+02 -.36268034E+03 0.37177195E+03 0.79761234E+02 0.0000E+00 0.0000E+00
  9900012  1    3    3    0    0 0.14266019E+02 -.11190925E+02 -.28834664E+03 0.29321075E+03 0.50000000E+02 0.0000E+00 0.9000E+01
      -11  1    3    3    0    0 -.25274680E+02 -.27483555E+01 -.74333700E+02 0.78561198E+02 0.00000000E+00 0.0000E+00 0.9000E+01
       -2  1    1    2    0  501 0.11008661E+02 0.13939281E+02 0.89484961E+01 0.19888935E+02 0.00000000E+00 0.0000E+00 0.9000E+01
#aMCatNLO 1  0  0  5  1 0.85973765D+01 0.00000000D+00  -5  6  0 0.00000000D+00 0.00000000D+00 0.00000000D+00 0.00000000D+00 0.00000000D+00
  <mgrwgt>
 0.6227231265D-04    8    2    0
 0.840714373353689D+02 0.000000000000000D+00 0.000000000000000D+00 0.840714373353689D+02
 0.840714373353689D+02 -.000000000000000D+00 -.000000000000000D+00 -.840714373353689D+02
 0.763742697469704D+02 0.142660190521469D+02 -.111909253928713D+02 -.548112485593784D+02
 0.266151693737838D+02 -.252746796785241D+02 -.274835554002528D+01 -.787428407976329D+01
 0.651534355499836D+02 0.110086606263772D+02 0.139392809328966D+02 0.626855326391417D+02
 0.000000000000000D+00 0.000000000000000D+00 0.000000000000000D+00 0.000000000000000D+00
 0.840714373353689D+02 0.000000000000000D+00 0.000000000000000D+00 0.840714373353689D+02
 0.840714373353689D+02 -.000000000000000D+00 -.000000000000000D+00 -.840714373353689D+02
 0.756319457823005D+02 0.144487165329455D+02 -.109595919366940D+02 -.537709322771010D+02
 0.264409513267242D+02 -.252109111045932D+02 -.266761110644883D+01 -.751117296587212D+01
 0.397037783061898D+02 0.266234845865466D+00 0.291713042249602D+01 0.395955740063465D+02
 0.263661992555233D+02 0.104959597257823D+02 0.107100726206468D+02 0.216865312366266D+02
0.143590516134D-06 0.000000000000D+00 0.000000000000D+00 0.151616419622D-05 0.000000000000D+00  6 -1 22 9900012 -11 -2 21 0 0.29176180D-02 0.57337902D-01 0.23218846D+04 0.23218846D+04 0.23218846D+04 0.12811973D+01  1  2  2  2  6  5       -2 0.134655961401D-04 0.100000000000D+01
0.161963126959D-07 0.000000000000D+00 -.275712695102D-09 0.151616419622D-05 0.000000000000D+00  6 -1 22 9900012 -11 -2 21 2 0.29176180D-02 0.57337902D-01 0.23218846D+04 0.23218846D+04 0.23218846D+04 0.12811973D+01  1  2  3  2  6  5       -2 0.249314768860D-05 0.100000000000D+01
-.189413907255D-07 0.000000000000D+00 0.000000000000D+00 0.151616419622D-05 0.000000000000D+00  6 -1 22 9900012 -11 -2 21 2 0.29176180D-02 0.57337902D-01 0.23218846D+04 0.23218846D+04 0.23218846D+04 0.12811973D+01  1  2 15  2  6  5       -2 -.291570590128D-05 0.100000000000D+01
0.241629836721D-06 0.000000000000D+00 0.000000000000D+00 0.151616419622D-05 0.000000000000D+00  6 -1 22 9900012 -11 -2 21 2 0.29176180D-02 0.57337902D-01 0.23263160D+04 0.23263160D+04 0.23263160D+04 0.12810947D+01  1  2 12  2  6  5       -2 0.371976604381D-04 0.100000000000D+01
-.339273838722D-07 0.000000000000D+00 0.000000000000D+00 0.151616419622D-05 0.000000000000D+00  6 -1 22 9900012 -11 -2 21 2 0.29176180D-02 0.57337902D-01 0.23218846D+04 0.23218846D+04 0.23218846D+04 0.12811973D+01  1  2  4  2  6  5       -2 -.522254541942D-05 0.100000000000D+01
-.235098757576D-06 0.000000000000D+00 0.000000000000D+00 0.151616419622D-05 0.000000000000D+00  6 -1 22 9900012 -11 -2 21 2 0.29176180D-02 0.57337902D-01 0.23218846D+04 0.23218846D+04 0.23218846D+04 0.12811973D+01  1  2  5  2  6  5       -2 -.361894670133D-04 0.100000000000D+01
0.347161012840D-06 0.000000000000D+00 -.000000000000D+00 0.151616419622D-05 0.000000000000D+00  6 -1 22 9900012 -11 -2 21 2 0.29176180D-02 0.57337902D-01 0.23218846D+04 0.23218846D+04 0.23218846D+04 0.12811973D+01  1  2  6  2  6  5       -2 0.534395509019D-04 0.100000000000D+01
0.264758434739D-10 0.000000000000D+00 0.000000000000D+00 0.151616419622D-05 0.109734025333D-07  6 -1 22 9900012 -11 -2 21 2 0.29176180D-02 0.57337902D-01 0.23263160D+04 0.23263160D+04 0.23263160D+04 0.12810947D+01  1  2 11  2  6  5       -2 0.407581881742D-08 0.100000000000D+01
  </mgrwgt>
  </event>
  <event>
  6     66 0.20026351E-05 0.28778364E+02 0.78161638E-02 0.12502851E+00
       -1 -1    0    0    0  501 0.00000000E+00 0.00000000E+00 0.40442909E+03 0.40442909E+03 0.00000000E+00 0.0000E+00 0.9000E+01
       22 -1    0    0    0    0 0.00000000E+00 0.00000000E+00 -.13784557E+03 0.13784557E+03 0.00000000E+00 0.0000E+00 0.9000E+01
       24  2    1    2    0    0 0.30626219E+02 0.55229069E+01 -.12428412E+03 0.15017011E+03 0.78332953E+02 0.0000E+00 0.0000E+00
  9900012  1    3    3    0    0 0.46309891E+02 0.69842607E+01 -.99503777E+02 0.12080723E+03 0.50000000E+02 0.0000E+00 0.9000E+01
      -11  1    3    3    0    0 -.15683672E+02 -.14613538E+01 -.24780342E+02 0.29362876E+02 0.00000000E+00 0.0000E+00 0.9000E+01
       -2  1    1    2    0  501 -.30626219E+02 -.55229069E+01 0.39086764E+03 0.39210456E+03 0.00000000E+00 0.0000E+00 0.9000E+01
#aMCatNLO 1  0  0  5  1 0.92937127D+01 0.00000000D+00  -5  6  0 0.00000000D+00 0.00000000D+00 0.00000000D+00 0.00000000D+00 0.00000000D+00
  <mgrwgt>
 0.2437582812D-03    8    2    0
 0.236111751053780D+03 0.000000000000000D+00 0.000000000000000D+00 0.236111751053780D+03
 0.236111751053780D+03 -.000000000000000D+00 -.000000000000000D+00 -.236111751053780D+03
 0.194900865603926D+03 0.463098910085805D+02 0.698426068736865D+01 -.182463589547570D+03
 0.477078635898863D+02 -.156836720629205D+02 -.146135382729708D+01 -.450325118544969D+02
 0.229614772913748D+03 -.306262189456600D+02 -.552290686007156D+01 0.227496101402067D+03
 0.000000000000000D+00 0.000000000000000D+00 0.000000000000000D+00 0.000000000000000D+00
 0.236111751053780D+03 0.000000000000000D+00 0.000000000000000D+00 0.236111751053780D+03
 0.236111751053780D+03 -.000000000000000D+00 -.000000000000000D+00 -.236111751053780D+03
 0.192366986204616D+03 0.459576785542226D+02 0.692074528627303D+01 -.179847303143628D+03
 0.471328233084329D+02 -.157699277925129D+02 -.147690855057297D+01 -.443917914886990D+02
 0.225663588623703D+03 -.347514372359171D+02 -.208249199927464D+00 0.222971633785190D+03
 0.706010397080860D+01 0.456368647420742D+01 -.523558753577259D+01 0.126746084713739D+01
0.226499187640D-04 0.000000000000D+00 0.000000000000D+00 0.270240359397D-04 0.000000000000D+00  6 -1 22 9900012 -11 -2 21 0 0.62219861D-01 0.21207011D-01 0.33281426D+04 0.33281426D+04 0.33281426D+04 0.12622500D+01  1  2  2  2  6  5       -2 0.102633119584D-03 0.100000000000D+01
0.189163413202D-05 0.000000000000D+00 -.434908259572D-07 0.270240359397D-04 0.000000000000D+00  6 -1 22 9900012 -11 -2 21 2 0.62219861D-01 0.21207011D-01 0.33281426D+04 0.33281426D+04 0.33281426D+04 0.12622500D+01  1  2  3  2  6  5       -2 0.136567938239D-04 0.100000000000D+01
-.308873907603D-05 0.000000000000D+00 0.000000000000D+00 0.270240359397D-04 0.000000000000D+00  6 -1 22 9900012 -11 -2 21 2 0.62219861D-01 0.21207011D-01 0.33281426D+04 0.33281426D+04 0.33281426D+04 0.12622500D+01  1  2 15  2  6  5       -2 -.222993823295D-04 0.100000000000D+01
0.174357048847D-04 0.000000000000D+00 0.000000000000D+00 0.270240359397D-04 0.000000000000D+00  6 -1 22 9900012 -11 -2 21 2 0.62219861D-01 0.21207011D-01 0.39564495D+04 0.39564495D+04 0.39564495D+04 0.12534570D+01  1  2 12  2  6  5       -2 0.125267613692D-03 0.100000000000D+01
-.923978397588D-07 0.000000000000D+00 0.000000000000D+00 0.270240359397D-04 0.000000000000D+00  6 -1 22 9900012 -11 -2 21 2 0.62219861D-01 0.21207011D-01 0.33281426D+04 0.33281426D+04 0.33281426D+04 0.12622500D+01  1  2  4  2  6  5       -2 -.667073101508D-06 0.100000000000D+01
-.111657109416D-03 0.000000000000D+00 0.000000000000D+00 0.270240359397D-04 0.000000000000D+00  6 -1 22 9900012 -11 -2 21 2 0.62219861D-01 0.21207011D-01 0.33281426D+04 0.33281426D+04 0.33281426D+04 0.12622500D+01  1  2  5  2  6  5       -2 -.806116836475D-03 0.100000000000D+01
0.115143053363D-03 0.000000000000D+00 -.000000000000D+00 0.270240359397D-04 0.000000000000D+00  6 -1 22 9900012 -11 -2 21 2 0.62219861D-01 0.21207011D-01 0.33281426D+04 0.33281426D+04 0.33281426D+04 0.12622500D+01  1  2  6  2  6  5       -2 0.831283869020D-03 0.100000000000D+01
0.246359785186D-10 0.000000000000D+00 0.000000000000D+00 0.270240359397D-04 0.268641382641D-07  6 -1 22 9900012 -11 -2 21 2 0.62219861D-01 0.21207011D-01 0.39564495D+04 0.39564495D+04 0.39564495D+04 0.12534570D+01  1  2 11  2  6  5       -2 0.176998306659D-09 0.100000000000D+01
  </mgrwgt>
  </event>
  <event>
  6     66 0.20026351E-05 0.13998370E+02 0.78161638E-02 0.11366846E+00
       -1 -1    0    0    0  501 0.00000000E+00 0.00000000E+00 0.85628744E+02 0.85628744E+02 0.00000000E+00 0.0000E+00 0.9000E+01
       22 -1    0    0    0    0 0.00000000E+00 0.00000000E+00 -.30631909E+03 0.30631909E+03 0.00000000E+00 0.0000E+00 0.9000E+01
       24  2    1    2    0    0 0.44062036E+01 0.13286826E+02 -.30014866E+03 0.31126588E+03 0.81248220E+02 0.0000E+00 0.0000E+00
  9900012  1    3    3    0    0 -.14789860E+02 0.16733803E+02 -.14678600E+03 0.15666809E+03 0.50000000E+02 0.0000E+00 0.9000E+01
      -11  1    3    3    0    0 0.19196064E+02 -.34469777E+01 -.15336266E+03 0.15459779E+03 0.00000000E+00 0.0000E+00 0.9000E+01
       -2  1    1    2    0  501 -.44062036E+01 -.13286826E+02 0.79458315E+02 0.80681957E+02 0.00000000E+00 0.0000E+00 0.9000E+01
#aMCatNLO 1  0  0  1  5 0.64272417D+01 0.00000000D+00  -5  6  0 0.00000000D+00 0.00000000D+00 0.00000000D+00 0.00000000D+00 0.00000000D+00
  <mgrwgt>
 0.3539357960D-04    7    4    0
 0.161955917623089D+03 0.000000000000000D+00 0.000000000000000D+00 0.161955917623089D+03
 0.161955917623089D+03 0.000000000000000D+00 0.000000000000000D+00 -.161955917623089D+03
 0.895659316864620D+02 -.147898600524948D+02 0.167338032946347D+02 -.708752141851302D+02
 0.825799087653700D+02 0.191960636235555D+02 -.344697772074936D+01 -.802438210558912D+02
 0.151765994794346D+03 -.440620357106075D+01 -.132868255738854D+02 0.151119035241021D+03
 0.000000000000000D+00 -.000000000000000D+00 0.000000000000000D+00 0.000000000000000D+00
 0.225694937182382D+03 0.000000000000000D+00 0.000000000000000D+00 0.225694937182382D+03
 0.208079444993473D+03 0.000000000000000D+00 0.000000000000000D+00 -.208079444993473D+03
 0.889489264558727D+02 0.107654000550242D+02 0.165142875571266D+02 -.708752141851302D+02
 0.916553217944225D+02 0.441386744694205D+02 -.366123089571890D+01 -.802438210558912D+02
 0.156862414270181D+03 0.397754368385301D+02 -.136663390414856D+02 0.151119035241021D+03
 0.963077196553782D+02 -.946795113629748D+02 0.813282380077911D+00 0.176154921889090D+02
 0.161955917623089D+03 0.000000000000000D+00 0.000000000000000D+00 0.161955917623089D+03
 0.161955917623089D+03 0.000000000000000D+00 0.000000000000000D+00 -.161955917623089D+03
 0.895659316864620D+02 -.147898600524948D+02 0.167338032946347D+02 -.708752141851302D+02
 0.825799087653700D+02 0.191960636235555D+02 -.344697772074936D+01 -.802438210558912D+02
 0.000000000000000D+00 -.000000000000000D+00 0.000000000000000D+00 0.000000000000000D+00
 0.151765994794346D+03 -.440620357106075D+01 -.132868255738854D+02 0.151119035241021D+03
 0.225694937182382D+03 0.000000000000000D+00 0.000000000000000D+00 0.225694937182382D+03
 0.208079444993473D+03 0.000000000000000D+00 0.000000000000000D+00 -.208079444993473D+03
 0.889489264558727D+02 0.107654000550242D+02 0.165142875571266D+02 -.708752141851302D+02
 0.916553217944225D+02 0.441386744694205D+02 -.366123089571890D+01 -.802438210558912D+02
 0.963077196553782D+02 -.946795113629748D+02 0.813282380077911D+00 0.176154921889090D+02
 0.156862414270181D+03 0.397754368385301D+02 -.136663390414856D+02 0.151119035241021D+03
0.159006905687D-05 0.000000000000D+00 0.000000000000D+00 0.894312656832D-05 0.000000000000D+00  6 -1 22 9900012 -11 -2 21 0 0.13173653D-01 0.47126014D-01 0.19475626D+04 0.19475626D+04 0.19475626D+04 0.12907725D+01  1  2  2  1  6  1       -1 0.235393796480D-04 0.100000000000D+01
0.293666649145D-06 0.000000000000D+00 -.305314192658D-08 0.894312656832D-05 0.000000000000D+00  6 -1 22 9900012 -11 -2 21 2 0.13173653D-01 0.47126014D-01 0.19475626D+04 0.19475626D+04 0.19475626D+04 0.12907725D+01  1  2  3  1  6  1       -1 0.724324317775D-05 0.100000000000D+01
-.219824561034D-06 0.000000000000D+00 0.000000000000D+00 0.894312656832D-05 0.000000000000D+00  6 -1 22 9900012 -11 -2 21 2 0.13173653D-01 0.47126014D-01 0.19475626D+04 0.19475626D+04 0.19475626D+04 0.12907725D+01  1  2 15  1  6  1       -1 -.542193932015D-05 0.100000000000D+01
-.127219375222D-08 0.000000000000D+00 0.000000000000D+00 0.894312656832D-05 0.000000000000D+00  6 -1 22 9900012 -11 -2 21 2 0.13173653D-01 0.47126014D-01 0.19475626D+04 0.19475626D+04 0.19475626D+04 0.12907725D+01  1  2  4  1  6  1       -1 -.313784651522D-07 0.100000000000D+01
0.633851958964D-06 0.000000000000D+00 -.534644523586D-06 0.894312656832D-05 0.000000000000D+00  6 -1 22 9900012 -11 -2 21 2 0.23373535D-01 0.47126014D-01 0.19475626D+04 0.19475626D+04 0.19475626D+04 0.12907725D+01  1  2  5  1  6  1       -1 0.664324355711D-05 0.100000000000D+01
-.213891340422D-06 0.000000000000D+00 0.457375929351D-06 0.894312656832D-05 0.000000000000D+00  6 -1 22 9900012 -11 -2 21 2 0.13173653D-01 0.47126014D-01 0.19475626D+04 0.19475626D+04 0.19475626D+04 0.12907725D+01  1  2  6  1  6  1       -1 -.527559733733D-05 0.100000000000D+01
0.677836844402D-07 0.000000000000D+00 -.337370540287D-07 0.894312656832D-05 0.000000000000D+00  6 21 22 9900012 -11 1 -2 2 0.23373535D-01 0.47126014D-01 0.19475626D+04 0.19475626D+04 0.19475626D+04 0.12907725D+01  3  4  5  3  5  1       -1 0.869662833493D-05 0.100000000000D+01
  </mgrwgt>
  </event>
  <event>
  6     66 0.20026351E-05 0.67551551E+02 0.78161638E-02 0.11060398E+00
       -1 -1    0    0    0  501 0.00000000E+00 0.00000000E+00 0.16245685E+04 0.16245685E+04 0.00000000E+00 0.0000E+00 0.9000E+01
       22 -1    0    0    0    0 0.00000000E+00 0.00000000E+00 -.13202183E+03 0.13202183E+03 0.00000000E+00 0.0000E+00 0.9000E+01
       24  2    1    2    0    0 0.11378960E+03 -.46161518E+02 -.88725093E+02 0.17055775E+03 0.78350772E+02 0.0000E+00 0.0000E+00
  9900012  1    3    3    0    0 0.96381046E+02 -.55403420E+02 -.60374561E+02 0.13602916E+03 0.50000000E+02 0.0000E+00 0.9000E+01
      -11  1    3    3    0    0 0.17408556E+02 0.92419017E+01 -.28350532E+02 0.34528586E+02 0.00000000E+00 0.0000E+00 0.9000E+01
       -2  1    1    2    0  501 -.11378960E+03 0.46161518E+02 0.15812718E+04 0.15860326E+04 0.00000000E+00 0.0000E+00 0.9000E+01
#aMCatNLO 1  0  0  1  5 0.18441542D+02 0.00000000D+00  -5  6  0 0.00000000D+00 0.00000000D+00 0.00000000D+00 0.00000000D+00 0.00000000D+00
  <mgrwgt>
 0.1422189771D-03    9    4    0
 0.463118242265817D+03 0.000000000000000D+00 0.000000000000000D+00 0.463118242265817D+03
 0.463118242265817D+03 0.000000000000000D+00 0.000000000000000D+00 -.463118242265817D+03
 0.355264953145569D+03 0.963810456379439D+02 -.554034195837136D+02 -.333697980326059D+03
 0.111167153108739D+03 0.174085559764002D+02 0.924190168002274D+01 -.109405965844899D+03
 0.459804378277326D+03 -.113789601614344D+03 0.461615179036909D+02 0.443103946170957D+03
 0.000000000000000D+00 0.000000000000000D+00 -.000000000000000D+00 0.000000000000000D+00
 0.501211845547796D+03 0.000000000000000D+00 0.000000000000000D+00 0.501211845547796D+03
 0.465315605573601D+03 0.000000000000000D+00 0.000000000000000D+00 -.465315605573601D+03
 0.354040032673216D+03 0.955425788965999D+02 -.485964842282638D+02 -.333697980326059D+03
 0.111324179391458D+03 0.171455498136516D+02 0.113770680016418D+02 -.109405965844899D+03
 0.461045481176172D+03 -.114878134750808D+03 0.549985704984070D+02 0.443103946170957D+03
 0.401177578805519D+02 0.219000604055687D+01 -.177791542717849D+02 0.358962399741948D+02
 0.463118242265817D+03 0.000000000000000D+00 0.000000000000000D+00 0.463118242265817D+03
 0.463118242265817D+03 0.000000000000000D+00 0.000000000000000D+00 -.463118242265817D+03
 0.355264953145569D+03 0.963810456379439D+02 -.554034195837136D+02 -.333697980326059D+03
 0.111167153108739D+03 0.174085559764002D+02 0.924190168002274D+01 -.109405965844899D+03
 0.000000000000000D+00 0.000000000000000D+00 -.000000000000000D+00 0.000000000000000D+00
 0.459804378277326D+03 -.113789601614344D+03 0.461615179036909D+02 0.443103946170957D+03
 0.501211845547796D+03 0.000000000000000D+00 0.000000000000000D+00 0.501211845547796D+03
 0.465315605573601D+03 0.000000000000000D+00 0.000000000000000D+00 -.465315605573601D+03
 0.354040032673216D+03 0.955425788965999D+02 -.485964842282638D+02 -.333697980326059D+03
 0.111324179391458D+03 0.171455498136516D+02 0.113770680016418D+02 -.109405965844899D+03
 0.401177578805519D+02 0.219000604055687D+01 -.177791542717849D+02 0.358962399741948D+02
 0.461045481176172D+03 -.114878134750808D+03 0.549985704984070D+02 0.443103946170957D+03
0.823437261423D-04 0.000000000000D+00 0.000000000000D+00 0.350425093414D-04 0.000000000000D+00  6 -1 22 9900012 -11 -2 21 0 0.24993362D+00 0.20311050D-01 0.17477228D+05 0.17477228D+05 0.17477228D+05 0.11849719D+01  1  2  2  1  6  1       -1 0.992467970587D-05 0.100000000000D+01
0.891774009974D-06 0.000000000000D+00 -.158110794994D-06 0.350425093414D-04 0.000000000000D+00  6 -1 22 9900012 -11 -2 21 2 0.24993362D+00 0.20311050D-01 0.17477228D+05 0.17477228D+05 0.17477228D+05 0.11849719D+01  1  2  3  1  6  1       -1 0.150923511138D-06 0.100000000000D+01
-.120731528532D-04 0.000000000000D+00 0.000000000000D+00 0.350425093414D-04 0.000000000000D+00  6 -1 22 9900012 -11 -2 21 2 0.24993362D+00 0.20311050D-01 0.17477228D+05 0.17477228D+05 0.17477228D+05 0.11849719D+01  1  2 15  1  6  1       -1 -.204325602532D-05 0.100000000000D+01
0.847213971346D-03 0.000000000000D+00 0.000000000000D+00 0.350425093414D-04 0.000000000000D+00  6 -1 22 9900012 -11 -2 21 2 0.27177521D+00 0.20311050D-01 0.20183129D+05 0.20183129D+05 0.20183129D+05 0.11789362D+01  1  2 12  1  6  1       -1 0.946414090541D-04 0.100000000000D+01
-.106059579043D-03 0.000000000000D+00 0.000000000000D+00 0.350425093414D-04 0.000000000000D+00  6 -1 22 9900012 -11 -2 21 2 0.24993362D+00 0.20311050D-01 0.17477228D+05 0.17477228D+05 0.17477228D+05 0.11849719D+01  1  2  4  1  6  1       -1 -.179494848245D-04 0.100000000000D+01
-.108497510115D-02 0.000000000000D+00 -.101536804090D-03 0.350425093414D-04 0.000000000000D+00  6 -1 22 9900012 -11 -2 21 2 0.27096793D+00 0.20311050D-01 0.17477228D+05 0.17477228D+05 0.17477228D+05 0.11849719D+01  1  2  5  1  6  1       -1 -.124530226549D-03 0.100000000000D+01
0.108995005248D-02 0.000000000000D+00 0.101206212992D-03 0.350425093414D-04 0.000000000000D+00  6 -1 22 9900012 -11 -2 21 2 0.24993362D+00 0.20311050D-01 0.17477228D+05 0.17477228D+05 0.17477228D+05 0.11849719D+01  1  2  6  1  6  1       -1 0.184462752947D-03 0.100000000000D+01
0.124922706438D-04 0.000000000000D+00 0.000000000000D+00 0.350425093414D-04 0.000000000000D+00  6 21 22 9900012 -11 1 -2 2 0.27177521D+00 0.20311050D-01 0.20183129D+05 0.20183129D+05 0.20183129D+05 0.11789362D+01  3  4 12  3  5  1       -1 0.132360085047D-04 0.100000000000D+01
-.143970958556D-04 0.000000000000D+00 -.136832986957D-05 0.350425093414D-04 0.000000000000D+00  6 21 22 9900012 -11 1 -2 2 0.27096793D+00 0.20311050D-01 0.17477228D+05 0.17477228D+05 0.17477228D+05 0.11849719D+01  3  4  5  3  5  1       -1 -.156738292431D-04 0.100000000000D+01
  </mgrwgt>
  </event>
  <event>
  6     66 0.20026351E-05 0.25389817E+02 0.78161638E-02 0.12503175E+00
       -1 -1    0    0    0  501 0.00000000E+00 0.00000000E+00 0.66095925E+01 0.66095925E+01 0.00000000E+00 0.0000E+00 0.9000E+01
       22 -1    0    0    0    0 0.00000000E+00 0.00000000E+00 -.64395257E+03 0.64395257E+03 0.00000000E+00 0.0000E+00 0.9000E+01
       24  2    1    2    0    0 -.25239767E+02 0.27562595E+01 -.59561554E+03 0.60171729E+03 0.81616050E+02 0.0000E+00 0.0000E+00
  9900012  1    3    3    0    0 -.14558432E+02 -.23492165E+02 -.39485463E+03 0.39896617E+03 0.50000000E+02 0.0000E+00 0.9000E+01
      -11  1    3    3    0    0 -.10681336E+02 0.26248424E+02 -.20076092E+03 0.20275112E+03 0.00000000E+00 0.0000E+00 0.9000E+01
       -2  1    1    2    0  501 0.25239767E+02 -.27562595E+01 -.41727439E+02 0.48844877E+02 0.00000000E+00 0.0000E+00 0.9000E+01
#aMCatNLO 1  0  0  1  5 0.15324708D+02 0.00000000D+00  -5  6  0 0.00000000D+00 0.00000000D+00 0.00000000D+00 0.00000000D+00 0.00000000D+00
  <mgrwgt>
 0.7046089276D-04    9    4    0
 0.652400500617742D+02 0.000000000000000D+00 0.000000000000000D+00 0.652400500617742D+02
 0.652400500617742D+02 0.000000000000000D+00 0.000000000000000D+00 -.652400500617742D+02
 0.605032633365078D+02 -.145584317426559D+02 -.234921647846088D+02 -.199202192079812D+02
 0.302624402038117D+02 -.106813355244344D+02 0.262484242605181D+02 -.106181251802557D+02
 0.397143965832289D+02 0.252397672670904D+02 -.275625947590929D+01 0.305383443882369D+02
 0.000000000000000D+00 -.000000000000000D+00 -.000000000000000D+00 0.000000000000000D+00
 0.833515511359302D+02 0.000000000000000D+00 0.000000000000000D+00 0.833515511359302D+02
 0.683963883977572D+02 0.000000000000000D+00 0.000000000000000D+00 -.683963883977572D+02
 0.582018950962032D+02 -.140241701555621D+02 -.171454982704867D+02 -.199202192079812D+02
 0.331556494811019D+02 -.103959069070696D+02 0.296391232959015D+02 -.106181251802557D+02
 0.398759895017649D+02 0.255979832582791D+02 0.149910435899955D+01 0.305383443882369D+02
 0.205144054546174D+02 -.117790619564739D+01 -.139927293844144D+02 0.149551627381730D+02
 0.652400500617742D+02 0.000000000000000D+00 0.000000000000000D+00 0.652400500617742D+02
 0.652400500617742D+02 0.000000000000000D+00 0.000000000000000D+00 -.652400500617742D+02
 0.605032633365078D+02 -.145584317426559D+02 -.234921647846088D+02 -.199202192079812D+02
 0.302624402038117D+02 -.106813355244344D+02 0.262484242605181D+02 -.106181251802557D+02
 0.000000000000000D+00 -.000000000000000D+00 -.000000000000000D+00 0.000000000000000D+00
 0.397143965832289D+02 0.252397672670904D+02 -.275625947590929D+01 0.305383443882369D+02
 0.833515511359302D+02 0.000000000000000D+00 0.000000000000000D+00 0.833515511359302D+02
 0.683963883977572D+02 0.000000000000000D+00 0.000000000000000D+00 -.683963883977572D+02
 0.582018950962032D+02 -.140241701555621D+02 -.171454982704867D+02 -.199202192079812D+02
 0.331556494811019D+02 -.103959069070696D+02 0.296391232959015D+02 -.106181251802557D+02
 0.205144054546174D+02 -.117790619564739D+01 -.139927293844144D+02 0.149551627381730D+02
 0.398759895017649D+02 0.255979832582791D+02 0.149910435899955D+01 0.305383443882369D+02
0.146632961500D-06 0.000000000000D+00 0.000000000000D+00 0.965587120223D-07 0.000000000000D+00  6 -1 22 9900012 -11 -2 21 0 0.10168604D-02 0.99069627D-01 0.30723883D+04 0.30723883D+04 0.30723883D+04 0.12663826D+01  1  2  2  1  6  1       -1 0.229764552697D-04 0.100000000000D+01
0.595041595951D-08 0.000000000000D+00 -.281554590752D-09 0.965587120223D-07 0.000000000000D+00  6 -1 22 9900012 -11 -2 21 2 0.10168604D-02 0.99069627D-01 0.30723883D+04 0.30723883D+04 0.30723883D+04 0.12663826D+01  1  2  3  1  6  1       -1 0.149530095697D-05 0.100000000000D+01
-.188035561746D-07 0.000000000000D+00 0.000000000000D+00 0.965587120223D-07 0.000000000000D+00  6 -1 22 9900012 -11 -2 21 2 0.10168604D-02 0.99069627D-01 0.30723883D+04 0.30723883D+04 0.30723883D+04 0.12663826D+01  1  2 15  1  6  1       -1 -.472521177238D-05 0.100000000000D+01
0.234753381128D-06 0.000000000000D+00 0.000000000000D+00 0.965587120223D-07 0.000000000000D+00  6 -1 22 9900012 -11 -2 21 2 0.13620079D-02 0.99069627D-01 0.39551703D+04 0.39551703D+04 0.39551703D+04 0.12534733D+01  1  2 12  1  6  1       -1 0.399489024271D-04 0.100000000000D+01
-.515647839518D-07 0.000000000000D+00 0.000000000000D+00 0.965587120223D-07 0.000000000000D+00  6 -1 22 9900012 -11 -2 21 2 0.10168604D-02 0.99069627D-01 0.30723883D+04 0.30723883D+04 0.30723883D+04 0.12663826D+01  1  2  4  1  6  1       -1 -.129578959377D-04 0.100000000000D+01
-.345487709153D-06 0.000000000000D+00 -.766293484439D-07 0.965587120223D-07 0.000000000000D+00  6 -1 22 9900012 -11 -2 21 2 0.13624136D-02 0.99069627D-01 0.30723883D+04 0.30723883D+04 0.30723883D+04 0.12663826D+01  1  2  5  1  6  1       -1 -.580876837592D-04 0.100000000000D+01
0.355739924724D-06 0.000000000000D+00 0.734634229748D-07 0.965587120223D-07 0.000000000000D+00  6 -1 22 9900012 -11 -2 21 2 0.10168604D-02 0.99069627D-01 0.30723883D+04 0.30723883D+04 0.30723883D+04 0.12663826D+01  1  2  6  1  6  1       -1 0.893951369942D-04 0.100000000000D+01
0.890407959170D-08 0.000000000000D+00 0.000000000000D+00 0.965587120223D-07 0.000000000000D+00  6 21 22 9900012 -11 1 -2 2 0.13620079D-02 0.99069627D-01 0.39551703D+04 0.39551703D+04 0.39551703D+04 0.12534733D+01  3  4 12  3  5  1       -1 0.281848394106D-04 0.100000000000D+01
-.114618088850D-07 0.000000000000D+00 -.290865739737D-08 0.965587120223D-07 0.000000000000D+00  6 21 22 9900012 -11 1 -2 2 0.13624136D-02 0.99069627D-01 0.30723883D+04 0.30723883D+04 0.30723883D+04 0.12663826D+01  3  4  5  3  5  1       -1 -.357689508327D-04 0.100000000000D+01
  </mgrwgt>
  </event>
  <event>
  6     66 0.20026351E-05 0.44979370E+02 0.78161638E-02 0.11708412E+00
       -3 -1    0    0    0  501 0.00000000E+00 0.00000000E+00 0.75193498E+02 0.75193498E+02 0.00000000E+00 0.0000E+00 0.9000E+01
       22 -1    0    0    0    0 0.00000000E+00 0.00000000E+00 -.42370788E+03 0.42370788E+03 0.00000000E+00 0.0000E+00 0.9000E+01
       24  2    1    2    0    0 -.60460054E+02 0.49596084E+01 -.40436450E+03 0.41644380E+03 0.78960619E+02 0.0000E+00 0.0000E+00
  9900012  1    3    3    0    0 -.24116263E+02 -.14639487E+02 -.26174959E+03 0.26797156E+03 0.50000000E+02 0.0000E+00 0.9000E+01
      -11  1    3    3    0    0 -.36343792E+02 0.19599095E+02 -.14261491E+03 0.14847225E+03 0.00000000E+00 0.0000E+00 0.9000E+01
       -4  1    1    2    0  501 0.60460054E+02 -.49596084E+01 0.55850116E+02 0.82457573E+02 0.00000000E+00 0.0000E+00 0.9000E+01
#aMCatNLO 1  0  0  1  5 0.38288534D+02 0.00000000D+00  -5  6  0 0.00000000D+00 0.00000000D+00 0.00000000D+00 0.00000000D+00 0.00000000D+00
  <mgrwgt>
 0.3564984607D-04    9    4    0
 0.178493913807111D+03 0.000000000000000D+00 0.000000000000000D+00 0.178493913807111D+03
 0.178493913807111D+03 0.000000000000000D+00 0.000000000000000D+00 -.178493913807111D+03
 0.118961710875887D+03 -.241162625948723D+02 -.146394866140657D+02 -.104192034074827D+03
 0.682646847069061D+02 -.363437917968041D+02 0.195990949727633D+02 -.543605689099411D+02
 0.169761432031430D+03 0.604600543916764D+02 -.495960835869757D+01 0.158552602984768D+03
 0.000000000000000D+00 0.000000000000000D+00 0.000000000000000D+00 0.000000000000000D+00
 0.216498891777173D+03 0.000000000000000D+00 0.000000000000000D+00 0.216498891777173D+03
 0.187226615162387D+03 0.000000000000000D+00 0.000000000000000D+00 -.187226615162387D+03
 0.122217308623566D+03 -.337045803789027D+02 -.210971994354729D+02 -.104192034074827D+03
 0.704235312024030D+02 -.418574832024601D+02 0.158856348554015D+02 -.543605689099411D+02
 0.165991105471787D+03 0.471118699888340D+02 -.139495838165730D+02 0.158552602984768D+03
 0.450935616418035D+02 0.284501935925287D+02 0.191611483966444D+02 0.292722766147858D+02
 0.178493913807111D+03 0.000000000000000D+00 0.000000000000000D+00 0.178493913807111D+03
 0.178493913807111D+03 0.000000000000000D+00 0.000000000000000D+00 -.178493913807111D+03
 0.118961710875887D+03 -.241162625948723D+02 -.146394866140657D+02 -.104192034074827D+03
 0.682646847069061D+02 -.363437917968041D+02 0.195990949727633D+02 -.543605689099411D+02
 0.000000000000000D+00 0.000000000000000D+00 0.000000000000000D+00 0.000000000000000D+00
 0.169761432031430D+03 0.604600543916764D+02 -.495960835869757D+01 0.158552602984768D+03
 0.216498891777173D+03 0.000000000000000D+00 0.000000000000000D+00 0.216498891777173D+03
 0.187226615162387D+03 0.000000000000000D+00 0.000000000000000D+00 -.187226615162387D+03
 0.122217308623566D+03 -.337045803789027D+02 -.210971994354729D+02 -.104192034074827D+03
 0.704235312024030D+02 -.418574832024601D+02 0.158856348554015D+02 -.543605689099411D+02
 0.450935616418035D+02 0.284501935925287D+02 0.191611483966444D+02 0.292722766147858D+02
 0.165991105471787D+03 0.471118699888340D+02 -.139495838165730D+02 0.158552602984768D+03
0.153191432936D-05 0.000000000000D+00 0.000000000000D+00 0.689203134498D-05 0.000000000000D+00  6 -3 22 9900012 -11 -4 21 0 0.11568230D-01 0.65185827D-01 0.63492796D+04 0.63492796D+04 0.63492796D+04 0.12303359D+01  1  2  2  1  6  1       -3 0.143015020408D-04 0.100000000000D+01
0.403013006030D-07 0.000000000000D+00 -.294147719352D-08 0.689203134498D-05 0.000000000000D+00  6 -3 22 9900012 -11 -4 21 2 0.11568230D-01 0.65185827D-01 0.63492796D+04 0.63492796D+04 0.63492796D+04 0.12303359D+01  1  2  3  1  6  1       -3 0.569526099624D-06 0.100000000000D+01
-.212556258465D-06 0.000000000000D+00 0.000000000000D+00 0.689203134498D-05 0.000000000000D+00  6 -3 22 9900012 -11 -4 21 2 0.11568230D-01 0.65185827D-01 0.63492796D+04 0.63492796D+04 0.63492796D+04 0.12303359D+01  1  2 15  1  6  1       -3 -.300378238476D-05 0.100000000000D+01
0.161592815836D-05 0.000000000000D+00 0.000000000000D+00 0.689203134498D-05 0.000000000000D+00  6 -3 22 9900012 -11 -4 21 2 0.14717816D-01 0.65185827D-01 0.92245189D+04 0.92245189D+04 0.92245189D+04 0.12129808D+01  1  2 12  1  6  1       -3 0.154202867776D-04 0.100000000000D+01
-.191844521931D-06 0.000000000000D+00 0.000000000000D+00 0.689203134498D-05 0.000000000000D+00  6 -3 22 9900012 -11 -4 21 2 0.11568230D-01 0.65185827D-01 0.63492796D+04 0.63492796D+04 0.63492796D+04 0.12303359D+01  1  2  4  1  6  1       -3 -.271109022971D-05 0.100000000000D+01
-.286764125934D-05 0.000000000000D+00 -.935480331619D-06 0.689203134498D-05 0.000000000000D+00  6 -3 22 9900012 -11 -4 21 2 0.14675743D-01 0.65185827D-01 0.63492796D+04 0.63492796D+04 0.63492796D+04 0.12303359D+01  1  2  5  1  6  1       -3 -.274311987863D-04 0.100000000000D+01
0.302992176103D-05 0.000000000000D+00 0.909611043764D-06 0.689203134498D-05 0.000000000000D+00  6 -3 22 9900012 -11 -4 21 2 0.11568230D-01 0.65185827D-01 0.63492796D+04 0.63492796D+04 0.63492796D+04 0.12303359D+01  1  2  6  1  6  1       -3 0.428179611304D-04 0.100000000000D+01
0.531913907714D-07 0.000000000000D+00 0.000000000000D+00 0.689203134498D-05 0.000000000000D+00  6 21 22 9900012 -11 3 -4 2 0.14717816D-01 0.65185827D-01 0.92245189D+04 0.92245189D+04 0.92245189D+04 0.12129808D+01  3  4 12  3  5  1       -3 0.856551615760D-05 0.100000000000D+01
-.791094137469D-07 0.000000000000D+00 -.305207998617D-07 0.689203134498D-05 0.000000000000D+00  6 21 22 9900012 -11 3 -4 2 0.14675743D-01 0.65185827D-01 0.63492796D+04 0.63492796D+04 0.63492796D+04 0.12303359D+01  3  4  5  3  5  1       -3 -.128788747400D-04 0.100000000000D+01
  </mgrwgt>
  </event>
  <event>
  6     66 0.20026351E-05 0.66403269E+02 0.78161638E-02 0.11667163E+00
       -3 -1    0    0    0  501 0.00000000E+00 0.00000000E+00 0.14050328E+02 0.14050328E+02 0.00000000E+00 0.0000E+00 0.9000E+01
       22 -1    0    0    0    0 -.00000000E+00 -.00000000E+00 -.43258382E+04 0.43258382E+04 0.00000000E+00 0.0000E+00 0.9000E+01
       24  2    1    2    0    0 0.47343494E+02 -.46561654E+02 -.42430463E+04 0.42443124E+04 0.79600589E+02 0.0000E+00 0.0000E+00
  9900012  1    3    3    0    0 0.21552049E+02 -.34353216E+02 -.36619751E+04 0.36625409E+04 0.50000000E+02 0.0000E+00 0.9000E+01
      -11  1    3    3    0    0 0.25791445E+02 -.12208439E+02 -.58107126E+03 0.58177148E+03 0.00000000E+00 0.0000E+00 0.9000E+01
       -4  1    1    2    0  501 -.47343494E+02 0.46561654E+02 -.68741519E+02 0.95576098E+02 0.00000000E+00 0.0000E+00 0.9000E+01
#aMCatNLO 1  0  0  5  5 0.36377251D+02 0.00000000D+00  -5  6  0 0.00000000D+00 0.00000000D+00 0.00000000D+00 0.00000000D+00 0.00000000D+00
  <mgrwgt>
 0.5160534282D-05    4    2    0
 0.246534875467840D+03 0.000000000000000D+00 0.000000000000000D+00 0.246534875467840D+03
 0.246534875467840D+03 -.000000000000000D+00 -.000000000000000D+00 -.246534875467840D+03
 0.213681047131582D+03 0.215520491399903D+02 -.343532156342414D+02 -.203752191783805D+03
 0.392791402053165D+02 0.257914449669810D+02 -.122084387075250D+02 -.269927072763869D+02
 0.240109563598781D+03 -.473434941069713D+02 0.465616543417663D+02 0.230744899060191D+03
 0.000000000000000D+00 0.000000000000000D+00 -.000000000000000D+00 0.000000000000000D+00
 0.246534875467840D+03 0.000000000000000D+00 0.000000000000000D+00 0.246534875467840D+03
 0.246534875467840D+03 -.000000000000000D+00 -.000000000000000D+00 -.246534875467840D+03
 0.201435896805024D+03 0.190510554493187D+02 -.318935238448506D+02 -.191562733705356D+03
 0.373099708038825D+02 0.253300114210706D+02 -.117546253658686D+02 -.247437512374958D+02
 0.227481328498566D+03 -.388739547055568D+02 0.697130715122519D+02 0.213017976052141D+03
 0.268425548282065D+02 -.550711216483248D+01 -.260649223015328D+02 0.328850889071078D+01
0.131712612273D-03 0.000000000000D+00 0.000000000000D+00 0.423027174679D-04 0.000000000000D+00  6 -3 22 9900012 -11 -4 21 0 0.21615889D-02 0.66551357D+00 0.63454825D+04 0.63454825D+04 0.63454825D+04 0.12303643D+01  1  2  2  2  6  5       -4 0.655921626655D-05 0.100000000000D+01
0.260011478935D-05 0.000000000000D+00 -.252905555928D-06 0.423027174679D-04 0.000000000000D+00  6 -3 22 9900012 -11 -4 21 2 0.21615889D-02 0.66551357D+00 0.63454825D+04 0.63454825D+04 0.63454825D+04 0.12303643D+01  1  2  3  2  6  5       -4 0.196012854528D-06 0.100000000000D+01
-.185070649119D-04 0.000000000000D+00 0.000000000000D+00 0.423027174679D-04 0.000000000000D+00  6 -3 22 9900012 -11 -4 21 2 0.21615889D-02 0.66551357D+00 0.63454825D+04 0.63454825D+04 0.63454825D+04 0.12303643D+01  1  2 15  2  6  5       -4 -.139517787336D-05 0.100000000000D+01
-.264659689710D-05 0.000000000000D+00 0.000000000000D+00 0.423027174679D-04 0.000000000000D+00  6 -3 22 9900012 -11 -4 21 2 0.21615889D-02 0.66551357D+00 0.63454825D+04 0.63454825D+04 0.63454825D+04 0.12303643D+01  1  2  4  2  6  5       -4 -.199516965446D-06 0.100000000000D+01
  </mgrwgt>
  </event>
  <event>
  6     66 0.20026351E-05 0.11147254E+02 0.78161638E-02 0.13265854E+00
       -3 -1    0    0    0  501 0.00000000E+00 0.00000000E+00 0.50960293E+02 0.50960293E+02 0.00000000E+00 0.0000E+00 0.9000E+01
       22 -1    0    0    0    0 -.00000000E+00 -.00000000E+00 -.57680856E+02 0.57680856E+02 0.00000000E+00 0.0000E+00 0.9000E+01
       24  2    1    2    0    0 -.10596571E+02 -.34603402E+01 -.27609659E+02 0.84963826E+02 0.79575732E+02 0.0000E+00 0.0000E+00
  9900012  1    3    3    0    0 0.12927688E+02 -.56180602E+01 -.48735792E+01 0.52177002E+02 0.50000000E+02 0.0000E+00 0.9000E+01
      -11  1    3    3    0    0 -.23524259E+02 0.21577199E+01 -.22736080E+02 0.32786824E+02 0.00000000E+00 0.0000E+00 0.9000E+01
       -4  1    1    2    0  501 0.10596571E+02 0.34603402E+01 0.20889096E+02 0.23677323E+02 0.00000000E+00 0.0000E+00 0.9000E+01
#aMCatNLO 1  0  0  5  1 0.58607501D+01 0.00000000D+00  -5  6  0 0.00000000D+00 0.00000000D+00 0.00000000D+00 0.00000000D+00 0.00000000D+00
  <mgrwgt>
 0.3694555638D-04    6    2    0
 0.542165406439049D+02 0.000000000000000D+00 0.000000000000000D+00 0.542165406439049D+02
 0.542165406439049D+02 -.000000000000000D+00 -.000000000000000D+00 -.542165406439049D+02
 0.519750624123985D+02 0.129276881532278D+02 -.561806016850387D+01 -.164905783060541D+01
 0.314405799056824D+02 -.235242586954910D+02 0.215771992683171D+01 -.207476158232836D+02
 0.250174389697288D+02 0.105965705422632D+02 0.346034024167215D+01 0.223966736538891D+02
 0.000000000000000D+00 -.000000000000000D+00 0.000000000000000D+00 0.000000000000000D+00
 0.542165406439049D+02 0.000000000000000D+00 0.000000000000000D+00 0.542165406439049D+02
 0.542165406439049D+02 -.000000000000000D+00 -.000000000000000D+00 -.542165406439049D+02
 0.522367748095645D+02 0.141620387947556D+02 -.521497945666632D+01 0.959837979836753D+00
 0.299091596445475D+02 -.227975937369788D+02 0.239501443528841D+01 -.192117530772560D+02
 0.384005685664448D+01 0.108131416909451D+01 -.306086712986536D+01 -.205131390657000D+01
 0.224470899770533D+02 0.755424077312866D+01 0.588083215124327D+01 0.203032290039892D+02
0.102242265372D-06 0.000000000000D+00 0.000000000000D+00 0.141478331753D-06 0.000000000000D+00  6 -3 22 9900012 -11 -4 21 0 0.78400450D-02 0.88739778D-02 0.18800530D+04 0.18800530D+04 0.18800530D+04 0.12927219D+01  1  2  2  2  6  5       -4 0.318978239545D-04 0.100000000000D+01
0.110861959714D-07 0.000000000000D+00 -.196318610018D-09 0.141478331753D-06 0.000000000000D+00  6 -3 22 9900012 -11 -4 21 2 0.78400450D-02 0.88739778D-02 0.18800530D+04 0.18800530D+04 0.18800530D+04 0.12927219D+01  1  2  3  2  6  5       -4 0.577994024308D-05 0.100000000000D+01
-.137865977623D-07 0.000000000000D+00 0.000000000000D+00 0.141478331753D-06 0.000000000000D+00  6 -3 22 9900012 -11 -4 21 2 0.78400450D-02 0.88739778D-02 0.18800530D+04 0.18800530D+04 0.18800530D+04 0.12927219D+01  1  2 15  2  6  5       -4 -.718783173480D-05 0.100000000000D+01
0.578379622415D-08 0.000000000000D+00 0.000000000000D+00 0.141478331753D-06 0.000000000000D+00  6 -3 22 9900012 -11 -4 21 2 0.78400450D-02 0.88739778D-02 0.19347110D+04 0.19347110D+04 0.19347110D+04 0.12911376D+01  1  2 12  2  6  5       -4 0.302009495280D-05 0.100000000000D+01
-.588787409910D-09 0.000000000000D+00 0.000000000000D+00 0.141478331753D-06 0.000000000000D+00  6 -3 22 9900012 -11 -4 21 2 0.78400450D-02 0.88739778D-02 0.18800530D+04 0.18800530D+04 0.18800530D+04 0.12927219D+01  1  2  4  2  6  5       -4 -.306972387457D-06 0.100000000000D+01
0.716727967638D-08 0.000000000000D+00 0.000000000000D+00 0.141478331753D-06 0.207488349335D-07  6 -3 22 9900012 -11 -4 21 2 0.78400450D-02 0.88739778D-02 0.19347110D+04 0.19347110D+04 0.19347110D+04 0.12911376D+01  1  2 11  2  6  5       -4 0.374250134983D-05 0.100000000000D+01
  </mgrwgt>
  </event>
  <event>
  7     66 -.20026351E-05 0.46149632E+02 0.78161638E-02 0.12113831E+00
       -3 -1    0    0    0  502 0.00000000E+00 0.00000000E+00 0.43465430E+03 0.43465430E+03 0.00000000E+00 0.0000E+00 0.9000E+01
       22 -1    0    0    0    0 0.00000000E+00 0.00000000E+00 -.18384970E+02 0.18384970E+02 0.00000000E+00 0.0000E+00 0.9000E+01
       24  2    1    2    0    0 -.15440970E+02 -.42781624E+02 0.13211143E+03 0.16287059E+03 0.83694133E+02 0.0000E+00 0.0000E+00
  9900012  1    3    3    0    0 -.31554921E+02 -.50135079E+02 0.10890066E+03 0.13367345E+03 0.50000000E+02 0.0000E+00 0.9000E+01
      -11  1    3    3    0    0 0.16113951E+02 0.73534544E+01 0.23210773E+02 0.29197135E+02 0.00000000E+00 0.0000E+00 0.9000E+01
       -4  1    1    2    0  501 0.23469542E+02 0.44429777E+02 0.25364567E+03 0.25857484E+03 0.00000000E+00 0.0000E+00 0.9000E+01
       21  1    1    2  501  502 -.80285726E+01 -.16481524E+01 0.30512233E+02 0.31593841E+02 0.00000000E+00 0.0000E+00 0.9000E+01
#aMCatNLO 2  0  0  1  5 0.97381904D+01 0.00000000D+00  -5  6  0 0.00000000D+00 0.00000000D+00 0.00000000D+00 0.00000000D+00 0.00000000D+00
  <mgrwgt>
 -.1153117051D-04    2    2    0
 0.847651737353563D+02 0.000000000000000D+00 0.000000000000000D+00 0.847651737353563D+02
 0.847651737353563D+02 0.000000000000000D+00 0.000000000000000D+00 -.847651737353563D+02
 0.864909226164789D+02 -.355993120747093D+02 -.509653350999202D+02 -.334051387216105D+02
 0.189334072858993D+02 0.151986259025279D+02 0.716555111293142D+01 -.872528276772284D+01
 0.641060175683344D+02 0.204006861721814D+02 0.437997839869888D+02 0.421304214893333D+02
 0.000000000000000D+00 -.000000000000000D+00 -.000000000000000D+00 0.000000000000000D+00
 0.913936157848643D+02 0.000000000000000D+00 0.000000000000000D+00 0.913936157848643D+02
 0.874361563598264D+02 0.000000000000000D+00 0.000000000000000D+00 -.874361563598264D+02
 0.844105588099853D+02 -.315549207233243D+02 -.501350787747328D+02 -.334051387216105D+02
 0.197449556162479D+02 0.161139511244130D+02 0.735345443114356D+01 -.872528276772284D+01
 0.655728364678381D+02 0.234695421665461D+02 0.444297767050620D+02 0.421304214893333D+02
 0.910142125061949D+01 -.802857256763482D+01 -.164815236147277D+01 0.395745942503791D+01
-.259076780992D-06 0.000000000000D+00 0.000000000000D+00 0.308684316833D-07 0.000000000000D+00  6 -3 22 9900012 -11 -4 21 2 0.68976988D-01 0.27420538D-02 0.59040332D+04 0.59040332D+04 0.59040332D+04 0.12338026D+01  1  2 13  1  6  1       -3 -.143482200384D-04 0.100000000000D+01
0.495727717746D-07 0.000000000000D+00 0.000000000000D+00 0.308684316833D-07 0.793448437098D-09  6 -3 22 9900012 -11 -4 21 2 0.66869892D-01 0.28284570D-02 0.59040332D+04 0.59040332D+04 0.59040332D+04 0.12338026D+01  1  2  1  1  6  1       -3 0.281704952621D-05 0.100000000000D+01
  </mgrwgt>
  </event>
</LesHouchesEvents>
