<LesHouchesEvents version="3.0">
  <!--
  <scalesfunctionalform>
    muR  H_T/2 := sum_i mT(i)/2, i=final state
    muF1 H_T/2 := sum_i mT(i)/2, i=final state
    muF2 H_T/2 := sum_i mT(i)/2, i=final state
    QES  H_T/2 := sum_i mT(i)/2, i=final state
  </scalesfunctionalform>
PYTHIA8   
  -->
  <header>
       66
  </header>
  <init>
   2212   2212 0.65000000D+04 0.65000000D+04 -1 -1  82200  82200 -4   1
 0.10240151D-03 0.17517205D-05 0.19493620D-05     66
  </init>
  <event>
  6     66 0.19493620E-05 0.67608714E+01 0.78161638E-02 0.13764097E+00
        3 -1    0    0  501    0 0.00000000E+00 0.00000000E+00 0.53020854E+01 0.53020854E+01 0.00000000E+00 0.0000E+00 0.9000E+01
       22 -1    0    0    0    0 -.00000000E+00 -.00000000E+00 -.41300899E+03 0.41300899E+03 0.00000000E+00 0.0000E+00 0.9000E+01
      -24  2    1    2    0    0 0.36116564E+01 0.57153583E+01 -.40099399E+03 0.40878361E+03 0.79133759E+02 0.0000E+00 0.0000E+00
  9900012  1    3    3    0    0 -.75332204E+01 -.10468748E+01 -.38424670E+03 0.38756080E+03 0.50000000E+02 0.0000E+00 0.9000E+01
       13  1    3    3    0    0 0.11144877E+02 0.67622331E+01 -.16747285E+02 0.21222809E+02 0.00000000E+00 0.0000E+00 0.9000E+01
        4  1    1    2  501    0 -.36116564E+01 -.57153583E+01 -.67129216E+01 0.95274708E+01 0.00000000E+00 0.0000E+00 0.9000E+01
#aMCatNLO 1  0  0  5  1 0.14699060D+01 0.00000000D+00  -5  6  0 0.00000000D+00 0.00000000D+00 0.00000000D+00 0.00000000D+00 0.00000000D+00
  <mgrwgt>
 0.7209680129D-04    6    2    0
 0.467953947605837D+02 0.000000000000000D+00 0.000000000000000D+00 0.467953947605837D+02
 0.467953947605837D+02 -.000000000000000D+00 -.000000000000000D+00 -.467953947605837D+02
 0.583491328078556D+02 -.753322042206784D+01 -.104687478551444D+01 -.290994148168784D+02
 0.219012193654792D+02 0.111448768352313D+02 0.676223309410845D+01 0.175990719528988D+02
 0.133404373478326D+02 -.361165641316347D+01 -.571535830859400D+01 0.115003428639796D+02
 0.000000000000000D+00 0.000000000000000D+00 0.000000000000000D+00 0.000000000000000D+00
 0.467953947605837D+02 0.000000000000000D+00 0.000000000000000D+00 0.467953947605837D+02
 0.467953947605837D+02 -.000000000000000D+00 -.000000000000000D+00 -.467953947605837D+02
 0.580883605829444D+02 -.771789279365679D+01 -.133911431568729D+01 -.285113756049986D+02
 0.220111898077558D+02 0.110752308087836D+02 0.665201995354837D+01 0.178208408842799D+02
 0.123644620621823D+02 -.437726395821724D+01 -.488129134525003D+01 0.104829612767588D+02
 0.112677706828482D+01 0.101992594309047D+01 -.431614292611038D+00 0.207573443960008D+00
0.156505894422D-06 0.000000000000D+00 0.000000000000D+00 0.255706476140D-06 0.000000000000D+00  6 3 22 9900012 13 4 21 0 0.81570545D-03 0.63539845D-01 0.12380536D+04 0.12380536D+04 0.12380536D+04 0.13165183D+01  1  2  2  2  6  5        4 0.603410976870D-04 0.100000000000D+01
0.170813260809D-07 0.000000000000D+00 -.300511921764D-09 0.255706476140D-06 0.000000000000D+00  6 3 22 9900012 13 4 21 2 0.81570545D-03 0.63539845D-01 0.12380536D+04 0.12380536D+04 0.12380536D+04 0.13165183D+01  1  2  3  2  6  5        4 0.114145270563D-04 0.100000000000D+01
-.240054896089D-08 0.000000000000D+00 0.000000000000D+00 0.255706476140D-06 0.000000000000D+00  6 3 22 9900012 13 4 21 2 0.81570545D-03 0.63539845D-01 0.12380536D+04 0.12380536D+04 0.12380536D+04 0.13165183D+01  1  2 15  2  6  5        4 -.160415713243D-05 0.100000000000D+01
0.463226226692D-11 0.000000000000D+00 0.000000000000D+00 0.255706476140D-06 0.000000000000D+00  6 3 22 9900012 13 4 21 2 0.81570545D-03 0.63539845D-01 0.12671185D+04 0.12671185D+04 0.12671185D+04 0.13151606D+01  1  2 12  2  6  5        4 0.310112718461D-08 0.100000000000D+01
-.444646564951D-07 0.000000000000D+00 0.000000000000D+00 0.255706476140D-06 0.000000000000D+00  6 3 22 9900012 13 4 21 2 0.81570545D-03 0.63539845D-01 0.12380536D+04 0.12380536D+04 0.12380536D+04 0.13165183D+01  1  2  4  2  6  5        4 -.297133268346D-04 0.100000000000D+01
0.472850175269D-07 0.000000000000D+00 0.000000000000D+00 0.255706476140D-06 0.168610154810D-06  6 3 22 9900012 13 4 21 2 0.81570545D-03 0.63539845D-01 0.12671185D+04 0.12671185D+04 0.12671185D+04 0.13151606D+01  1  2 11  2  6  5        4 0.316555593850D-04 0.100000000000D+01
  </mgrwgt>
  </event>
  <event>
  6     66 0.19493620E-05 0.11111628E+02 0.78161638E-02 0.13040061E+00
        1 -1    0    0  501    0 0.00000000E+00 0.00000000E+00 0.41399789E+03 0.41399789E+03 0.00000000E+00 0.0000E+00 0.9000E+01
       22 -1    0    0    0    0 0.00000000E+00 0.00000000E+00 -.78693371E+01 0.78693371E+01 0.00000000E+00 0.0000E+00 0.9000E+01
      -24  2    1    2    0    0 -.19280635E+01 0.10943073E+02 0.40198341E+03 0.41000761E+03 0.79950676E+02 0.0000E+00 0.0000E+00
  9900012  1    3    3    0    0 0.21075175E+02 -.88577264E+00 0.24812936E+03 0.25399434E+03 0.50000000E+02 0.0000E+00 0.9000E+01
       13  1    3    3    0    0 -.23003239E+02 0.11828846E+02 0.15385405E+03 0.15601327E+03 0.00000000E+00 0.0000E+00 0.9000E+01
        2  1    1    2  501    0 0.19280635E+01 -.10943073E+02 0.41451420E+01 0.11859616E+02 0.00000000E+00 0.0000E+00 0.9000E+01
#aMCatNLO 1  0  0  1  5 0.10116988D+02 0.00000000D+00  -5  6  0 0.00000000D+00 0.00000000D+00 0.00000000D+00 0.00000000D+00 0.00000000D+00
  <mgrwgt>
 0.3032015643D-03    6    2    0
 0.570779199859153D+02 0.000000000000000D+00 0.000000000000000D+00 0.570779199859153D+02
 0.570779199859153D+02 0.000000000000000D+00 0.000000000000000D+00 -.570779199859153D+02
 0.558838845521121D+02 0.210751752332983D+02 -.885772640922573D+00 0.133439480045510D+02
 0.291913352890593D+02 -.230032387178433D+02 0.118288458294530D+02 0.135300950030378D+02
 0.290806201306592D+02 0.192806348454501D+01 -.109430731885304D+02 -.268740430075888D+02
 0.000000000000000D+00 -.000000000000000D+00 -.000000000000000D+00 -.000000000000000D+00
 0.602571920329843D+02 0.000000000000000D+00 0.000000000000000D+00 0.602571920329843D+02
 0.609428158146605D+02 0.000000000000000D+00 0.000000000000000D+00 -.609428158146605D+02
 0.563233703480541D+02 0.221136001328813D+02 0.229124162386523D+01 0.133439480045510D+02
 0.294874731738614D+02 -.224601941897513D+02 0.134902661332766D+02 0.135300950030378D+02
 0.285477613752872D+02 0.246138680959817D+01 -.931139446807761D+01 -.268740430075888D+02
 0.684140295044207D+01 -.211479275272818D+01 -.647011328906425D+01 -.685623781676243D+00
0.351123432918D-06 0.000000000000D+00 0.000000000000D+00 0.756490970013D-06 0.000000000000D+00  6 1 22 9900012 13 2 21 0 0.63691983D-01 0.12106672D-02 0.20814307D+04 0.20814307D+04 0.20814307D+04 0.12871250D+01  1  2  2  1  6  1        1 0.171423773871D-03 0.100000000000D+01
-.167366108337D-07 0.000000000000D+00 -.674203217663D-09 0.756490970013D-06 0.000000000000D+00  6 1 22 9900012 13 2 21 2 0.63691983D-01 0.12106672D-02 0.20814307D+04 0.20814307D+04 0.20814307D+04 0.12871250D+01  1  2  3  1  6  1        1 -.135369308585D-04 0.100000000000D+01
0.196639998984D-07 0.000000000000D+00 0.000000000000D+00 0.756490970013D-06 0.000000000000D+00  6 1 22 9900012 13 2 21 2 0.63691983D-01 0.12106672D-02 0.20814307D+04 0.20814307D+04 0.20814307D+04 0.12871250D+01  1  2 15  1  6  1        1 0.159046661042D-04 0.100000000000D+01
0.310598478973D-06 0.000000000000D+00 0.000000000000D+00 0.756490970013D-06 0.000000000000D+00  6 1 22 9900012 13 2 21 2 0.71792636D-01 0.12106672D-02 0.23696534D+04 0.23696534D+04 0.23696534D+04 0.12801025D+01  1  2 12  1  6  1        1 0.216525547769D-03 0.100000000000D+01
-.125643041613D-06 0.000000000000D+00 0.000000000000D+00 0.756490970013D-06 0.000000000000D+00  6 1 22 9900012 13 2 21 2 0.63691983D-01 0.12106672D-02 0.20814307D+04 0.20814307D+04 0.20814307D+04 0.12871250D+01  1  2  4  1  6  1        1 -.101622794726D-03 0.100000000000D+01
0.588178873687D-08 0.000000000000D+00 0.000000000000D+00 0.756490970013D-06 0.000000000000D+00  6 21 22 9900012 13 2 -1 2 0.71792636D-01 0.12106672D-02 0.23696534D+04 0.23696534D+04 0.23696534D+04 0.12801025D+01  1  2 12  3  6  1        1 0.145073021088D-04 0.100000000000D+01
  </mgrwgt>
  </event>
  <event>
  6     66 -.19493620E-05 0.11241670E+02 0.78161638E-02 0.12899959E+00
        3 -1    0    0  501    0 0.00000000E+00 0.00000000E+00 0.21402235E+03 0.21402235E+03 0.00000000E+00 0.0000E+00 0.9000E+01
       22 -1    0    0    0    0 0.00000000E+00 0.00000000E+00 -.10628525E+03 0.10628525E+03 0.00000000E+00 0.0000E+00 0.9000E+01
      -24  2    1    2    0    0 -.81618355E+01 -.77304324E+01 0.20471375E+03 0.22268155E+03 0.86907874E+02 0.0000E+00 0.0000E+00
  9900012  1    3    3    0    0 -.13029799E+02 0.15745076E+02 0.85889527E+02 0.10146277E+03 0.50000000E+02 0.0000E+00 0.9000E+01
       13  1    3    3    0    0 0.48679636E+01 -.23475509E+02 0.11882422E+03 0.12121878E+03 0.00000000E+00 0.0000E+00 0.9000E+01
        4  1    1    2  501    0 0.81618355E+01 0.77304324E+01 -.96976652E+02 0.97626053E+02 0.00000000E+00 0.0000E+00 0.9000E+01
#aMCatNLO 1  0  0  5  1 0.12121428D+02 0.00000000D+00  -5  6  0 0.00000000D+00 0.00000000D+00 0.00000000D+00 0.00000000D+00 0.00000000D+00
  <mgrwgt>
 -.3691513823D-04    6    2    0
 0.150822476877634D+03 0.000000000000000D+00 0.000000000000000D+00 0.150822476877634D+03
 0.150822476877634D+03 -.000000000000000D+00 -.000000000000000D+00 -.150822476877634D+03
 0.770634758772873D+02 -.130297991261545D+02 0.157450762181560D+02 0.549644996693845D+02
 0.862786510323193D+02 0.486796360867509D+01 -.234755086523562D+02 0.828806916463328D+02
 0.138302826845661D+03 0.816183551747933D+01 0.773043243420007D+01 -.137845191315717D+03
 0.000000000000000D+00 0.000000000000000D+00 0.000000000000000D+00 0.000000000000000D+00
 0.150822476877634D+03 0.000000000000000D+00 0.000000000000000D+00 0.150822476877634D+03
 0.150822476877634D+03 -.000000000000000D+00 -.000000000000000D+00 -.150822476877634D+03
 0.766775954265626D+02 -.129976195962550D+02 0.157755548624658D+02 0.544210197810735D+02
 0.856875721433502D+02 0.490395784348471D+01 -.234414169336955D+02 0.822727852295753D+02
 0.733509127139581D+02 -.736754939916943D+01 0.739770676303946D+01 -.726040601238634D+02
 0.659288734713964D+02 0.154612111519396D+02 0.268155308190099D+00 -.640897448867854D+02
0.529897670153D-06 0.000000000000D+00 0.000000000000D+00 0.611337549771D-06 0.000000000000D+00  6 3 22 9900012 13 4 21 0 0.32926515D-01 0.16351577D-01 0.19905949D+04 0.19905949D+04 0.19905949D+04 0.12895697D+01  1  2  2  2  6  5        4 0.649523267594D-05 0.100000000000D+01
0.873154033408D-08 0.000000000000D+00 -.101747328932D-08 0.611337549771D-06 0.000000000000D+00  6 3 22 9900012 13 4 21 2 0.32926515D-01 0.16351577D-01 0.19905949D+04 0.19905949D+04 0.19905949D+04 0.12895697D+01  1  2  3  2  6  5        4 0.177984912091D-06 0.100000000000D+01
0.401091865515D-07 0.000000000000D+00 0.000000000000D+00 0.611337549771D-06 0.000000000000D+00  6 3 22 9900012 13 4 21 2 0.32926515D-01 0.16351577D-01 0.19905949D+04 0.19905949D+04 0.19905949D+04 0.12895697D+01  1  2 15  2  6  5        4 0.817591143058D-06 0.100000000000D+01
-.335758354371D-05 0.000000000000D+00 0.000000000000D+00 0.611337549771D-06 0.000000000000D+00  6 3 22 9900012 13 4 21 2 0.32926515D-01 0.16351577D-01 0.19905949D+04 0.19905949D+04 0.19905949D+04 0.12895697D+01  1  2  4  2  6  5        4 -.684414420594D-04 0.100000000000D+01
-.206845758261D-05 0.000000000000D+00 0.000000000000D+00 0.611337549771D-06 0.000000000000D+00  6 3 22 9900012 13 4 21 2 0.32926515D-01 0.16351577D-01 0.19905949D+04 0.19905949D+04 0.19905949D+04 0.12895697D+01  1  2  5  2  6  5        4 -.421637221976D-04 0.100000000000D+01
0.324758502889D-05 0.000000000000D+00 -.000000000000D+00 0.611337549771D-06 0.000000000000D+00  6 3 22 9900012 13 4 21 2 0.32926515D-01 0.16351577D-01 0.19905949D+04 0.19905949D+04 0.19905949D+04 0.12895697D+01  1  2  6  2  6  5        4 0.661992172925D-04 0.100000000000D+01
  </mgrwgt>
  </event>
  <event>
  7     66 0.19493620E-05 0.63352552E+01 0.78161638E-02 0.13298431E+00
       21 -1    0    0  501  502 0.00000000E+00 0.00000000E+00 0.57146015E+03 0.57146015E+03 0.00000000E+00 0.0000E+00 0.9000E+01
       22 -1    0    0    0    0 0.00000000E+00 0.00000000E+00 -.96084578E+02 0.96084578E+02 0.00000000E+00 0.0000E+00 0.9000E+01
      -24  2    1    2    0    0 0.60802214E+01 0.47474551E+01 0.22284983E+03 0.23954172E+03 0.87513888E+02 0.0000E+00 0.0000E+00
  9900012  1    3    3    0    0 0.14087410E+02 -.17771204E+02 0.19623632E+03 0.20377184E+03 0.50000000E+02 0.0000E+00 0.9000E+01
       13  1    3    3    0    0 -.80071885E+01 0.22518659E+02 0.26613513E+02 0.35769877E+02 0.00000000E+00 0.0000E+00 0.9000E+01
        2  1    1    2  501    0 -.10514940E+01 -.77871552E-01 -.87700864E+02 0.87707202E+02 0.00000000E+00 0.0000E+00 0.9000E+01
       -1  1    1    2    0  502 -.50287274E+01 -.46695835E+01 0.34022660E+03 0.34029580E+03 0.00000000E+00 0.0000E+00 0.9000E+01
#aMCatNLO 2  0  0  1  5 0.61212267D+00 0.00000000D+00  -5  6  0 0.00000000D+00 0.00000000D+00 0.00000000D+00 0.00000000D+00 0.00000000D+00
  <mgrwgt>
 0.1159956925D-01    1    2    0
 0.148979461870270D+03 0.000000000000000D+00 0.000000000000000D+00 0.148979461870270D+03
 0.148979461870270D+03 0.000000000000000D+00 0.000000000000000D+00 -.148979461870270D+03
 0.134834431605849D+03 0.118127224586356D+02 -.198834366334489D+02 0.123066780579616D+03
 0.269969368550836D+02 -.846453868908511D+01 0.220939719483357D+02 0.130016378923776D+02
 0.136127555279607D+03 -.334818376955046D+01 -.221053531488677D+01 -.136068418471993D+03
 0.000000000000000D+00 -.000000000000000D+00 -.000000000000000D+00 0.000000000000000D+00
 0.368333869535267D+03 0.000000000000000D+00 0.000000000000000D+00 0.368333869535267D+03
 0.149072651789145D+03 0.000000000000000D+00 0.000000000000000D+00 -.149072651789145D+03
 0.134757943311260D+03 0.140874098793560D+02 -.177712038461259D+02 0.123066780579616D+03
 0.272074926289577D+02 -.800718846197804D+01 0.225186589344181D+02 0.130016378923776D+02
 0.136072503501179D+03 -.105149399923193D+01 -.778715515113353D-01 -.136068418471993D+03
 0.219368581883015D+03 -.502872741814599D+01 -.466958353678087D+01 0.219261217746121D+03
0.217552649343D-03 0.000000000000D+00 0.000000000000D+00 0.487339161041D-06 0.169542347322D-06  6 21 22 9900012 13 2 -1 2 0.87916945D-01 0.14782243D-01 0.18800500D+04 0.18800500D+04 0.18800500D+04 0.12927220D+01  1  2  1  3  6  1        1 0.115995692500D-01 0.100000000000D+01
  </mgrwgt>
  </event>
  <event>
  6     66 0.19493620E-05 0.44166805E+02 0.78161638E-02 0.11708347E+00
        1 -1    0    0  502    0 0.00000000E+00 0.00000000E+00 0.36495194E+02 0.36495194E+02 0.00000000E+00 0.0000E+00 0.9000E+01
       22 -1    0    0    0    0 0.00000000E+00 0.00000000E+00 -.57995366E+03 0.57995366E+03 0.00000000E+00 0.0000E+00 0.9000E+01
  9900012  1    1    2    0    0 -.39180852E+02 0.67671161E+02 -.13632131E+03 0.16491824E+03 0.50000000E+02 0.0000E+00 0.9000E+01
       13  1    1    2    0    0 0.41009508E+02 -.24837635E+02 -.39804705E+02 0.62314544E+02 0.00000000E+00 0.0000E+00 0.9000E+01
        2  1    1    2  501    0 -.30162864E+01 0.37081109E+01 -.32865398E+03 0.32868874E+03 0.00000000E+00 0.0000E+00 0.9000E+01
       21  1    1    2  502  501 0.11876313E+01 -.46541637E+02 -.38678475E+02 0.60527340E+02 0.00000000E+00 0.0000E+00 0.9000E+01
#aMCatNLO 2  0  0  1  5 0.52790687D+02 0.00000000D+00  -5  6  0 0.00000000D+00 0.00000000D+00 0.00000000D+00 0.00000000D+00 0.00000000D+00
  <mgrwgt>
 0.2365935427D-03    1    2    0
 0.114103414510467D+03 0.000000000000000D+00 0.000000000000000D+00 0.114103414510467D+03
 0.114103414510467D+03 0.000000000000000D+00 0.000000000000000D+00 -.114103414510467D+03
 0.862080570420631D+02 -.387059211043869D+02 0.490592559004235D+02 0.320448151956810D+02
 0.690341535564396D+02 0.413482015519170D+02 -.381105870586876D+02 0.400452711280412D+02
 0.729646184224320D+02 -.264228044753002D+01 -.109486688417359D+02 -.720900863237221D+02
 0.000000000000000D+00 0.000000000000000D+00 -.000000000000000D+00 0.000000000000000D+00
 0.166205519836955D+03 0.000000000000000D+00 0.000000000000000D+00 0.166205519836955D+03
 0.127345479505288D+03 0.000000000000000D+00 0.000000000000000D+00 -.127345479505288D+03
 0.981906077394845D+02 -.391808524107398D+02 0.676711613000087D+02 0.320448151956810D+02
 0.624684845066674D+02 0.410095075610567D+02 -.248376348801783D+02 0.400452711280412D+02
 0.722483814099316D+02 -.301628640788505D+01 0.370811090703147D+01 -.720900863237221D+02
 0.606435256861598D+02 0.118763125756819D+01 -.465416373268619D+02 0.388600403316676D+02
0.724261566314D-05 0.000000000000D+00 0.000000000000D+00 0.192281222657D-08 0.435079416641D-10  6 1 22 9900012 13 2 21 2 0.56146453D-02 0.89223641D-01 0.92252042D+04 0.92252042D+04 0.92252042D+04 0.12129774D+01  1  2  1  1  6  1        1 0.236593542694D-03 0.100000000000D+01
  </mgrwgt>
  </event>
  <event>
  6     66 0.19493620E-05 0.44829489E+02 0.78161638E-02 0.11065284E+00
        1 -1    0    0  501    0 0.00000000E+00 0.00000000E+00 0.29848464E+03 0.29848464E+03 0.00000000E+00 0.0000E+00 0.9000E+01
       22 -1    0    0    0    0 0.00000000E+00 0.00000000E+00 -.19289246E+02 0.19289246E+02 0.00000000E+00 0.0000E+00 0.9000E+01
      -24  2    1    2    0    0 0.19905816E+02 0.40167668E+02 0.24248539E+03 0.25983161E+03 0.81875626E+02 0.0000E+00 0.0000E+00
  9900012  1    3    3    0    0 0.39908849E+02 0.32197618E+02 0.19320845E+03 0.20605560E+03 0.50000000E+02 0.0000E+00 0.9000E+01
       13  1    3    3    0    0 -.20003033E+02 0.79700497E+01 0.49276939E+02 0.53776015E+02 0.00000000E+00 0.0000E+00 0.9000E+01
        2  1    1    2  501    0 -.19905816E+02 -.40167668E+02 0.36710003E+02 0.57942276E+02 0.00000000E+00 0.0000E+00 0.9000E+01
#aMCatNLO 1  0  0  1  1 0.13218850D+03 0.00000000D+00  -5  6  0 0.00000000D+00 0.00000000D+00 0.00000000D+00 0.00000000D+00 0.00000000D+00
  <mgrwgt>
 0.1085515943D-03    3    2    0
 0.758784808199110D+02 0.000000000000000D+00 0.000000000000000D+00 0.758784808199110D+02
 0.758784808199110D+02 0.000000000000000D+00 0.000000000000000D+00 -.758784808199110D+02
 0.760174548495472D+02 0.399088492934852D+02 0.321976181610552D+02 0.254803958883634D+02
 0.219477164626060D+02 -.200030328983097D+02 0.797004966574596D+01 0.424961658477917D+01
 0.537917903276689D+02 -.199058163951755D+02 -.401676678268012D+02 -.297300124731426D+02
 0.000000000000000D+00 0.000000000000000D+00 0.000000000000000D+00 -.000000000000000D+00
 0.135211779161194D+03 0.000000000000000D+00 0.000000000000000D+00 0.135211779161194D+03
 0.162127565061343D+03 0.000000000000000D+00 0.000000000000000D+00 -.162127565061343D+03
 0.584680829158739D+02 0.160375471005501D+02 -.347321583369398D+01 0.254803958883634D+02
 0.301249250468793D+02 -.292459729356652D+02 -.584165516003889D+01 0.424961658477917D+01
 0.975855177680240D+02 -.467754227985671D+02 -.803188611623410D+02 -.297300124731426D+02
 0.111160818491760D+03 0.599838486336821D+02 0.896337321560739D+02 -.269157859001488D+02
0.469171776404D-06 0.000000000000D+00 0.000000000000D+00 0.205920218667D-07 0.000000000000D+00  6 1 22 9900012 13 2 21 0 0.45920714D-01 0.29675764D-02 0.47597381D+04 0.47597381D+04 0.47597381D+04 0.12442617D+01  1  2  2  1  6  1        1 0.113614269230D-03 0.100000000000D+01
-.260737509045D-07 0.000000000000D+00 -.900871578579D-09 0.205920218667D-07 0.000000000000D+00  6 1 22 9900012 13 2 21 2 0.45920714D-01 0.29675764D-02 0.47597381D+04 0.47597381D+04 0.47597381D+04 0.12442617D+01  1  2  3  1  6  1        1 -.977525304132D-05 0.100000000000D+01
0.125699648299D-07 0.000000000000D+00 0.000000000000D+00 0.205920218667D-07 0.000000000000D+00  6 1 22 9900012 13 2 21 2 0.45920714D-01 0.29675764D-02 0.47597381D+04 0.47597381D+04 0.47597381D+04 0.12442617D+01  1  2 15  1  6  1        1 0.471257807836D-05 0.100000000000D+01
  </mgrwgt>
  </event>
  <event>
  7     66 0.19493620E-05 0.25488286E+02 0.78161638E-02 0.12873133E+00
       21 -1    0    0  501  502 0.00000000E+00 0.00000000E+00 0.97439147E+02 0.97439147E+02 0.00000000E+00 0.0000E+00 0.9000E+01
       22 -1    0    0    0    0 0.00000000E+00 0.00000000E+00 -.56744795E+02 0.56744795E+02 0.00000000E+00 0.0000E+00 0.9000E+01
      -24  2    1    2    0    0 0.19716136E+02 -.16170577E+02 -.20503581E+02 0.85603830E+02 0.79103763E+02 0.0000E+00 0.0000E+00
  9900012  1    3    3    0    0 0.14344217E+02 0.99767852E+01 -.17735724E+01 0.52994701E+02 0.50000000E+02 0.0000E+00 0.9000E+01
       13  1    3    3    0    0 0.53719191E+01 -.26147362E+02 -.18730009E+02 0.32609129E+02 0.00000000E+00 0.0000E+00 0.9000E+01
        2  1    1    2  501    0 0.15533539E-01 0.17721808E-01 -.11857152E+01 0.11859494E+01 0.00000000E+00 0.0000E+00 0.9000E+01
       -1  1    1    2    0  502 -.19731670E+02 0.16152855E+02 0.62383648E+02 0.67394162E+02 0.00000000E+00 0.0000E+00 0.9000E+01
#aMCatNLO 2  0  0  1  5 0.47021679D+02 0.00000000D+00  -5  6  0 0.00000000D+00 0.00000000D+00 0.00000000D+00 0.00000000D+00 0.00000000D+00
  <mgrwgt>
 0.3233480928D-01    1    2    0
 0.400368165100095D+02 0.000000000000000D+00 0.000000000000000D+00 0.400368165100095D+02
 0.400368165100095D+02 0.000000000000000D+00 0.000000000000000D+00 -.400368165100095D+02
 0.554370887377834D+02 0.115318631704477D+01 0.207753038814542D+02 0.118460000705847D+02
 0.236725476583990D+02 -.942344143725310D+00 -.209783426976027D+02 -.109275174589609D+02
 0.963996623836593D+00 -.210842173319455D+00 0.203038816148559D+00 -.918482611623794D+00
 0.000000000000000D+00 -.000000000000000D+00 0.000000000000000D+00 0.000000000000000D+00
 0.125780800548164D+03 0.000000000000000D+00 0.000000000000000D+00 0.125780800548164D+03
 0.439587309691169D+02 0.000000000000000D+00 0.000000000000000D+00 -.439587309691169D+02
 0.542735711473403D+02 0.143442171064925D+02 0.997678520440983D+01 0.118460000705847D+02
 0.288435899261783D+02 0.537191910604814D+01 -.261473617623598D+02 -.109275174589609D+02
 0.918784882971122D+00 0.155335394153737D-01 0.177218078711019D-01 -.918482611623794D+00
 0.857035855607910D+02 -.197316697519560D+02 0.161528547500789D+02 0.818220695790471D+02
0.962322399756D-05 0.000000000000D+00 0.000000000000D+00 0.793666486897D-05 0.270638778241D-05  6 21 22 9900012 13 2 -1 2 0.14990638D-01 0.87299684D-02 0.27658203D+04 0.27658203D+04 0.27658203D+04 0.12718827D+01  1  2  1  3  6  1        1 0.323348092839D-01 0.100000000000D+01
  </mgrwgt>
  </event>
  <event>
  6     66 0.19493620E-05 0.19653464E+02 0.78161638E-02 0.11634607E+00
        3 -1    0    0  501    0 0.00000000E+00 0.00000000E+00 0.67819721E+01 0.67819721E+01 0.00000000E+00 0.0000E+00 0.9000E+01
       22 -1    0    0    0    0 0.00000000E+00 0.00000000E+00 -.36409165E+03 0.36409165E+03 0.00000000E+00 0.0000E+00 0.9000E+01
      -24  2    1    2    0    0 0.62138060E+01 -.18645302E+02 -.27976107E+03 0.29087334E+03 0.77167251E+02 0.0000E+00 0.0000E+00
  9900012  1    3    3    0    0 0.11782818E+02 -.10977454E+02 -.27553396E+03 0.28049652E+03 0.50000000E+02 0.0000E+00 0.9000E+01
       13  1    3    3    0    0 -.55690121E+01 -.76678472E+01 -.42271125E+01 0.10376813E+02 0.00000000E+00 0.0000E+00 0.9000E+01
        4  1    1    2  501    0 -.62138060E+01 0.18645302E+02 -.77548611E+02 0.80000286E+02 0.00000000E+00 0.0000E+00 0.9000E+01
#aMCatNLO 1  0  0  1  5 0.96049351D+02 0.00000000D+00  -5  6  0 0.00000000D+00 0.00000000D+00 0.00000000D+00 0.00000000D+00 0.00000000D+00
  <mgrwgt>
 0.4116843420D-04    5    2    0
 0.496916433148065D+02 0.000000000000000D+00 0.000000000000000D+00 0.496916433148065D+02
 0.496916433148065D+02 0.000000000000000D+00 0.000000000000000D+00 -.496916433148065D+02
 0.561242550761945D+02 0.117828180889209D+02 -.109774543667483D+02 -.197634182611992D+02
 0.235260703473338D+02 -.556901208847268D+01 -.766784724720285D+01 0.215329099041376D+02
 0.197329612060848D+02 -.621380600044821D+01 0.186453016139512D+02 -.176949164293846D+01
 0.000000000000000D+00 -.000000000000000D+00 0.000000000000000D+00 0.000000000000000D+00
 0.164715700591547D+03 0.000000000000000D+00 0.000000000000000D+00 0.164715700591547D+03
 0.818271236977879D+02 0.000000000000000D+00 0.000000000000000D+00 -.818271236977879D+02
 0.859691305645848D+02 0.575619536660016D+02 -.344488054773546D+02 -.197634182611992D+02
 0.294098454891003D+02 0.114856907539204D+02 -.164119380530867D+02 0.215329099041376D+02
 0.139897976558496D+02 0.465087107802261D+01 0.130748895212463D+02 -.176949164293846D+01
 0.117174050579800D+03 -.736985154979445D+02 0.377858540091949D+02 0.828885768937587D+02
0.912894244696D-07 0.000000000000D+00 0.000000000000D+00 0.393910692477D-07 0.000000000000D+00  6 3 22 9900012 13 4 21 0 0.10433803D-02 0.56014100D-01 0.16670758D+04 0.16670758D+04 0.16670758D+04 0.12994366D+01  1  2  2  1  6  1        3 0.326027708172D-04 0.100000000000D+01
-.137954881754D-08 0.000000000000D+00 -.175287713510D-09 0.393910692477D-07 0.000000000000D+00  6 3 22 9900012 13 4 21 2 0.10433803D-02 0.56014100D-01 0.16670758D+04 0.16670758D+04 0.16670758D+04 0.12994366D+01  1  2  3  1  6  1        3 -.831919526942D-06 0.100000000000D+01
0.246251757019D-08 0.000000000000D+00 0.000000000000D+00 0.393910692477D-07 0.000000000000D+00  6 3 22 9900012 13 4 21 2 0.10433803D-02 0.56014100D-01 0.16670758D+04 0.16670758D+04 0.16670758D+04 0.12994366D+01  1  2 15  1  6  1        3 0.148499018377D-05 0.100000000000D+01
0.368494701304D-07 0.000000000000D+00 -.342835381562D-07 0.393910692477D-07 0.000000000000D+00  6 3 22 9900012 13 4 21 2 0.56962574D-02 0.56014100D-01 0.16670758D+04 0.16670758D+04 0.16670758D+04 0.12994366D+01  1  2  5  1  6  1        3 0.195675489671D-05 0.100000000000D+01
0.609702037866D-08 0.000000000000D+00 -.712013508425D-08 0.393910692477D-07 0.000000000000D+00  6 21 22 9900012 13 4 -3 2 0.56962574D-02 0.56014100D-01 0.16670758D+04 0.16670758D+04 0.16670758D+04 0.12994366D+01  1  2  5  3  6  1        3 0.595583782807D-05 0.100000000000D+01
  </mgrwgt>
  </event>
  <event>
  6     66 0.19493620E-05 0.69712930E+01 0.78161638E-02 0.13260812E+00
        1 -1    0    0  501    0 0.00000000E+00 0.00000000E+00 0.13547225E+03 0.13547225E+03 0.00000000E+00 0.0000E+00 0.9000E+01
       22 -1    0    0    0    0 0.00000000E+00 0.00000000E+00 -.22800865E+02 0.22800865E+02 0.00000000E+00 0.0000E+00 0.9000E+01
      -24  2    1    2    0    0 -.42319050E+01 0.55398471E+01 0.12255633E+03 0.14617720E+03 0.79366988E+02 0.0000E+00 0.0000E+00
  9900012  1    3    3    0    0 0.18225225E+02 0.94909482E+01 0.66762909E+02 0.85904149E+02 0.50000000E+02 0.0000E+00 0.9000E+01
       13  1    3    3    0    0 -.22457130E+02 -.39511011E+01 0.55793425E+02 0.60273046E+02 0.00000000E+00 0.0000E+00 0.9000E+01
        2  1    1    2  501    0 0.42319050E+01 -.55398471E+01 -.98849517E+01 0.12095916E+02 0.00000000E+00 0.0000E+00 0.9000E+01
#aMCatNLO 1  0  0  1  1 0.29594689D+02 0.00000000D+00  -5  6  0 0.00000000D+00 0.00000000D+00 0.00000000D+00 0.00000000D+00 0.00000000D+00
  <mgrwgt>
 0.6864864660D-04    4    2    0
 0.555777333598296D+02 0.000000000000000D+00 0.000000000000000D+00 0.555777333598296D+02
 0.555777333598296D+02 0.000000000000000D+00 0.000000000000000D+00 -.555777333598296D+02
 0.546446169789328D+02 0.182252245239427D+02 0.949094820732820D+01 0.798731857083237D+01
 0.292678395667917D+02 -.224571295587385D+02 -.395110114541119D+01 0.183486393127180D+02
 0.272430101739346D+02 0.423190503479585D+01 -.553984706191701D+01 -.263359578835504D+02
 0.000000000000000D+00 0.000000000000000D+00 -.000000000000000D+00 -.000000000000000D+00
 0.560095388834437D+02 0.000000000000000D+00 0.000000000000000D+00 0.560095388834437D+02
 0.721928598308401D+02 0.000000000000000D+00 0.000000000000000D+00 -.721928598308401D+02
 0.550580127274295D+02 0.180259391162007D+02 0.119437442421065D+02 0.798731857083237D+01
 0.292021710469082D+02 -.225633459724837D+02 -.264379419597339D+01 0.183486393127180D+02
 0.270072075810175D+02 0.413335428177996D+01 -.432688872763298D+01 -.263359578835504D+02
 0.169350073589286D+02 0.404052574503053D+00 -.497306131850016D+01 -.161833209473965D+02
0.147726743181D-06 0.000000000000D+00 0.000000000000D+00 0.154329909050D-05 0.000000000000D+00  6 1 22 9900012 13 2 21 0 0.20841884D-01 0.35078254D-02 0.17569121D+04 0.17569121D+04 0.17569121D+04 0.12964923D+01  1  2  2  1  6  1        1 0.675607350552D-04 0.100000000000D+01
-.692934852939D-08 0.000000000000D+00 -.283654795580D-09 0.154329909050D-05 0.000000000000D+00  6 1 22 9900012 13 2 21 2 0.20841884D-01 0.35078254D-02 0.17569121D+04 0.17569121D+04 0.17569121D+04 0.12964923D+01  1  2  3  1  6  1        1 -.532681409065D-05 0.100000000000D+01
0.947258983757D-08 0.000000000000D+00 0.000000000000D+00 0.154329909050D-05 0.000000000000D+00  6 1 22 9900012 13 2 21 2 0.20841884D-01 0.35078254D-02 0.17569121D+04 0.17569121D+04 0.17569121D+04 0.12964923D+01  1  2 15  1  6  1        1 0.728188585228D-05 0.100000000000D+01
-.112803925532D-08 0.000000000000D+00 0.000000000000D+00 0.154329909050D-05 0.000000000000D+00  6 1 22 9900012 13 2 21 2 0.20841884D-01 0.35078254D-02 0.17569121D+04 0.17569121D+04 0.17569121D+04 0.12964923D+01  1  2  4  1  6  1        1 -.867160220702D-06 0.100000000000D+01
  </mgrwgt>
  </event>
  <event>
  7     66 0.19493620E-05 0.56239670E+01 0.78161638E-02 0.13904688E+00
       21 -1    0    0  501  502 0.00000000E+00 0.00000000E+00 0.16257147E+03 0.16257147E+03 0.00000000E+00 0.0000E+00 0.9000E+01
       22 -1    0    0    0    0 0.00000000E+00 0.00000000E+00 -.55187735E+02 0.55187735E+02 0.00000000E+00 0.0000E+00 0.9000E+01
      -24  2    1    2    0    0 0.56303511E+01 0.52510677E-02 -.11690391E+02 0.81861847E+02 0.80826950E+02 0.0000E+00 0.0000E+00
  9900012  1    3    3    0    0 0.23773636E+01 0.10060703E+02 -.31084164E+02 0.59775370E+02 0.50000000E+02 0.0000E+00 0.9000E+01
       13  1    3    3    0    0 0.32529875E+01 -.10055452E+02 0.19393773E+02 0.22086477E+02 0.00000000E+00 0.0000E+00 0.9000E+01
        2  1    1    2  501    0 -.40321459E-02 -.24255640E-02 -.83495393E+01 0.83495407E+01 0.00000000E+00 0.0000E+00 0.9000E+01
       -1  1    1    2    0  502 -.56263190E+01 -.28255037E-02 0.12742367E+03 0.12754782E+03 0.00000000E+00 0.0000E+00 0.9000E+01
#aMCatNLO 2  0  0  1  5 0.47901949D+02 0.00000000D+00  -5  6  0 0.00000000D+00 0.00000000D+00 0.00000000D+00 0.00000000D+00 0.00000000D+00
  <mgrwgt>
 0.6345475623D+00    1    2    0
 0.438886094658862D+02 0.000000000000000D+00 0.000000000000000D+00 0.438886094658862D+02
 0.438886094658862D+02 0.000000000000000D+00 0.000000000000000D+00 -.438886094658862D+02
 0.541836527348000D+02 -.109345106421187D+01 0.100589601452178D+02 -.182617060882191D+02
 0.269184611728389D+02 0.152445768297173D+01 -.100563201571970D+02 0.249228811653552D+02
 0.667510502413342D+01 -.431006618759866D+00 -.263998802085550D-02 -.666117507713614D+01
 0.000000000000000D+00 -.000000000000000D+00 -.000000000000000D+00 0.000000000000000D+00
 0.203777383374117D+03 0.000000000000000D+00 0.000000000000000D+00 0.203777383374117D+03
 0.440281996013731D+02 0.000000000000000D+00 0.000000000000000D+00 -.440281996013731D+02
 0.542250819748590D+02 0.237736360312752D+01 0.100607031675825D+02 -.182617060882191D+02
 0.270710925242930D+02 0.325298754135423D+01 -.100554520998416D+02 0.249228811653552D+02
 0.666117673912209D+01 -.403214594043672D-02 -.242556399462770D-02 -.666117507713614D+01
 0.159848231737216D+03 -.562631899854131D+01 -.282550374626118D-02 0.159749183772744D+03
0.440612982375D-03 0.000000000000D+00 0.000000000000D+00 0.145297162174D-03 0.161065625984D+00  6 21 22 9900012 13 2 -1 2 0.25010995D-01 0.84904208D-02 0.11308786D+04 0.11308786D+04 0.11308786D+04 0.13218603D+01  1  2  1  3  6  1        1 0.634547562255D+00 0.100000000000D+01
  </mgrwgt>
  </event>
  <event>
  6     66 0.19493620E-05 0.39430530E+01 0.78161638E-02 0.12646308E+00
       21 -1    0    0  501  502 0.00000000E+00 0.00000000E+00 0.19502107E+02 0.19502107E+02 0.00000000E+00 0.0000E+00 0.9000E+01
       22 -1    0    0    0    0 0.00000000E+00 0.00000000E+00 -.47904130E+03 0.47904130E+03 0.00000000E+00 0.0000E+00 0.9000E+01
  9900012  1    1    2    0    0 0.13978592E+02 0.31496795E+02 -.22114399E+03 0.22932970E+03 0.50000000E+02 0.0000E+00 0.9000E+01
       13  1    1    2    0    0 -.24024109E+02 -.37540551E+02 -.63622175E+02 0.77680319E+02 0.00000000E+00 0.0000E+00 0.9000E+01
        2  1    1    2  501    0 0.39046694E+01 0.36151000E+01 -.18180727E+03 0.18188512E+03 0.00000000E+00 0.0000E+00 0.9000E+01
       -1  1    1    2    0  502 0.61408471E+01 0.24286555E+01 0.70342411E+01 0.96482599E+01 0.00000000E+00 0.0000E+00 0.9000E+01
#aMCatNLO 2  0  0  1  1 0.66246925D+01 0.00000000D+00  -5  6  0 0.00000000D+00 0.00000000D+00 0.00000000D+00 0.00000000D+00 0.00000000D+00
  <mgrwgt>
 0.2658857527D-03    1    2    0
 0.729453352245894D+02 0.000000000000000D+00 0.000000000000000D+00 0.729453352245894D+02
 0.729453352245894D+02 0.000000000000000D+00 0.000000000000000D+00 -.729453352245894D+02
 0.623796179379465D+02 0.165782142971557D+02 0.325249247683294D+02 -.764910541280993D+01
 0.552085523090836D+02 -.216682589515444D+02 -.366088310968350D+02 0.351889796356336D+02
 0.283025002021487D+02 0.509004465438869D+01 0.408390632850568D+01 -.275398742228236D+02
 0.000000000000000D+00 0.000000000000000D+00 0.000000000000000D+00 0.000000000000000D+00
 0.127592744772887D+03 0.000000000000000D+00 0.000000000000000D+00 0.127592744772887D+03
 0.732197966509543D+02 0.000000000000000D+00 0.000000000000000D+00 -.732197966509543D+02
 0.612042316106916D+02 0.139785922938307D+02 0.314967952484337D+02 -.764910541280993D+01
 0.567865744670822D+02 -.240241088210527D+02 -.375405507053727D+02 0.351889796356336D+02
 0.280492435472814D+02 0.390466943334011D+01 0.361509999614116D+01 -.275398742228236D+02
 0.547724917987859D+02 0.614084709388190D+01 0.242865546079783D+01 0.543729481219325D+02
0.159808096736D-06 0.000000000000D+00 0.000000000000D+00 0.611750861729D-08 0.121951616567D-09  6 21 22 9900012 13 2 -1 2 0.30003242D-02 0.73698661D-01 0.34350660D+04 0.34350660D+04 0.34350660D+04 0.12606276D+01  1  2  1  3  6  1        1 0.265885752667D-03 0.100000000000D+01
  </mgrwgt>
  </event>
  <event>
  7     66 0.19493620E-05 0.52200121E+02 0.78161638E-02 0.11590713E+00
       21 -1    0    0  501  502 0.00000000E+00 0.00000000E+00 0.13977579E+04 0.13977579E+04 0.00000000E+00 0.0000E+00 0.9000E+01
       22 -1    0    0    0    0 0.00000000E+00 0.00000000E+00 -.21280648E+02 0.21280648E+02 0.00000000E+00 0.0000E+00 0.9000E+01
      -24  2    1    2    0    0 -.83138046E+02 -.24118974E+02 0.29026309E+03 0.31352855E+03 0.80955733E+02 0.0000E+00 0.0000E+00
  9900012  1    3    3    0    0 -.90962730E+02 -.30158011E+02 0.25641252E+03 0.27826445E+03 0.50000000E+02 0.0000E+00 0.9000E+01
       13  1    3    3    0    0 0.78246837E+01 0.60390377E+01 0.33850567E+02 0.35264097E+02 0.00000000E+00 0.0000E+00 0.9000E+01
        4  1    1    2  501    0 -.52793034E+00 0.23508398E+00 -.79103096E+01 0.79313916E+01 0.00000000E+00 0.0000E+00 0.9000E+01
       -3  1    1    2    0  502 0.83665977E+02 0.23883890E+02 0.10941244E+04 0.10975786E+04 0.00000000E+00 0.0000E+00 0.9000E+01
#aMCatNLO 2  0  0  1  1 0.91400721D+02 0.00000000D+00  -5  6  0 0.00000000D+00 0.00000000D+00 0.00000000D+00 0.00000000D+00 0.00000000D+00
  <mgrwgt>
 0.3955436466D-02    1    2    0
 0.633304144424085D+02 0.000000000000000D+00 0.000000000000000D+00 0.633304144424085D+02
 0.633304144424085D+02 0.000000000000000D+00 0.000000000000000D+00 -.633304144424085D+02
 0.688556188830626D+02 -.372928733208957D+02 -.148370291649144D+02 0.251037928767880D+02
 0.203463720592971D+02 0.173509107952147D+02 0.875846278329896D+01 0.601748121936530D+01
 0.374588379424572D+02 0.199419625256810D+02 0.607856638161547D+01 -.311212740961533D+02
 0.000000000000000D+00 0.000000000000000D+00 0.000000000000000D+00 0.000000000000000D+00
 0.355720556024234D+03 0.000000000000000D+00 0.000000000000000D+00 0.355720556024234D+03
 0.836195493787680D+02 0.000000000000000D+00 0.000000000000000D+00 -.836195493787680D+02
 0.110968122864262D+03 -.909627298985275D+02 -.301580112843131D+02 0.251037928767880D+02
 0.115717643838126D+02 0.782468367702904D+01 0.603903767859536D+01 0.601748121936530D+01
 0.311266393349905D+02 -.527930342866334D+00 0.235083975967907D+00 -.311212740961533D+02
 0.285673578819937D+03 0.836659765643648D+02 0.238838896297498D+02 0.272101006645466D+03
0.116134417465D-03 0.000000000000D+00 0.000000000000D+00 0.871049157563D-07 0.244739082018D-06  6 21 22 9900012 13 4 -3 2 0.21503967D+00 0.32739458D-02 0.10563887D+05 0.10563887D+05 0.10563887D+05 0.12068686D+01  1  2  1  3  6  1        3 0.395543646612D-02 0.100000000000D+01
  </mgrwgt>
  </event>
  <event>
  7     66 0.19493620E-05 0.61936616E+01 0.78161638E-02 0.13271308E+00
        3 -1    0    0  502    0 0.00000000E+00 0.00000000E+00 0.76234337E+02 0.76234337E+02 0.00000000E+00 0.0000E+00 0.9000E+01
       22 -1    0    0    0    0 0.00000000E+00 0.00000000E+00 -.44736176E+02 0.44736176E+02 0.00000000E+00 0.0000E+00 0.9000E+01
      -24  2    1    2    0    0 -.59722226E+01 0.16999721E+01 0.21800959E+02 0.84409553E+02 0.81308877E+02 0.0000E+00 0.0000E+00
  9900012  1    3    3    0    0 -.13303908E+02 -.22376349E+02 0.14571469E+02 0.58223901E+02 0.50000000E+02 0.0000E+00 0.9000E+01
       13  1    3    3    0    0 0.73316856E+01 0.24076321E+02 0.72294898E+01 0.26185652E+02 0.00000000E+00 0.0000E+00 0.9000E+01
        4  1    1    2  501    0 0.11131155E-01 0.14006904E-01 -.13016029E+02 0.13016041E+02 0.00000000E+00 0.0000E+00 0.9000E+01
       21  1    1    2  502  501 0.59610915E+01 -.17139790E+01 0.22713231E+02 0.23544918E+02 0.00000000E+00 0.0000E+00 0.9000E+01
#aMCatNLO 2  0  0  1  1 0.16053781D+02 0.00000000D+00  -5  6  0 0.00000000D+00 0.00000000D+00 0.00000000D+00 0.00000000D+00 0.00000000D+00
  <mgrwgt>
 0.1507360533D+00    1    2    0
 0.484151295300390D+02 0.000000000000000D+00 0.000000000000000D+00 0.484151295300390D+02
 0.484151295300390D+02 0.000000000000000D+00 0.000000000000000D+00 -.484151295300390D+02
 0.568369399164938D+02 -.979907463025044D+01 -.233840857111725D+02 0.935950911717352D+01
 0.257159353194627D+02 0.891080633605331D+01 0.236222800482107D+02 0.488822515030242D+01
 0.142773838241213D+02 0.888268294197133D+00 -.238194337038236D+00 -.142477342674759D+02
 0.000000000000000D+00 0.000000000000000D+00 -.000000000000000D+00 0.000000000000000D+00
 0.696439426780778D+02 0.000000000000000D+00 0.000000000000000D+00 0.696439426780778D+02
 0.489695522744074D+02 0.000000000000000D+00 0.000000000000000D+00 -.489695522744074D+02
 0.571427630995770D+02 -.133039081930829D+02 -.223763489097295D+02 0.935950911717352D+01
 0.256382057342232D+02 0.733168555934787D+01 0.240763210439044D+02 0.488822515030242D+01
 0.142477455006954D+02 0.111311548973494D-01 0.140069042870320D-01 -.142477342674759D+02
 0.215847806179896D+02 0.596109147883773D+01 -.171397903846200D+01 0.206743904036704D+02
0.383343646515D-03 0.000000000000D+00 0.000000000000D+00 0.144355505735D-04 0.933162886425D-02  6 3 22 9900012 13 4 21 2 0.11728360D-01 0.68824886D-02 0.19254298D+04 0.19254298D+04 0.19254298D+04 0.12914030D+01  1  2  1  1  6  1        3 0.150736053287D+00 0.100000000000D+01
  </mgrwgt>
  </event>
  <event>
  7     66 0.19493620E-05 0.16143304E+02 0.78161638E-02 0.13125087E+00
        3 -1    0    0  502    0 0.00000000E+00 0.00000000E+00 0.47594155E+03 0.47594155E+03 0.00000000E+00 0.0000E+00 0.9000E+01
       22 -1    0    0    0    0 0.00000000E+00 0.00000000E+00 -.93851562E+01 0.93851562E+01 0.00000000E+00 0.0000E+00 0.9000E+01
      -24  2    1    2    0    0 -.17700193E+01 -.16036112E+02 0.17088960E+03 0.18874499E+03 0.78492846E+02 0.0000E+00 0.0000E+00
  9900012  1    3    3    0    0 -.15861879E+02 0.44261737E+01 0.91545769E+02 0.10560217E+03 0.50000000E+02 0.0000E+00 0.9000E+01
       13  1    3    3    0    0 0.14091860E+02 -.20462285E+02 0.79343828E+02 0.83142821E+02 0.00000000E+00 0.0000E+00 0.9000E+01
        4  1    1    2  501    0 -.16046047E-01 -.21635475E-01 -.23631263E+00 0.23784287E+00 0.00000000E+00 0.0000E+00 0.9000E+01
       21  1    1    2  502  501 0.17860654E+01 0.16057747E+02 0.29590311E+03 0.29634388E+03 0.00000000E+00 0.0000E+00 0.9000E+01
#aMCatNLO 2  0  0  1  5 0.13074551D+01 0.00000000D+00  -5  6  0 0.00000000D+00 0.00000000D+00 0.00000000D+00 0.00000000D+00 0.00000000D+00
  <mgrwgt>
 0.2793439403D-02    1    2    0
 0.397835590469193D+02 0.000000000000000D+00 0.000000000000000D+00 0.397835590469193D+02
 0.397835590469193D+02 0.000000000000000D+00 0.000000000000000D+00 -.397835590469193D+02
 0.550121075446198D+02 -.146575535328628D+02 0.152537487025590D+02 -.887757013215072D+01
 0.234879910123618D+02 0.146500754638634D+02 -.154436084620574D+02 0.992753586599238D+01
 0.106701953685695D+01 0.747806899931890D-02 0.189859759498408D+00 -.104996573384166D+01
 0.000000000000000D+00 0.000000000000000D+00 0.000000000000000D+00 0.000000000000000D+00
 0.107447881076153D+03 0.000000000000000D+00 0.000000000000000D+00 0.107447881076153D+03
 0.415716512660582D+02 0.000000000000000D+00 0.000000000000000D+00 -.415716512660582D+02
 0.533854050872221D+02 -.158618791811646D+02 0.442617371074457D+01 -.887757013215072D+01
 0.267552164303335D+02 0.140918598562627D+02 -.204622853966724D+02 0.992753586599238D+01
 0.105031119752248D+01 -.160460474443077D-01 -.216354745927131D-01 -.104996573384166D+01
 0.678285996271329D+02 0.178606537234618D+01 0.160577471605206D+02 0.658762298100946D+02
0.234165673012D-04 0.000000000000D+00 0.000000000000D+00 0.457397133521D-04 0.100832723337D-03  6 3 22 9900012 13 4 21 2 0.73221778D-01 0.14438702D-02 0.21935658D+04 0.21935658D+04 0.21935658D+04 0.12842691D+01  1  2  1  1  6  1        3 0.279343940278D-02 0.100000000000D+01
  </mgrwgt>
  </event>
  <event>
  7     66 0.19493620E-05 0.19913256E+02 0.78161638E-02 0.12948845E+00
       21 -1    0    0  501  502 0.00000000E+00 0.00000000E+00 0.14020180E+03 0.14020180E+03 0.00000000E+00 0.0000E+00 0.9000E+01
       22 -1    0    0    0    0 0.00000000E+00 0.00000000E+00 -.40594459E+02 0.40594459E+02 0.00000000E+00 0.0000E+00 0.9000E+01
      -24  2    1    2    0    0 -.11537663E+02 0.16322194E+02 0.87953449E+01 0.82314894E+02 0.79365307E+02 0.0000E+00 0.0000E+00
  9900012  1    3    3    0    0 -.17800625E+02 0.33824545E+02 0.37233702E+01 0.63046218E+02 0.50000000E+02 0.0000E+00 0.9000E+01
       13  1    3    3    0    0 0.62629620E+01 -.17502350E+02 0.50719747E+01 0.19268676E+02 0.00000000E+00 0.0000E+00 0.9000E+01
        2  1    1    2  501    0 0.62612058E-01 -.89635605E-02 -.27835761E+01 0.27842946E+01 0.00000000E+00 0.0000E+00 0.9000E+01
       -1  1    1    2    0  502 0.11475051E+02 -.16313231E+02 0.93595574E+02 0.95697073E+02 0.00000000E+00 0.0000E+00 0.9000E+01
#aMCatNLO 2  0  0  1  5 0.24415168D+01 0.00000000D+00  -5  6  0 0.00000000D+00 0.00000000D+00 0.00000000D+00 0.00000000D+00 0.00000000D+00
  <mgrwgt>
 0.8868146715D-01    1    2    0
 0.412550972219006D+02 0.000000000000000D+00 0.000000000000000D+00 0.412550972219006D+02
 0.412550972219006D+02 0.000000000000000D+00 0.000000000000000D+00 -.412550972219006D+02
 0.555900667404656D+02 -.967535747495595D+01 0.222734527243905D+02 -.732312553199700D+00
 0.238351740400503D+02 0.919641661595376D+01 -.216726253187111D+02 0.372004767980988D+01
 0.308495366328533D+01 0.478940859002197D+00 -.600827405679426D+00 -.298773512661018D+01
 0.000000000000000D+00 0.000000000000000D+00 -.000000000000000D+00 0.000000000000000D+00
 0.130623703715732D+03 0.000000000000000D+00 0.000000000000000D+00 0.130623703715732D+03
 0.435710837434080D+02 0.000000000000000D+00 0.000000000000000D+00 -.435710837434080D+02
 0.629404349702201D+02 -.178006252277720D+02 0.338245445507451D+02 -.732312553199700D+00
 0.189577347270473D+02 0.626296204825787D+01 -.175023500600095D+02 0.372004767980988D+01
 0.298840455794652D+01 0.626120576045187D-01 -.896356054841385D-02 -.298773512661018D+01
 0.893082132039258D+02 0.114750511219096D+02 -.163132309301871D+02 0.870526199723238D+02
0.311259666706D-04 0.000000000000D+00 0.000000000000D+00 0.125033129792D-04 0.140244564622D-04  6 21 22 9900012 13 2 -1 2 0.21569508D-01 0.62453014D-02 0.25772613D+04 0.25772613D+04 0.25772613D+04 0.12756175D+01  1  2  1  3  6  1        1 0.886814671484D-01 0.100000000000D+01
  </mgrwgt>
  </event>
  <event>
  7     66 0.19493620E-05 0.51446283E+01 0.78161638E-02 0.14110771E+00
        1 -1    0    0  502    0 0.00000000E+00 0.00000000E+00 0.65603308E+02 0.65603308E+02 0.00000000E+00 0.0000E+00 0.9000E+01
       22 -1    0    0    0    0 0.00000000E+00 0.00000000E+00 -.69772970E+02 0.69772970E+02 0.00000000E+00 0.0000E+00 0.9000E+01
      -24  2    1    2    0    0 0.37938033E+01 0.35033267E+01 0.44340699E+02 0.80519280E+02 0.67011869E+02 0.0000E+00 0.0000E+00
  9900012  1    3    3    0    0 0.69136957E+01 -.14623290E+01 0.18118048E+02 0.53648870E+02 0.50000000E+02 0.0000E+00 0.9000E+01
       13  1    3    3    0    0 -.31198924E+01 0.49656558E+01 0.26222651E+02 0.26870410E+02 0.00000000E+00 0.0000E+00 0.9000E+01
        2  1    1    2  501    0 -.10391744E+00 0.31742737E+00 -.49460014E+02 0.49461142E+02 0.00000000E+00 0.0000E+00 0.9000E+01
       21  1    1    2  502  501 -.36898858E+01 -.38207541E+01 0.94965290E+00 0.53958558E+01 0.00000000E+00 0.0000E+00 0.9000E+01
#aMCatNLO 2  0  0  1  5 0.23583695D+02 0.00000000D+00  -5  6  0 0.00000000D+00 0.00000000D+00 0.00000000D+00 0.00000000D+00 0.00000000D+00
  <mgrwgt>
 0.9611128221D-02    1    2    0
 0.648854551133142D+02 0.000000000000000D+00 0.000000000000000D+00 0.648854551133142D+02
 0.648854551133142D+02 0.000000000000000D+00 0.000000000000000D+00 -.648854551133142D+02
 0.542966922064634D+02 0.536894366832501D+01 -.306186840858884D+01 0.202467328302188D+02
 0.278907550554759D+02 -.391308664038220D+01 0.414432953562464D+01 0.273021336750366D+02
 0.475834629646891D+02 -.145585702794282D+01 -.108246112703580D+01 -.475488665052553D+02
 0.000000000000000D+00 -.000000000000000D+00 -.000000000000000D+00 0.000000000000000D+00
 0.682400595799177D+02 0.000000000000000D+00 0.000000000000000D+00 0.682400595799177D+02
 0.670769869679547D+02 0.000000000000000D+00 0.000000000000000D+00 -.670769869679547D+02
 0.544046669375475D+02 0.691369568843622D+01 -.146232903784142D+01 0.202467328302188D+02
 0.279248629228628D+02 -.311989243099273D+01 0.496565577443155D+01 0.273021336750366D+02
 0.475500395889226D+02 -.103917444048078D+00 0.317427374910182D+00 -.475488665052553D+02
 0.543747709853953D+01 -.368988581339542D+01 -.382075411150031D+01 0.116307261196307D+01
0.238105338027D-04 0.000000000000D+00 0.000000000000D+00 0.463081307199D-06 0.393877055467D-05  6 1 22 9900012 13 2 21 2 0.10092817D-01 0.10734303D-01 0.96121594D+03 0.96121594D+03 0.96121594D+03 0.13316200D+01  1  2  1  1  6  1        1 0.961112822092D-02 0.100000000000D+01
  </mgrwgt>
  </event>
  <event>
  7     66 0.19493620E-05 0.10393008E+02 0.78161638E-02 0.13264542E+00
        3 -1    0    0  502    0 0.00000000E+00 0.00000000E+00 0.71774688E+03 0.71774688E+03 0.00000000E+00 0.0000E+00 0.9000E+01
       22 -1    0    0    0    0 0.00000000E+00 0.00000000E+00 -.15434288E+02 0.15434288E+02 0.00000000E+00 0.0000E+00 0.9000E+01
      -24  2    1    2    0    0 0.67616540E+01 0.76952419E+01 0.62979124E+03 0.63468045E+03 0.77957257E+02 0.0000E+00 0.0000E+00
  9900012  1    3    3    0    0 0.17655315E+01 0.27251466E+02 0.40546114E+03 0.40944413E+03 0.50000000E+02 0.0000E+00 0.9000E+01
       13  1    3    3    0    0 0.49961225E+01 -.19556224E+02 0.22433010E+03 0.22523633E+03 0.00000000E+00 0.0000E+00 0.9000E+01
        4  1    1    2  501    0 0.25743414E+00 0.18174652E+00 -.12662275E+02 0.12666196E+02 0.00000000E+00 0.0000E+00 0.9000E+01
       21  1    1    2  502  501 -.70190881E+01 -.78769884E+01 0.85183625E+02 0.85834518E+02 0.00000000E+00 0.0000E+00 0.9000E+01
#aMCatNLO 2  0  0  1  5 0.23957898D+01 0.00000000D+00  -5  6  0 0.00000000D+00 0.00000000D+00 0.00000000D+00 0.00000000D+00 0.00000000D+00
  <mgrwgt>
 0.1257174138D-01    1    2    0
 0.975938122261556D+02 0.000000000000000D+00 0.000000000000000D+00 0.975938122261556D+02
 0.975938122261556D+02 0.000000000000000D+00 0.000000000000000D+00 -.975938122261556D+02
 0.748173429273924D+02 -.941902262179509D+00 0.242131190462883D+02 0.501046154450247D+02
 0.383443974992959D+02 0.363017613079663D+01 -.210891216506745D+02 0.318176615867109D+02
 0.820258840256228D+02 -.268827386861713D+01 -.312399739561388D+01 -.819222770317356D+02
 0.000000000000000D+00 -.000000000000000D+00 -.000000000000000D+00 0.000000000000000D+00
 0.110954945328329D+03 0.000000000000000D+00 0.000000000000000D+00 0.110954945328329D+03
 0.998415354282415D+02 0.000000000000000D+00 0.000000000000000D+00 -.998415354282415D+02
 0.758698358046017D+02 0.176553150775274D+01 0.272514659168742D+02 0.501046154450247D+02
 0.376798450968381D+02 0.499612248051479D+01 -.195562240178145D+02 0.318176615867109D+02
 0.819228831169602D+02 0.257434136773669D+00 0.181746515552097D+00 -.819222770317356D+02
 0.153239167381708D+02 -.701908812504120D+01 -.787698841461176D+01 0.111134099000877D+02
0.500924693352D-03 0.000000000000D+00 0.000000000000D+00 0.713475677993D-05 0.914035844602D-04  6 3 22 9900012 13 4 21 2 0.11042260D+00 0.23745059D-02 0.19369502D+04 0.19369502D+04 0.19369502D+04 0.12910738D+01  1  2  1  1  6  1        3 0.125717413836D-01 0.100000000000D+01
  </mgrwgt>
  </event>
  <event>
  7     66 0.19493620E-05 0.39817911E+02 0.78161638E-02 0.12509552E+00
        1 -1    0    0  502    0 0.00000000E+00 0.00000000E+00 0.45200651E+03 0.45200651E+03 0.00000000E+00 0.0000E+00 0.9000E+01
       22 -1    0    0    0    0 0.00000000E+00 0.00000000E+00 -.10774745E+03 0.10774745E+03 0.00000000E+00 0.0000E+00 0.9000E+01
      -24  2    1    2    0    0 0.49670089E+02 -.25791829E+01 0.32545933E+03 0.33820829E+03 0.77377661E+02 0.0000E+00 0.0000E+00
  9900012  1    3    3    0    0 0.35820962E+02 -.93089912E+00 0.14900003E+03 0.16119869E+03 0.50000000E+02 0.0000E+00 0.9000E+01
       13  1    3    3    0    0 0.13849128E+02 -.16482838E+01 0.17645930E+03 0.17700960E+03 0.00000000E+00 0.0000E+00 0.9000E+01
        2  1    1    2  501    0 0.68511162E-01 0.98344964E-01 -.96213520E+02 0.96213595E+02 0.00000000E+00 0.0000E+00 0.9000E+01
       21  1    1    2  502  501 -.49738601E+02 0.24808380E+01 0.11501325E+03 0.12533208E+03 0.00000000E+00 0.0000E+00 0.9000E+01
#aMCatNLO 2  0  0  1  5 0.10743724D+02 0.00000000D+00  -5  6  0 0.00000000D+00 0.00000000D+00 0.00000000D+00 0.00000000D+00 0.00000000D+00
  <mgrwgt>
 0.3724149382D+00    1    2    0
 0.182817292492916D+03 0.000000000000000D+00 0.000000000000000D+00 0.182817292492916D+03
 0.182817292492916D+03 0.000000000000000D+00 0.000000000000000D+00 -.182817292492916D+03
 0.932258952401703D+02 0.229278060278558D+02 -.287820513727779D+00 0.752681899173356D+02
 0.977789466609245D+02 0.542454084555240D+00 -.984579942117316D+00 0.977724846571041D+02
 0.174629743084737D+03 -.234702601124110D+02 0.127240045584510D+01 -.173040674574440D+03
 0.000000000000000D+00 -.000000000000000D+00 0.000000000000000D+00 0.000000000000000D+00
 0.251323276803627D+03 0.000000000000000D+00 0.000000000000000D+00 0.251323276803627D+03
 0.193784480750609D+03 0.000000000000000D+00 0.000000000000000D+00 -.193784480750609D+03
 0.972075526273326D+02 0.358209617568621D+02 -.930899122868684D+00 0.752681899173356D+02
 0.987622090288969D+02 0.138491276539528D+02 -.164828379485591D+01 0.977724846571041D+02
 0.173040716083494D+03 0.685111624228760D-01 0.983449638873757D-01 -.173040674574440D+03
 0.760972798145120D+02 -.497386005732378D+02 0.248083795383722D+01 0.575387960530185D+02
0.182258875580D-01 0.000000000000D+00 0.000000000000D+00 0.132809157854D-05 0.875981882362D-04  6 1 22 9900012 13 2 21 2 0.69539464D-01 0.16576531D-01 0.39301268D+04 0.39301268D+04 0.39301268D+04 0.12537929D+01  1  2  1  1  6  1        1 0.372414938150D+00 0.100000000000D+01
  </mgrwgt>
  </event>
  <event>
  6     66 0.19493620E-05 0.75961608E+01 0.78161638E-02 0.13908070E+00
        1 -1    0    0  501    0 0.00000000E+00 0.00000000E+00 0.11438801E+04 0.11438801E+04 0.00000000E+00 0.0000E+00 0.9000E+01
       22 -1    0    0    0    0 0.00000000E+00 0.00000000E+00 -.21134242E+01 0.21134242E+01 0.00000000E+00 0.0000E+00 0.9000E+01
      -24  2    1    2    0    0 0.57429419E+01 -.49719491E+01 0.11131135E+04 0.11163506E+04 0.84611888E+02 0.0000E+00 0.0000E+00
  9900012  1    3    3    0    0 -.22079405E+01 -.92896336E+01 0.40593390E+03 0.40911307E+03 0.50000000E+02 0.0000E+00 0.9000E+01
       13  1    3    3    0    0 0.79508824E+01 0.43176845E+01 0.70717962E+03 0.70723750E+03 0.00000000E+00 0.0000E+00 0.9000E+01
        2  1    1    2  501    0 -.57429419E+01 0.49719491E+01 0.28653111E+02 0.29642915E+02 0.00000000E+00 0.0000E+00 0.9000E+01
#aMCatNLO 1  0  0  5  1 0.27194815D+01 0.00000000D+00  -5  6  0 0.00000000D+00 0.00000000D+00 0.00000000D+00 0.00000000D+00 0.00000000D+00
  <mgrwgt>
 0.6033080547D-02    8    2    0
 0.491681171913272D+02 0.000000000000000D+00 0.000000000000000D+00 0.491681171913272D+02
 0.491681171913272D+02 -.000000000000000D+00 -.000000000000000D+00 -.491681171913272D+02
 0.544980021528994D+02 -.220794053496915D+01 -.928963356668130D+01 -.194643249420127D+02
 0.310716088122684D+02 0.795088240602180D+01 0.431768449364261D+01 0.297251735699156D+02
 0.127666234174866D+02 -.574294187105265D+01 0.497194907303868D+01 -.102608486279029D+02
 0.000000000000000D+00 -.000000000000000D+00 0.000000000000000D+00 0.000000000000000D+00
 0.491681171913272D+02 0.000000000000000D+00 0.000000000000000D+00 0.491681171913272D+02
 0.491681171913272D+02 -.000000000000000D+00 -.000000000000000D+00 -.491681171913272D+02
 0.546870543180629D+02 -.255430112329894D+01 -.898977205933023D+01 -.200831634480120D+02
 0.307110005641574D+02 0.775489348937130D+01 0.448736180090878D+01 0.293750024117094D+02
 0.419811321457750D+01 0.235836411017534D+00 -.600440945847898D-01 -.419105362126925D+01
 0.874006628585652D+01 -.543642877708990D+01 0.456245435300624D+01 -.510078534242808D+01
0.644021595532D-07 0.000000000000D+00 0.000000000000D+00 0.774574370288D-07 0.000000000000D+00  6 1 22 9900012 13 2 21 0 0.17598155D+00 0.32514218D-03 0.11406598D+04 0.11406598D+04 0.11406598D+04 0.13213491D+01  1  2  2  2  6  5        2 0.379946802601D-04 0.100000000000D+01
-.946444092104D-10 0.000000000000D+00 -.123660625081D-09 0.774574370288D-07 0.000000000000D+00  6 1 22 9900012 13 2 21 2 0.17598155D+00 0.32514218D-03 0.11406598D+04 0.11406598D+04 0.11406598D+04 0.13213491D+01  1  2  3  2  6  5        2 -.974882968158D-07 0.100000000000D+01
0.353668934291D-08 0.000000000000D+00 0.000000000000D+00 0.774574370288D-07 0.000000000000D+00  6 1 22 9900012 13 2 21 2 0.17598155D+00 0.32514218D-03 0.11406598D+04 0.11406598D+04 0.11406598D+04 0.13213491D+01  1  2 15  2  6  5        2 0.364296024755D-05 0.100000000000D+01
0.179722145242D-09 0.000000000000D+00 0.000000000000D+00 0.774574370288D-07 0.000000000000D+00  6 1 22 9900012 13 2 21 2 0.17598155D+00 0.32514218D-03 0.11278220D+04 0.11278220D+04 0.11278220D+04 0.13220211D+01  1  2 12  2  6  5        2 0.185093343544D-06 0.100000000000D+01
-.974596645580D-07 0.000000000000D+00 0.000000000000D+00 0.774574370288D-07 0.000000000000D+00  6 1 22 9900012 13 2 21 2 0.17598155D+00 0.32514218D-03 0.11406598D+04 0.11406598D+04 0.11406598D+04 0.13213491D+01  1  2  4  2  6  5        2 -.100388145325D-03 0.100000000000D+01
-.200249269411D-07 0.000000000000D+00 0.000000000000D+00 0.774574370288D-07 0.000000000000D+00  6 1 22 9900012 13 2 21 2 0.17598155D+00 0.32514218D-03 0.11406598D+04 0.11406598D+04 0.11406598D+04 0.13213491D+01  1  2  5  2  6  5        2 -.206266385689D-04 0.100000000000D+01
0.527670210535D-07 0.000000000000D+00 -.000000000000D+00 0.774574370288D-07 0.000000000000D+00  6 1 22 9900012 13 2 21 2 0.17598155D+00 0.32514218D-03 0.11406598D+04 0.11406598D+04 0.11406598D+04 0.13213491D+01  1  2  6  2  6  5        2 0.543525714141D-04 0.100000000000D+01
0.588222073633D-05 0.000000000000D+00 0.000000000000D+00 0.774574370288D-07 0.490210352776D-05  6 1 22 9900012 13 2 21 2 0.17598155D+00 0.32514218D-03 0.11278220D+04 0.11278220D+04 0.11278220D+04 0.13220211D+01  1  2 11  2  6  5        2 0.605801751411D-02 0.100000000000D+01
  </mgrwgt>
  </event>
  <event>
  6     66 -.19493620E-05 0.73120046E+01 0.78161638E-02 0.13455240E+00
        3 -1    0    0  501    0 0.00000000E+00 0.00000000E+00 0.21993934E+02 0.21993934E+02 0.00000000E+00 0.0000E+00 0.9000E+01
       22 -1    0    0    0    0 0.00000000E+00 0.00000000E+00 -.19337393E+03 0.19337393E+03 0.00000000E+00 0.0000E+00 0.9000E+01
      -24  2    1    2    0    0 -.43863264E+01 -.58502609E+01 -.53565022E+02 0.97326205E+02 0.80930298E+02 0.0000E+00 0.0000E+00
  9900012  1    3    3    0    0 -.18209625E+02 -.31740853E+01 -.61320269E+02 0.81251711E+02 0.50000000E+02 0.0000E+00 0.9000E+01
       13  1    3    3    0    0 0.13823298E+02 -.26761756E+01 0.77552466E+01 0.16074493E+02 0.00000000E+00 0.0000E+00 0.9000E+01
        4  1    1    2  501    0 0.43863264E+01 0.58502609E+01 -.11781497E+03 0.11804166E+03 0.00000000E+00 0.0000E+00 0.9000E+01
#aMCatNLO 1  0  0  1  5 0.91584617D+01 0.00000000D+00  -5  6  0 0.00000000D+00 0.00000000D+00 0.00000000D+00 0.00000000D+00 0.00000000D+00
  <mgrwgt>
 -.8045758168D-04    9    2    0
 0.652154390809483D+02 0.000000000000000D+00 0.000000000000000D+00 0.652154390809483D+02
 0.652154390809483D+02 0.000000000000000D+00 0.000000000000000D+00 -.652154390809483D+02
 0.535911452830851D+02 -.182096245263356D+02 -.317408528383988D+01 0.550868495863795D+01
 0.367322789668305D+02 0.138232981312758D+02 -.267617558729204D+01 0.339266094842515D+02
 0.401074539119811D+02 0.438632639505981D+01 0.585026087113192D+01 -.394352944428895D+02
 0.000000000000000D+00 0.000000000000000D+00 0.000000000000000D+00 0.000000000000000D+00
 0.124654497013505D+03 0.000000000000000D+00 0.000000000000000D+00 0.124654497013505D+03
 0.657240534571681D+02 0.000000000000000D+00 0.000000000000000D+00 -.657240534571681D+02
 0.549957361760272D+02 -.217879934497070D+02 -.441233826957951D+01 0.550868495863795D+01
 0.359706553052121D+02 0.114274477565236D+02 -.350523176999756D+01 0.339266094842515D+02
 0.397820808560381D+02 0.175364899724618D+01 0.493925344899596D+01 -.394352944428895D+02
 0.596300781333960D+02 0.860689669593715D+01 0.297831659058111D+01 0.589304435563372D+02
0.252333932477D-07 0.000000000000D+00 0.000000000000D+00 0.254088887895D-05 0.000000000000D+00  6 3 22 9900012 13 4 21 0 0.33836822D-02 0.29749835D-01 0.13949943D+04 0.13949943D+04 0.13949943D+04 0.13095827D+01  1  2  2  1  6  1        3 0.456856353501D-05 0.100000000000D+01
-.133033132236D-08 0.000000000000D+00 -.484514370881D-10 0.254088887895D-05 0.000000000000D+00  6 3 22 9900012 13 4 21 2 0.33836822D-02 0.29749835D-01 0.13949943D+04 0.13949943D+04 0.13949943D+04 0.13095827D+01  1  2  3  1  6  1        3 -.413075719526D-06 0.100000000000D+01
0.207790872899D-08 0.000000000000D+00 0.000000000000D+00 0.254088887895D-05 0.000000000000D+00  6 3 22 9900012 13 4 21 2 0.33836822D-02 0.29749835D-01 0.13949943D+04 0.13949943D+04 0.13949943D+04 0.13095827D+01  1  2 15  1  6  1        3 0.645202912169D-06 0.100000000000D+01
-.264218543230D-06 0.000000000000D+00 0.000000000000D+00 0.254088887895D-05 0.000000000000D+00  6 3 22 9900012 13 4 21 2 0.33836822D-02 0.29749835D-01 0.13949943D+04 0.13949943D+04 0.13949943D+04 0.13095827D+01  1  2  4  1  6  1        3 -.820414155648D-04 0.100000000000D+01
-.306590136653D-06 0.000000000000D+00 -.696782072190D-08 0.254088887895D-05 0.000000000000D+00  6 3 22 9900012 13 4 21 2 0.65033854D-02 0.29749835D-01 0.13949943D+04 0.13949943D+04 0.13949943D+04 0.13095827D+01  1  2  5  1  6  1        3 -.363596712735D-04 0.100000000000D+01
0.255830142876D-06 0.000000000000D+00 0.570599618392D-08 0.254088887895D-05 0.000000000000D+00  6 3 22 9900012 13 4 21 2 0.33836822D-02 0.29749835D-01 0.13949943D+04 0.13949943D+04 0.13949943D+04 0.13095827D+01  1  2  6  1  6  1        3 0.794367677950D-04 0.100000000000D+01
0.563201979534D-10 0.000000000000D+00 0.000000000000D+00 0.254088887895D-05 0.670654562860D-06  6 3 22 9900012 13 4 21 2 0.64676587D-02 0.29981854D-01 0.16411035D+04 0.16411035D+04 0.16411035D+04 0.13003212D+01  1  2 11  1  6  1        3 0.670191271965D-08 0.100000000000D+01
-.213342234965D-07 0.000000000000D+00 -.494016467538D-09 0.254088887895D-05 0.000000000000D+00  6 21 22 9900012 13 4 -3 2 0.65033854D-02 0.29749835D-01 0.13949943D+04 0.13949943D+04 0.13949943D+04 0.13095827D+01  1  2  5  3  6  1        3 -.463097547547D-04 0.100000000000D+01
0.418506083180D-11 0.000000000000D+00 0.000000000000D+00 0.254088887895D-05 0.497494815915D-07  6 21 22 9900012 13 4 -3 2 0.64676587D-02 0.29981854D-01 0.16411035D+04 0.16411035D+04 0.16411035D+04 0.13003212D+01  1  2 11  3  6  1        3 0.909947856018D-08 0.100000000000D+01
  </mgrwgt>
  </event>
  <event>
  7     66 0.19493620E-05 0.51064143E+01 0.78161638E-02 0.13475787E+00
       21 -1    0    0  501  502 0.00000000E+00 0.00000000E+00 0.38041847E+03 0.38041847E+03 0.00000000E+00 0.0000E+00 0.9000E+01
       22 -1    0    0    0    0 0.00000000E+00 0.00000000E+00 -.15418109E+02 0.15418109E+02 0.00000000E+00 0.0000E+00 0.9000E+01
      -24  2    1    2    0    0 0.85776286E+00 -.53551831E+01 0.11826505E+03 0.14431303E+03 0.82524040E+02 0.0000E+00 0.0000E+00
  9900012  1    3    3    0    0 0.47278868E+01 -.23038455E+02 0.52927698E+02 0.76514473E+02 0.50000000E+02 0.0000E+00 0.9000E+01
       13  1    3    3    0    0 -.38701240E+01 0.17683272E+02 0.65337347E+02 0.67798562E+02 0.00000000E+00 0.0000E+00 0.9000E+01
        2  1    1    2  501    0 -.11792284E+01 -.35844645E+00 -.22003964E+01 0.25220642E+01 0.00000000E+00 0.0000E+00 0.9000E+01
       -1  1    1    2    0  502 0.32146558E+00 0.57136296E+01 0.24893571E+03 0.24900148E+03 0.00000000E+00 0.0000E+00 0.9000E+01
#aMCatNLO 2  0  0  1  5 0.80473950D+00 0.00000000D+00  -5  6  0 0.00000000D+00 0.00000000D+00 0.00000000D+00 0.00000000D+00 0.00000000D+00
  <mgrwgt>
 0.1313672185D-03    1    2    0
 0.448798243910757D+02 0.000000000000000D+00 0.000000000000000D+00 0.448798243910757D+02
 0.448798243910757D+02 0.000000000000000D+00 0.000000000000000D+00 -.448798243910757D+02
 0.552794290225280D+02 0.492805153574001D+01 -.194807899344200D+02 -.123299799127494D+02
 0.275362456175251D+02 -.377369015492435D+01 0.193972569374047D+02 0.191768221722892D+02
 0.694397414209830D+01 -.115436138081566D+01 0.835329970152737D-01 -.684684225953985D+01
 0.000000000000000D+00 0.000000000000000D+00 0.000000000000000D+00 0.000000000000000D+00
 0.130146780938642D+03 0.000000000000000D+00 0.000000000000000D+00 0.130146780938642D+03
 0.450670661158613D+02 0.000000000000000D+00 0.000000000000000D+00 -.450670661158613D+02
 0.566140595920569D+02 0.472788682955904D+01 -.230384553512393D+02 -.123299799127494D+02
 0.263709401471778D+02 -.387012397009301D+01 0.176832722106104D+02 0.191768221722892D+02
 0.695688957104364D+01 -.117922844265504D+01 -.358446448871065D+00 -.684684225953985D+01
 0.852719577442245D+02 0.321465583189010D+00 0.571362958950002D+01 0.850797148227803D+02
0.830328179425D-07 0.000000000000D+00 0.000000000000D+00 0.422201080723D-05 0.214052047752D-06  6 21 22 9900012 13 2 -1 2 0.58525918D-01 0.23720168D-02 0.16125070D+04 0.16125070D+04 0.16125070D+04 0.13013137D+01  1  2  1  3  6  1        1 0.131367218455D-03 0.100000000000D+01
  </mgrwgt>
  </event>
  <event>
  7     66 0.19493620E-05 0.55867502E+01 0.78161638E-02 0.13143342E+00
        1 -1    0    0  502    0 0.00000000E+00 0.00000000E+00 0.83076758E+01 0.83076758E+01 0.00000000E+00 0.0000E+00 0.9000E+01
       22 -1    0    0    0    0 0.00000000E+00 0.00000000E+00 -.65832983E+03 0.65832983E+03 0.00000000E+00 0.0000E+00 0.9000E+01
      -24  2    1    2    0    0 0.55358356E+01 -.21181405E+00 -.28422610E+03 0.29745886E+03 0.87559178E+02 0.0000E+00 0.0000E+00
  9900012  1    3    3    0    0 0.25511320E+02 0.19170370E+02 -.20877971E+03 0.21704215E+03 0.50000000E+02 0.0000E+00 0.9000E+01
       13  1    3    3    0    0 -.19975485E+02 -.19382184E+02 -.75446390E+02 0.80416708E+02 0.00000000E+00 0.0000E+00 0.9000E+01
        2  1    1    2  501    0 0.10105732E+00 -.49105585E-01 -.36278047E+03 0.36278049E+03 0.00000000E+00 0.0000E+00 0.9000E+01
       21  1    1    2  502  501 -.56368929E+01 0.26091963E+00 -.30155864E+01 0.63981561E+01 0.00000000E+00 0.0000E+00 0.9000E+01
#aMCatNLO 2  0  0  1  5 0.13589774D+01 0.00000000D+00  -5  6  0 0.00000000D+00 0.00000000D+00 0.00000000D+00 0.00000000D+00 0.00000000D+00
  <mgrwgt>
 0.1120436441D-01    1    2    0
 0.657013267090235D+02 0.000000000000000D+00 0.000000000000000D+00 0.657013267090235D+02
 0.657013267090235D+02 0.000000000000000D+00 0.000000000000000D+00 -.657013267090235D+02
 0.614837378273233D+02 0.228536026644154D+02 0.192933903573963D+02 0.196399580191299D+02
 0.333897916183343D+02 -.213889866549164D+02 -.193167564187460D+02 0.168597851602692D+02
 0.365291239723894D+02 -.146461600949893D+01 0.233660613496241D-01 -.364997431793991D+02
 0.000000000000000D+00 -.000000000000000D+00 0.000000000000000D+00 0.000000000000000D+00
 0.825719630752918D+02 0.000000000000000D+00 0.000000000000000D+00 0.825719630752918D+02
 0.662354456108707D+02 0.000000000000000D+00 0.000000000000000D+00 -.662354456108707D+02
 0.624824657060950D+02 0.255113204542278D+02 0.191703703251098D+02 0.196399580191299D+02
 0.325413801647802D+02 -.199754848846220D+02 -.193821843712867D+02 0.168597851602692D+02
 0.364999161109050D+02 0.101057322991042D+00 -.491055850574333D-01 -.364997431793991D+02
 0.172836467043823D+02 -.563689289259681D+01 0.260919631234345D+00 0.163365174644211D+02
0.624156410296D-04 0.000000000000D+00 0.000000000000D+00 0.111756220492D-05 0.555381012803D-04  6 1 22 9900012 13 2 21 2 0.12781040D-02 0.10128151D+00 0.21577901D+04 0.21577901D+04 0.21577901D+04 0.12851619D+01  1  2  1  1  6  1        1 0.112043644076D-01 0.100000000000D+01
  </mgrwgt>
  </event>
  <event>
  6     66 0.19493620E-05 0.32013993E+02 0.78161638E-02 0.83597258E-01
        1 -1    0    0  501    0 0.00000000E+00 0.00000000E+00 0.64957589E+02 0.64957589E+02 0.00000000E+00 0.0000E+00 0.9000E+01
       22 -1    0    0    0    0 0.00000000E+00 0.00000000E+00 -.62182612E+02 0.62182612E+02 0.00000000E+00 0.0000E+00 0.9000E+01
      -24  2    1    2    0    0 -.23777917E+02 0.21436100E+02 0.23400912E+02 0.89057069E+02 0.79741226E+02 0.0000E+00 0.0000E+00
  9900012  1    3    3    0    0 0.65877107E+01 0.19985159E+02 0.75436564E+01 0.54769620E+02 0.50000000E+02 0.0000E+00 0.9000E+01
       13  1    3    3    0    0 -.30365628E+02 0.14509406E+01 0.15857256E+02 0.34287449E+02 0.00000000E+00 0.0000E+00 0.9000E+01
        2  1    1    2  501    0 0.23777917E+02 -.21436100E+02 -.20625935E+02 0.38083132E+02 0.00000000E+00 0.0000E+00 0.9000E+01
#aMCatNLO 1  0  0  1  5 0.83987537D+02 0.00000000D+00  -5  6  0 0.00000000D+00 0.00000000D+00 0.00000000D+00 0.00000000D+00 0.00000000D+00
  <mgrwgt>
 0.1211149432D-03    5    2    0
 0.635549568786898D+02 0.000000000000000D+00 0.000000000000000D+00 0.635549568786898D+02
 0.635549568786898D+02 0.000000000000000D+00 0.000000000000000D+00 -.635549568786898D+02
 0.546179823060091D+02 0.658771068980720D+01 0.199851593998703D+02 0.634976084657542D+01
 0.339494339444123D+02 -.303656280447601D+02 0.145094062669920D+01 0.151124938342779D+02
 0.385424975069581D+02 0.237779173549529D+02 -.214361000265695D+02 -.214622546808533D+02
 0.000000000000000D+00 -.000000000000000D+00 0.000000000000000D+00 0.000000000000000D+00
 0.168437091314130D+04 0.000000000000000D+00 0.000000000000000D+00 0.168437091314130D+04
 0.122775851183488D+04 0.000000000000000D+00 0.000000000000000D+00 -.122775851183488D+04
 0.457913536569782D+03 0.247108008623171D+03 -.382206906773448D+03 0.634976084657542D+01
 0.192407451967493D+03 0.758589135370309D+02 -.176175098523354D+03 0.151124938342779D+02
 0.772720130768139D+03 0.404486462817535D+03 -.658047470564019D+03 -.214622546808533D+02
 0.148908830567076D+04 -.727453384977737D+03 0.121642947586082D+04 0.456612401306423D+03
0.389952812173D-06 0.000000000000D+00 0.000000000000D+00 0.218376978429D-06 0.000000000000D+00  6 1 22 9900012 13 2 21 0 0.99934752D-02 0.95665557D-02 0.34024990D+04 0.34024990D+04 0.34024990D+04 0.12611156D+01  1  2  2  1  6  1        1 0.122678967006D-03 0.100000000000D+01
-.185458930813D-07 0.000000000000D+00 -.748760737839D-09 0.218376978429D-06 0.000000000000D+00  6 1 22 9900012 13 2 21 2 0.99934752D-02 0.95665557D-02 0.34024990D+04 0.34024990D+04 0.34024990D+04 0.12611156D+01  1  2  3  1  6  1        1 -.927930843332D-05 0.100000000000D+01
0.153394746127D-07 0.000000000000D+00 0.000000000000D+00 0.218376978429D-06 0.000000000000D+00  6 1 22 9900012 13 2 21 2 0.99934752D-02 0.95665557D-02 0.34024990D+04 0.34024990D+04 0.34024990D+04 0.12611156D+01  1  2 15  1  6  1        1 0.767499928487D-05 0.100000000000D+01
0.914426620508D-05 0.000000000000D+00 -.180326912489D-05 0.218376978429D-06 0.000000000000D+00  6 1 22 9900012 13 2 21 2 0.84750743D+00 0.95665557D-02 0.34024990D+04 0.34024990D+04 0.34024990D+04 0.12611156D+01  1  2  5  1  6  1        1 0.387114272991D-07 0.100000000000D+01
0.268760364094D-05 0.000000000000D+00 -.652587690107D-06 0.218376978429D-06 0.000000000000D+00  6 21 22 9900012 13 2 -1 2 0.84750743D+00 0.95665557D-02 0.34024990D+04 0.34024990D+04 0.34024990D+04 0.12611156D+01  1  2  5  3  6  1        1 0.157389325494D-08 0.100000000000D+01
  </mgrwgt>
  </event>
  <event>
  7     66 0.19493620E-05 0.13991031E+02 0.78161638E-02 0.13159166E+00
       21 -1    0    0  501  502 0.00000000E+00 0.00000000E+00 0.51709283E+02 0.51709283E+02 0.00000000E+00 0.0000E+00 0.9000E+01
       22 -1    0    0    0    0 0.00000000E+00 0.00000000E+00 -.49803527E+02 0.49803527E+02 0.00000000E+00 0.0000E+00 0.9000E+01
      -24  2    1    2    0    0 0.36259482E+01 0.13596316E+02 0.55887571E+01 0.81660494E+02 0.80244594E+02 0.0000E+00 0.0000E+00
  9900012  1    3    3    0    0 -.19224650E+02 0.51606765E+01 -.69521061E+01 0.54263722E+02 0.50000000E+02 0.0000E+00 0.9000E+01
       13  1    3    3    0    0 0.22850599E+02 0.84356393E+01 0.12540863E+02 0.27396772E+02 0.00000000E+00 0.0000E+00 0.9000E+01
        2  1    1    2  501    0 -.11024650E-01 -.52559090E-01 -.56910799E+01 0.56913333E+01 0.00000000E+00 0.0000E+00 0.9000E+01
       -1  1    1    2    0  502 -.36149236E+01 -.13543757E+02 0.20080788E+01 0.14160982E+02 0.00000000E+00 0.0000E+00 0.9000E+01
#aMCatNLO 2  0  0  1  5 0.56646816D+01 0.00000000D+00  -5  6  0 0.00000000D+00 0.00000000D+00 0.00000000D+00 0.00000000D+00 0.00000000D+00
  <mgrwgt>
 0.3950550336D-02    1    2    0
 0.431098315376173D+02 0.000000000000000D+00 0.000000000000000D+00 0.431098315376173D+02
 0.431098315376173D+02 0.000000000000000D+00 0.000000000000000D+00 -.431098315376173D+02
 0.549633862531428D+02 -.214993240430587D+02 -.336166836017059D+01 -.688854701224813D+01
 0.254882452391949D+02 0.217488709155780D+02 0.430788035638116D+01 0.125729640938792D+02
 0.576803158289685D+01 -.249546872519255D+00 -.946211996210575D+00 -.568441708163104D+01
 0.000000000000000D+00 -.000000000000000D+00 -.000000000000000D+00 0.000000000000000D+00
 0.517698896583189D+02 0.000000000000000D+00 0.000000000000000D+00 0.517698896583189D+02
 0.497452214864657D+02 0.000000000000000D+00 0.000000000000000D+00 -.497452214864657D+02
 0.542556158216158D+02 -.192246504919890D+02 0.516067647733170D+01 -.688854701224813D+01
 0.274114811107135D+02 0.228505986928067D+02 0.843563927377943D+01 0.125729640938792D+02
 0.568467075201295D+01 -.110246502445840D-01 -.525590899831337D-01 -.568441708163104D+01
 0.141633434604422D+02 -.361492355057306D+01 -.135437566611280D+02 0.202466817185321D+01
0.350281982286D-06 0.000000000000D+00 0.000000000000D+00 0.244675146458D-04 0.103297916781D-04  6 21 22 9900012 13 2 -1 2 0.79552742D-02 0.76620810D-02 0.21273346D+04 0.21273346D+04 0.21273346D+04 0.12859353D+01  1  2  1  3  6  1        1 0.395055033628D-02 0.100000000000D+01
  </mgrwgt>
  </event>
  <event>
  7     66 0.19493620E-05 0.31138122E+02 0.78161638E-02 0.11998783E+00
        3 -1    0    0  502    0 0.00000000E+00 0.00000000E+00 0.47210803E+02 0.47210803E+02 0.00000000E+00 0.0000E+00 0.9000E+01
       22 -1    0    0    0    0 0.00000000E+00 0.00000000E+00 -.36377808E+03 0.36377808E+03 0.00000000E+00 0.0000E+00 0.9000E+01
      -24  2    1    2    0    0 0.58641471E+02 -.32291967E+02 -.30001510E+03 0.31783548E+03 0.80800612E+02 0.0000E+00 0.0000E+00
  9900012  1    3    3    0    0 0.26204115E+02 -.10882181E+02 -.23637633E+03 0.24326703E+03 0.50000000E+02 0.0000E+00 0.9000E+01
       13  1    3    3    0    0 0.32437356E+02 -.21409786E+02 -.63638770E+02 0.74568452E+02 0.00000000E+00 0.0000E+00 0.9000E+01
        4  1    1    2  501    0 -.19820105E+02 0.13502588E+02 -.38039070E+02 0.44968069E+02 0.00000000E+00 0.0000E+00 0.9000E+01
       21  1    1    2  502  501 -.38821366E+02 0.18789379E+02 0.21486897E+02 0.48185330E+02 0.00000000E+00 0.0000E+00 0.9000E+01
#aMCatNLO 2  0  0  1  1 0.44188761D+02 0.00000000D+00  -5  6  0 0.00000000D+00 0.00000000D+00 0.00000000D+00 0.00000000D+00 0.00000000D+00
  <mgrwgt>
 0.2059950193D-04    1    2    0
 0.622206850935134D+02 0.000000000000000D+00 0.000000000000000D+00 0.622206850935134D+02
 0.622206850935134D+02 0.000000000000000D+00 0.000000000000000D+00 -.622206850935134D+02
 0.572831066307481D+02 0.791319392898185D+01 -.202945190521736D+01 -.267323211127727D+02
 0.311697670113818D+02 0.213375983416556D+02 -.160375496832741D+02 0.160952872826339D+02
 0.359884965448968D+02 -.292507922706374D+02 0.180670015884914D+02 0.106370338301388D+02
 0.000000000000000D+00 -.000000000000000D+00 0.000000000000000D+00 0.000000000000000D+00
 0.251231542031890D+03 0.000000000000000D+00 0.000000000000000D+00 0.251231542031890D+03
 0.683602670353825D+02 0.000000000000000D+00 0.000000000000000D+00 -.683602670353825D+02
 0.634010605483829D+02 0.262041145895614D+02 -.108821810847116D+02 -.267323211127727D+02
 0.420668430606692D+02 0.324373561275246D+02 -.214097860763857D+02 0.160952872826339D+02
 0.262355278145429D+02 -.198201045562237D+02 0.135025881365202D+02 0.106370338301388D+02
 0.187888377643678D+03 -.388213661608623D+02 0.187893790245771D+02 0.182871274996507D+03
0.538124166155D-06 0.000000000000D+00 0.000000000000D+00 0.191509086784D-06 0.547523417299D-08  6 3 22 9900012 13 4 21 2 0.72632005D-02 0.55965858D-01 0.66804051D+04 0.66804051D+04 0.66804051D+04 0.12279298D+01  1  2  1  1  6  1        3 0.205995019332D-04 0.100000000000D+01
  </mgrwgt>
  </event>
  <event>
  7     66 0.19493620E-05 0.95851809E+01 0.78161638E-02 0.13214015E+00
        1 -1    0    0  502    0 0.00000000E+00 0.00000000E+00 0.55283139E+02 0.55283139E+02 0.00000000E+00 0.0000E+00 0.9000E+01
       22 -1    0    0    0    0 0.00000000E+00 0.00000000E+00 -.27609853E+03 0.27609853E+03 0.00000000E+00 0.0000E+00 0.9000E+01
      -24  2    1    2    0    0 -.39069527E+01 -.88522950E+01 -.68146970E+01 0.80157420E+02 0.79278903E+02 0.0000E+00 0.0000E+00
  9900012  1    3    3    0    0 0.20531781E+02 -.19839127E+01 -.91601731E+00 0.54095555E+02 0.50000000E+02 0.0000E+00 0.9000E+01
       13  1    3    3    0    0 -.24438734E+02 -.68683822E+01 -.58986797E+01 0.26061865E+02 0.00000000E+00 0.0000E+00 0.9000E+01
        2  1    1    2  501    0 0.46576135E+00 -.43417729E+00 -.23129455E+03 0.23129543E+03 0.00000000E+00 0.0000E+00 0.9000E+01
       21  1    1    2  502  501 0.34411913E+01 0.92864723E+01 0.17293858E+02 0.19928821E+02 0.00000000E+00 0.0000E+00 0.9000E+01
#aMCatNLO 2  0  0  1  5 0.58624884D+02 0.00000000D+00  -5  6  0 0.00000000D+00 0.00000000D+00 0.00000000D+00 0.00000000D+00 0.00000000D+00
  <mgrwgt>
 0.7349443477D-02    1    2    0
 0.100260638295774D+03 0.000000000000000D+00 0.000000000000000D+00 0.100260638295774D+03
 0.100260638295774D+03 0.000000000000000D+00 0.000000000000000D+00 -.100260638295774D+03
 0.831948263839239D+02 0.219555377721043D+02 0.185826640501040D+01 0.627365949359459D+02
 0.327378258779566D+02 -.238712802984772D+02 -.533703921098933D+01 0.217587507129269D+02
 0.845886243296666D+02 0.191574252637287D+01 0.347877280597894D+01 -.844953456488729D+02
 0.000000000000000D+00 0.000000000000000D+00 0.000000000000000D+00 0.000000000000000D+00
 0.151328237149568D+03 0.000000000000000D+00 0.000000000000000D+00 0.151328237149568D+03
 0.100864147018621D+03 0.000000000000000D+00 0.000000000000000D+00 -.100864147018621D+03
 0.828333888200582D+02 0.205317814501610D+02 -.198391273518245D+01 0.627365949359459D+02
 0.334345574789861D+02 -.244387341437574D+02 -.686838224613865D+01 0.217587507129269D+02
 0.844977448212350D+02 0.465761348551536D+00 -.434177288945406D+00 -.844953456488729D+02
 0.514266930479099D+02 0.344119134504487D+01 0.928647227026651D+01 0.504640901309466D+02
0.110108111476D-03 0.000000000000D+00 0.000000000000D+00 0.184680820629D-04 0.587572496109D-04  6 1 22 9900012 13 2 21 2 0.85050983D-02 0.42476697D-01 0.20256144D+04 0.20256144D+04 0.20256144D+04 0.12886124D+01  1  2  1  1  6  1        1 0.734944347686D-02 0.100000000000D+01
  </mgrwgt>
  </event>
  <event>
  7     66 0.19493620E-05 0.59175544E+01 0.78161638E-02 0.13110891E+00
        1 -1    0    0  502    0 0.00000000E+00 0.00000000E+00 0.53015349E+01 0.53015349E+01 0.00000000E+00 0.0000E+00 0.9000E+01
       22 -1    0    0    0    0 0.00000000E+00 0.00000000E+00 -.15309134E+04 0.15309134E+04 0.00000000E+00 0.0000E+00 0.9000E+01
      -24  2    1    2    0    0 0.16297888E-01 0.34772826E+01 -.39642516E+03 0.40452059E+03 0.80448177E+02 0.0000E+00 0.0000E+00
  9900012  1    3    3    0    0 0.19226675E+02 0.17883836E+02 -.27259754E+03 0.27838627E+03 0.50000000E+02 0.0000E+00 0.9000E+01
       13  1    3    3    0    0 -.19210377E+02 -.14406554E+02 -.12382762E+03 0.12613432E+03 0.00000000E+00 0.0000E+00 0.9000E+01
        2  1    1    2  501    0 0.21543983E+01 0.47824566E+01 -.11158199E+04 0.11158322E+04 0.00000000E+00 0.0000E+00 0.9000E+01
       21  1    1    2  502  501 -.21706962E+01 -.82597392E+01 -.13366803E+02 0.15862113E+02 0.00000000E+00 0.0000E+00 0.9000E+01
#aMCatNLO 2  0  0  1  5 0.11232704D+02 0.00000000D+00  -5  6  0 0.00000000D+00 0.00000000D+00 0.00000000D+00 0.00000000D+00 0.00000000D+00
  <mgrwgt>
 0.4031600922D-04    1    2    0
 0.782857565790512D+02 0.000000000000000D+00 0.000000000000000D+00 0.782857565790512D+02
 0.782857565790512D+02 0.000000000000000D+00 0.000000000000000D+00 -.782857565790512D+02
 0.691161256391844D+02 0.182615069308688D+02 0.142112663549118D+02 0.417324345872022D+02
 0.298372129114001D+02 -.196163251086910D+02 -.159512320510534D+02 0.158435242166572D+02
 0.576181746075179D+02 0.135481817782222D+01 0.173996569614165D+01 -.575759588038594D+02
 0.000000000000000D+00 -.000000000000000D+00 -.000000000000000D+00 0.000000000000000D+00
 0.102531805746802D+03 0.000000000000000D+00 0.000000000000000D+00 0.102531805746802D+03
 0.791577855692806D+02 0.000000000000000D+00 0.000000000000000D+00 -.791577855692806D+02
 0.702217396310525D+02 0.192266746611237D+02 0.178838363253390D+02 0.417324345872022D+02
 0.287681182192776D+02 -.192103767735523D+02 -.144065537340716D+02 0.158435242166572D+02
 0.578143957484289D+02 0.215439833294994D+01 0.478245662763598D+01 -.575759588038594D+02
 0.248853377173235D+02 -.217069622052135D+01 -.825973921890333D+01 0.233740201775212D+02
0.815412085792D-06 0.000000000000D+00 0.000000000000D+00 0.340898745685D-04 0.847010748082D-06  6 1 22 9900012 13 2 21 2 0.81562075D-03 0.23552514D+00 0.22218679D+04 0.22218679D+04 0.22218679D+04 0.12835744D+01  1  2  1  1  6  1        1 0.403160092163D-04 0.100000000000D+01
  </mgrwgt>
  </event>
  <event>
  7     66 0.19493620E-05 0.53340766E+01 0.78161638E-02 0.13513583E+00
        3 -1    0    0  502    0 0.00000000E+00 0.00000000E+00 0.10056849E+03 0.10056849E+03 0.00000000E+00 0.0000E+00 0.9000E+01
       22 -1    0    0    0    0 0.00000000E+00 0.00000000E+00 -.64136126E+02 0.64136126E+02 0.00000000E+00 0.0000E+00 0.9000E+01
      -24  2    1    2    0    0 0.53529157E+01 0.19418167E+00 0.52923428E+02 0.96623846E+02 0.80663418E+02 0.0000E+00 0.0000E+00
  9900012  1    3    3    0    0 -.15770647E+02 0.47181831E-02 0.17301262E+02 0.55209121E+02 0.50000000E+02 0.0000E+00 0.9000E+01
       13  1    3    3    0    0 0.21123563E+02 0.18946349E+00 0.35622165E+02 0.41414725E+02 0.00000000E+00 0.0000E+00 0.9000E+01
        4  1    1    2  501    0 0.21126177E-01 0.92881349E-01 -.42005160E+02 0.42005268E+02 0.00000000E+00 0.0000E+00 0.9000E+01
       21  1    1    2  502  501 -.53740419E+01 -.28706302E+00 0.25514094E+02 0.26075500E+02 0.00000000E+00 0.0000E+00 0.9000E+01
#aMCatNLO 2  0  0  1  5 0.45755249D+01 0.00000000D+00  -5  6  0 0.00000000D+00 0.00000000D+00 0.00000000D+00 0.00000000D+00 0.00000000D+00
  <mgrwgt>
 0.7841434990D-02    1    2    0
 0.690468316993591D+02 0.000000000000000D+00 0.000000000000000D+00 0.690468316993591D+02
 0.690468316993591D+02 0.000000000000000D+00 0.000000000000000D+00 -.690468316993591D+02
 0.546689995428438D+02 -.178845993398492D+02 -.108201962301771D+00 0.129934179415531D+02
 0.379364328020949D+02 0.196323664838350D+02 0.109808872252156D+00 0.324612239757503D+02
 0.454882310537796D+02 -.174776714398579D+01 -.160690995038520D-02 -.454546419173034D+02
 0.000000000000000D+00 -.000000000000000D+00 -.000000000000000D+00 0.000000000000000D+00
 0.929365194539631D+02 0.000000000000000D+00 0.000000000000000D+00 0.929365194539631D+02
 0.694029995786538D+02 0.000000000000000D+00 0.000000000000000D+00 -.694029995786538D+02
 0.540142780576120D+02 -.157706468484935D+02 0.471818314970443D-02 0.129934179415531D+02
 0.387294700890447D+02 0.211235625537083D+02 0.189463489749631D+00 0.324612239757503D+02
 0.454547417228467D+02 0.211261772037981D-01 0.928813493334251D-01 -.454546419173034D+02
 0.241410291631136D+02 -.537404188241863D+01 -.287063022232760D+00 0.235335198753093D+02
0.517430568776D-04 0.000000000000D+00 0.000000000000D+00 0.651243659265D-04 0.664609928735D-02  6 3 22 9900012 13 4 21 2 0.15472075D-01 0.98670964D-02 0.15614171D+04 0.15614171D+04 0.15614171D+04 0.13031373D+01  1  2  1  1  6  1        3 0.784143499035D-02 0.100000000000D+01
  </mgrwgt>
  </event>
  <event>
  7     66 0.19493620E-05 0.14425851E+02 0.78161638E-02 0.12414886E+00
       21 -1    0    0  501  502 0.00000000E+00 0.00000000E+00 0.55236783E+03 0.55236783E+03 0.00000000E+00 0.0000E+00 0.9000E+01
       22 -1    0    0    0    0 0.00000000E+00 0.00000000E+00 -.86232130E+01 0.86232130E+01 0.00000000E+00 0.0000E+00 0.9000E+01
      -24  2    1    2    0    0 0.30413053E+02 -.27718616E+02 0.37562749E+03 0.38603698E+03 0.78963702E+02 0.0000E+00 0.0000E+00
  9900012  1    3    3    0    0 0.15050963E+02 -.42284586E+02 0.26372096E+03 0.27214567E+03 0.50000000E+02 0.0000E+00 0.9000E+01
       13  1    3    3    0    0 0.15362090E+02 0.14565970E+02 0.11190653E+03 0.11389132E+03 0.00000000E+00 0.0000E+00 0.9000E+01
        4  1    1    2  501    0 -.12780741E+02 0.20302193E+02 0.51939605E+02 0.57212314E+02 0.00000000E+00 0.0000E+00 0.9000E+01
       -3  1    1    2    0  502 -.17632313E+02 0.74164231E+01 0.11617752E+03 0.11774174E+03 0.00000000E+00 0.0000E+00 0.9000E+01
#aMCatNLO 2  0  0  1  5 0.22861175D+02 0.00000000D+00  -5  6  0 0.00000000D+00 0.00000000D+00 0.00000000D+00 0.00000000D+00 0.00000000D+00
  <mgrwgt>
 0.1703876270D-05    2    2    0
 0.576420376561400D+02 0.000000000000000D+00 0.000000000000000D+00 0.576420376561400D+02
 0.576420376561400D+02 0.000000000000000D+00 0.000000000000000D+00 -.576420376561400D+02
 0.632436543696893D+02 0.513220960186233D+01 -.381126050191189D+02 0.456613417366449D+01
 0.214414341045036D+02 0.120210864998373D+02 0.159712478237752D+02 0.775550248357592D+01
 0.305989868380872D+02 -.171532961016997D+02 0.221413571953437D+02 -.123216366572404D+02
 0.000000000000000D+00 -.000000000000000D+00 0.000000000000000D+00 0.000000000000000D+00
 0.741256677849925D+02 0.000000000000000D+00 0.000000000000000D+00 0.741256677849925D+02
 0.642582464313474D+02 0.000000000000000D+00 0.000000000000000D+00 -.642582464313474D+02
 0.673451354919933D+02 0.150509630478439D+02 -.422845858969372D+02 0.456613417366449D+01
 0.225457118264631D+02 0.153620903926201D+02 0.145659699902937D+02 0.775550248357592D+01
 0.269694102968519D+02 -.127807405548827D+02 0.203021928055978D+02 -.123216366572404D+02
 0.215236566010316D+02 -.176323128855812D+02 0.741642310104569D+01 0.986742135364512D+01
-.183237795716D-08 0.000000000000D+00 0.000000000000D+00 0.790209492347D-07 0.000000000000D+00  6 21 22 9900012 13 4 -3 2 0.94733714D-01 0.11900528D-02 0.43216603D+04 0.43216603D+04 0.43216603D+04 0.12490399D+01  1  2 13  3  6  1        3 -.242744176443D-05 0.100000000000D+01
0.279038015949D-08 0.000000000000D+00 0.000000000000D+00 0.790209492347D-07 0.905484328762D-10  6 21 22 9900012 13 4 -3 2 0.84979666D-01 0.13266482D-02 0.43216603D+04 0.43216603D+04 0.43216603D+04 0.12490399D+01  1  2  1  3  6  1        3 0.413131803400D-05 0.100000000000D+01
  </mgrwgt>
  </event>
  <event>
  7     66 0.19493620E-05 0.28372873E+02 0.78161638E-02 0.12783821E+00
        3 -1    0    0  501    0 0.00000000E+00 0.00000000E+00 0.33069464E+02 0.33069464E+02 0.00000000E+00 0.0000E+00 0.9000E+01
       22 -1    0    0    0    0 -.00000000E+00 -.00000000E+00 -.19688694E+03 0.19688694E+03 0.00000000E+00 0.0000E+00 0.9000E+01
      -24  2    1    2    0    0 0.56924371E+01 0.28858115E+02 -.29396122E+02 0.90623319E+02 0.80518689E+02 0.0000E+00 0.0000E+00
  9900012  1    3    3    0    0 -.15117398E+02 0.12441787E+02 -.34232068E+02 0.63680203E+02 0.50000000E+02 0.0000E+00 0.9000E+01
       13  1    3    3    0    0 0.20809836E+02 0.16416328E+02 0.48359460E+01 0.26943115E+02 0.00000000E+00 0.0000E+00 0.9000E+01
        4  1    1    2  502    0 0.23136745E+00 -.72268692E+00 -.52625621E+02 0.52631092E+02 0.00000000E+00 0.0000E+00 0.9000E+01
       21  1    1    2  501  502 -.59238046E+01 -.28135428E+02 -.81795735E+02 0.86701996E+02 0.00000000E+00 0.0000E+00 0.9000E+01
#aMCatNLO 2  0  0  5  1 0.10426067D+02 0.00000000D+00  -5  6  0 0.00000000D+00 0.00000000D+00 0.00000000D+00 0.00000000D+00 0.00000000D+00
  <mgrwgt>
 0.8058405620D-03    2    2    0
 0.806904304846566D+02 0.000000000000000D+00 0.000000000000000D+00 0.806904304846566D+02
 0.806904304846566D+02 -.000000000000000D+00 -.000000000000000D+00 -.806904304846566D+02
 0.564684597912948D+02 -.149795249705938D+02 0.131407435393595D+02 0.170769330410707D+02
 0.443087988389897D+02 0.209172438918391D+02 0.169608402864342D+02 0.351861969996965D+02
 0.606036023390288D+02 -.593771892124526D+01 -.301015838257936D+02 -.522631300407672D+02
 0.000000000000000D+00 -.000000000000000D+00 0.000000000000000D+00 0.000000000000000D+00
 0.806904304846566D+02 0.000000000000000D+00 0.000000000000000D+00 0.806904304846566D+02
 0.806904304846566D+02 -.000000000000000D+00 -.000000000000000D+00 -.806904304846566D+02
 0.559908993683824D+02 -.151173984519266D+02 0.124417865475015D+02 0.158633862599516D+02
 0.433010110122772D+02 0.208098355838659D+02 0.164163281212533D+02 0.342408012270912D+02
 0.215754215957477D+02 0.231367445647576D+00 -.722686916035777D+00 -.215620734105220D+02
 0.405135289929060D+02 -.592380457758685D+01 -.281354277527190D+02 -.285421140765208D+02
-.274692582753D-07 0.000000000000D+00 0.000000000000D+00 0.486281506291D-06 0.000000000000D+00  6 3 22 9900012 13 4 21 2 0.50876098D-02 0.30290299D-01 0.30092549D+04 0.30092549D+04 0.30092549D+04 0.12674629D+01  1  2 13  2  6  5        4 -.473303240077D-05 0.100000000000D+01
0.470435305088D-05 0.000000000000D+00 0.000000000000D+00 0.486281506291D-06 0.125862540440D-05  6 3 22 9900012 13 4 21 2 0.50876098D-02 0.30290299D-01 0.30092549D+04 0.30092549D+04 0.30092549D+04 0.12674629D+01  1  2  1  2  6  5        4 0.810573594356D-03 0.100000000000D+01
  </mgrwgt>
  </event>
  <event>
  6     66 0.19493620E-05 0.32555781E+02 0.78161638E-02 0.12165679E+00
        3 -1    0    0  501    0 0.00000000E+00 0.00000000E+00 0.15541380E+03 0.15541380E+03 0.00000000E+00 0.0000E+00 0.9000E+01
       22 -1    0    0    0    0 0.00000000E+00 0.00000000E+00 -.26705566E+02 0.26705566E+02 0.00000000E+00 0.0000E+00 0.9000E+01
      -24  2    1    2    0    0 -.27519214E+02 0.22816968E+02 0.64915907E+02 0.10899357E+03 0.79922474E+02 0.0000E+00 0.0000E+00
  9900012  1    3    3    0    0 -.33032398E+02 0.30941204E+02 0.32008717E+02 0.74652900E+02 0.50000000E+02 0.0000E+00 0.9000E+01
       13  1    3    3    0    0 0.55131840E+01 -.81242368E+01 0.32907190E+02 0.34340669E+02 0.00000000E+00 0.0000E+00 0.9000E+01
        4  1    1    2  501    0 0.27519214E+02 -.22816968E+02 0.63792322E+02 0.73125793E+02 0.00000000E+00 0.0000E+00 0.9000E+01
#aMCatNLO 1  0  0  1  5 0.34534167D+02 0.00000000D+00  -5  6  0 0.00000000D+00 0.00000000D+00 0.00000000D+00 0.00000000D+00 0.00000000D+00
  <mgrwgt>
 0.3175320249D-04    9    2    0
 0.644237021070703D+02 0.000000000000000D+00 0.000000000000000D+00 0.644237021070703D+02
 0.644237021070703D+02 0.000000000000000D+00 0.000000000000000D+00 -.644237021070703D+02
 0.735439971562672D+02 -.330323983342538D+02 0.309412044244606D+02 -.293295422189293D+02
 0.156671733148392D+02 0.551318398940432D+01 -.812423683785308D+01 0.122090907842746D+02
 0.396362337430342D+02 0.275192143448495D+02 -.228169675866076D+02 0.171204514346548D+02
 0.000000000000000D+00 -.000000000000000D+00 -.000000000000000D+00 0.000000000000000D+00
 0.112625216319857D+03 0.000000000000000D+00 0.000000000000000D+00 0.112625216319857D+03
 0.717883271314724D+02 0.000000000000000D+00 0.000000000000000D+00 -.717883271314724D+02
 0.689502685451211D+02 -.159732346219725D+02 0.337457147114086D+02 -.293295422189293D+02
 0.171505057735917D+02 0.944205900392499D+01 -.747833352276716D+01 0.122090907842746D+02
 0.465965215155544D+02 0.378428486474403D+02 -.211197719275108D+02 0.171204514346548D+02
 0.517162476170617D+02 -.313116730293928D+02 -.514760926113058D+01 0.408368891883841D+02
0.128557311935D-06 0.000000000000D+00 0.000000000000D+00 0.374445848359D-06 0.000000000000D+00  6 3 22 9900012 13 4 21 0 0.23909815D-01 0.41085486D-02 0.31927496D+04 0.31927496D+04 0.31927496D+04 0.12643910D+01  1  2  2  1  6  1        3 0.199187879549D-04 0.100000000000D+01
-.132703179697D-08 0.000000000000D+00 -.246846963873D-09 0.374445848359D-06 0.000000000000D+00  6 3 22 9900012 13 4 21 2 0.23909815D-01 0.41085486D-02 0.31927496D+04 0.31927496D+04 0.31927496D+04 0.12643910D+01  1  2  3  1  6  1        3 -.328707993714D-06 0.100000000000D+01
0.201075536883D-08 0.000000000000D+00 0.000000000000D+00 0.374445848359D-06 0.000000000000D+00  6 3 22 9900012 13 4 21 2 0.23909815D-01 0.41085486D-02 0.31927496D+04 0.31927496D+04 0.31927496D+04 0.12643910D+01  1  2 15  1  6  1        3 0.498067465035D-06 0.100000000000D+01
0.504154402816D-07 0.000000000000D+00 0.000000000000D+00 0.374445848359D-06 0.000000000000D+00  6 3 22 9900012 13 4 21 2 0.46577302D-01 0.41085486D-02 0.55887157D+04 0.55887157D+04 0.55887157D+04 0.12364402D+01  1  2 12  1  6  1        3 0.374293757093D-05 0.100000000000D+01
-.355678233447D-07 0.000000000000D+00 0.000000000000D+00 0.374445848359D-06 0.000000000000D+00  6 3 22 9900012 13 4 21 2 0.23909815D-01 0.41085486D-02 0.31927496D+04 0.31927496D+04 0.31927496D+04 0.12643910D+01  1  2  4  1  6  1        3 -.881020927992D-05 0.100000000000D+01
-.101608038850D-06 0.000000000000D+00 -.348798054492D-07 0.374445848359D-06 0.000000000000D+00  6 3 22 9900012 13 4 21 2 0.45671395D-01 0.41085486D-02 0.31927496D+04 0.31927496D+04 0.31927496D+04 0.12643910D+01  1  2  5  1  6  1        3 -.774057991986D-05 0.100000000000D+01
0.107160837199D-06 0.000000000000D+00 0.286643555380D-07 0.374445848359D-06 0.000000000000D+00  6 3 22 9900012 13 4 21 2 0.23909815D-01 0.41085486D-02 0.31927496D+04 0.31927496D+04 0.31927496D+04 0.12643910D+01  1  2  6  1  6  1        3 0.265439184507D-04 0.100000000000D+01
0.364353265753D-08 0.000000000000D+00 0.000000000000D+00 0.374445848359D-06 0.000000000000D+00  6 21 22 9900012 13 4 -3 2 0.46577302D-01 0.41085486D-02 0.55887157D+04 0.55887157D+04 0.55887157D+04 0.12364402D+01  1  2 12  3  6  1        3 0.430919256945D-05 0.100000000000D+01
-.513708837552D-08 0.000000000000D+00 -.245124929552D-08 0.374445848359D-06 0.000000000000D+00  6 21 22 9900012 13 4 -3 2 0.45671395D-01 0.41085486D-02 0.31927496D+04 0.31927496D+04 0.31927496D+04 0.12643910D+01  1  2  5  3  6  1        3 -.638020432817D-05 0.100000000000D+01
  </mgrwgt>
  </event>
  <event>
  7     66 0.19493620E-05 0.11381504E+02 0.78161638E-02 0.12668504E+00
        1 -1    0    0  502    0 0.00000000E+00 0.00000000E+00 0.11421536E+02 0.11421536E+02 0.00000000E+00 0.0000E+00 0.9000E+01
       22 -1    0    0    0    0 0.00000000E+00 0.00000000E+00 -.44791514E+03 0.44791514E+03 0.00000000E+00 0.0000E+00 0.9000E+01
      -24  2    1    2    0    0 0.21285551E+02 0.59539241E+00 -.18774244E+03 0.20637569E+03 0.83007676E+02 0.0000E+00 0.0000E+00
  9900012  1    3    3    0    0 0.37434891E+02 -.13547274E+02 -.13251055E+03 0.14711882E+03 0.50000000E+02 0.0000E+00 0.9000E+01
       13  1    3    3    0    0 -.16149339E+02 0.14142666E+02 -.55231881E+02 0.59256872E+02 0.00000000E+00 0.0000E+00 0.9000E+01
        2  1    1    2  501    0 -.67687182E+01 -.10864101E+02 -.20926099E+03 0.20965211E+03 0.00000000E+00 0.0000E+00 0.9000E+01
       21  1    1    2  502  501 -.14516833E+02 0.10268709E+02 -.39490184E+02 0.43308885E+02 0.00000000E+00 0.0000E+00 0.9000E+01
#aMCatNLO 2  0  0  1  1 0.22158525D+02 0.00000000D+00  -5  6  0 0.00000000D+00 0.00000000D+00 0.00000000D+00 0.00000000D+00 0.00000000D+00
  <mgrwgt>
 0.1179222948D-04    1    2    0
 0.615451537264044D+02 0.000000000000000D+00 0.000000000000000D+00 0.615451537264044D+02
 0.615451537264044D+02 0.000000000000000D+00 0.000000000000000D+00 -.615451537264044D+02
 0.643090838684553D+02 0.296064716716945D+02 -.800971937679783D+01 0.263620844900043D+02
 0.252247652974037D+02 -.189146093452223D+02 0.160987232786889D+02 0.439970981121874D+01
 0.335564582869498D+02 -.106918623264722D+02 -.808900390189105D+01 -.307617943012230D+02
 0.000000000000000D+00 -.000000000000000D+00 0.000000000000000D+00 0.000000000000000D+00
 0.746660140063254D+02 0.000000000000000D+00 0.000000000000000D+00 0.746660140063254D+02
 0.685168365737837D+02 0.000000000000000D+00 0.000000000000000D+00 -.685168365737837D+02
 0.691365257314801D+02 0.374348909240386D+02 -.135472740087009D+02 0.263620844900043D+02
 0.219128643609917D+02 -.161493394451189D+02 0.141426664235077D+02 0.439970981121874D+01
 0.333186468675479D+02 -.676871819109357D+01 -.108641011824798D+02 -.307617943012230D+02
 0.188148136200894D+02 -.145168332878262D+02 0.102687087676730D+02 0.614917743254167D+01
0.486576572578D-07 0.000000000000D+00 0.000000000000D+00 0.369065997766D-07 0.107197486642D-08  6 1 22 9900012 13 2 21 2 0.17571594D-02 0.68910022D-01 0.33617733D+04 0.33617733D+04 0.33617733D+04 0.12617334D+01  1  2  1  1  6  1        1 0.117922294827D-04 0.100000000000D+01
  </mgrwgt>
  </event>
  <event>
  7     66 0.19493620E-05 0.15981494E+02 0.78161638E-02 0.13266507E+00
        1 -1    0    0  501    0 0.00000000E+00 0.00000000E+00 0.30149670E+03 0.30149670E+03 0.00000000E+00 0.0000E+00 0.9000E+01
       22 -1    0    0    0    0 0.00000000E+00 0.00000000E+00 -.15603383E+02 0.15603383E+02 0.00000000E+00 0.0000E+00 0.9000E+01
      -24  2    1    2    0    0 0.73850320E+01 -.14171702E+02 0.23765390E+03 0.25086548E+03 0.78732056E+02 0.0000E+00 0.0000E+00
  9900012  1    3    3    0    0 -.10393542E+02 -.34260674E+01 0.10748691E+03 0.11905124E+03 0.50000000E+02 0.0000E+00 0.9000E+01
       13  1    3    3    0    0 0.17778574E+02 -.10745634E+02 0.13016700E+03 0.13181424E+03 0.00000000E+00 0.0000E+00 0.9000E+01
        2  1    1    2  502    0 -.11678190E-02 -.42128066E-02 -.78817152E+01 0.78817164E+01 0.00000000E+00 0.0000E+00 0.9000E+01
       21  1    1    2  501  502 -.73838642E+01 0.14175915E+02 0.56121122E+02 0.58352878E+02 0.00000000E+00 0.0000E+00 0.9000E+01
#aMCatNLO 2  0  0  5  1 0.20137494D+02 0.00000000D+00  -5  6  0 0.00000000D+00 0.00000000D+00 0.00000000D+00 0.00000000D+00 0.00000000D+00
  <mgrwgt>
 0.8846489032D+02    2    2    0
 0.685883988020462D+02 0.000000000000000D+00 0.000000000000000D+00 0.685883988020462D+02
 0.685883988020462D+02 -.000000000000000D+00 -.000000000000000D+00 -.685883988020462D+02
 0.518329968908204D+02 -.829421464933252D+01 -.745462637672497D+01 0.789266213758298D+01
 0.393493710103540D+02 0.192614863302054D+02 -.135913089249022D+02 0.315062607265552D+02
 0.459944297029179D+02 -.109672716808729D+02 0.210459353016271D+02 -.393989228641382D+02
 0.000000000000000D+00 0.000000000000000D+00 0.000000000000000D+00 0.000000000000000D+00
 0.685883988020462D+02 0.000000000000000D+00 0.000000000000000D+00 0.685883988020462D+02
 0.685883988020462D+02 -.000000000000000D+00 -.000000000000000D+00 -.685883988020462D+02
 0.511848303920410D+02 -.103935416532477D+02 -.342606744365760D+01 0.351021417757869D+00
 0.334198753213902D+02 0.177785736353053D+02 -.107456344907346D+02 0.261790321704763D+02
 0.346459650577973D+02 -.116781898959051D-02 -.421280661923085D-02 -.346459647819853D+02
 0.179261268328639D+02 -.738386416306800D+01 0.141759147410114D+02 0.811591119375122D+01
-.984675444650D-08 0.000000000000D+00 0.000000000000D+00 0.268036831090D-06 0.000000000000D+00  6 1 22 9900012 13 2 21 2 0.46384107D-01 0.24005205D-02 0.19335971D+04 0.19335971D+04 0.19335971D+04 0.12911694D+01  1  2 13  2  6  5        2 -.477410499630D-05 0.100000000000D+01
0.182461864541D+00 0.000000000000D+00 0.000000000000D+00 0.268036831090D-06 0.102533574940D+00  6 1 22 9900012 13 2 21 2 0.46384107D-01 0.24005205D-02 0.19335971D+04 0.19335971D+04 0.19335971D+04 0.12911694D+01  1  2  1  2  6  5        2 0.884648950952D+02 0.100000000000D+01
  </mgrwgt>
  </event>
  <event>
  6     66 0.19493620E-05 0.12079295E+02 0.78161638E-02 0.13134746E+00
        3 -1    0    0  501    0 0.00000000E+00 0.00000000E+00 0.96967367E+01 0.96967367E+01 0.00000000E+00 0.0000E+00 0.9000E+01
       22 -1    0    0    0    0 -.00000000E+00 -.00000000E+00 -.58755717E+03 0.58755717E+03 0.00000000E+00 0.0000E+00 0.9000E+01
      -24  2    1    2    0    0 0.13223146E+01 -.12006700E+02 -.57940708E+03 0.58507600E+03 0.80345838E+02 0.0000E+00 0.0000E+00
  9900012  1    3    3    0    0 0.41899535E+01 -.32614761E+02 -.39679090E+03 0.40127833E+03 0.50000000E+02 0.0000E+00 0.9000E+01
       13  1    3    3    0    0 -.28676389E+01 0.20608061E+02 -.18261617E+03 0.18379767E+03 0.00000000E+00 0.0000E+00 0.9000E+01
        4  1    1    2  501    0 -.13223146E+01 0.12006700E+02 0.15466429E+01 0.12177909E+02 0.00000000E+00 0.0000E+00 0.9000E+01
#aMCatNLO 1  0  0  5  1 0.36441687D+01 0.00000000D+00  -5  6  0 0.00000000D+00 0.00000000D+00 0.00000000D+00 0.00000000D+00 0.00000000D+00
  <mgrwgt>
 0.3109177250D-04    6    2    0
 0.754810387676587D+02 0.000000000000000D+00 0.000000000000000D+00 0.754810387676587D+02
 0.754810387676587D+02 -.000000000000000D+00 -.000000000000000D+00 -.754810387676587D+02
 0.687277760540792D+02 0.418995347808183D+01 -.326147608168148D+02 -.337968766020344D+02
 0.281343070308960D+02 -.286763887572614D+01 0.206080605547326D+02 -.189373630571847D+02
 0.540999944503421D+02 -.132231460235569D+01 0.120067002620822D+02 0.527342396592191D+02
 0.000000000000000D+00 0.000000000000000D+00 0.000000000000000D+00 0.000000000000000D+00
 0.754810387676587D+02 0.000000000000000D+00 0.000000000000000D+00 0.754810387676587D+02
 0.754810387676587D+02 -.000000000000000D+00 -.000000000000000D+00 -.754810387676587D+02
 0.683875140703614D+02 0.417569658091339D+01 -.324853072883853D+02 -.332283079492052D+02
 0.280177794786050D+02 -.287347742606165D+01 0.206610749612276D+02 -.187045201980749D+02
 0.588895886846423D+01 -.241438115788807D+01 0.361154252137141D+01 0.397584717956131D+01
 0.486678251178867D+02 0.111216200303633D+01 0.821268980578628D+01 0.479569809677187D+02
0.194981462600D-06 0.000000000000D+00 0.000000000000D+00 0.706709187636D-06 0.000000000000D+00  6 3 22 9900012 13 4 21 0 0.14918057D-02 0.90393411D-01 0.21496993D+04 0.21496993D+04 0.21496993D+04 0.12853661D+01  1  2  2  2  6  5        4 0.188718386290D-04 0.100000000000D+01
0.338712715296D-07 0.000000000000D+00 -.374390078092D-09 0.706709187636D-06 0.000000000000D+00  6 3 22 9900012 13 4 21 2 0.14918057D-02 0.90393411D-01 0.21496993D+04 0.21496993D+04 0.21496993D+04 0.12853661D+01  1  2  3  2  6  5        4 0.541634227396D-05 0.100000000000D+01
0.424243056297D-08 0.000000000000D+00 0.000000000000D+00 0.706709187636D-06 0.000000000000D+00  6 3 22 9900012 13 4 21 2 0.14918057D-02 0.90393411D-01 0.21496993D+04 0.21496993D+04 0.21496993D+04 0.12853661D+01  1  2 15  2  6  5        4 0.678405473573D-06 0.100000000000D+01
0.496923959209D-08 0.000000000000D+00 0.000000000000D+00 0.706709187636D-06 0.000000000000D+00  6 3 22 9900012 13 4 21 2 0.14918057D-02 0.90393411D-01 0.21745511D+04 0.21745511D+04 0.21745511D+04 0.12847415D+01  1  2 12  2  6  5        4 0.795146003395D-06 0.100000000000D+01
-.809983627600D-07 0.000000000000D+00 0.000000000000D+00 0.706709187636D-06 0.000000000000D+00  6 3 22 9900012 13 4 21 2 0.14918057D-02 0.90393411D-01 0.21496993D+04 0.21496993D+04 0.21496993D+04 0.12853661D+01  1  2  5  2  6  5        4 -.129524176840D-04 0.100000000000D+01
0.114255637032D-06 0.000000000000D+00 0.000000000000D+00 0.706709187636D-06 0.858101754101D-07  6 3 22 9900012 13 4 21 2 0.14918057D-02 0.90393411D-01 0.21745511D+04 0.21745511D+04 0.21745511D+04 0.12847415D+01  1  2 11  2  6  5        4 0.182824578022D-04 0.100000000000D+01
  </mgrwgt>
  </event>
  <event>
  7     66 0.19493620E-05 0.24779661E+02 0.78161638E-02 0.12747690E+00
        1 -1    0    0  502    0 0.00000000E+00 0.00000000E+00 0.25507327E+03 0.25507327E+03 0.00000000E+00 0.0000E+00 0.9000E+01
       22 -1    0    0    0    0 0.00000000E+00 0.00000000E+00 -.50214952E+02 0.50214952E+02 0.00000000E+00 0.0000E+00 0.9000E+01
      -24  2    1    2    0    0 -.25419040E+02 0.11507401E+02 0.20706933E+03 0.22391465E+03 0.80507865E+02 0.0000E+00 0.0000E+00
  9900012  1    3    3    0    0 -.24761648E+02 0.30659812E+02 0.13370087E+03 0.14808473E+03 0.50000000E+02 0.0000E+00 0.9000E+01
       13  1    3    3    0    0 -.65739243E+00 -.19152411E+02 0.73368452E+02 0.75829920E+02 0.00000000E+00 0.0000E+00 0.9000E+01
        2  1    1    2  501    0 0.24856982E+01 0.98989173E+00 -.37430983E+02 0.37526485E+02 0.00000000E+00 0.0000E+00 0.9000E+01
       21  1    1    2  502  501 0.22933342E+02 -.12497293E+02 0.35219979E+02 0.43847091E+02 0.00000000E+00 0.0000E+00 0.9000E+01
#aMCatNLO 2  0  0  1  1 0.32560441D+02 0.00000000D+00  -5  6  0 0.00000000D+00 0.00000000D+00 0.00000000D+00 0.00000000D+00 0.00000000D+00
  <mgrwgt>
 0.5852445555D-03    1    2    0
 0.986054998278937D+02 0.000000000000000D+00 0.000000000000000D+00 0.986054998278937D+02
 0.986054998278937D+02 0.000000000000000D+00 0.000000000000000D+00 -.986054998278937D+02
 0.764846419863885D+02 -.156676012115933D+02 0.257041030238970D+02 0.494340552635265D+02
 0.385538061667774D+02 0.372189274175991D+01 -.215388578565185D+02 0.317587954211265D+02
 0.821725515026215D+02 0.119457084698333D+02 -.416524516737850D+01 -.811928506846531D+02
 0.000000000000000D+00 0.000000000000000D+00 -.000000000000000D+00 0.000000000000000D+00
 0.117710234161941D+03 0.000000000000000D+00 0.000000000000000D+00 0.117710234161941D+03
 0.108813750501371D+03 0.000000000000000D+00 0.000000000000000D+00 -.108813750501371D+03
 0.806032820597399D+02 -.247616478413548D+02 0.306598117278192D+02 0.494340552635265D+02
 0.370926958752690D+02 -.657392433252715D+00 -.191524107068258D+02 0.317587954211265D+02
 0.812369225377892D+02 0.248569818774492D+01 0.989891726324510D+00 -.811928506846531D+02
 0.275910841905140D+02 0.229333420868626D+02 -.124972927473180D+02 0.889648366057088D+01
0.475434736838D-05 0.000000000000D+00 0.000000000000D+00 0.270599572098D-05 0.532056660432D-06  6 1 22 9900012 13 2 21 2 0.39242042D-01 0.77253772D-02 0.31148196D+04 0.31148196D+04 0.31148196D+04 0.12656706D+01  1  2  1  1  6  1        1 0.585244555460D-03 0.100000000000D+01
  </mgrwgt>
  </event>
  <event>
  7     66 0.19493620E-05 0.70998470E+01 0.78161638E-02 0.13283993E+00
        1 -1    0    0  501    0 0.00000000E+00 0.00000000E+00 0.22118100E+02 0.22118100E+02 0.00000000E+00 0.0000E+00 0.9000E+01
       22 -1    0    0    0    0 -.00000000E+00 -.00000000E+00 -.98616667E+02 0.98616667E+02 0.00000000E+00 0.0000E+00 0.9000E+01
      -24  2    1    2    0    0 0.70553370E+01 -.11208268E+01 -.69041720E+02 0.10578326E+03 0.79826724E+02 0.0000E+00 0.0000E+00
  9900012  1    3    3    0    0 -.73726413E+01 -.21680705E+02 -.48811458E+02 0.73532083E+02 0.50000000E+02 0.0000E+00 0.9000E+01
       13  1    3    3    0    0 0.14427978E+02 0.20559879E+02 -.20230262E+02 0.32251181E+02 0.00000000E+00 0.0000E+00 0.9000E+01
        2  1    1    2  502    0 -.28896119E-01 -.26757452E-01 -.78224827E+01 0.78225818E+01 0.00000000E+00 0.0000E+00 0.9000E+01
       21  1    1    2  501  502 -.70264409E+01 0.11475842E+01 0.36563528E+00 0.71289207E+01 0.00000000E+00 0.0000E+00 0.9000E+01
#aMCatNLO 2  0  0  5  1 0.48561663D+01 0.00000000D+00  -5  6  0 0.00000000D+00 0.00000000D+00 0.00000000D+00 0.00000000D+00 0.00000000D+00
  <mgrwgt>
 0.3225975880D-01    2    2    0
 0.467034609014819D+02 0.000000000000000D+00 0.000000000000000D+00 0.467034609014819D+02
 0.467034609014819D+02 -.000000000000000D+00 -.000000000000000D+00 -.467034609014819D+02
 0.550102940451564D+02 -.420819811716431D+01 -.221834159375318D+02 -.403974960656235D+01
 0.258036251351013D+02 0.158918305269092D+02 0.203273277211629D+02 -.276659236735210D+00
 0.125930026227061D+02 -.116836324097449D+02 0.185608821636892D+01 0.431640884329757D+01
 0.000000000000000D+00 0.000000000000000D+00 0.000000000000000D+00 0.000000000000000D+00
 0.467034609014819D+02 0.000000000000000D+00 0.000000000000000D+00 0.467034609014819D+02
 0.467034609014819D+02 -.000000000000000D+00 -.000000000000000D+00 -.467034609014819D+02
 0.550694979365298D+02 -.737264132229067D+01 -.216807053473300D+02 -.287067562719547D+01
 0.251186174004485D+02 0.144279783385963D+02 0.205598785839380D+02 0.264147278680669D+00
 0.370474548171308D+01 -.288961185084451D-01 -.267574519946046D-01 -.370453615684492D+01
 0.951406098427237D+01 -.702644089779724D+01 0.114758421538662D+01 0.631106450535974D+01
-.337294456787D-09 0.000000000000D+00 0.000000000000D+00 0.173490475285D-06 0.000000000000D+00  6 1 22 9900012 13 2 21 2 0.34027846D-02 0.15171795D-01 0.19040470D+04 0.19040470D+04 0.19040470D+04 0.12920200D+01  1  2 13  2  6  5        2 -.350615725297D-06 0.100000000000D+01
0.310344211530D-04 0.000000000000D+00 0.000000000000D+00 0.173490475285D-06 0.107965947691D-02  6 1 22 9900012 13 2 21 2 0.34027846D-02 0.15171795D-01 0.19040470D+04 0.19040470D+04 0.19040470D+04 0.12920200D+01  1  2  1  2  6  5        2 0.322601094171D-01 0.100000000000D+01
  </mgrwgt>
  </event>
  <event>
  6     66 0.19493620E-05 0.31780131E+02 0.78161638E-02 0.12195894E+00
        3 -1    0    0  501    0 0.00000000E+00 0.00000000E+00 0.35268082E+03 0.35268082E+03 0.00000000E+00 0.0000E+00 0.9000E+01
       22 -1    0    0    0    0 0.00000000E+00 0.00000000E+00 -.97587789E+01 0.97587789E+01 0.00000000E+00 0.0000E+00 0.9000E+01
      -24  2    1    2    0    0 0.18849339E+02 0.25586699E+02 0.25432239E+03 0.26831269E+03 0.79384162E+02 0.0000E+00 0.0000E+00
  9900012  1    3    3    0    0 0.33653920E+02 0.24408992E+02 0.23563440E+03 0.24444213E+03 0.50000000E+02 0.0000E+00 0.9000E+01
       13  1    3    3    0    0 -.14804581E+02 0.11777068E+01 0.18687990E+02 0.23870559E+02 0.00000000E+00 0.0000E+00 0.9000E+01
        4  1    1    2  501    0 -.18849339E+02 -.25586699E+02 0.88599653E+02 0.94126910E+02 0.00000000E+00 0.0000E+00 0.9000E+01
#aMCatNLO 1  0  0  1  5 0.35866858D+02 0.00000000D+00  -5  6  0 0.00000000D+00 0.00000000D+00 0.00000000D+00 0.00000000D+00 0.00000000D+00
  <mgrwgt>
 0.4213479487D-05    7    2    0
 0.586662952828755D+02 0.000000000000000D+00 0.000000000000000D+00 0.586662952828755D+02
 0.586662952828755D+02 0.000000000000000D+00 0.000000000000000D+00 -.586662952828755D+02
 0.664033646592177D+02 0.336539200130779D+02 0.244089920320532D+02 0.134544272935549D+02
 0.191175547697854D+02 -.148045813413752D+02 0.117770675207112D+01 -.120382007994749D+02
 0.318116711367478D+02 -.188493386717027D+02 -.255866987841244D+02 -.141622649408000D+01
 0.000000000000000D+00 -.000000000000000D+00 -.000000000000000D+00 0.000000000000000D+00
 0.101609462051352D+03 0.000000000000000D+00 0.000000000000000D+00 0.101609462051352D+03
 0.672223905570932D+02 0.000000000000000D+00 0.000000000000000D+00 -.672223905570932D+02
 0.784064842623619D+02 0.531760924537784D+02 0.252756474087937D+02 0.134544272935549D+02
 0.157753751043176D+02 -.101005795139001D+02 0.138653333058647D+01 -.120382007994749D+02
 0.275032964356781D+02 -.108529417837360D+02 -.252317116340745D+02 -.141622649408000D+01
 0.471466968060879D+02 -.322225711561423D+02 -.143046910530572D+01 0.343870714942591D+02
0.336736623199D-07 0.000000000000D+00 0.000000000000D+00 0.591477432414D-07 0.000000000000D+00  6 3 22 9900012 13 4 21 0 0.54258588D-01 0.15013506D-02 0.31168503D+04 0.31168503D+04 0.31168503D+04 0.12656368D+01  1  2  2  1  6  1        3 0.440018703540D-05 0.100000000000D+01
-.795427651527D-09 0.000000000000D+00 -.646578648937D-10 0.591477432414D-07 0.000000000000D+00  6 3 22 9900012 13 4 21 2 0.54258588D-01 0.15013506D-02 0.31168503D+04 0.31168503D+04 0.31168503D+04 0.12656368D+01  1  2  3  1  6  1        3 -.166494399093D-06 0.100000000000D+01
0.190315180886D-09 0.000000000000D+00 0.000000000000D+00 0.591477432414D-07 0.000000000000D+00  6 3 22 9900012 13 4 21 2 0.54258588D-01 0.15013506D-02 0.31168503D+04 0.31168503D+04 0.31168503D+04 0.12656368D+01  1  2 15  1  6  1        3 0.398356929371D-07 0.100000000000D+01
-.148175080673D-07 0.000000000000D+00 0.000000000000D+00 0.591477432414D-07 0.000000000000D+00  6 3 22 9900012 13 4 21 2 0.54258588D-01 0.15013506D-02 0.31168503D+04 0.31168503D+04 0.31168503D+04 0.12656368D+01  1  2  4  1  6  1        3 -.310151664577D-05 0.100000000000D+01
-.220804064575D-07 0.000000000000D+00 -.886696268949D-08 0.591477432414D-07 0.000000000000D+00  6 3 22 9900012 13 4 21 2 0.10331855D+00 0.15013506D-02 0.31168503D+04 0.31168503D+04 0.31168503D+04 0.12656368D+01  1  2  5  1  6  1        3 -.119030736127D-05 0.100000000000D+01
0.241697217703D-07 0.000000000000D+00 0.729987578891D-08 0.591477432414D-07 0.000000000000D+00  6 3 22 9900012 13 4 21 2 0.54258588D-01 0.15013506D-02 0.31168503D+04 0.31168503D+04 0.31168503D+04 0.12656368D+01  1  2  6  1  6  1        3 0.505906891048D-05 0.100000000000D+01
-.103722420395D-08 0.000000000000D+00 -.620359717480D-09 0.591477432414D-07 0.000000000000D+00  6 21 22 9900012 13 4 -3 2 0.10331855D+00 0.15013506D-02 0.31168503D+04 0.31168503D+04 0.31168503D+04 0.12656368D+01  1  2  5  3  6  1        3 -.827293745754D-06 0.100000000000D+01
  </mgrwgt>
  </event>
  <event>
  6     66 0.19493620E-05 0.86597887E+01 0.78161638E-02 0.13655324E+00
        3 -1    0    0  501    0 0.00000000E+00 0.00000000E+00 0.91456404E+02 0.91456404E+02 0.00000000E+00 0.0000E+00 0.9000E+01
       22 -1    0    0    0    0 0.00000000E+00 0.00000000E+00 -.34501622E+02 0.34501622E+02 0.00000000E+00 0.0000E+00 0.9000E+01
      -24  2    1    2    0    0 -.21343814E+01 0.83926370E+01 0.68182176E+02 0.11177895E+03 0.88151753E+02 0.0000E+00 0.0000E+00
  9900012  1    3    3    0    0 -.44220290E+01 -.66448966E+01 0.99609223E+01 0.51603575E+02 0.50000000E+02 0.0000E+00 0.9000E+01
       13  1    3    3    0    0 0.22876476E+01 0.15037534E+02 0.58221254E+02 0.60175370E+02 0.00000000E+00 0.0000E+00 0.9000E+01
        4  1    1    2  501    0 0.21343814E+01 -.83926370E+01 -.11227395E+02 0.14179081E+02 0.00000000E+00 0.0000E+00 0.9000E+01
#aMCatNLO 1  0  0  5  1 0.14369209D+01 0.00000000D+00  -5  6  0 0.00000000D+00 0.00000000D+00 0.00000000D+00 0.00000000D+00 0.00000000D+00
  <mgrwgt>
 0.5788491620D-02    8    2    0
 0.561728964230191D+02 0.000000000000000D+00 0.000000000000000D+00 0.561728964230191D+02
 0.561728964230191D+02 -.000000000000000D+00 -.000000000000000D+00 -.561728964230191D+02
 0.528062702646697D+02 -.442202898075190D+01 -.664489660205979D+01 -.149931046853767D+02
 0.379506158315452D+02 0.228764757847185D+01 0.150375336435650D+02 0.347690737936588D+02
 0.215889067498234D+02 0.213438140228005D+01 -.839263704150519D+01 -.197759691082821D+02
 0.000000000000000D+00 0.000000000000000D+00 -.000000000000000D+00 0.000000000000000D+00
 0.561728964230191D+02 0.000000000000000D+00 0.000000000000000D+00 0.561728964230191D+02
 0.561728964230191D+02 -.000000000000000D+00 -.000000000000000D+00 -.561728964230191D+02
 0.528572760550701D+02 -.440534107110220D+01 -.671051541251316D+01 -.151477254037553D+02
 0.378310973933139D+02 0.229961611849766D+01 0.149904719458543D+02 0.346581800810502D+02
 0.345641837845613D+01 0.633201167595436D-01 0.473420566898559D-01 -.345551404271655D+01
 0.182010010191981D+02 0.204240483584499D+01 -.832729859003102D+01 -.160549406345784D+02
0.206358714611D-07 0.000000000000D+00 0.000000000000D+00 0.351675540895D-07 0.000000000000D+00  6 3 22 9900012 13 4 21 0 0.14070216D-01 0.53079419D-02 0.13876898D+04 0.13876898D+04 0.13876898D+04 0.13098853D+01  1  2  2  2  6  5        4 0.494250503454D-05 0.100000000000D+01
-.700709744081D-09 0.000000000000D+00 -.396235899802D-10 0.351675540895D-07 0.000000000000D+00  6 3 22 9900012 13 4 21 2 0.14070216D-01 0.53079419D-02 0.13876898D+04 0.13876898D+04 0.13876898D+04 0.13098853D+01  1  2  3  2  6  5        4 -.287957909506D-06 0.100000000000D+01
0.155203402304D-08 0.000000000000D+00 0.000000000000D+00 0.351675540895D-07 0.000000000000D+00  6 3 22 9900012 13 4 21 2 0.14070216D-01 0.53079419D-02 0.13876898D+04 0.13876898D+04 0.13876898D+04 0.13098853D+01  1  2 15  2  6  5        4 0.637811128689D-06 0.100000000000D+01
0.266977442714D-11 0.000000000000D+00 0.000000000000D+00 0.351675540895D-07 0.000000000000D+00  6 3 22 9900012 13 4 21 2 0.14070216D-01 0.53079419D-02 0.13860462D+04 0.13860462D+04 0.13860462D+04 0.13099537D+01  1  2 12  2  6  5        4 0.109708113318D-08 0.100000000000D+01
-.514701855192D-07 0.000000000000D+00 0.000000000000D+00 0.351675540895D-07 0.000000000000D+00  6 3 22 9900012 13 4 21 2 0.14070216D-01 0.53079419D-02 0.13876898D+04 0.13876898D+04 0.13876898D+04 0.13098853D+01  1  2  4  2  6  5        4 -.211517638354D-04 0.100000000000D+01
-.182470328972D-07 0.000000000000D+00 0.000000000000D+00 0.351675540895D-07 0.000000000000D+00  6 3 22 9900012 13 4 21 2 0.14070216D-01 0.53079419D-02 0.13876898D+04 0.13876898D+04 0.13876898D+04 0.13098853D+01  1  2  5  2  6  5        4 -.749865046425D-05 0.100000000000D+01
0.435174498043D-07 0.000000000000D+00 -.000000000000D+00 0.351675540895D-07 0.000000000000D+00  6 3 22 9900012 13 4 21 2 0.14070216D-01 0.53079419D-02 0.13876898D+04 0.13876898D+04 0.13876898D+04 0.13098853D+01  1  2  6  2  6  5        4 0.178835730179D-04 0.100000000000D+01
0.140997590213D-04 0.000000000000D+00 0.000000000000D+00 0.351675540895D-07 0.962637275723D-05  6 3 22 9900012 13 4 21 2 0.14070216D-01 0.53079419D-02 0.13860462D+04 0.13860462D+04 0.13860462D+04 0.13099537D+01  1  2 11  2  6  5        4 0.579396500595D-02 0.100000000000D+01
  </mgrwgt>
  </event>
  <event>
  7     66 0.19493620E-05 0.68840383E+01 0.78161638E-02 0.13625654E+00
       21 -1    0    0  501  502 0.00000000E+00 0.00000000E+00 0.74155793E+01 0.74155793E+01 0.00000000E+00 0.0000E+00 0.9000E+01
       22 -1    0    0    0    0 0.00000000E+00 0.00000000E+00 -.33277554E+03 0.33277554E+03 0.00000000E+00 0.0000E+00 0.9000E+01
      -24  2    1    2    0    0 -.51737048E+01 -.44366274E+01 -.31277406E+03 0.32253874E+03 0.78467638E+02 0.0000E+00 0.0000E+00
  9900012  1    3    3    0    0 -.63798644E+01 0.11958844E+02 -.28917078E+03 0.29377450E+03 0.50000000E+02 0.0000E+00 0.9000E+01
       13  1    3    3    0    0 0.12061596E+01 -.16395472E+02 -.23603287E+02 0.28764240E+02 0.00000000E+00 0.0000E+00 0.9000E+01
        4  1    1    2  501    0 -.16606931E+00 -.42725576E-01 -.10323051E+02 0.10324475E+02 0.00000000E+00 0.0000E+00 0.9000E+01
       -3  1    1    2    0  502 0.53397741E+01 0.44793530E+01 -.22628479E+01 0.73279105E+01 0.00000000E+00 0.0000E+00 0.9000E+01
#aMCatNLO 2  0  0  1  5 0.65970509D+01 0.00000000D+00  -5  6  0 0.00000000D+00 0.00000000D+00 0.00000000D+00 0.00000000D+00 0.00000000D+00
  <mgrwgt>
 0.3003853072D-03    1    2    0
 0.398672604236936D+02 0.000000000000000D+00 0.000000000000000D+00 0.398672604236936D+02
 0.398672604236936D+02 0.000000000000000D+00 0.000000000000000D+00 -.398672604236936D+02
 0.548818670302638D+02 -.272656250872846D+01 0.150234736110919D+02 -.166997133589286D+02
 0.235958357527230D+02 0.280833298632872D+01 -.150514634304655D+02 0.179535561744391D+02
 0.125681806440031D+01 -.817704776002576D-01 0.279898193735555D-01 -.125384281551053D+01
 0.000000000000000D+00 0.000000000000000D+00 0.000000000000000D+00 0.000000000000000D+00
 0.607747770366794D+02 0.000000000000000D+00 0.000000000000000D+00 0.607747770366794D+02
 0.406044012488110D+02 0.000000000000000D+00 0.000000000000000D+00 -.406044012488110D+02
 0.544297441757519D+02 -.637986442645234D+01 0.119588442028277D+02 -.166997133589286D+02
 0.243433048236507D+02 0.120615960081684D+01 -.163954716140095D+02 0.179535561744391D+02
 0.126551424224923D+01 -.166069312384174D+00 -.427255756251025D-01 -.125384281551053D+01
 0.213406150438386D+02 0.533977413801968D+01 0.447935298680691D+01 0.201703757878685D+02
0.243655332771D-07 0.000000000000D+00 0.000000000000D+00 0.354808279856D-03 0.908305345385D-06  6 21 22 9900012 13 4 -3 2 0.11408584D-02 0.51196237D-01 0.14207484D+04 0.14207484D+04 0.14207484D+04 0.13085298D+01  1  2  1  3  6  1        3 0.300385307214D-03 0.100000000000D+01
  </mgrwgt>
  </event>
  <event>
  7     66 0.19493620E-05 0.10059308E+02 0.78161638E-02 0.13142114E+00
        3 -1    0    0  501    0 0.00000000E+00 0.00000000E+00 0.26798144E+02 0.26798144E+02 0.00000000E+00 0.0000E+00 0.9000E+01
       22 -1    0    0    0    0 -.00000000E+00 -.00000000E+00 -.88968846E+02 0.88968846E+02 0.00000000E+00 0.0000E+00 0.9000E+01
      -24  2    1    2    0    0 -.94069690E+01 -.10656158E+00 -.42992557E+02 0.90907909E+02 0.79544865E+02 0.0000E+00 0.0000E+00
  9900012  1    3    3    0    0 -.30307844E+02 0.43245494E+01 -.33548770E+02 0.67548406E+02 0.50000000E+02 0.0000E+00 0.9000E+01
       13  1    3    3    0    0 0.20900875E+02 -.44311110E+01 -.94437867E+01 0.23359504E+02 0.00000000E+00 0.0000E+00 0.9000E+01
        4  1    1    2  502    0 -.15724409E+01 0.11275887E+01 -.10900923E+02 0.11071321E+02 0.00000000E+00 0.0000E+00 0.9000E+01
       21  1    1    2  501  502 0.10979410E+02 -.10210271E+01 -.82772218E+01 0.13787760E+02 0.00000000E+00 0.0000E+00 0.9000E+01
#aMCatNLO 2  0  0  5  1 0.60969378D+01 0.00000000D+00  -5  6  0 0.00000000D+00 0.00000000D+00 0.00000000D+00 0.00000000D+00 0.00000000D+00
  <mgrwgt>
 0.1790288576D-03    2    2    0
 0.488282704949306D+02 0.000000000000000D+00 0.000000000000000D+00 0.488282704949306D+02
 0.488282704949306D+02 -.000000000000000D+00 -.000000000000000D+00 -.488282704949306D+02
 0.603698300735592D+02 -.331346832173188D+02 0.429252710455954D+01 0.530880045348887D+01
 0.208545580637795D+02 0.198912219206844D+02 -.444254824367569D+01 0.441765182424459D+01
 0.164321528525224D+02 0.132434612966344D+02 0.150021139116151D+00 -.972645227773346D+01
 0.000000000000000D+00 0.000000000000000D+00 0.000000000000000D+00 0.000000000000000D+00
 0.488282704949306D+02 0.000000000000000D+00 0.000000000000000D+00 0.488282704949306D+02
 0.488282704949306D+02 -.000000000000000D+00 -.000000000000000D+00 -.488282704949306D+02
 0.587172656121816D+02 -.303078435802793D+02 0.432454937524455D+01 0.323267245261216D+01
 0.216793731831751D+02 0.209008745793175D+02 -.443111095862104D+01 0.367612827678821D+01
 0.618469063135941D+01 -.157244090689239D+01 0.112758865708607D+01 -.587421242553988D+01
 0.110752115631450D+02 0.109794099078542D+02 -.102102707370958D+01 -.103458830386050D+01
-.126746216939D-07 0.000000000000D+00 0.000000000000D+00 0.224049594127D-06 0.000000000000D+00  6 3 22 9900012 13 4 21 2 0.41227915D-02 0.13687515D-01 0.21601750D+04 0.21601750D+04 0.21601750D+04 0.12851019D+01  1  2 13  2  6  5        4 -.946901898826D-05 0.100000000000D+01
0.252311171771D-06 0.000000000000D+00 0.000000000000D+00 0.224049594127D-06 0.213687579238D-06  6 3 22 9900012 13 4 21 2 0.41227915D-02 0.13687515D-01 0.21601750D+04 0.21601750D+04 0.21601750D+04 0.12851019D+01  1  2  1  2  6  5        4 0.188497876634D-03 0.100000000000D+01
  </mgrwgt>
  </event>
  <event>
  6     66 0.19493620E-05 0.17243936E+02 0.78161638E-02 0.10246545E+00
        1 -1    0    0  501    0 0.00000000E+00 0.00000000E+00 0.62315955E+02 0.62315955E+02 0.00000000E+00 0.0000E+00 0.9000E+01
       22 -1    0    0    0    0 0.00000000E+00 0.00000000E+00 -.33098840E+03 0.33098840E+03 0.00000000E+00 0.0000E+00 0.9000E+01
      -24  2    1    2    0    0 -.11082212E+02 -.13211280E+02 0.36864457E+02 0.87281232E+02 0.77211864E+02 0.0000E+00 0.0000E+00
  9900012  1    3    3    0    0 0.10459204E+01 -.22661698E+02 0.92565310E+01 0.55680606E+02 0.50000000E+02 0.0000E+00 0.9000E+01
       13  1    3    3    0    0 -.12128133E+02 0.94504183E+01 0.27607926E+02 0.31600627E+02 0.00000000E+00 0.0000E+00 0.9000E+01
        2  1    1    2  501    0 0.11082212E+02 0.13211280E+02 -.30553690E+03 0.30602312E+03 0.00000000E+00 0.0000E+00 0.9000E+01
#aMCatNLO 1  0  0  1  1 0.39023966D+03 0.00000000D+00  -5  6  0 0.00000000D+00 0.00000000D+00 0.00000000D+00 0.00000000D+00 0.00000000D+00
  <mgrwgt>
 0.1158630876D-03    3    2    0
 0.143617054159474D+03 0.000000000000000D+00 0.000000000000000D+00 0.143617054159474D+03
 0.143617054159474D+03 0.000000000000000D+00 0.000000000000000D+00 -.143617054159474D+03
 0.849007787798920D+02 0.104592040981957D+01 -.226616980095506D+02 0.647572060179591D+02
 0.690939983375051D+02 -.121281328191278D+02 0.945041832535669D+01 0.673615513038448D+02
 0.133239331201552D+03 0.110822124093082D+02 0.132112796841939D+02 -.132118757321804D+03
 0.000000000000000D+00 -.000000000000000D+00 -.000000000000000D+00 -.000000000000000D+00
 0.210907992964896D+03 0.000000000000000D+00 0.000000000000000D+00 0.210907992964896D+03
 0.753102824841925D+03 0.000000000000000D+00 0.000000000000000D+00 -.753102824841925D+03
 0.914305988985714D+02 0.432695252913296D+01 0.405873892423455D+02 0.647572060179591D+02
 0.968274691488936D+02 -.904079991630675D+01 0.689655285239861D+02 0.673615513038448D+02
 0.184064026713534D+03 0.169863374867166D+02 0.127026234426319D+03 -.132118757321804D+03
 0.591688723045822D+03 -.122724900995429D+02 -.236579152192651D+03 -.542194831877028D+03
0.397185030850D-05 0.000000000000D+00 0.000000000000D+00 0.104716162562D-05 0.000000000000D+00  6 1 22 9900012 13 2 21 0 0.95870701D-02 0.50921292D-01 0.19151609D+04 0.19151609D+04 0.19151609D+04 0.12916983D+01  1  2  2  1  6  1        1 0.101428007350D-03 0.100000000000D+01
0.491973500733D-07 0.000000000000D+00 -.762647549842D-08 0.104716162562D-05 0.000000000000D+00  6 1 22 9900012 13 2 21 2 0.95870701D-02 0.50921292D-01 0.19151609D+04 0.19151609D+04 0.19151609D+04 0.12916983D+01  1  2  3  1  6  1        1 0.209618176796D-05 0.100000000000D+01
0.289593734812D-06 0.000000000000D+00 0.000000000000D+00 0.104716162562D-05 0.000000000000D+00  6 1 22 9900012 13 2 21 2 0.95870701D-02 0.50921292D-01 0.19151609D+04 0.19151609D+04 0.19151609D+04 0.12916983D+01  1  2 15  1  6  1        1 0.123388984595D-04 0.100000000000D+01
  </mgrwgt>
  </event>
  <event>
  6     66 0.19493620E-05 0.22687183E+02 0.78161638E-02 0.12765709E+00
        1 -1    0    0  501    0 0.00000000E+00 0.00000000E+00 0.24593663E+02 0.24593663E+02 0.00000000E+00 0.0000E+00 0.9000E+01
       22 -1    0    0    0    0 -.00000000E+00 -.00000000E+00 -.41775090E+03 0.41775090E+03 0.00000000E+00 0.0000E+00 0.9000E+01
      -24  2    1    2    0    0 -.59371611E+00 -.27220629E+02 -.49808459E+02 0.97917941E+02 0.79785496E+02 0.0000E+00 0.0000E+00
  9900012  1    3    3    0    0 0.79763741E+00 -.43995177E+02 -.33806573E+02 0.74693348E+02 0.50000000E+02 0.0000E+00 0.9000E+01
       13  1    3    3    0    0 -.13913535E+01 0.16774549E+02 -.16001886E+02 0.23224593E+02 0.00000000E+00 0.0000E+00 0.9000E+01
        2  1    1    2  501    0 0.59371611E+00 0.27220629E+02 -.34334878E+03 0.34442663E+03 0.00000000E+00 0.0000E+00 0.9000E+01
#aMCatNLO 1  0  0  5  1 0.21428201D+02 0.00000000D+00  -5  6  0 0.00000000D+00 0.00000000D+00 0.00000000D+00 0.00000000D+00 0.00000000D+00
  <mgrwgt>
 0.1926607905D-05    1    2    0
 0.101360865093757D+03 0.000000000000000D+00 0.000000000000000D+00 0.101360865093757D+03
 0.101360865093757D+03 -.000000000000000D+00 -.000000000000000D+00 -.101360865093757D+03
 0.974187503677369D+02 0.797637411650528D+00 -.439951772699316D+02 0.710929045317343D+02
 0.196427634658173D+02 -.139135352195640D+01 0.167745485689925D+02 0.101250586298301D+02
 0.856602163539600D+02 0.593716110305871D+00 0.272206287009390D+02 -.812179631615643D+02
 0.000000000000000D+00 0.000000000000000D+00 0.000000000000000D+00 0.000000000000000D+00
 0.101360865093757D+03 0.000000000000000D+00 0.000000000000000D+00 0.101360865093757D+03
 0.101360865093757D+03 -.000000000000000D+00 -.000000000000000D+00 -.101360865093757D+03
 0.785851958491456D+02 0.963047019159862D+00 -.364114963971656D+02 0.484655390685656D+02
 0.191964073900544D+02 -.135485222669941D+01 0.184480558025793D+02 0.513182903394752D+01
 0.370689488657075D+02 -.269518971682503D+02 -.241746817865423D+02 -.795531077707959D+01
 0.678711780826067D+02 0.273437023757899D+02 0.421381223811287D+02 -.456420573254335D+02
0.197311228834D-07 0.000000000000D+00 0.000000000000D+00 0.218395620926D-06 0.000000000000D+00  6 1 22 9900012 13 2 21 2 0.37836405D-02 0.64269370D-01 0.30616384D+04 0.30616384D+04 0.30616384D+04 0.12665648D+01  1  2 14  2  6  5        2 0.192660790477D-05 0.100000000000D+01
  </mgrwgt>
  </event>
  <event>
  7     66 0.19493620E-05 0.31662295E+01 0.78161638E-02 0.13422405E+00
       21 -1    0    0  501  502 0.00000000E+00 0.00000000E+00 0.15656344E+02 0.15656344E+02 0.00000000E+00 0.0000E+00 0.9000E+01
       22 -1    0    0    0    0 0.00000000E+00 0.00000000E+00 -.19670623E+03 0.19670623E+03 0.00000000E+00 0.0000E+00 0.9000E+01
      -24  2    1    2    0    0 -.36142202E+01 -.36448647E+01 -.12680280E+03 0.15023450E+03 0.80405891E+02 0.0000E+00 0.0000E+00
  9900012  1    3    3    0    0 0.16549045E+02 -.35531526E+01 -.11580075E+03 0.12726472E+03 0.50000000E+02 0.0000E+00 0.9000E+01
       13  1    3    3    0    0 -.20163265E+02 -.91712121E-01 -.11002054E+02 0.22969782E+02 0.00000000E+00 0.0000E+00 0.9000E+01
        4  1    1    2  501    0 -.11763243E+00 0.51831217E+01 -.57004439E+02 0.57239712E+02 0.00000000E+00 0.0000E+00 0.9000E+01
       -3  1    1    2    0  502 0.37318526E+01 -.15382570E+01 0.27573620E+01 0.48883539E+01 0.00000000E+00 0.0000E+00 0.9000E+01
#aMCatNLO 2  0  0  1  5 0.42126716D+01 0.00000000D+00  -5  6  0 0.00000000D+00 0.00000000D+00 0.00000000D+00 0.00000000D+00 0.00000000D+00
  <mgrwgt>
 0.5522410439D-04    1    2    0
 0.480732637770135D+02 0.000000000000000D+00 0.000000000000000D+00 0.480732637770135D+02
 0.480732637770135D+02 0.000000000000000D+00 0.000000000000000D+00 -.480732637770135D+02
 0.539422091819759D+02 0.186273761349571D+02 -.440983354894578D+01 -.658302041842980D+01
 0.277521719759641D+02 -.190718945319681D+02 -.541571492084062D+00 0.201532277480292D+02
 0.144521463960870D+02 0.444518397011054D+00 0.495140504102985D+01 -.135702073295994D+02
 0.000000000000000D+00 0.000000000000000D+00 -.000000000000000D+00 0.000000000000000D+00
 0.636595615211442D+02 0.000000000000000D+00 0.000000000000000D+00 0.636595615211442D+02
 0.483776566401950D+02 0.000000000000000D+00 0.000000000000000D+00 -.483776566401950D+02
 0.531961647963628D+02 0.165490452258364D+02 -.355315258967974D+01 -.658302041842980D+01
 0.285082140976880D+02 -.201632653918579D+02 -.917121212483744D-01 0.201532277480292D+02
 0.145268411911653D+02 -.117632430756677D+00 0.518312170764479D+01 -.135702073295994D+02
 0.158059980761231D+02 0.373185259677825D+01 -.153825699671667D+01 0.152819048809492D+02
0.572914901749D-08 0.000000000000D+00 0.000000000000D+00 0.226351902946D-05 0.445430456482D-07  6 21 22 9900012 13 4 -3 2 0.24086684D-02 0.30262496D-01 0.16880451D+04 0.16880451D+04 0.16880451D+04 0.12987337D+01  1  2  1  3  6  1        3 0.552241043867D-04 0.100000000000D+01
  </mgrwgt>
  </event>
  <event>
  7     66 -.19493620E-05 0.27586493E+03 0.78161638E-02 0.96191494E-01
        1 -1    0    0  502    0 0.00000000E+00 0.00000000E+00 0.62083272E+03 0.62083272E+03 0.00000000E+00 0.0000E+00 0.9000E+01
       22 -1    0    0    0    0 0.00000000E+00 0.00000000E+00 -.40398694E+03 0.40398694E+03 0.00000000E+00 0.0000E+00 0.9000E+01
      -24  2    1    2    0    0 -.21825936E+03 0.29147504E+03 -.18236275E+03 0.41519314E+03 0.80835128E+02 0.0000E+00 0.0000E+00
  9900012  1    3    3    0    0 -.17737503E+03 0.20790185E+03 -.15538508E+03 0.31832311E+03 0.50000000E+02 0.0000E+00 0.9000E+01
       13  1    3    3    0    0 -.40884332E+02 0.83573194E+02 -.26977680E+02 0.96870029E+02 0.00000000E+00 0.0000E+00 0.9000E+01
        2  1    1    2  501    0 0.10337012E+03 -.31852720E+03 0.24260314E+03 0.41352297E+03 0.00000000E+00 0.0000E+00 0.9000E+01
       21  1    1    2  502  501 0.11488925E+03 0.27052162E+02 0.15660539E+03 0.19610356E+03 0.00000000E+00 0.0000E+00 0.9000E+01
#aMCatNLO 2  0  0  1  5 0.12778448D+03 0.00000000D+00  -5  6  0 0.00000000D+00 0.00000000D+00 0.00000000D+00 0.00000000D+00 0.00000000D+00
  <mgrwgt>
 -.1357805520D-04    2    2    0
 0.409026317936944D+03 0.000000000000000D+00 0.000000000000000D+00 0.409026317936944D+03
 0.409026317936944D+03 0.000000000000000D+00 0.000000000000000D+00 -.409026317936944D+03
 0.315879004769071D+03 -.132219851885016D+03 0.218534218015490D+03 -.178997910540211D+03
 0.971411380337577D+02 -.271755019014873D+02 0.868011152609335D+02 -.341095175039747D+02
 0.405032493071059D+03 0.159395353786503D+03 -.305335333276424D+03 0.213107428044186D+03
 0.000000000000000D+00 0.000000000000000D+00 0.000000000000000D+00 0.000000000000000D+00
 0.577230698697614D+03 0.000000000000000D+00 0.000000000000000D+00 0.577230698697614D+03
 0.434502728172602D+03 0.000000000000000D+00 0.000000000000000D+00 -.434502728172602D+03
 0.330492559053574D+03 -.177375032588687D+03 0.207901845653619D+03 -.178997910540211D+03
 0.990932211333963D+02 -.408843319992377D+02 0.835731935922896D+02 -.341095175039747D+02
 0.396937948355961D+03 0.103370116556890D+03 -.318527201288127D+03 0.213107428044186D+03
 0.185209698327285D+03 0.114889248031035D+03 0.270521620422180D+02 0.142727970525012D+03
-.271187984939D-04 0.000000000000D+00 0.000000000000D+00 0.734439000310D-06 0.000000000000D+00  6 1 22 9900012 13 2 21 2 0.10146178D+00 0.58507659D-01 0.16964982D+06 0.16964982D+06 0.16964982D+06 0.10994444D+01  1  2 13  1  6  1        1 -.396791494110D-04 0.100000000000D+01
0.181356373596D-04 0.000000000000D+00 0.000000000000D+00 0.734439000310D-06 0.264239697314D-09  6 1 22 9900012 13 2 21 2 0.95512726D-01 0.62151838D-01 0.16964982D+06 0.16964982D+06 0.16964982D+06 0.10994444D+01  1  2  1  1  6  1        1 0.261010942063D-04 0.100000000000D+01
  </mgrwgt>
  </event>
  <event>
  6     66 -.19493620E-05 0.51561918E+01 0.78161638E-02 0.13472358E+00
        3 -1    0    0  501    0 0.00000000E+00 0.00000000E+00 0.14673979E+02 0.14673979E+02 0.00000000E+00 0.0000E+00 0.9000E+01
       22 -1    0    0    0    0 -.00000000E+00 -.00000000E+00 -.19368544E+03 0.19368544E+03 0.00000000E+00 0.0000E+00 0.9000E+01
      -24  2    1    2    0    0 -.50727494E+01 -.92386555E+00 -.95162699E+02 0.12435227E+03 0.79880919E+02 0.0000E+00 0.0000E+00
  9900012  1    3    3    0    0 -.22194160E+02 0.90663892E+01 -.48556479E+02 0.73705575E+02 0.50000000E+02 0.0000E+00 0.9000E+01
       13  1    3    3    0    0 0.17121410E+02 -.99902547E+01 -.46606220E+02 0.50646694E+02 0.00000000E+00 0.0000E+00 0.9000E+01
        4  1    1    2  501    0 0.50727494E+01 0.92386555E+00 -.83848761E+02 0.84007149E+02 0.00000000E+00 0.0000E+00 0.9000E+01
#aMCatNLO 1  0  0  5  1 0.12190345D+01 0.00000000D+00  -5  6  0 0.00000000D+00 0.00000000D+00 0.00000000D+00 0.00000000D+00 0.00000000D+00
  <mgrwgt>
 -.5453959076D-04    7    2    0
 0.533116877944708D+02 0.000000000000000D+00 0.000000000000000D+00 0.533116877944708D+02
 0.533116877944708D+02 -.000000000000000D+00 -.000000000000000D+00 -.533116877944708D+02
 0.625105375047746D+02 -.221941598050394D+02 0.906638919927559D+01 0.288580518498991D+02
 0.207240504836623D+02 0.171214103761521D+02 -.999025474822589D+01 -.604469893760861D+01
 0.233887876005048D+02 0.507274942888737D+01 0.923865548950300D+00 -.228133529122904D+02
 0.000000000000000D+00 0.000000000000000D+00 0.000000000000000D+00 0.000000000000000D+00
 0.533116877944708D+02 0.000000000000000D+00 0.000000000000000D+00 0.533116877944708D+02
 0.533116877944708D+02 -.000000000000000D+00 -.000000000000000D+00 -.533116877944708D+02
 0.624716097449511D+02 -.221779586640822D+02 0.906933980351770D+01 0.287851914905574D+02
 0.207350801149499D+02 0.171267846254634D+02 -.998927597254224D+01 -.606886820673928D+01
 0.113687400135498D+02 0.131456674131572D+01 0.970802540071670D-01 -.112920653205070D+02
 0.120479457154909D+02 0.373660729730304D+01 0.822855915017364D+00 -.114242579633111D+02
0.997689771649D-08 0.000000000000D+00 0.000000000000D+00 0.678351355731D-06 0.000000000000D+00  6 3 22 9900012 13 4 21 0 0.22575352D-02 0.29797760D-01 0.16172384D+04 0.16172384D+04 0.16172384D+04 0.13011481D+01  1  2  2  2  6  5        4 0.329020207509D-05 0.100000000000D+01
-.402089142743D-09 0.000000000000D+00 -.191569571044D-10 0.678351355731D-06 0.000000000000D+00  6 3 22 9900012 13 4 21 2 0.22575352D-02 0.29797760D-01 0.16172384D+04 0.16172384D+04 0.16172384D+04 0.13011481D+01  1  2  3  2  6  5        4 -.224493045364D-06 0.100000000000D+01
0.722626539190D-09 0.000000000000D+00 0.000000000000D+00 0.678351355731D-06 0.000000000000D+00  6 3 22 9900012 13 4 21 2 0.22575352D-02 0.29797760D-01 0.16172384D+04 0.16172384D+04 0.16172384D+04 0.13011481D+01  1  2 15  2  6  5        4 0.403454396547D-06 0.100000000000D+01
0.442135726821D-11 0.000000000000D+00 0.000000000000D+00 0.678351355731D-06 0.000000000000D+00  6 3 22 9900012 13 4 21 2 0.22575352D-02 0.29797760D-01 0.16166851D+04 0.16166851D+04 0.16166851D+04 0.13011675D+01  1  2 12  2  6  5        4 0.246846284049D-08 0.100000000000D+01
-.175321920541D-06 0.000000000000D+00 0.000000000000D+00 0.678351355731D-06 0.000000000000D+00  6 3 22 9900012 13 4 21 2 0.22575352D-02 0.29797760D-01 0.16172384D+04 0.16172384D+04 0.16172384D+04 0.13011481D+01  1  2  4  2  6  5        4 -.978851395810D-04 0.100000000000D+01
-.980548270549D-07 0.000000000000D+00 0.000000000000D+00 0.678351355731D-06 0.000000000000D+00  6 3 22 9900012 13 4 21 2 0.22575352D-02 0.29797760D-01 0.16172384D+04 0.16172384D+04 0.16172384D+04 0.13011481D+01  1  2  5  2  6  5        4 -.547456382135D-04 0.100000000000D+01
0.169472937361D-06 0.000000000000D+00 -.000000000000D+00 0.678351355731D-06 0.000000000000D+00  6 3 22 9900012 13 4 21 2 0.22575352D-02 0.29797760D-01 0.16172384D+04 0.16172384D+04 0.16172384D+04 0.13011481D+01  1  2  6  2  6  5        4 0.946195551448D-04 0.100000000000D+01
  </mgrwgt>
  </event>
  <event>
  7     66 0.19493620E-05 0.78072651E+01 0.78161638E-02 0.13603353E+00
        1 -1    0    0  501    0 0.00000000E+00 0.00000000E+00 0.13352341E+03 0.13352341E+03 0.00000000E+00 0.0000E+00 0.9000E+01
       22 -1    0    0    0    0 0.00000000E+00 0.00000000E+00 -.42075975E+02 0.42075975E+02 0.00000000E+00 0.0000E+00 0.9000E+01
      -24  2    1    2    0    0 -.64462769E+00 -.79945359E+01 0.11868153E+03 0.14272708E+03 0.78875757E+02 0.0000E+00 0.0000E+00
  9900012  1    3    3    0    0 -.15796118E+02 -.65949872E+01 0.51313223E+02 0.73661781E+02 0.50000000E+02 0.0000E+00 0.9000E+01
       13  1    3    3    0    0 0.15151491E+02 -.13995487E+01 0.67368304E+02 0.69065294E+02 0.00000000E+00 0.0000E+00 0.9000E+01
        2  1    1    2  502    0 -.32567889E-01 0.14306059E+00 -.24545112E+02 0.24545550E+02 0.00000000E+00 0.0000E+00 0.9000E+01
       21  1    1    2  501  502 0.67719558E+00 0.78514753E+01 -.26889821E+01 0.83267570E+01 0.00000000E+00 0.0000E+00 0.9000E+01
#aMCatNLO 2  0  0  5  1 0.67100343D+01 0.00000000D+00  -5  6  0 0.00000000D+00 0.00000000D+00 0.00000000D+00 0.00000000D+00 0.00000000D+00
  <mgrwgt>
 0.1469150096D-01    2    2    0
 0.749541693931459D+02 0.000000000000000D+00 0.000000000000000D+00 0.749541693931459D+02
 0.749541693931459D+02 -.000000000000000D+00 -.000000000000000D+00 -.749541693931459D+02
 0.552694473594485D+02 -.158077138385935D+02 -.673879240295459D+01 0.161064170927574D+02
 0.404353522814037D+02 0.151430515496361D+02 -.150420825397887D+01 0.374625554576158D+02
 0.542035391454397D+02 0.664662288957367D+00 0.824300065693347D+01 -.535689725503733D+02
 0.000000000000000D+00 0.000000000000000D+00 0.000000000000000D+00 0.000000000000000D+00
 0.749541693931459D+02 0.000000000000000D+00 0.000000000000000D+00 0.749541693931459D+02
 0.749541693931459D+02 -.000000000000000D+00 -.000000000000000D+00 -.749541693931459D+02
 0.549836044743058D+02 -.157961183175392D+02 -.659498721157241D+01 0.151718670823467D+02
 0.398054203316437D+02 0.151514906227753D+02 -.139954865979664D+01 0.367824018143955D+02
 0.437251919458137D+02 -.325678889164891D-01 0.143060585551253D+00 -.437249457826962D+02
 0.113941220345287D+02 0.677195583680340D+00 0.785147528581780D+01 -.822932311404587D+01
-.245495632084D-07 0.000000000000D+00 0.000000000000D+00 0.295351200254D-05 0.000000000000D+00  6 1 22 9900012 13 2 21 2 0.20542063D-01 0.64732269D-02 0.14475090D+04 0.14475090D+04 0.14475090D+04 0.13074585D+01  1  2 13  2  6  5        2 -.837230813165D-05 0.100000000000D+01
0.431034622977D-04 0.000000000000D+00 0.000000000000D+00 0.295351200254D-05 0.686348537473D-03  6 1 22 9900012 13 2 21 2 0.20542063D-01 0.64732269D-02 0.14475090D+04 0.14475090D+04 0.14475090D+04 0.13074585D+01  1  2  1  2  6  5        2 0.146998732659D-01 0.100000000000D+01
  </mgrwgt>
  </event>
  <event>
  7     66 0.19493620E-05 0.27871457E+02 0.78161638E-02 0.12876962E+00
       21 -1    0    0  501  502 0.00000000E+00 0.00000000E+00 0.78297376E+02 0.78297376E+02 0.00000000E+00 0.0000E+00 0.9000E+01
       22 -1    0    0    0    0 0.00000000E+00 0.00000000E+00 -.16483129E+03 0.16483129E+03 0.00000000E+00 0.0000E+00 0.9000E+01
      -24  2    1    2    0    0 -.23719810E+02 0.14056906E+02 -.55842519E+02 0.10195694E+03 0.80725484E+02 0.0000E+00 0.0000E+00
  9900012  1    3    3    0    0 -.40495213E+01 -.28839455E+01 -.56982808E+02 0.75972075E+02 0.50000000E+02 0.0000E+00 0.9000E+01
       13  1    3    3    0    0 -.19670289E+02 0.16940852E+02 0.11402890E+01 0.25984861E+02 0.00000000E+00 0.0000E+00 0.9000E+01
        2  1    1    2  501    0 -.47604966E+00 0.38212638E+00 -.82337292E+02 0.82339555E+02 0.00000000E+00 0.0000E+00 0.9000E+01
       -1  1    1    2    0  502 0.24195860E+02 -.14439033E+02 0.51645901E+02 0.58832172E+02 0.00000000E+00 0.0000E+00 0.9000E+01
#aMCatNLO 2  0  0  1  1 0.28608675D+02 0.00000000D+00  -5  6  0 0.00000000D+00 0.00000000D+00 0.00000000D+00 0.00000000D+00 0.00000000D+00
  <mgrwgt>
 0.3810163643D-02    1    2    0
 0.593245541891170D+02 0.000000000000000D+00 0.000000000000000D+00 0.593245541891170D+02
 0.593245541891170D+02 0.000000000000000D+00 0.000000000000000D+00 -.593245541891170D+02
 0.511691403365854D+02 0.614939925299484D+01 -.897021604712612D+01 -.321819874564397D-01
 0.356170772855312D+02 -.120093084546442D+02 0.123691133355101D+02 0.311666125861958D+02
 0.318628907561175D+02 0.585990920164938D+01 -.339889728838400D+01 -.311344305987393D+02
 0.000000000000000D+00 0.000000000000000D+00 -.000000000000000D+00 0.000000000000000D+00
 0.207046119785007D+03 0.000000000000000D+00 0.000000000000000D+00 0.207046119785007D+03
 0.623332482612887D+02 0.000000000000000D+00 0.000000000000000D+00 -.623332482612887D+02
 0.502465600817281D+02 -.404952132308818D+01 -.288394546069239D+01 -.321819874564397D-01
 0.405619336865306D+02 -.196702887492527D+02 0.169408519506403D+02 0.311666125861958D+02
 0.311404144570363D+02 -.476049661221514D+00 0.382126377431759D+00 -.311344305987393D+02
 0.147430459821001D+03 0.241958597335624D+02 -.144390328673796D+02 0.144712871523718D+03
0.365484317492D-05 0.000000000000D+00 0.000000000000D+00 0.268441078348D-05 0.636054479712D-06  6 21 22 9900012 13 2 -1 2 0.12045750D-01 0.25358659D-01 0.27559090D+04 0.27559090D+04 0.27559090D+04 0.12720718D+01  1  2  1  3  6  1        1 0.381016364335D-02 0.100000000000D+01
  </mgrwgt>
  </event>
  <event>
  7     66 0.19493620E-05 0.12381859E+02 0.78161638E-02 0.13088682E+00
        1 -1    0    0  502    0 0.00000000E+00 0.00000000E+00 0.27518057E+03 0.27518057E+03 0.00000000E+00 0.0000E+00 0.9000E+01
       22 -1    0    0    0    0 0.00000000E+00 0.00000000E+00 -.17689386E+02 0.17689386E+02 0.00000000E+00 0.0000E+00 0.9000E+01
      -24  2    1    2    0    0 -.15854208E+02 -.12372631E+02 0.13596667E+03 0.15999915E+03 0.81904541E+02 0.0000E+00 0.0000E+00
  9900012  1    3    3    0    0 -.21477855E+02 -.25987428E+02 0.69936664E+02 0.92345989E+02 0.50000000E+02 0.0000E+00 0.9000E+01
       13  1    3    3    0    0 0.56236470E+01 0.13614797E+02 0.66030009E+02 0.67653161E+02 0.00000000E+00 0.0000E+00 0.9000E+01
        2  1    1    2  501    0 0.45413926E+01 0.25456592E+01 -.39309541E+01 0.65235748E+01 0.00000000E+00 0.0000E+00 0.9000E+01
       21  1    1    2  502  501 0.11312815E+02 0.98269720E+01 0.12545547E+03 0.12634723E+03 0.00000000E+00 0.0000E+00 0.9000E+01
#aMCatNLO 2  0  0  1  1 0.15392213D+02 0.00000000D+00  -5  6  0 0.00000000D+00 0.00000000D+00 0.00000000D+00 0.00000000D+00 0.00000000D+00
  <mgrwgt>
 0.1911588083D-03    1    2    0
 0.501792723155514D+02 0.000000000000000D+00 0.000000000000000D+00 0.501792723155514D+02
 0.501792723155514D+02 0.000000000000000D+00 0.000000000000000D+00 -.501792723155514D+02
 0.562504686988591D+02 -.149313168762891D+02 -.203007227509168D+02 -.538995927364781D+01
 0.273507399409536D+02 0.856387977728789D+01 0.161688546348833D+02 0.203295616842529D+02
 0.167573359912902D+02 0.636743709900117D+01 0.413186811603351D+01 -.149396024106051D+02
 0.000000000000000D+00 0.000000000000000D+00 0.000000000000000D+00 0.000000000000000D+00
 0.935256712123712D+02 0.000000000000000D+00 0.000000000000000D+00 0.935256712123712D+02
 0.520474781101500D+02 0.000000000000000D+00 0.000000000000000D+00 -.520474781101500D+02
 0.605449940625557D+02 -.214778545935274D+02 -.259874278666169D+02 -.538995927364781D+01
 0.251053614357683D+02 0.562364701444948D+01 0.136147966860908D+02 0.203295616842529D+02
 0.158207568552042D+02 0.454139258894230D+01 0.254565917546569D+01 -.149396024106051D+02
 0.441020369689930D+02 0.113128149901356D+02 0.982697200506038D+01 0.414781931022212D+02
0.415618757203D-06 0.000000000000D+00 0.000000000000D+00 0.302826609681D-06 0.325363060451D-07  6 1 22 9900012 13 2 21 2 0.42335473D-01 0.27214440D-02 0.22670116D+04 0.22670116D+04 0.22670116D+04 0.12824868D+01  1  2  1  1  6  1        1 0.191158808260D-03 0.100000000000D+01
  </mgrwgt>
  </event>
  <event>
  7     66 0.19493620E-05 0.86201340E+01 0.78161638E-02 0.12905532E+00
        3 -1    0    0  501    0 0.00000000E+00 0.00000000E+00 0.11090559E+02 0.11090559E+02 0.00000000E+00 0.0000E+00 0.9000E+01
       22 -1    0    0    0    0 -.00000000E+00 -.00000000E+00 -.59712976E+03 0.59712976E+03 0.00000000E+00 0.0000E+00 0.9000E+01
      -24  2    1    2    0    0 0.17947788E+02 -.10106553E+02 -.15880086E+03 0.17912968E+03 0.80283651E+02 0.0000E+00 0.0000E+00
  9900012  1    3    3    0    0 0.32563993E+02 0.72702507E+01 -.11841215E+03 0.13279574E+03 0.50000000E+02 0.0000E+00 0.9000E+01
       13  1    3    3    0    0 -.14616205E+02 -.17376804E+02 -.40388705E+02 0.46333943E+02 0.00000000E+00 0.0000E+00 0.9000E+01
        4  1    1    2  502    0 -.63046675E+01 0.50988419E+01 -.38265056E+03 0.38273646E+03 0.00000000E+00 0.0000E+00 0.9000E+01
       21  1    1    2  501  502 -.11643120E+02 0.50077109E+01 -.44587778E+02 0.46354174E+02 0.00000000E+00 0.0000E+00 0.9000E+01
#aMCatNLO 2  0  0  5  1 0.13494641D+02 0.00000000D+00  -5  6  0 0.00000000D+00 0.00000000D+00 0.00000000D+00 0.00000000D+00 0.00000000D+00
  <mgrwgt>
 0.4466700068D-04    2    2    0
 0.813787621885578D+02 0.000000000000000D+00 0.000000000000000D+00 0.813787621885578D+02
 0.813787621885578D+02 -.000000000000000D+00 -.000000000000000D+00 -.813787621885578D+02
 0.726006676837650D+02 0.339681503559507D+02 0.647955748164143D+01 0.396867363783685D+02
 0.285789135988378D+02 -.140613936438285D+02 -.176892223535716D+02 0.174963688749705D+02
 0.615779430945127D+02 -.199067567121221D+02 0.112096648719302D+02 -.571831052533390D+02
 0.000000000000000D+00 -.000000000000000D+00 0.000000000000000D+00 0.000000000000000D+00
 0.813787621885578D+02 0.000000000000000D+00 0.000000000000000D+00 0.813787621885578D+02
 0.813787621885578D+02 -.000000000000000D+00 -.000000000000000D+00 -.813787621885578D+02
 0.698886451133036D+02 0.325639925985375D+02 0.727025071789011D+01 0.356532264502768D+02
 0.277214888565605D+02 -.146162047051031D+02 -.173768035023209D+02 0.159026477193157D+02
 0.524698554532306D+02 -.630466745581442D+01 0.509884190161564D+01 -.518395477489613D+02
 0.126775349540208D+02 -.116431204376199D+02 0.500771088281516D+01 0.283673579368824D+00
-.639869127480D-07 0.000000000000D+00 0.000000000000D+00 0.400008752232D-06 0.000000000000D+00  6 3 22 9900012 13 4 21 2 0.17062399D-02 0.91866117D-01 0.26832313D+04 0.26832313D+04 0.26832313D+04 0.12734822D+01  1  2 13  2  6  5        4 -.831225812928D-05 0.100000000000D+01
0.407828914654D-06 0.000000000000D+00 0.000000000000D+00 0.400008752232D-06 0.108368354135D-06  6 3 22 9900012 13 4 21 2 0.17062399D-02 0.91866117D-01 0.26832313D+04 0.26832313D+04 0.26832313D+04 0.12734822D+01  1  2  1  2  6  5        4 0.529792588141D-04 0.100000000000D+01
  </mgrwgt>
  </event>
  <event>
  6     66 0.19493620E-05 0.51914129E+01 0.78161638E-02 0.13126242E+00
        3 -1    0    0  501    0 0.00000000E+00 0.00000000E+00 0.41009706E+03 0.41009706E+03 0.00000000E+00 0.0000E+00 0.9000E+01
       22 -1    0    0    0    0 0.00000000E+00 0.00000000E+00 -.58362216E+01 0.58362216E+01 0.00000000E+00 0.0000E+00 0.9000E+01
      -24  2    1    2    0    0 -.45172347E+01 -.25583898E+01 0.40155929E+03 0.41008100E+03 0.83003709E+02 0.0000E+00 0.0000E+00
  9900012  1    3    3    0    0 0.46871779E+01 0.21459157E+02 0.31790953E+03 0.32256617E+03 0.50000000E+02 0.0000E+00 0.9000E+01
       13  1    3    3    0    0 -.92044126E+01 -.24017546E+02 0.83649760E+02 0.87514833E+02 0.00000000E+00 0.0000E+00 0.9000E+01
        4  1    1    2  501    0 0.45172347E+01 0.25583898E+01 0.27015451E+01 0.58522742E+01 0.00000000E+00 0.0000E+00 0.9000E+01
#aMCatNLO 1  0  0  1  1 0.28505218D+02 0.00000000D+00  -5  6  0 0.00000000D+00 0.00000000D+00 0.00000000D+00 0.00000000D+00 0.00000000D+00
  <mgrwgt>
 0.3397421111D-04    4    2    0
 0.489225642912582D+02 0.000000000000000D+00 0.000000000000000D+00 0.489225642912582D+02
 0.489225642912582D+02 0.000000000000000D+00 0.000000000000000D+00 -.489225642912582D+02
 0.577201208675466D+02 0.468717789968717D+01 0.214591566761562D+02 0.186854839661448D+02
 0.264091819142706D+02 -.920441263911885D+01 -.240175464524675D+02 -.599008679014191D+01
 0.137158258006991D+02 0.451723473943168D+01 0.255838977631129D+01 -.126953971760029D+02
 0.000000000000000D+00 -.000000000000000D+00 0.000000000000000D+00 -.000000000000000D+00
 0.501043421946496D+02 0.000000000000000D+00 0.000000000000000D+00 0.501043421946496D+02
 0.646267186000071D+02 0.000000000000000D+00 0.000000000000000D+00 -.646267186000071D+02
 0.562697220687225D+02 0.557317185480444D+01 0.169137241942465D+02 0.186854839661448D+02
 0.282717846141195D+02 -.877940103671485D+01 -.261979919640850D+02 -.599008679014191D+01
 0.136271406124795D+02 0.472975984108126D+01 0.146806800303086D+01 -.126953971760029D+02
 0.165624134993352D+02 -.152353065917085D+01 0.781619976680761D+01 -.145223764053575D+02
0.172672059154D-06 0.000000000000D+00 0.000000000000D+00 0.671010320175D-07 0.000000000000D+00  6 3 22 9900012 13 4 21 0 0.63091855D-01 0.89788024D-03 0.18285991D+04 0.18285991D+04 0.18285991D+04 0.12942621D+01  1  2  2  1  6  1        3 0.307735220704D-04 0.100000000000D+01
0.847241806073D-09 0.000000000000D+00 -.331553086374D-09 0.671010320175D-07 0.000000000000D+00  6 3 22 9900012 13 4 21 2 0.63091855D-01 0.89788024D-03 0.18285991D+04 0.18285991D+04 0.18285991D+04 0.12942621D+01  1  2  3  1  6  1        3 0.252933849973D-06 0.100000000000D+01
0.116202269980D-07 0.000000000000D+00 0.000000000000D+00 0.671010320175D-07 0.000000000000D+00  6 3 22 9900012 13 4 21 2 0.63091855D-01 0.89788024D-03 0.18285991D+04 0.18285991D+04 0.18285991D+04 0.12942621D+01  1  2 15  1  6  1        3 0.346907899386D-05 0.100000000000D+01
-.174625626603D-08 0.000000000000D+00 0.000000000000D+00 0.671010320175D-07 0.000000000000D+00  6 3 22 9900012 13 4 21 2 0.63091855D-01 0.89788024D-03 0.18285991D+04 0.18285991D+04 0.18285991D+04 0.12942621D+01  1  2  4  1  6  1        3 -.521323803005D-06 0.100000000000D+01
  </mgrwgt>
  </event>
  <event>
  6     66 0.19493620E-05 0.13753919E+02 0.78161638E-02 0.13251223E+00
        1 -1    0    0  501    0 0.00000000E+00 0.00000000E+00 0.11006690E+04 0.11006690E+04 0.00000000E+00 0.0000E+00 0.9000E+01
       22 -1    0    0    0    0 0.00000000E+00 0.00000000E+00 -.27757756E+01 0.27757756E+01 0.00000000E+00 0.0000E+00 0.9000E+01
      -24  2    1    2    0    0 -.31337401E+01 -.13392160E+02 0.10617994E+04 0.10648192E+04 0.78948141E+02 0.0000E+00 0.0000E+00
  9900012  1    3    3    0    0 0.12776741E+02 -.21519703E+02 0.58005784E+03 0.58274647E+03 0.50000000E+02 0.0000E+00 0.9000E+01
       13  1    3    3    0    0 -.15910481E+02 0.81275431E+01 0.48174152E+03 0.48207270E+03 0.00000000E+00 0.0000E+00 0.9000E+01
        2  1    1    2  501    0 0.31337401E+01 0.13392160E+02 0.36093815E+02 0.38625559E+02 0.00000000E+00 0.0000E+00 0.9000E+01
#aMCatNLO 1  0  0  5  1 0.10446673D+02 0.00000000D+00  -5  6  0 0.00000000D+00 0.00000000D+00 0.00000000D+00 0.00000000D+00 0.00000000D+00
  <mgrwgt>
 0.1149576135D-04    5    2    0
 0.552739541619622D+02 0.000000000000000D+00 0.000000000000000D+00 0.552739541619622D+02
 0.552739541619622D+02 -.000000000000000D+00 -.000000000000000D+00 -.552739541619622D+02
 0.559663957030286D+02 0.127767408470908D+02 -.215197031797867D+02 0.242790369828460D+01
 0.274980915890852D+02 -.159104809840581D+02 0.812754306030160D+01 0.209032217540882D+02
 0.270834210318106D+02 0.313374013696734D+01 0.133921601194851D+02 -.233311254523728D+02
 0.000000000000000D+00 0.000000000000000D+00 0.000000000000000D+00 0.000000000000000D+00
 0.552739541619622D+02 0.000000000000000D+00 0.000000000000000D+00 0.552739541619622D+02
 0.552739541619622D+02 -.000000000000000D+00 -.000000000000000D+00 -.552739541619622D+02
 0.552095694910241D+02 0.133244704145685D+02 -.191789596116436D+02 -.165001811215750D+01
 0.262475445341885D+02 -.156456928711217D+02 0.925912533936457D+01 0.189318379088422D+02
 0.164095534739911D+02 -.128494677675931D+01 -.219067869684131D+01 -.162118254321922D+02
 0.126812408247208D+02 0.360616923331251D+01 0.121105129691203D+02 -.106999436449252D+01
0.672078048890D-07 0.000000000000D+00 0.000000000000D+00 0.306682642004D-06 0.000000000000D+00  6 1 22 9900012 13 2 21 0 0.16933368D+00 0.42704240D-03 0.19155418D+04 0.19155418D+04 0.19155418D+04 0.12916874D+01  1  2  2  2  6  5        2 0.314587269596D-04 0.100000000000D+01
-.302162068906D-08 0.000000000000D+00 -.129047833498D-09 0.306682642004D-06 0.000000000000D+00  6 1 22 9900012 13 2 21 2 0.16933368D+00 0.42704240D-03 0.19155418D+04 0.19155418D+04 0.19155418D+04 0.12916874D+01  1  2  3  2  6  5        2 -.235980544229D-05 0.100000000000D+01
0.411223863566D-08 0.000000000000D+00 0.000000000000D+00 0.306682642004D-06 0.000000000000D+00  6 1 22 9900012 13 2 21 2 0.16933368D+00 0.42704240D-03 0.19155418D+04 0.19155418D+04 0.19155418D+04 0.12916874D+01  1  2 15  2  6  5        2 0.321154906953D-05 0.100000000000D+01
0.179921607290D-07 0.000000000000D+00 0.000000000000D+00 0.306682642004D-06 0.000000000000D+00  6 1 22 9900012 13 2 21 2 0.16933368D+00 0.42704240D-03 0.19598695D+04 0.19598695D+04 0.19598695D+04 0.12904254D+01  1  2 12  2  6  5        2 0.140549812558D-04 0.100000000000D+01
-.446490106034D-07 0.000000000000D+00 0.000000000000D+00 0.306682642004D-06 0.000000000000D+00  6 1 22 9900012 13 2 21 2 0.16933368D+00 0.42704240D-03 0.19155418D+04 0.19155418D+04 0.19155418D+04 0.12916874D+01  1  2  4  2  6  5        2 -.348696904930D-04 0.100000000000D+01
  </mgrwgt>
  </event>
  <event>
  7     66 0.19493620E-05 0.84895824E+01 0.78161638E-02 0.12666775E+00
        1 -1    0    0  502    0 0.00000000E+00 0.00000000E+00 0.64500306E+03 0.64500306E+03 0.00000000E+00 0.0000E+00 0.9000E+01
       22 -1    0    0    0    0 0.00000000E+00 0.00000000E+00 -.72974479E+01 0.72974479E+01 0.00000000E+00 0.0000E+00 0.9000E+01
      -24  2    1    2    0    0 -.95270633E+00 -.21234436E+01 0.31410146E+03 0.32519885E+03 0.84197064E+02 0.0000E+00 0.0000E+00
  9900012  1    3    3    0    0 0.20053221E+02 0.15273626E+02 0.23300067E+03 0.23963457E+03 0.50000000E+02 0.0000E+00 0.9000E+01
       13  1    3    3    0    0 -.21005928E+02 -.17397070E+02 0.81100792E+02 0.85564277E+02 0.00000000E+00 0.0000E+00 0.9000E+01
        2  1    1    2  501    0 0.16309763E+02 -.30338819E+01 0.43919223E+02 0.46947960E+02 0.00000000E+00 0.0000E+00 0.9000E+01
       21  1    1    2  502  501 -.15357057E+02 0.51573255E+01 0.27968493E+03 0.28015370E+03 0.00000000E+00 0.0000E+00 0.9000E+01
#aMCatNLO 2  0  0  1  1 0.43153178D+02 0.00000000D+00  -5  6  0 0.00000000D+00 0.00000000D+00 0.00000000D+00 0.00000000D+00 0.00000000D+00
  <mgrwgt>
 0.1983271745D-04    1    2    0
 0.501298279619340D+02 0.000000000000000D+00 0.000000000000000D+00 0.501298279619340D+02
 0.501298279619340D+02 0.000000000000000D+00 0.000000000000000D+00 -.501298279619340D+02
 0.551666940397920D+02 0.115396577963487D+02 0.181327168885807D+02 0.902247235860389D+01
 0.303170631119799D+02 -.254157472003768D+02 -.159161300642218D+02 -.445431406179230D+01
 0.147758987720962D+02 0.138760894040282D+02 -.221658682435883D+01 -.456815829681159D+01
 0.000000000000000D+00 -.000000000000000D+00 0.000000000000000D+00 0.000000000000000D+00
 0.897143714540404D+02 0.000000000000000D+00 0.000000000000000D+00 0.897143714540404D+02
 0.524651310822402D+02 0.000000000000000D+00 0.000000000000000D+00 -.524651310822402D+02
 0.567170199145118D+02 0.200532212577020D+02 0.152736262135423D+02 0.902247235860389D+01
 0.276359900161272D+02 -.210059275926113D+02 -.173970697643130D+02 -.445431406179230D+01
 0.172070009147751D+02 0.163097630508780D+02 -.303388191605349D+01 -.456815829681159D+01
 0.406194916908666D+02 -.153570567159687D+02 0.515732546682420D+01 0.372492403718001D+02
0.393346183825D-07 0.000000000000D+00 0.000000000000D+00 0.870609057610D-08 0.200760770279D-09  6 1 22 9900012 13 2 21 2 0.99231240D-01 0.11226843D-02 0.33674166D+04 0.33674166D+04 0.33674166D+04 0.12616473D+01  1  2  1  1  6  1        1 0.198327174522D-04 0.100000000000D+01
  </mgrwgt>
  </event>
  <event>
  6     66 0.19493620E-05 0.46154890E+02 0.78161638E-02 0.11884660E+00
        1 -1    0    0  501    0 0.00000000E+00 0.00000000E+00 0.12348165E+04 0.12348165E+04 0.00000000E+00 0.0000E+00 0.9000E+01
       22 -1    0    0    0    0 0.00000000E+00 0.00000000E+00 -.77167487E+01 0.77167487E+01 0.00000000E+00 0.0000E+00 0.9000E+01
      -24  2    1    2    0    0 0.78956416E+02 -.19637987E+02 0.75784254E+03 0.76627481E+03 0.78943070E+02 0.0000E+00 0.0000E+00
  9900012  1    3    3    0    0 0.34424053E+02 -.91716736E+01 0.30431867E+03 0.31044966E+03 0.50000000E+02 0.0000E+00 0.9000E+01
       13  1    3    3    0    0 0.44532363E+02 -.10466314E+02 0.45352387E+03 0.45582516E+03 0.00000000E+00 0.0000E+00 0.9000E+01
        2  1    1    2  501    0 -.78956416E+02 0.19637987E+02 0.46925718E+03 0.47625840E+03 0.00000000E+00 0.0000E+00 0.9000E+01
#aMCatNLO 1  0  0  5  1 0.33009514D+02 0.00000000D+00  -5  6  0 0.00000000D+00 0.00000000D+00 0.00000000D+00 0.00000000D+00 0.00000000D+00
  <mgrwgt>
 0.1546746947D-03    4    2    0
 0.976154104869536D+02 0.000000000000000D+00 0.000000000000000D+00 0.976154104869536D+02
 0.976154104869536D+02 -.000000000000000D+00 -.000000000000000D+00 -.976154104869536D+02
 0.630774030576299D+02 0.344240531565784D+02 -.917167357379483D+01 -.144783888821757D+02
 0.504986232662076D+02 0.445323631335802D+02 -.104663135936114D+02 0.213877503557876D+02
 0.816547946500698D+02 -.789564162901586D+02 0.196379871674062D+02 -.690936147361195D+01
 0.000000000000000D+00 0.000000000000000D+00 0.000000000000000D+00 0.000000000000000D+00
 0.976154104869536D+02 0.000000000000000D+00 0.000000000000000D+00 0.976154104869536D+02
 0.976154104869536D+02 -.000000000000000D+00 -.000000000000000D+00 -.976154104869536D+02
 0.580496977123547D+02 0.242785362064418D+02 -.664828736865980D+01 -.153662083557387D+02
 0.429904977872893D+02 0.367017830547027D+02 -.851869694220179D+01 0.207025076503158D+02
 0.315071387989387D+02 -.135290017049263D+01 0.204435287010905D+02 -.239359894441812D+02
 0.626834866753245D+02 -.596274190906520D+02 -.527654439022895D+01 0.185996901496041D+02
0.115302820981D-05 0.000000000000D+00 0.000000000000D+00 0.173233957614D-06 0.000000000000D+00  6 1 22 9900012 13 2 21 0 0.18997176D+00 0.11871921D-02 0.88831561D+04 0.88831561D+04 0.88831561D+04 0.12146985D+01  1  2  2  2  6  5        2 0.129131648549D-03 0.100000000000D+01
-.535004768346D-07 0.000000000000D+00 -.221396596248D-08 0.173233957614D-06 0.000000000000D+00  6 1 22 9900012 13 2 21 2 0.18997176D+00 0.11871921D-02 0.88831561D+04 0.88831561D+04 0.88831561D+04 0.12146985D+01  1  2  3  2  6  5        2 -.884071578329D-05 0.100000000000D+01
0.331948374380D-07 0.000000000000D+00 0.000000000000D+00 0.173233957614D-06 0.000000000000D+00  6 1 22 9900012 13 2 21 2 0.18997176D+00 0.11871921D-02 0.88831561D+04 0.88831561D+04 0.88831561D+04 0.12146985D+01  1  2 15  2  6  5        2 0.548529920900D-05 0.100000000000D+01
0.174594017558D-06 0.000000000000D+00 0.000000000000D+00 0.173233957614D-06 0.000000000000D+00  6 1 22 9900012 13 2 21 2 0.18997176D+00 0.11871921D-02 0.75694435D+04 0.75694435D+04 0.75694435D+04 0.12220763D+01  1  2 12  2  6  5        2 0.288984626780D-04 0.100000000000D+01
  </mgrwgt>
  </event>
  <event>
  6     66 0.19493620E-05 0.85495983E+01 0.78161638E-02 0.13654643E+00
        1 -1    0    0  501    0 0.00000000E+00 0.00000000E+00 0.60112976E+02 0.60112976E+02 0.00000000E+00 0.0000E+00 0.9000E+01
       22 -1    0    0    0    0 0.00000000E+00 0.00000000E+00 -.54412212E+02 0.54412212E+02 0.00000000E+00 0.0000E+00 0.9000E+01
      -24  2    1    2    0    0 -.43894284E+01 0.73367942E+01 0.30043065E+02 0.88725124E+02 0.83044965E+02 0.0000E+00 0.0000E+00
  9900012  1    3    3    0    0 0.76883214E+00 0.15756422E+02 -.46680275E+01 0.52636930E+02 0.50000000E+02 0.0000E+00 0.9000E+01
       13  1    3    3    0    0 -.51582605E+01 -.84196278E+01 0.34711093E+02 0.36088194E+02 0.00000000E+00 0.0000E+00 0.9000E+01
        2  1    1    2  501    0 0.43894284E+01 -.73367942E+01 -.24342302E+02 0.25800064E+02 0.00000000E+00 0.0000E+00 0.9000E+01
#aMCatNLO 1  0  0  5  1 0.48907138D+01 0.00000000D+00  -5  6  0 0.00000000D+00 0.00000000D+00 0.00000000D+00 0.00000000D+00 0.00000000D+00
  <mgrwgt>
 0.7019755446D-04    8    2    0
 0.571916077853342D+02 0.000000000000000D+00 0.000000000000000D+00 0.571916077853342D+02
 0.571916077853342D+02 -.000000000000000D+00 -.000000000000000D+00 -.571916077853342D+02
 0.529349137213658D+02 0.768832141929658D+00 0.157564220238776D+02 -.729720171239912D+01
 0.344030149775627D+02 -.515826050836156D+01 -.841962780571860D+01 0.329555709355406D+02
 0.270452868717399D+02 0.438942836643190D+01 -.733679421815899D+01 -.256583692231415D+02
 0.000000000000000D+00 0.000000000000000D+00 -.000000000000000D+00 0.000000000000000D+00
 0.571916077853342D+02 0.000000000000000D+00 0.000000000000000D+00 0.571916077853342D+02
 0.571916077853342D+02 -.000000000000000D+00 -.000000000000000D+00 -.571916077853342D+02
 0.529858495479264D+02 0.905842413351294D+00 0.155274135782945D+02 -.809809418358822D+01
 0.339320486793806D+02 -.506986796538630D+01 -.856737321675862D+01 0.324388730161541D+02
 0.128328416675502D+02 0.382777458793299D+01 0.118728951752356D+01 -.121909930100040D+02
 0.146324756758111D+02 0.336250964102022D+00 -.814732987905949D+01 -.121497858225619D+02
0.107650555020D-06 0.000000000000D+00 0.000000000000D+00 0.238655162548D-06 0.000000000000D+00  6 1 22 9900012 13 2 21 0 0.92481501D-02 0.83711096D-02 0.12550450D+04 0.12550450D+04 0.12550450D+04 0.13157203D+01  1  2  2  2  6  5        2 0.398966227571D-04 0.100000000000D+01
-.491318531382D-08 0.000000000000D+00 -.206703238160D-09 0.238655162548D-06 0.000000000000D+00  6 1 22 9900012 13 2 21 2 0.92481501D-02 0.83711096D-02 0.12550450D+04 0.12550450D+04 0.12550450D+04 0.13157203D+01  1  2  3  2  6  5        2 -.315217358845D-05 0.100000000000D+01
0.661397553404D-08 0.000000000000D+00 0.000000000000D+00 0.238655162548D-06 0.000000000000D+00  6 1 22 9900012 13 2 21 2 0.92481501D-02 0.83711096D-02 0.12550450D+04 0.12550450D+04 0.12550450D+04 0.13157203D+01  1  2 15  2  6  5        2 0.424335693881D-05 0.100000000000D+01
0.307706926160D-07 0.000000000000D+00 0.000000000000D+00 0.238655162548D-06 0.000000000000D+00  6 1 22 9900012 13 2 21 2 0.92481501D-02 0.83711096D-02 0.13868316D+04 0.13868316D+04 0.13868316D+04 0.13099210D+01  1  2 12  2  6  5        2 0.198197079425D-04 0.100000000000D+01
-.172438815379D-06 0.000000000000D+00 0.000000000000D+00 0.238655162548D-06 0.000000000000D+00  6 1 22 9900012 13 2 21 2 0.92481501D-02 0.83711096D-02 0.12550450D+04 0.12550450D+04 0.12550450D+04 0.13157203D+01  1  2  4  2  6  5        2 -.110632317884D-03 0.100000000000D+01
-.838069337175D-07 0.000000000000D+00 0.000000000000D+00 0.238655162548D-06 0.000000000000D+00  6 1 22 9900012 13 2 21 2 0.92481501D-02 0.83711096D-02 0.12550450D+04 0.12550450D+04 0.12550450D+04 0.13157203D+01  1  2  5  2  6  5        2 -.537683775636D-04 0.100000000000D+01
0.142625543940D-06 0.000000000000D+00 -.000000000000D+00 0.238655162548D-06 0.000000000000D+00  6 1 22 9900012 13 2 21 2 0.92481501D-02 0.83711096D-02 0.12550450D+04 0.12550450D+04 0.12550450D+04 0.13157203D+01  1  2  6  2  6  5        2 0.915048881594D-04 0.100000000000D+01
0.127751253122D-06 0.000000000000D+00 0.000000000000D+00 0.238655162548D-06 0.582669328881D-07  6 1 22 9900012 13 2 21 2 0.92481501D-02 0.83711096D-02 0.13868316D+04 0.13868316D+04 0.13868316D+04 0.13099210D+01  1  2 11  2  6  5        2 0.822858476980D-04 0.100000000000D+01
  </mgrwgt>
  </event>
  <event>
  5     66 0.19493620E-05 0.57006605E+01 0.78161638E-02 0.92722795E-01
        3 -1    0    0  501    0 0.00000000E+00 0.00000000E+00 0.13070316E+02 0.13070316E+02 0.00000000E+00 0.0000E+00 0.9000E+01
       22 -1    0    0    0    0 0.00000000E+00 0.00000000E+00 -.66175631E+03 0.66175631E+03 0.00000000E+00 0.0000E+00 0.9000E+01
  9900012  1    1    2    0    0 -.57098706E+02 0.41885110E+02 -.30466856E+03 0.31676104E+03 0.50000000E+02 0.0000E+00 0.9000E+01
       13  1    1    2    0    0 0.51785631E+02 -.43951208E+02 -.15824985E+03 0.17221056E+03 0.00000000E+00 0.0000E+00 0.9000E+01
        4  1    1    2  501    0 0.53130753E+01 0.20660982E+01 -.18576759E+03 0.18585503E+03 0.00000000E+00 0.0000E+00 0.9000E+01
#aMCatNLO 1  0  0  1  5 0.68774656D+02 0.00000000D+00  -5  6  0 0.00000000D+00 0.00000000D+00 0.00000000D+00 0.00000000D+00 0.00000000D+00
  <mgrwgt>
 0.1901023602D-04    5    2    0
 0.930019581411574D+02 0.000000000000000D+00 0.000000000000000D+00 0.930019581411574D+02
 0.930019581411574D+02 0.000000000000000D+00 0.000000000000000D+00 -.930019581411574D+02
 0.866893360486460D+02 -.570987064136448D+02 0.418851101170712D+02 -.645182861135220D+00
 0.728898991476128D+02 0.517856311559024D+02 -.439512082891668D+02 0.264476292596571D+02
 0.264246810860560D+02 0.531307525774240D+01 0.206609817209569D+01 -.258024463985219D+02
 0.000000000000000D+00 -.000000000000000D+00 0.000000000000000D+00 0.000000000000000D+00
 0.997592375027543D+03 0.000000000000000D+00 0.000000000000000D+00 0.997592375027543D+03
 0.393989001912202D+03 0.000000000000000D+00 0.000000000000000D+00 -.393989001912202D+03
 0.995203062125303D+02 0.762116938477242D+02 0.399456231466259D+02 -.645182861135220D+00
 0.380256304777429D+03 0.376200098036397D+03 -.486710023210281D+02 0.264476292596571D+02
 0.975375080790648D+02 0.940595486100692D+02 0.774956382690386D+00 -.258024463985219D+02
 0.814267257870721D+03 -.546471340494191D+03 0.795042279171182D+01 0.603603373115341D+03
0.261563020040D-06 0.000000000000D+00 0.000000000000D+00 0.174876918787D-08 0.000000000000D+00  6 3 22 9900012 13 4 21 0 0.20108179D-02 0.10180866D+00 0.64248283D+04 0.64248283D+04 0.64248283D+04 0.12297748D+01  1  2  2  1  6  1        3 0.152000635632D-04 0.100000000000D+01
0.490514231938D-09 0.000000000000D+00 -.502235434039D-09 0.174876918787D-08 0.000000000000D+00  6 3 22 9900012 13 4 21 2 0.20108179D-02 0.10180866D+00 0.64248283D+04 0.64248283D+04 0.64248283D+04 0.12297748D+01  1  2  3  1  6  1        3 0.431093851094D-07 0.100000000000D+01
0.253410292681D-07 0.000000000000D+00 0.000000000000D+00 0.174876918787D-08 0.000000000000D+00  6 3 22 9900012 13 4 21 2 0.20108179D-02 0.10180866D+00 0.64248283D+04 0.64248283D+04 0.64248283D+04 0.12297748D+01  1  2 15  1  6  1        3 0.222712434963D-05 0.100000000000D+01
0.287414659200D-05 0.000000000000D+00 -.720936616602D-06 0.174876918787D-08 0.000000000000D+00  6 3 22 9900012 13 4 21 2 0.99952625D-01 0.10180866D+00 0.64248283D+04 0.64248283D+04 0.64248283D+04 0.12297748D+01  1  2  5  1  6  1        3 0.313455775449D-06 0.100000000000D+01
0.780378485706D-06 0.000000000000D+00 -.254365007661D-06 0.174876918787D-08 0.000000000000D+00  6 21 22 9900012 13 4 -3 2 0.99952625D-01 0.10180866D+00 0.64248283D+04 0.64248283D+04 0.64248283D+04 0.12297748D+01  1  2  5  3  6  1        3 0.122648294271D-05 0.100000000000D+01
  </mgrwgt>
  </event>
  <event>
  7     66 0.19493620E-05 0.13295210E+02 0.78161638E-02 0.13728599E+00
        1 -1    0    0  502    0 0.00000000E+00 0.00000000E+00 0.91501237E+03 0.91501237E+03 0.00000000E+00 0.0000E+00 0.9000E+01
       22 -1    0    0    0    0 0.00000000E+00 0.00000000E+00 -.30435758E+02 0.30435758E+02 0.00000000E+00 0.0000E+00 0.9000E+01
      -24  2    1    2    0    0 0.11846039E+02 0.58981599E+01 0.84495987E+03 0.84894440E+03 0.81082048E+02 0.0000E+00 0.0000E+00
  9900012  1    3    3    0    0 0.16791434E+02 0.79065813E+01 0.35759862E+03 0.36155392E+03 0.50000000E+02 0.0000E+00 0.9000E+01
       13  1    3    3    0    0 -.49453951E+01 -.20084213E+01 0.48736125E+03 0.48739048E+03 0.00000000E+00 0.0000E+00 0.9000E+01
        2  1    1    2  501    0 0.17941212E+00 -.19499900E-01 -.27785066E+02 0.27785652E+02 0.00000000E+00 0.0000E+00 0.9000E+01
       21  1    1    2  502  501 -.12025451E+02 -.58786600E+01 0.67401806E+02 0.68718073E+02 0.00000000E+00 0.0000E+00 0.9000E+01
#aMCatNLO 2  0  0  1  5 0.15207147D+02 0.00000000D+00  -5  6  0 0.00000000D+00 0.00000000D+00 0.00000000D+00 0.00000000D+00 0.00000000D+00
  <mgrwgt>
 0.6753416683D+00    2    2    0
 0.158667700381628D+03 0.000000000000000D+00 0.000000000000000D+00 0.158667700381628D+03
 0.158667700381628D+03 0.000000000000000D+00 0.000000000000000D+00 -.158667700381628D+03
 0.772564407215411D+02 0.138515838504777D+02 0.646943101910386D+01 0.568756337993981D+02
 0.917698556620575D+02 -.841568152007815D+01 -.370487613526980D+01 0.913080314408858D+02
 0.148309104379657D+03 -.543590233039953D+01 -.276455488383406D+01 -.148183665240284D+03
 0.000000000000000D+00 -.000000000000000D+00 -.000000000000000D+00 0.000000000000000D+00
 0.171570446901363D+03 0.000000000000000D+00 0.000000000000000D+00 0.171570446901363D+03
 0.162318720162608D+03 0.000000000000000D+00 0.000000000000000D+00 -.162318720162608D+03
 0.779698916691306D+02 0.167914341069904D+02 0.790658127406071D+01 0.568756337993981D+02
 0.914639125235446D+02 -.494539505446421D+01 -.200842133530786D+01 0.913080314408858D+02
 0.148183775134124D+03 0.179412123459026D+00 -.194998997756497D-01 -.148183665240284D+03
 0.162715877371714D+02 -.120254511759853D+02 -.587866003897720D+01 0.925172673875491D+01
-.296352806981D-07 0.000000000000D+00 0.000000000000D+00 0.519596581611D-04 0.000000000000D+00  6 1 22 9900012 13 2 21 2 0.13018461D+00 0.45771030D-02 0.11417165D+04 0.11417165D+04 0.11417165D+04 0.13212942D+01  1  2  8  1  6  1        1 -.158790644555D-05 0.100000000000D+01
0.146867744823D-01 0.000000000000D+00 0.000000000000D+00 0.519596581611D-04 0.233740892990D-02  6 1 22 9900012 13 2 21 2 0.14077113D+00 0.46824244D-02 0.13045503D+04 0.13045503D+04 0.13045503D+04 0.13134636D+01  1  2  1  1  6  1        1 0.675343256177D+00 0.100000000000D+01
  </mgrwgt>
  </event>
  <event>
  6     66 0.19493620E-05 0.22283987E+02 0.78161638E-02 0.12832620E+00
        3 -1    0    0  501    0 0.00000000E+00 0.00000000E+00 0.31370679E+02 0.31370679E+02 0.00000000E+00 0.0000E+00 0.9000E+01
       22 -1    0    0    0    0 -.00000000E+00 -.00000000E+00 -.15185542E+03 0.15185542E+03 0.00000000E+00 0.0000E+00 0.9000E+01
      -24  2    1    2    0    0 0.80018124E+01 0.20797766E+02 -.28341803E+02 0.88426852E+02 0.80743262E+02 0.0000E+00 0.0000E+00
  9900012  1    3    3    0    0 0.18341257E+02 -.73371410E+01 -.19257092E+02 0.57105787E+02 0.50000000E+02 0.0000E+00 0.9000E+01
       13  1    3    3    0    0 -.10339445E+02 0.28134907E+02 -.90847115E+01 0.31321065E+02 0.00000000E+00 0.0000E+00 0.9000E+01
        4  1    1    2  501    0 -.80018124E+01 -.20797766E+02 -.92142937E+02 0.94799246E+02 0.00000000E+00 0.0000E+00 0.9000E+01
#aMCatNLO 1  0  0  5  1 0.35850035D+01 0.00000000D+00  -5  6  0 0.00000000D+00 0.00000000D+00 0.00000000D+00 0.00000000D+00 0.00000000D+00
  <mgrwgt>
 0.2234430472D-04    8    2    0
 0.690203415397309D+02 0.000000000000000D+00 0.000000000000000D+00 0.690203415397309D+02
 0.690203415397309D+02 -.000000000000000D+00 -.000000000000000D+00 -.690203415397309D+02
 0.589904707526929D+02 0.183412574844940D+02 -.733714097668142D+01 0.242825096684858D+02
 0.336441927920317D+02 -.103394450543064D+02 0.281349069318327D+02 0.152792210709017D+02
 0.454060195347374D+02 -.800181243018762D+01 -.207977659551513D+02 -.395617307393875D+02
 0.000000000000000D+00 -.000000000000000D+00 0.000000000000000D+00 0.000000000000000D+00
 0.690203415397309D+02 0.000000000000000D+00 0.000000000000000D+00 0.690203415397309D+02
 0.690203415397309D+02 -.000000000000000D+00 -.000000000000000D+00 -.690203415397309D+02
 0.588739005776218D+02 0.182832321168816D+02 -.748795656072485D+01 0.239956266667203D+02
 0.335085165601877D+02 -.103725047533685D+02 0.280489804133544D+02 0.151157707371137D+02
 0.111484036025497D+02 0.153766524738504D+01 -.589809366007559D+01 -.933461191744493D+01
 0.345098623391027D+02 -.944839261089807D+01 -.146629301925540D+02 -.297767854863891D+02
0.937400925896D-07 0.000000000000D+00 0.000000000000D+00 0.270014909582D-06 0.000000000000D+00  6 3 22 9900012 13 4 21 0 0.48262582D-02 0.23362372D-01 0.28100338D+04 0.28100338D+04 0.28100338D+04 0.12710483D+01  1  2  2  2  6  5        4 0.159810695307D-04 0.100000000000D+01
-.560578198656D-08 0.000000000000D+00 -.179993318939D-09 0.270014909582D-06 0.000000000000D+00  6 3 22 9900012 13 4 21 2 0.48262582D-02 0.23362372D-01 0.28100338D+04 0.28100338D+04 0.28100338D+04 0.12710483D+01  1  2  3  2  6  5        4 -.154397673815D-05 0.100000000000D+01
0.688167044946D-08 0.000000000000D+00 0.000000000000D+00 0.270014909582D-06 0.000000000000D+00  6 3 22 9900012 13 4 21 2 0.48262582D-02 0.23362372D-01 0.28100338D+04 0.28100338D+04 0.28100338D+04 0.12710483D+01  1  2 15  2  6  5        4 0.189538928182D-05 0.100000000000D+01
0.667715421532D-08 0.000000000000D+00 0.000000000000D+00 0.270014909582D-06 0.000000000000D+00  6 3 22 9900012 13 4 21 2 0.48262582D-02 0.23362372D-01 0.28732837D+04 0.28732837D+04 0.28732837D+04 0.12698797D+01  1  2 12  2  6  5        4 0.184098346838D-05 0.100000000000D+01
-.253906526679D-06 0.000000000000D+00 0.000000000000D+00 0.270014909582D-06 0.000000000000D+00  6 3 22 9900012 13 4 21 2 0.48262582D-02 0.23362372D-01 0.28100338D+04 0.28100338D+04 0.28100338D+04 0.12710483D+01  1  2  4  2  6  5        4 -.699323969066D-04 0.100000000000D+01
-.128295007676D-06 0.000000000000D+00 0.000000000000D+00 0.270014909582D-06 0.000000000000D+00  6 3 22 9900012 13 4 21 2 0.48262582D-02 0.23362372D-01 0.28100338D+04 0.28100338D+04 0.28100338D+04 0.12710483D+01  1  2  5  2  6  5        4 -.353357494007D-04 0.100000000000D+01
0.242618492156D-06 0.000000000000D+00 -.000000000000D+00 0.270014909582D-06 0.000000000000D+00  6 3 22 9900012 13 4 21 2 0.48262582D-02 0.23362372D-01 0.28100338D+04 0.28100338D+04 0.28100338D+04 0.12710483D+01  1  2  6  2  6  5        4 0.668233814715D-04 0.100000000000D+01
0.154564647043D-06 0.000000000000D+00 0.000000000000D+00 0.270014909582D-06 0.288003084194D-07  6 3 22 9900012 13 4 21 2 0.48262582D-02 0.23362372D-01 0.28732837D+04 0.28732837D+04 0.28732837D+04 0.12698797D+01  1  2 11  2  6  5        4 0.426156040171D-04 0.100000000000D+01
  </mgrwgt>
  </event>
  <event>
  6     66 0.19493620E-05 0.68730101E+01 0.78161638E-02 0.13344298E+00
        1 -1    0    0  501    0 0.00000000E+00 0.00000000E+00 0.40321773E+03 0.40321773E+03 0.00000000E+00 0.0000E+00 0.9000E+01
       22 -1    0    0    0    0 0.00000000E+00 0.00000000E+00 -.31186020E+02 0.31186020E+02 0.00000000E+00 0.0000E+00 0.9000E+01
      -24  2    1    2    0    0 0.19984155E+01 0.65760629E+01 0.39897711E+03 0.40659561E+03 0.78038555E+02 0.0000E+00 0.0000E+00
  9900012  1    3    3    0    0 0.25998596E+01 -.18126090E+02 0.25309292E+03 0.25863360E+03 0.50000000E+02 0.0000E+00 0.9000E+01
       13  1    3    3    0    0 -.60144408E+00 0.24702153E+02 0.14588419E+03 0.14796201E+03 0.00000000E+00 0.0000E+00 0.9000E+01
        2  1    1    2  501    0 -.19984155E+01 -.65760629E+01 -.26945399E+02 0.27808143E+02 0.00000000E+00 0.0000E+00 0.9000E+01
#aMCatNLO 1  0  0  5  1 0.26141970D+01 0.00000000D+00  -5  6  0 0.00000000D+00 0.00000000D+00 0.00000000D+00 0.00000000D+00 0.00000000D+00
  <mgrwgt>
 0.3476399352D-02    6    2    0
 0.112137220223791D+03 0.000000000000000D+00 0.000000000000000D+00 0.112137220223791D+03
 0.112137220223791D+03 -.000000000000000D+00 -.000000000000000D+00 -.112137220223791D+03
 0.811185391715566D+02 0.259985959194904D+01 -.181260899746135D+02 0.611956125033627D+02
 0.445958322904003D+02 -.601444076860720D+00 0.247021529065403D+02 0.371245224141379D+02
 0.985600689856248D+02 -.199841551508832D+01 -.657606293192676D+01 -.983201349175006D+02
 0.000000000000000D+00 -.000000000000000D+00 0.000000000000000D+00 0.000000000000000D+00
 0.112137220223791D+03 0.000000000000000D+00 0.000000000000000D+00 0.112137220223791D+03
 0.112137220223791D+03 -.000000000000000D+00 -.000000000000000D+00 -.112137220223791D+03
 0.810800466414449D+02 0.259880225492065D+01 -.181295692884932D+02 0.611435925312901D+02
 0.445709765893324D+02 -.602025335743214D+00 0.247002401937125D+02 0.370959250322033D+02
 0.397039314044589D+02 0.230085859233846D+00 -.249079071750492D+00 -.397024834120408D+02
 0.589194858123455D+02 -.222686277841128D+01 -.632159183346880D+01 -.585370341514526D+02
0.247171928973D-07 0.000000000000D+00 0.000000000000D+00 0.429506561142D-05 0.000000000000D+00  6 1 22 9900012 13 2 21 0 0.62033497D-01 0.47978492D-02 0.17990388D+04 0.17990388D+04 0.17990388D+04 0.12951694D+01  1  2  2  2  6  5        2 0.198126113741D-05 0.100000000000D+01
-.464224325765D-09 0.000000000000D+00 -.474602644559D-10 0.429506561142D-05 0.000000000000D+00  6 1 22 9900012 13 2 21 2 0.62033497D-01 0.47978492D-02 0.17990388D+04 0.17990388D+04 0.17990388D+04 0.12951694D+01  1  2  3  2  6  5        2 -.624199829766D-07 0.100000000000D+01
0.186105935455D-08 0.000000000000D+00 0.000000000000D+00 0.429506561142D-05 0.000000000000D+00  6 1 22 9900012 13 2 21 2 0.62033497D-01 0.47978492D-02 0.17990388D+04 0.17990388D+04 0.17990388D+04 0.12951694D+01  1  2 15  2  6  5        2 0.250239564759D-06 0.100000000000D+01
0.470440875837D-08 0.000000000000D+00 0.000000000000D+00 0.429506561142D-05 0.000000000000D+00  6 1 22 9900012 13 2 21 2 0.62033497D-01 0.47978492D-02 0.18061570D+04 0.18061570D+04 0.18061570D+04 0.12949494D+01  1  2 12  2  6  5        2 0.632550644284D-06 0.100000000000D+01
-.704062586892D-06 0.000000000000D+00 0.000000000000D+00 0.429506561142D-05 0.000000000000D+00  6 1 22 9900012 13 2 21 2 0.62033497D-01 0.47978492D-02 0.17990388D+04 0.17990388D+04 0.17990388D+04 0.12951694D+01  1  2  5  2  6  5        2 -.946688319615D-04 0.100000000000D+01
0.265379295273D-04 0.000000000000D+00 0.000000000000D+00 0.429506561142D-05 0.497671925300D-04  6 1 22 9900012 13 2 21 2 0.62033497D-01 0.47978492D-02 0.18061570D+04 0.18061570D+04 0.18061570D+04 0.12949494D+01  1  2 11  2  6  5        2 0.356826655223D-02 0.100000000000D+01
  </mgrwgt>
  </event>
  <event>
  7     66 0.19493620E-05 0.10340805E+02 0.78161638E-02 0.13890076E+00
        3 -1    0    0  502    0 0.00000000E+00 0.00000000E+00 0.27203446E+01 0.27203446E+01 0.00000000E+00 0.0000E+00 0.9000E+01
       22 -1    0    0    0    0 0.00000000E+00 0.00000000E+00 -.97925867E+03 0.97925867E+03 0.00000000E+00 0.0000E+00 0.9000E+01
      -24  2    1    2    0    0 0.98029710E+01 0.32684480E+01 -.75942241E+03 0.76344171E+03 0.77550485E+02 0.0000E+00 0.0000E+00
  9900012  1    3    3    0    0 0.36055214E+01 0.57080694E+01 -.75105217E+03 0.75274494E+03 0.50000000E+02 0.0000E+00 0.9000E+01
       13  1    3    3    0    0 0.61974496E+01 -.24396214E+01 -.83702393E+01 0.10696777E+02 0.00000000E+00 0.0000E+00 0.9000E+01
        4  1    1    2  501    0 0.34033954E-01 0.12686172E+00 -.17973040E+03 0.17973045E+03 0.00000000E+00 0.0000E+00 0.9000E+01
       21  1    1    2  502  501 -.98370049E+01 -.33953097E+01 -.37385513E+02 0.38806847E+02 0.00000000E+00 0.0000E+00 0.9000E+01
#aMCatNLO 2  0  0  1  1 0.65762364D+02 0.00000000D+00  -5  6  0 0.00000000D+00 0.00000000D+00 0.00000000D+00 0.00000000D+00 0.00000000D+00
  <mgrwgt>
 0.2229630874D-02    1    2    0
 0.431782293148558D+02 0.000000000000000D+00 0.000000000000000D+00 0.431782293148558D+02
 0.431782293148558D+02 0.000000000000000D+00 0.000000000000000D+00 -.431782293148558D+02
 0.528098348850359D+02 -.240270962963351D+01 0.363428726148267D+01 -.164285605918915D+02
 0.251896336072510D+02 0.331429585265570D+01 -.343476169137011D+01 0.247332872136341D+02
 0.835699013742460D+01 -.911586223022191D+00 -.199525570112559D+00 -.830472662174255D+01
 0.000000000000000D+00 -.000000000000000D+00 -.000000000000000D+00 0.000000000000000D+00
 0.588698640529147D+02 0.000000000000000D+00 0.000000000000000D+00 0.588698640529147D+02
 0.452510142259584D+02 0.000000000000000D+00 0.000000000000000D+00 -.452510142259584D+02
 0.530610916219750D+02 0.360552141722183D+01 0.570806940253233D+01 -.164285605918915D+02
 0.256143637460143D+02 0.619744955946710D+01 -.243962142122088D+01 0.247332872136341D+02
 0.830576525476785D+01 0.340339540799455D-01 0.126861717626153D+00 -.830472662174255D+01
 0.171396576561161D+02 -.983700493076888D+01 -.339530969893761D+01 0.136188498269563D+02
0.708879774474D-05 0.000000000000D+00 0.000000000000D+00 0.907668181089D-05 0.389977515625D-04  6 3 22 9900012 13 4 21 2 0.41851456D-03 0.15065518D+00 0.11441958D+04 0.11441958D+04 0.11441958D+04 0.13211656D+01  1  2  1  1  6  1        3 0.222963087422D-02 0.100000000000D+01
  </mgrwgt>
  </event>
  <event>
  6     66 0.19493620E-05 0.19542320E+02 0.78161638E-02 0.13207722E+00
        1 -1    0    0  501    0 0.00000000E+00 0.00000000E+00 0.19687658E+03 0.19687658E+03 0.00000000E+00 0.0000E+00 0.9000E+01
       22 -1    0    0    0    0 0.00000000E+00 0.00000000E+00 -.13707301E+02 0.13707301E+02 0.00000000E+00 0.0000E+00 0.9000E+01
      -24  2    1    2    0    0 -.15168272E+02 0.12321762E+02 0.16172379E+03 0.18156990E+03 0.80194396E+02 0.0000E+00 0.0000E+00
  9900012  1    3    3    0    0 -.21029493E+02 -.30861570E+01 0.71220418E+02 0.89577407E+02 0.50000000E+02 0.0000E+00 0.9000E+01
       13  1    3    3    0    0 0.58612217E+01 0.15407919E+02 0.90503374E+02 0.91992492E+02 0.00000000E+00 0.0000E+00 0.9000E+01
        2  1    1    2  501    0 0.15168272E+02 -.12321762E+02 0.21445492E+02 0.29013987E+02 0.00000000E+00 0.0000E+00 0.9000E+01
#aMCatNLO 1  0  0  5  1 0.11095709D+01 0.00000000D+00  -5  6  0 0.00000000D+00 0.00000000D+00 0.00000000D+00 0.00000000D+00 0.00000000D+00
  <mgrwgt>
 0.1355633638D-04    8    2    0
 0.519484994480935D+02 0.000000000000000D+00 0.000000000000000D+00 0.519484994480935D+02
 0.519484994480935D+02 -.000000000000000D+00 -.000000000000000D+00 -.519484994480935D+02
 0.559993609604989D+02 -.210294934712651D+02 -.308615702290640D+01 -.135707209519700D+02
 0.268987386946551D+02 0.586122166646833D+01 0.154079189834435D+02 0.212552171604879D+02
 0.209988992410330D+02 0.151682718047968D+02 -.123217619605371D+02 -.768449620851796D+01
 0.000000000000000D+00 0.000000000000000D+00 0.000000000000000D+00 -.000000000000000D+00
 0.519484994480935D+02 0.000000000000000D+00 0.000000000000000D+00 0.519484994480935D+02
 0.519484994480935D+02 -.000000000000000D+00 -.000000000000000D+00 -.519484994480935D+02
 0.559893572604036D+02 -.209812090681188D+02 -.312538027322995D+01 -.135951826255003D+02
 0.268837334630482D+02 0.588441020375246D+01 0.153890820559210D+02 0.212434694657516D+02
 0.810650698640751D+01 0.639528465124466D+01 -.455559458664255D+01 -.201552665881186D+01
 0.129174011863278D+02 0.870151421312169D+01 -.770810719604851D+01 -.563276018143941D+01
0.209912075265D-07 0.000000000000D+00 0.000000000000D+00 0.307437524030D-06 0.000000000000D+00  6 1 22 9900012 13 2 21 0 0.30288705D-01 0.21088155D-02 0.20411212D+04 0.20411212D+04 0.20411212D+04 0.12881946D+01  1  2  2  2  6  5        2 0.122058576693D-04 0.100000000000D+01
-.404462106190D-09 0.000000000000D+00 -.403058820068D-10 0.307437524030D-06 0.000000000000D+00  6 1 22 9900012 13 2 21 2 0.30288705D-01 0.21088155D-02 0.20411212D+04 0.20411212D+04 0.20411212D+04 0.12881946D+01  1  2  3  2  6  5        2 -.390275825939D-06 0.100000000000D+01
0.501892944956D-09 0.000000000000D+00 0.000000000000D+00 0.307437524030D-06 0.000000000000D+00  6 1 22 9900012 13 2 21 2 0.30288705D-01 0.21088155D-02 0.20411212D+04 0.20411212D+04 0.20411212D+04 0.12881946D+01  1  2 15  2  6  5        2 0.484289332987D-06 0.100000000000D+01
0.311731008829D-11 0.000000000000D+00 0.000000000000D+00 0.307437524030D-06 0.000000000000D+00  6 1 22 9900012 13 2 21 2 0.30288705D-01 0.21088155D-02 0.20369877D+04 0.20369877D+04 0.20369877D+04 0.12883056D+01  1  2 12  2  6  5        2 0.300778321096D-08 0.100000000000D+01
-.245263065496D-06 0.000000000000D+00 0.000000000000D+00 0.307437524030D-06 0.000000000000D+00  6 1 22 9900012 13 2 21 2 0.30288705D-01 0.21088155D-02 0.20411212D+04 0.20411212D+04 0.20411212D+04 0.12881946D+01  1  2  4  2  6  5        2 -.236660601806D-03 0.100000000000D+01
-.140549201285D-06 0.000000000000D+00 0.000000000000D+00 0.307437524030D-06 0.000000000000D+00  6 1 22 9900012 13 2 21 2 0.30288705D-01 0.21088155D-02 0.20411212D+04 0.20411212D+04 0.20411212D+04 0.12881946D+01  1  2  5  2  6  5        2 -.135619517322D-03 0.100000000000D+01
0.276860286992D-06 0.000000000000D+00 -.000000000000D+00 0.307437524030D-06 0.000000000000D+00  6 1 22 9900012 13 2 21 2 0.30288705D-01 0.21088155D-02 0.20411212D+04 0.20411212D+04 0.20411212D+04 0.12881946D+01  1  2  6  2  6  5        2 0.267149568579D-03 0.100000000000D+01
0.110257926861D-06 0.000000000000D+00 0.000000000000D+00 0.307437524030D-06 0.382253007120D-06  6 1 22 9900012 13 2 21 2 0.30288705D-01 0.21088155D-02 0.20369877D+04 0.20369877D+04 0.20369877D+04 0.12883056D+01  1  2 11  2  6  5        2 0.106384007973D-03 0.100000000000D+01
  </mgrwgt>
  </event>
  <event>
  7     66 0.19493620E-05 0.16810527E+02 0.78161638E-02 0.13140462E+00
        1 -1    0    0  502    0 0.00000000E+00 0.00000000E+00 0.13031141E+03 0.13031141E+03 0.00000000E+00 0.0000E+00 0.9000E+01
       22 -1    0    0    0    0 0.00000000E+00 0.00000000E+00 -.23041220E+03 0.23041220E+03 0.00000000E+00 0.0000E+00 0.9000E+01
      -24  2    1    2    0    0 0.14975666E+01 -.16801795E+02 -.15420999E+03 0.17443231E+03 0.79758162E+02 0.0000E+00 0.0000E+00
  9900012  1    3    3    0    0 0.84598194E+01 0.69578154E+01 -.13038456E+03 0.14007182E+03 0.50000000E+02 0.0000E+00 0.9000E+01
       13  1    3    3    0    0 -.69622528E+01 -.23759611E+02 -.23825429E+02 0.34360488E+02 0.00000000E+00 0.0000E+00 0.9000E+01
        2  1    1    2  501    0 0.17904214E+00 -.15205015E-01 -.65496872E+02 0.65497119E+02 0.00000000E+00 0.0000E+00 0.9000E+01
       21  1    1    2  502  501 -.16766087E+01 0.16817000E+02 0.11960608E+03 0.12079419E+03 0.00000000E+00 0.0000E+00 0.9000E+01
#aMCatNLO 2  0  0  1  5 0.75037644D+01 0.00000000D+00  -5  6  0 0.00000000D+00 0.00000000D+00 0.00000000D+00 0.00000000D+00 0.00000000D+00
  <mgrwgt>
 0.6645542442D-02    1    2    0
 0.474589289054405D+02 0.000000000000000D+00 0.000000000000000D+00 0.474589289054405D+02
 0.474589289054405D+02 0.000000000000000D+00 0.000000000000000D+00 -.474589289054405D+02
 0.533492099468667D+02 0.754140787365795D+01 0.161698192967378D+02 -.527278988286449D+01
 0.276195588163692D+02 -.747782096381628D+01 -.185882726174803D+02 0.190104798451333D+02
 0.139490890476452D+02 -.635869098416736D-01 0.241845332074244D+01 -.137376899622688D+02
 0.000000000000000D+00 -.000000000000000D+00 0.000000000000000D+00 0.000000000000000D+00
 0.621257354472725D+03 0.000000000000000D+00 0.000000000000000D+00 0.621257354472725D+03
 0.483299536874922D+02 0.000000000000000D+00 0.000000000000000D+00 -.483299536874922D+02
 0.514566035762203D+02 0.845981936424591D+01 0.695781537379195D+01 -.527278988286449D+01
 0.312152270669603D+02 -.696225277551507D+01 -.237596105437254D+02 0.190104798451333D+02
 0.137388650470342D+02 0.179042142275020D+00 -.152050152271159D-01 -.137376899622688D+02
 0.573176612470002D+03 -.167660873100586D+01 0.168170001851605D+02 0.572927400785233D+03
0.218811205889D-03 0.000000000000D+00 0.000000000000D+00 0.987450788295D-05 0.298482627092D-03  6 1 22 9900012 13 2 21 2 0.20047910D-01 0.35448031D-01 0.21633880D+04 0.21633880D+04 0.21633880D+04 0.12850211D+01  1  2  1  1  6  1        1 0.664554244199D-02 0.100000000000D+01
  </mgrwgt>
  </event>
  <event>
  7     66 0.19493620E-05 0.11484229E+02 0.78161638E-02 0.13391205E+00
        3 -1    0    0  501    0 0.00000000E+00 0.00000000E+00 0.10710221E+03 0.10710221E+03 0.00000000E+00 0.0000E+00 0.9000E+01
       22 -1    0    0    0    0 0.00000000E+00 0.00000000E+00 -.94024604E+02 0.94024604E+02 0.00000000E+00 0.0000E+00 0.9000E+01
      -24  2    1    2    0    0 -.72016460E+01 -.89362867E+01 0.82920804E+02 0.11602194E+03 0.80333738E+02 0.0000E+00 0.0000E+00
  9900012  1    3    3    0    0 -.16066421E+01 -.24162126E+02 0.82908255E+02 0.99800643E+02 0.50000000E+02 0.0000E+00 0.9000E+01
       13  1    3    3    0    0 -.55950039E+01 0.15225839E+02 0.12548606E-01 0.16221295E+02 0.00000000E+00 0.0000E+00 0.9000E+01
        4  1    1    2  502    0 -.55031493E-02 -.15358888E-01 -.73147023E+02 0.73147025E+02 0.00000000E+00 0.0000E+00 0.9000E+01
       21  1    1    2  501  502 0.72071492E+01 0.89516456E+01 0.33038257E+01 0.11957852E+02 0.00000000E+00 0.0000E+00 0.9000E+01
#aMCatNLO 2  0  0  5  5 0.15943538D+02 0.00000000D+00  -5  6  0 0.00000000D+00 0.00000000D+00 0.00000000D+00 0.00000000D+00 0.00000000D+00
  <mgrwgt>
 0.1049101237D+01    1    2    0
 0.100350600223869D+03 0.000000000000000D+00 0.000000000000000D+00 0.100350600223869D+03
 0.100350600223869D+03 -.000000000000000D+00 -.000000000000000D+00 -.100350600223869D+03
 0.100292599184567D+03 -.224270495852659D+01 -.249513952045173D+02 0.832526492251938D+02
 0.161354071618299D+02 -.570070933722180D+01 0.150946725516411D+02 0.643264275059430D-01
 0.842731941013404D+02 0.794341429574837D+01 0.985672265287622D+01 -.833169756526998D+02
 0.000000000000000D+00 0.000000000000000D+00 0.000000000000000D+00 0.000000000000000D+00
 0.100350600223869D+03 0.000000000000000D+00 0.000000000000000D+00 0.100350600223869D+03
 0.100350600223869D+03 -.000000000000000D+00 -.000000000000000D+00 -.100350600223869D+03
 0.946100169455687D+02 -.160664205942878D+01 -.241621255840788D+02 0.765811053393256D+02
 0.162548763727072D+02 -.559500394415606D+01 0.152258389120461D+02 -.104439752072518D+01
 0.780683728801861D+02 -.550314925947948D-02 -.153588879615185D-01 -.780683711753979D+02
 0.117679342492750D+02 0.720714915284430D+01 0.895164555999418D+01 0.253166335679742D+01
0.131082404033D-01 0.000000000000D+00 0.000000000000D+00 0.448111708240D-06 0.152892650579D-01  6 3 22 9900012 13 4 21 2 0.16477263D-01 0.14465324D-01 0.17341093D+04 0.17341093D+04 0.17341093D+04 0.12972233D+01  1  2  1  2  6  5        4 0.104910123663D+01 0.100000000000D+01
  </mgrwgt>
  </event>
  <event>
  6     66 0.19493620E-05 0.82072324E+01 0.78161638E-02 0.13586680E+00
        1 -1    0    0  501    0 0.00000000E+00 0.00000000E+00 0.38553293E+03 0.38553293E+03 0.00000000E+00 0.0000E+00 0.9000E+01
       22 -1    0    0    0    0 0.00000000E+00 0.00000000E+00 -.51109946E+01 0.51109946E+01 0.00000000E+00 0.0000E+00 0.9000E+01
      -24  2    1    2    0    0 0.55244522E+01 -.60695215E+01 0.30022214E+03 0.31002528E+03 0.76908922E+02 0.0000E+00 0.0000E+00
  9900012  1    3    3    0    0 -.86063818E+01 -.16296430E+02 0.15815157E+03 0.16688788E+03 0.50000000E+02 0.0000E+00 0.9000E+01
       13  1    3    3    0    0 0.14130834E+02 0.10226909E+02 0.14207057E+03 0.14313740E+03 0.00000000E+00 0.0000E+00 0.9000E+01
        2  1    1    2  501    0 -.55244522E+01 0.60695215E+01 0.80199800E+02 0.80618649E+02 0.00000000E+00 0.0000E+00 0.9000E+01
#aMCatNLO 1  0  0  5  1 0.29489124D+01 0.00000000D+00  -5  6  0 0.00000000D+00 0.00000000D+00 0.00000000D+00 0.00000000D+00 0.00000000D+00
  <mgrwgt>
 0.4078822669D+00    6    2    0
 0.443898270439183D+02 0.000000000000000D+00 0.000000000000000D+00 0.443898270439183D+02
 0.443898270439183D+02 -.000000000000000D+00 -.000000000000000D+00 -.443898270439183D+02
 0.566504550929491D+02 -.860638177315934D+01 -.162964302785104D+02 -.192257799631257D+02
 0.210520849817858D+02 0.141308340146938D+02 0.102269088173971D+02 0.117864391641475D+02
 0.110771140131016D+02 -.552445224153450D+01 0.606952146111328D+01 0.743934079897821D+01
 0.000000000000000D+00 0.000000000000000D+00 -.000000000000000D+00 0.000000000000000D+00
 0.443898270439183D+02 0.000000000000000D+00 0.000000000000000D+00 0.443898270439183D+02
 0.443898270439183D+02 -.000000000000000D+00 -.000000000000000D+00 -.443898270439183D+02
 0.560377858669388D+02 -.964958483106589D+01 -.151502997534496D+02 -.178209813096130D+02
 0.213069466081468D+02 0.137386984120065D+02 0.106577344182201D+02 0.123144970168104D+02
 0.187146773401606D+01 0.236921205824731D-01 0.784030926713641D-02 -.187130133662008D+01
 0.956345387873490D+01 -.411280570152311D+01 0.448472502596240D+01 0.737778562942264D+01
0.347648651014D-07 0.000000000000D+00 0.000000000000D+00 0.345534086065D-07 0.000000000000D+00  6 1 22 9900012 13 2 21 0 0.59312759D-01 0.78630686D-03 0.15578366D+04 0.15578366D+04 0.15578366D+04 0.13032676D+01  1  2  2  2  6  5        2 0.314870999085D-04 0.100000000000D+01
0.339000622503D-08 0.000000000000D+00 -.667531178943D-10 0.345534086065D-07 0.000000000000D+00  6 1 22 9900012 13 2 21 2 0.59312759D-01 0.78630686D-03 0.15578366D+04 0.15578366D+04 0.15578366D+04 0.13032676D+01  1  2  3  2  6  5        2 0.521506635835D-05 0.100000000000D+01
-.310351431656D-09 0.000000000000D+00 0.000000000000D+00 0.345534086065D-07 0.000000000000D+00  6 1 22 9900012 13 2 21 2 0.59312759D-01 0.78630686D-03 0.15578366D+04 0.15578366D+04 0.15578366D+04 0.13032676D+01  1  2 15  2  6  5        2 -.477433728158D-06 0.100000000000D+01
0.367696638470D-10 0.000000000000D+00 0.000000000000D+00 0.345534086065D-07 0.000000000000D+00  6 1 22 9900012 13 2 21 2 0.59312759D-01 0.78630686D-03 0.14679050D+04 0.14679050D+04 0.14679050D+04 0.13066570D+01  1  2 12  2  6  5        2 0.564552771355D-07 0.100000000000D+01
-.158449036145D-08 0.000000000000D+00 0.000000000000D+00 0.345534086065D-07 0.000000000000D+00  6 1 22 9900012 13 2 21 2 0.59312759D-01 0.78630686D-03 0.15578366D+04 0.15578366D+04 0.15578366D+04 0.13032676D+01  1  2  4  2  6  5        2 -.243752424940D-05 0.100000000000D+01
0.265634147659D-03 0.000000000000D+00 0.000000000000D+00 0.345534086065D-07 0.367554055710D-03  6 1 22 9900012 13 2 21 2 0.59312759D-01 0.78630686D-03 0.14679050D+04 0.14679050D+04 0.14679050D+04 0.13066570D+01  1  2 11  2  6  5        2 0.407848423231D+00 0.100000000000D+01
  </mgrwgt>
  </event>
  <event>
  6     66 0.19493620E-05 0.66929874E+01 0.78161638E-02 0.12910440E+00
        3 -1    0    0  501    0 0.00000000E+00 0.00000000E+00 0.29812299E+02 0.29812299E+02 0.00000000E+00 0.0000E+00 0.9000E+01
       22 -1    0    0    0    0 0.00000000E+00 0.00000000E+00 -.44090398E+03 0.44090398E+03 0.00000000E+00 0.0000E+00 0.9000E+01
      -24  2    1    2    0    0 -.49193719E+01 -.45382662E+01 -.23814597E+02 0.83381364E+02 0.79627387E+02 0.0000E+00 0.0000E+00
  9900012  1    3    3    0    0 0.10168017E+02 -.21994887E+02 -.23443023E+02 0.60305381E+02 0.50000000E+02 0.0000E+00 0.9000E+01
       13  1    3    3    0    0 -.15087389E+02 0.17456621E+02 -.37157413E+00 0.23075983E+02 0.00000000E+00 0.0000E+00 0.9000E+01
        4  1    1    2  501    0 0.49193719E+01 0.45382662E+01 -.38727708E+03 0.38733491E+03 0.00000000E+00 0.0000E+00 0.9000E+01
#aMCatNLO 1  0  0  1  5 0.62956164D+02 0.00000000D+00  -5  6  0 0.00000000D+00 0.00000000D+00 0.00000000D+00 0.00000000D+00 0.00000000D+00
  <mgrwgt>
 0.2683771687D-04    4    2    0
 0.114648859359056D+03 0.000000000000000D+00 0.000000000000000D+00 0.114648859359056D+03
 0.114648859359056D+03 0.000000000000000D+00 0.000000000000000D+00 -.114648859359056D+03
 0.817692068899256D+02 0.101680172480562D+02 -.219948869330896D+02 0.599919958782110D+02
 0.467056092245832D+02 -.150873891434664D+02 0.174566207347160D+02 0.406085091378318D+02
 0.100822902603602D+03 0.491937189541020D+01 0.453826619837358D+01 -.100600505016043D+03
 0.000000000000000D+00 0.000000000000000D+00 0.000000000000000D+00 -.000000000000000D+00
 0.117939435094420D+03 0.000000000000000D+00 0.000000000000000D+00 0.117939435094420D+03
 0.148644477463553D+03 0.000000000000000D+00 0.000000000000000D+00 -.148644477463553D+03
 0.835695344850829D+02 0.788411322888905D+01 -.286821945324313D+02 0.599919958782110D+02
 0.458794485875226D+02 -.163663113361319D+02 0.137119160421353D+02 0.406085091378318D+02
 0.100687984758252D+03 0.213580452502717D+01 -.361206370735966D+01 -.100600505016043D+03
 0.364469447271156D+02 0.634639358221571D+01 0.185823421976557D+02 -.307050423691331D+02
0.830239606617D-06 0.000000000000D+00 0.000000000000D+00 0.196848746282D-04 0.000000000000D+00  6 3 22 9900012 13 4 21 0 0.45865075D-02 0.67831381D-01 0.18202266D+04 0.18202266D+04 0.18202266D+04 0.12945173D+01  1  2  2  1  6  1        3 0.262469985424D-04 0.100000000000D+01
-.139549893392D-07 0.000000000000D+00 -.159416934826D-08 0.196848746282D-04 0.000000000000D+00  6 3 22 9900012 13 4 21 2 0.45865075D-02 0.67831381D-01 0.18202266D+04 0.18202266D+04 0.18202266D+04 0.12945173D+01  1  2  3  1  6  1        3 -.739301281587D-06 0.100000000000D+01
0.768040248987D-07 0.000000000000D+00 0.000000000000D+00 0.196848746282D-04 0.000000000000D+00  6 3 22 9900012 13 4 21 2 0.45865075D-02 0.67831381D-01 0.18202266D+04 0.18202266D+04 0.18202266D+04 0.12945173D+01  1  2 15  1  6  1        3 0.406888981843D-05 0.100000000000D+01
-.516986856989D-07 0.000000000000D+00 0.000000000000D+00 0.196848746282D-04 0.000000000000D+00  6 3 22 9900012 13 4 21 2 0.45865075D-02 0.67831381D-01 0.18202266D+04 0.18202266D+04 0.18202266D+04 0.12945173D+01  1  2  4  1  6  1        3 -.273887021083D-05 0.100000000000D+01
  </mgrwgt>
  </event>
  <event>
  7     66 0.19493620E-05 0.64149167E+01 0.78161638E-02 0.13307395E+00
        1 -1    0    0  501    0 0.00000000E+00 0.00000000E+00 0.22331602E+04 0.22331602E+04 0.00000000E+00 0.0000E+00 0.9000E+01
       22 -1    0    0    0    0 0.00000000E+00 0.00000000E+00 -.24817866E+01 0.24817866E+01 0.00000000E+00 0.0000E+00 0.9000E+01
      -24  2    1    2    0    0 0.45588341E+01 0.44825713E+01 0.21505602E+04 0.21520509E+04 0.79831940E+02 0.0000E+00 0.0000E+00
  9900012  1    3    3    0    0 -.15959647E+02 -.11667311E+02 0.15185589E+04 0.15195105E+04 0.50000000E+02 0.0000E+00 0.9000E+01
       13  1    3    3    0    0 0.20518481E+02 0.16149883E+02 0.63200123E+03 0.63254041E+03 0.00000000E+00 0.0000E+00 0.9000E+01
        2  1    1    2  502    0 0.16175647E-01 0.54818045E-01 -.16091095E+01 0.16101242E+01 0.00000000E+00 0.0000E+00 0.9000E+01
       21  1    1    2  501  502 -.45750097E+01 -.45373894E+01 0.81727378E+02 0.81980991E+02 0.00000000E+00 0.0000E+00 0.9000E+01
#aMCatNLO 2  0  0  5  1 0.74423541D+01 0.00000000D+00  -5  6  0 0.00000000D+00 0.00000000D+00 0.00000000D+00 0.00000000D+00 0.00000000D+00
  <mgrwgt>
 0.4649648081D+00    2    2    0
 0.744461357233861D+02 0.000000000000000D+00 0.000000000000000D+00 0.744461357233861D+02
 0.744461357233861D+02 -.000000000000000D+00 -.000000000000000D+00 -.744461357233861D+02
 0.661066731583492D+02 -.157528223506041D+02 -.114639466596447D+02 0.386072370293437D+02
 0.297413076603843D+02 0.206114702506475D+02 0.162413163562038D+02 0.139975825939345D+02
 0.530442906280387D+02 -.485864790004342D+01 -.477736969655906D+01 -.526048196232782D+02
 0.000000000000000D+00 0.000000000000000D+00 -.000000000000000D+00 0.000000000000000D+00
 0.744461357233861D+02 0.000000000000000D+00 0.000000000000000D+00 0.744461357233861D+02
 0.744461357233861D+02 -.000000000000000D+00 -.000000000000000D+00 -.744461357233861D+02
 0.649111952891955D+02 -.159596470155091D+02 -.116673114448578D+02 0.363679362166884D+02
 0.291648291191063D+02 0.205184810870728D+02 0.161498827678251D+02 0.129907843493614D+02
 0.482836828362348D+02 0.161756472514867D-01 0.548180448165612D-01 -.482836490083394D+02
 0.653256420223560D+01 -.457500971881527D+01 -.453738936778384D+01 -.107507155771050D+01
-.669963205503D-08 0.000000000000D+00 0.000000000000D+00 0.385203794583D-05 0.000000000000D+00  6 1 22 9900012 13 2 21 2 0.34356311D+00 0.38181333D-03 0.18799609D+04 0.18799609D+04 0.18799609D+04 0.12927246D+01  1  2  8  2  6  5        2 -.115557229534D-05 0.100000000000D+01
0.269522203961D-02 0.000000000000D+00 0.000000000000D+00 0.385203794583D-05 0.691216642602D-02  6 1 22 9900012 13 2 21 2 0.34356311D+00 0.38181333D-03 0.18653313D+04 0.18653313D+04 0.18653313D+04 0.12931576D+01  1  2  1  2  6  5        2 0.464965963635D+00 0.100000000000D+01
  </mgrwgt>
  </event>
  <event>
  6     66 0.19493620E-05 0.59282292E+01 0.78161638E-02 0.99792871E-01
        1 -1    0    0  501    0 0.00000000E+00 0.00000000E+00 0.12907057E+03 0.12907057E+03 0.00000000E+00 0.0000E+00 0.9000E+01
       22 -1    0    0    0    0 0.00000000E+00 0.00000000E+00 -.14480014E+03 0.14480014E+03 0.00000000E+00 0.0000E+00 0.9000E+01
      -24  2    1    2    0    0 -.58491969E+01 0.96477815E+00 0.11571085E+03 0.14229668E+03 0.82608705E+02 0.0000E+00 0.0000E+00
  9900012  1    3    3    0    0 0.11081318E+02 0.84514594E+01 0.43416718E+02 0.67670039E+02 0.50000000E+02 0.0000E+00 0.9000E+01
       13  1    3    3    0    0 -.16930515E+02 -.74866812E+01 0.72294136E+02 0.74626637E+02 0.00000000E+00 0.0000E+00 0.9000E+01
        2  1    1    2  501    0 0.58491969E+01 -.96477815E+00 -.13144042E+03 0.13157404E+03 0.00000000E+00 0.0000E+00 0.9000E+01
#aMCatNLO 1  0  0  1  5 0.31785341D+01 0.00000000D+00  -5  6  0 0.00000000D+00 0.00000000D+00 0.00000000D+00 0.00000000D+00 0.00000000D+00
  <mgrwgt>
 0.2395549689D-03    3    2    0
 0.136709316499641D+03 0.000000000000000D+00 0.000000000000000D+00 0.136709316499641D+03
 0.136709316499641D+03 0.000000000000000D+00 0.000000000000000D+00 -.136709316499641D+03
 0.702796575811565D+02 0.110813178352803D+02 0.845145936424235D+01 0.473815101001716D+02
 0.789090537668426D+02 -.169305147282257D+02 -.748668121291624D+01 0.767068839272719D+02
 0.124229921651283D+03 0.584919689294541D+01 -.964778151326104D+00 -.124088394027443D+03
 0.000000000000000D+00 0.000000000000000D+00 -.000000000000000D+00 -.000000000000000D+00
 0.291592803207727D+03 0.000000000000000D+00 0.000000000000000D+00 0.291592803207727D+03
 0.450040134135677D+03 0.000000000000000D+00 0.000000000000000D+00 -.450040134135677D+03
 0.106010744201248D+03 -.269634950684861D+02 0.759357644356164D+02 0.473815101001716D+02
 0.118631865313847D+03 -.595613512983253D+02 0.681323627766440D+02 0.767068839272719D+02
 0.179648769515136D+03 -.597301417096041D+02 0.115360569638603D+03 -.124088394027443D+03
 0.337341558313174D+03 0.146254988076416D+03 -.259428696850863D+03 -.158447330927950D+03
0.567700277337D-05 0.000000000000D+00 0.000000000000D+00 0.108353789438D-04 0.000000000000D+00  6 1 22 9900012 13 2 21 0 0.19857011D-01 0.22276945D-01 0.14571815D+04 0.14571815D+04 0.14571815D+04 0.13070768D+01  1  2  2  1  6  1        1 0.206694598792D-03 0.100000000000D+01
0.143133038010D-06 0.000000000000D+00 -.109005927195D-07 0.108353789438D-04 0.000000000000D+00  6 1 22 9900012 13 2 21 2 0.19857011D-01 0.22276945D-01 0.14571815D+04 0.14571815D+04 0.14571815D+04 0.13070768D+01  1  2  3  1  6  1        1 0.890332332586D-05 0.100000000000D+01
0.385142127299D-06 0.000000000000D+00 0.000000000000D+00 0.108353789438D-04 0.000000000000D+00  6 1 22 9900012 13 2 21 2 0.19857011D-01 0.22276945D-01 0.14571815D+04 0.14571815D+04 0.14571815D+04 0.13070768D+01  1  2 15  1  6  1        1 0.239570467687D-04 0.100000000000D+01
  </mgrwgt>
  </event>
</LesHouchesEvents>
