<LesHouchesEvents version="3.0">
  <!--
  <scalesfunctionalform>
    muR  H_T/2 := sum_i mT(i)/2, i=final state
    muF1 H_T/2 := sum_i mT(i)/2, i=final state
    muF2 H_T/2 := sum_i mT(i)/2, i=final state
    QES  H_T/2 := sum_i mT(i)/2, i=final state
  </scalesfunctionalform>
PYTHIA8   
  -->
  <header>
        8
  </header>
  <init>
   2212   2212 0.65000000D+04 0.65000000D+04 -1 -1  82200  82200 -4   1
 0.41826437D-05 0.50152019D-07 0.77897878D-06     66
  </init>
  <event>
  7     66 0.77897878E-06 0.16283006E+02 0.78161638E-02 0.12463665E+00
       21 -1    0    0  501  502 0.00000000E+00 0.00000000E+00 0.92117612E+02 0.92117612E+02 0.00000000E+00 0.0000E+00 0.9000E+01
       22 -1    0    0    0    0 0.00000000E+00 0.00000000E+00 -.79298464E+02 0.79298464E+02 0.00000000E+00 0.0000E+00 0.9000E+01
       24  2    1    2    0    0 0.28521285E+02 -.32585004E+01 -.45519783E+02 0.96580889E+02 0.80198105E+02 0.0000E+00 0.0000E+00
  9900012  1    3    3    0    0 0.99927571E+01 -.22468642E+02 -.41751113E+02 0.69626507E+02 0.50000000E+02 0.0000E+00 0.9000E+01
      -13  1    3    3    0    0 0.18528527E+02 0.19210141E+02 -.37686705E+01 0.26954382E+02 0.00000000E+00 0.0000E+00 0.9000E+01
        3  1    1    2  501    0 -.11145389E+02 -.16281922E+02 0.17678534E+02 0.26492475E+02 0.00000000E+00 0.0000E+00 0.9000E+01
       -4  1    1    2    0  502 -.17375896E+02 0.19540422E+02 0.40660398E+02 0.48342712E+02 0.00000000E+00 0.0000E+00 0.9000E+01
#aMCatNLO 2  0  0  1  5 0.28699575D-01 0.00000000D+00  -5  6  0 0.00000000D+00 0.00000000D+00 0.00000000D+00 0.00000000D+00 0.00000000D+00
  <mgrwgt>
 0.4481195544D-05    1    2    0
 0.584982219911039D+02 0.000000000000000D+00 0.000000000000000D+00 0.584982219911039D+02
 0.584982219911039D+02 0.000000000000000D+00 0.000000000000000D+00 -.584982219911039D+02
 0.580708711746158D+02 0.120105084069643D+01 -.125817469183196D+02 -.266923809417638D+02
 0.279142376526562D+02 0.145153121253428D+02 0.237232853712895D+02 0.239083851926596D+01
 0.310113351549358D+02 -.157163629660392D+02 -.111415384529699D+02 0.243015424224979D+02
 0.000000000000000D+00 -.000000000000000D+00 0.000000000000000D+00 0.000000000000000D+00
 0.115962242944057D+03 0.000000000000000D+00 0.000000000000000D+00 0.115962242944057D+03
 0.629927895665272D+02 0.000000000000000D+00 0.000000000000000D+00 -.629927895665272D+02
 0.617833169476440D+02 0.999275712526445D+01 -.224686416533861D+02 -.266923809417638D+02
 0.267964916646022D+02 0.185285274356095D+02 0.192101412741748D+02 0.239083851926596D+01
 0.313031250283434D+02 -.111453885195397D+02 -.162819220971035D+02 0.243015424224979D+02
 0.590720988699943D+02 -.173758960413343D+02 0.195404224763148D+02 0.529694533775294D+02
0.193316570526D-08 0.000000000000D+00 0.000000000000D+00 0.107334716545D-06 0.573516678619D-09  6 21 22 9900012 -13 3 -4 2 0.14171940D-01 0.12199764D-01 0.41145318D+04 0.41145318D+04 0.41145318D+04 0.12514912D+01  1  2  1  3  6  1        4 0.448119554365D-05 0.100000000000D+01
  </mgrwgt>
  </event>
  <event>
  6     66 0.77897878E-06 0.42696843E+02 0.78161638E-02 0.12492435E+00
        2 -1    0    0  501    0 0.00000000E+00 0.00000000E+00 0.10419317E+02 0.10419317E+02 0.00000000E+00 0.0000E+00 0.9000E+01
       22 -1    0    0    0    0 -.00000000E+00 -.00000000E+00 -.10334631E+04 0.10334631E+04 0.00000000E+00 0.0000E+00 0.9000E+01
       24  2    1    2    0    0 0.66046855E+01 -.42182917E+02 -.97650758E+03 0.98072674E+03 0.80217566E+02 0.0000E+00 0.0000E+00
  9900012  1    3    3    0    0 -.96313709E+01 -.16777566E+02 -.78815332E+03 0.78997462E+03 0.50000000E+02 0.0000E+00 0.9000E+01
      -13  1    3    3    0    0 0.16236056E+02 -.25405351E+02 -.18835426E+03 0.19075212E+03 0.00000000E+00 0.0000E+00 0.9000E+01
        1  1    1    2  501    0 -.66046855E+01 0.42182917E+02 -.46536165E+02 0.63155642E+02 0.00000000E+00 0.0000E+00 0.9000E+01
#aMCatNLO 1  0  0  5  1 0.76290121D+00 0.00000000D+00  -5  6  0 0.00000000D+00 0.00000000D+00 0.00000000D+00 0.00000000D+00 0.00000000D+00
  <mgrwgt>
 0.1142129767D-04    8    2    0
 0.103768871827431D+03 0.000000000000000D+00 0.000000000000000D+00 0.103768871827431D+03
 0.103768871827431D+03 -.000000000000000D+00 -.000000000000000D+00 -.103768871827431D+03
 0.882984663809460D+02 -.963137092215188D+01 -.167775660612089D+02 -.701595976075173D+02
 0.309732670509511D+02 0.162360564168303D+02 -.254053513759610D+02 -.709238079230094D+01
 0.882660102229657D+02 -.660468549467837D+01 0.421829174371698D+02 0.772519783998182D+02
 0.000000000000000D+00 0.000000000000000D+00 0.000000000000000D+00 0.000000000000000D+00
 0.103768871827431D+03 0.000000000000000D+00 0.000000000000000D+00 0.103768871827431D+03
 0.103768871827431D+03 -.000000000000000D+00 -.000000000000000D+00 -.103768871827431D+03
 0.882883911920293D+02 -.963233989045877D+01 -.167713774379775D+02 -.701482640294425D+02
 0.309703981057113D+02 0.162357165192344D+02 -.254031805122257D+02 -.708840516594379D+01
 0.773672169153118D+02 -.599008712749791D+01 0.363198540675856D+02 0.680490507643948D+02
 0.109117374418105D+02 -.613289501277709D+00 0.585470388261753D+01 0.918761843099146D+01
0.810059736593D-08 0.000000000000D+00 0.000000000000D+00 0.131618736272D-05 0.000000000000D+00  6 2 22 9900012 -13 1 21 0 0.16029718D-02 0.15899432D+00 0.39979816D+04 0.39979816D+04 0.39979816D+04 0.12529322D+01  1  2  2  2  6  5        1 0.288657805549D-06 0.100000000000D+01
0.199378898682D-09 0.000000000000D+00 -.155542134107D-10 0.131618736272D-05 0.000000000000D+00  6 2 22 9900012 -13 1 21 2 0.16029718D-02 0.15899432D+00 0.39979816D+04 0.39979816D+04 0.39979816D+04 0.12529322D+01  1  2  3  2  6  5        1 0.111532275333D-07 0.100000000000D+01
-.923579068189D-09 0.000000000000D+00 0.000000000000D+00 0.131618736272D-05 0.000000000000D+00  6 2 22 9900012 -13 1 21 2 0.16029718D-02 0.15899432D+00 0.39979816D+04 0.39979816D+04 0.39979816D+04 0.12529322D+01  1  2 15  2  6  5        1 -.516648830977D-07 0.100000000000D+01
0.231428313121D-11 0.000000000000D+00 0.000000000000D+00 0.131618736272D-05 0.000000000000D+00  6 2 22 9900012 -13 1 21 2 0.16029718D-02 0.15899432D+00 0.39977680D+04 0.39977680D+04 0.39977680D+04 0.12529348D+01  1  2 12  2  6  5        1 0.129460450775D-09 0.100000000000D+01
-.304665362570D-05 0.000000000000D+00 0.000000000000D+00 0.131618736272D-05 0.000000000000D+00  6 2 22 9900012 -13 1 21 2 0.16029718D-02 0.15899432D+00 0.39979816D+04 0.39979816D+04 0.39979816D+04 0.12529322D+01  1  2  4  2  6  5        1 -.170429375061D-03 0.100000000000D+01
-.352621090260D-05 0.000000000000D+00 0.000000000000D+00 0.131618736272D-05 0.000000000000D+00  6 2 22 9900012 -13 1 21 2 0.16029718D-02 0.15899432D+00 0.39979816D+04 0.39979816D+04 0.39979816D+04 0.12529322D+01  1  2  5  2  6  5        1 -.197255741642D-03 0.100000000000D+01
0.398884495688D-05 0.000000000000D+00 -.000000000000D+00 0.131618736272D-05 0.000000000000D+00  6 2 22 9900012 -13 1 21 2 0.16029718D-02 0.15899432D+00 0.39979816D+04 0.39979816D+04 0.39979816D+04 0.12529322D+01  1  2  6  2  6  5        1 0.223135425531D-03 0.100000000000D+01
0.278375709505D-05 0.000000000000D+00 0.000000000000D+00 0.131618736272D-05 0.115979986346D-04  6 2 22 9900012 -13 1 21 2 0.16029718D-02 0.15899432D+00 0.39977680D+04 0.39977680D+04 0.39977680D+04 0.12529348D+01  1  2 11  2  6  5        1 0.155722713230D-03 0.100000000000D+01
  </mgrwgt>
  </event>
  <event>
  6     66 0.77897878E-06 0.46992964E+02 0.78161638E-02 0.11647522E+00
        2 -1    0    0  501    0 0.00000000E+00 0.00000000E+00 0.12091061E+04 0.12091061E+04 0.00000000E+00 0.0000E+00 0.9000E+01
       22 -1    0    0    0    0 0.00000000E+00 0.00000000E+00 -.47388906E+01 0.47388906E+01 0.00000000E+00 0.0000E+00 0.9000E+01
       24  2    1    2    0    0 0.43364131E+02 -.18107754E+02 0.99545048E+03 0.99970826E+03 0.79288172E+02 0.0000E+00 0.0000E+00
  9900012  1    3    3    0    0 0.14948336E+02 -.31071981E+02 0.62567100E+03 0.62861206E+03 0.50000000E+02 0.0000E+00 0.9000E+01
      -13  1    3    3    0    0 0.28415795E+02 0.12964227E+02 0.36977948E+03 0.37109620E+03 0.00000000E+00 0.0000E+00 0.9000E+01
        1  1    1    2  501    0 -.43364131E+02 0.18107754E+02 0.20891677E+03 0.21413676E+03 0.00000000E+00 0.0000E+00 0.9000E+01
#aMCatNLO 1  0  0  1  1 0.10982250D+03 0.00000000D+00  -5  6  0 0.00000000D+00 0.00000000D+00 0.00000000D+00 0.00000000D+00 0.00000000D+00
  <mgrwgt>
 0.4312709676D-05    3    2    0
 0.756955852291147D+02 0.000000000000000D+00 0.000000000000000D+00 0.756955852291147D+02
 0.756955852291147D+02 0.000000000000000D+00 0.000000000000000D+00 -.756955852291147D+02
 0.627511023955620D+02 0.149483361388104D+02 -.310719805095265D+02 0.157727653173135D+02
 0.337072993194973D+02 0.284157952783273D+02 0.129642265918107D+02 0.126749136088006D+02
 0.549327687431702D+02 -.433641314171377D+02 0.181077539177158D+02 -.284476789261141D+02
 0.000000000000000D+00 -.000000000000000D+00 0.000000000000000D+00 -.000000000000000D+00
 0.922038127984332D+02 0.000000000000000D+00 0.000000000000000D+00 0.922038127984332D+02
 0.139277957435154D+03 0.000000000000000D+00 0.000000000000000D+00 -.139277957435154D+03
 0.767597686362217D+02 0.350994850400763D+02 -.437185098699933D+02 0.157727653173135D+02
 0.417603892214083D+02 0.393164556912042D+02 0.612315154267209D+01 0.126749136088006D+02
 0.419398240989324D+02 -.293717161424300D+02 0.932634440789275D+01 -.284476789261141D+02
 0.710217882770252D+02 -.450442245888505D+02 0.282690139194285D+02 -.470741446367212D+02
0.120939438688D-07 0.000000000000D+00 0.000000000000D+00 0.266634894255D-07 0.000000000000D+00  6 2 22 9900012 -13 1 21 0 0.18601633D+00 0.72906008D-03 0.48276721D+04 0.48276721D+04 0.48276721D+04 0.12435649D+01  1  2  2  1  6  1        2 0.527654427080D-05 0.100000000000D+01
-.671907716144D-09 0.000000000000D+00 -.232219644324D-10 0.266634894255D-07 0.000000000000D+00  6 2 22 9900012 -13 1 21 2 0.18601633D+00 0.72906008D-03 0.48276721D+04 0.48276721D+04 0.48276721D+04 0.12435649D+01  1  2  3  1  6  1        2 -.453344282418D-06 0.100000000000D+01
-.756604623632D-09 0.000000000000D+00 0.000000000000D+00 0.266634894255D-07 0.000000000000D+00  6 2 22 9900012 -13 1 21 2 0.18601633D+00 0.72906008D-03 0.48276721D+04 0.48276721D+04 0.48276721D+04 0.12435649D+01  1  2 15  1  6  1        2 -.510490312781D-06 0.100000000000D+01
  </mgrwgt>
  </event>
  <event>
  6     66 0.77897878E-06 0.10052610E+03 0.78161638E-02 0.10740162E+00
        2 -1    0    0  501    0 0.00000000E+00 0.00000000E+00 0.37151655E+03 0.37151655E+03 0.00000000E+00 0.0000E+00 0.9000E+01
       22 -1    0    0    0    0 0.00000000E+00 0.00000000E+00 -.10796568E+03 0.10796568E+03 0.00000000E+00 0.0000E+00 0.9000E+01
       24  2    1    2    0    0 0.63055788E+02 -.14834671E+03 0.10652128E+02 0.17958133E+03 0.78442386E+02 0.0000E+00 0.0000E+00
  9900012  1    3    3    0    0 0.24665639E+02 -.10724715E+03 0.20160051E+02 0.12254294E+03 0.50000000E+02 0.0000E+00 0.9000E+01
      -13  1    3    3    0    0 0.38390149E+02 -.41099565E+02 -.95079232E+01 0.57038394E+02 0.00000000E+00 0.0000E+00 0.9000E+01
        1  1    1    2  501    0 -.63055788E+02 0.14834671E+03 0.25289873E+03 0.29990090E+03 0.00000000E+00 0.0000E+00 0.9000E+01
#aMCatNLO 1  0  0  1  5 0.45982173D+02 0.00000000D+00  -5  6  0 0.00000000D+00 0.00000000D+00 0.00000000D+00 0.00000000D+00 0.00000000D+00
  <mgrwgt>
 0.5254996118D-05    6    2    0
 0.200277402517676D+03 0.000000000000000D+00 0.000000000000000D+00 0.200277402517676D+03
 0.200277402517676D+03 0.000000000000000D+00 0.000000000000000D+00 -.200277402517676D+03
 0.133424844036171D+03 0.246656390669722D+02 -.107247145722858D+03 -.564964157251993D+02
 0.745334150106735D+02 0.383901487040013D+02 -.410995647590675D+02 -.489106554060889D+02
 0.192596545988506D+03 -.630557877709735D+02 0.148346710481926D+03 0.105407071131288D+03
 0.000000000000000D+00 0.000000000000000D+00 0.000000000000000D+00 -.000000000000000D+00
 0.202083136351156D+03 0.000000000000000D+00 0.000000000000000D+00 0.202083136351156D+03
 0.223636679706944D+03 0.000000000000000D+00 0.000000000000000D+00 -.223636679706944D+03
 0.135187184614109D+03 0.215409551931510D+02 -.110089586898404D+03 -.564964157251993D+02
 0.745469475805608D+02 0.366559411659661D+02 -.426771268780237D+02 -.489106554060889D+02
 0.191018834333547D+03 -.675182714455327D+02 0.144287308681942D+03 0.105407071131288D+03
 0.249668495298838D+02 0.932137508641561D+01 0.847940509448547D+01 -.215535433557878D+02
0.143493027961D-06 0.000000000000D+00 0.000000000000D+00 0.285792898562D-06 0.000000000000D+00  6 2 22 9900012 -13 1 21 0 0.57156392D-01 0.16610105D-01 0.28612629D+05 0.28612629D+05 0.28612629D+05 0.11646801D+01  1  2  2  1  6  1        2 0.383274313349D-05 0.100000000000D+01
-.253070703011D-08 0.000000000000D+00 -.275525504977D-09 0.285792898562D-06 0.000000000000D+00  6 2 22 9900012 -13 1 21 2 0.57156392D-01 0.16610105D-01 0.28612629D+05 0.28612629D+05 0.28612629D+05 0.11646801D+01  1  2  3  1  6  1        2 -.916925650834D-07 0.100000000000D+01
-.118472612701D-07 0.000000000000D+00 0.000000000000D+00 0.285792898562D-06 0.000000000000D+00  6 2 22 9900012 -13 1 21 2 0.57156392D-01 0.16610105D-01 0.28612629D+05 0.28612629D+05 0.28612629D+05 0.11646801D+01  1  2 15  1  6  1        2 -.429249914013D-06 0.100000000000D+01
0.680279276477D-07 0.000000000000D+00 0.000000000000D+00 0.285792898562D-06 0.000000000000D+00  6 2 22 9900012 -13 1 21 2 0.64398242D-01 0.16610105D-01 0.30796488D+05 0.30796488D+05 0.30796488D+05 0.11617438D+01  1  2 12  1  6  1        2 0.216398034528D-05 0.100000000000D+01
-.886369347198D-08 0.000000000000D+00 0.000000000000D+00 0.285792898562D-06 0.000000000000D+00  6 2 22 9900012 -13 1 21 2 0.57156392D-01 0.16610105D-01 0.28612629D+05 0.28612629D+05 0.28612629D+05 0.11646801D+01  1  2  4  1  6  1        2 -.321149299736D-06 0.100000000000D+01
0.128436489006D-08 0.000000000000D+00 0.000000000000D+00 0.285792898562D-06 0.000000000000D+00  6 21 22 9900012 -13 1 -2 2 0.64398242D-01 0.16610105D-01 0.30796488D+05 0.30796488D+05 0.30796488D+05 0.11617438D+01  1  2 12  3  6  1        2 0.100364418290D-06 0.100000000000D+01
  </mgrwgt>
  </event>
  <event>
  6     66 0.77897878E-06 0.30675017E+02 0.78161638E-02 0.12521261E+00
        4 -1    0    0  501    0 0.00000000E+00 0.00000000E+00 0.24428181E+02 0.24428181E+02 0.00000000E+00 0.0000E+00 0.9000E+01
       22 -1    0    0    0    0 0.00000000E+00 0.00000000E+00 -.15893229E+03 0.15893229E+03 0.00000000E+00 0.0000E+00 0.9000E+01
       24  2    1    2    0    0 -.32966043E+02 -.15924561E+02 -.10364832E+03 0.13548113E+03 0.79194763E+02 0.0000E+00 0.0000E+00
  9900012  1    3    3    0    0 -.27704695E+02 -.30336043E+02 -.56526791E+02 0.85924989E+02 0.50000000E+02 0.0000E+00 0.9000E+01
      -13  1    3    3    0    0 -.52613485E+01 0.14411482E+02 -.47121527E+02 0.49556139E+02 0.00000000E+00 0.0000E+00 0.9000E+01
        3  1    1    2  501    0 0.32966043E+02 0.15924561E+02 -.30855793E+02 0.47879344E+02 0.00000000E+00 0.0000E+00 0.9000E+01
#aMCatNLO 1  0  0  1  5 0.13020416D+02 0.00000000D+00  -5  6  0 0.00000000D+00 0.00000000D+00 0.00000000D+00 0.00000000D+00 0.00000000D+00
  <mgrwgt>
 0.2527394137D-05    6    2    0
 0.623091220846668D+02 0.000000000000000D+00 0.000000000000000D+00 0.623091220846668D+02
 0.623091220846668D+02 0.000000000000000D+00 0.000000000000000D+00 -.623091220846668D+02
 0.654170725105299D+02 -.277046946475015D+02 -.303360427486712D+02 0.956910553225409D+01
 0.220561437759210D+02 -.526134853438908D+01 0.144114817689791D+02 -.158461630398707D+02
 0.371450278828827D+02 0.329660431818906D+02 0.159245609796921D+02 0.627705750761661D+01
 0.000000000000000D+00 0.000000000000000D+00 -.000000000000000D+00 -.000000000000000D+00
 0.650799968497438D+02 0.000000000000000D+00 0.000000000000000D+00 0.650799968497438D+02
 0.678290657861892D+02 0.000000000000000D+00 0.000000000000000D+00 -.678290657861892D+02
 0.670175209024343D+02 -.317046625433305D+02 -.299097759977291D+02 0.956910553225409D+01
 0.225078516470644D+02 -.660733032364841D+01 0.145549197412521D+02 -.158461630398707D+02
 0.353230300816261D+02 0.307772653266422D+02 0.161578136580108D+02 0.627705750761661D+01
 0.806066000480821D+01 0.753472754033667D+01 -.802957401533759D+00 -.274906893644540D+01
0.689447446100D-08 0.000000000000D+00 0.000000000000D+00 0.923949755930D-07 0.000000000000D+00  6 4 22 9900012 -13 3 21 0 0.37581816D-02 0.24451122D-01 0.34027437D+04 0.34027437D+04 0.34027437D+04 0.12611119D+01  1  2  2  1  6  1        4 0.126458961749D-05 0.100000000000D+01
-.142690614195D-09 0.000000000000D+00 -.132382986435D-10 0.923949755930D-07 0.000000000000D+00  6 4 22 9900012 -13 3 21 2 0.37581816D-02 0.24451122D-01 0.34027437D+04 0.34027437D+04 0.34027437D+04 0.12611119D+01  1  2  3  1  6  1        4 -.416247001800D-07 0.100000000000D+01
-.517085210904D-09 0.000000000000D+00 0.000000000000D+00 0.923949755930D-07 0.000000000000D+00  6 4 22 9900012 -13 3 21 2 0.37581816D-02 0.24451122D-01 0.34027437D+04 0.34027437D+04 0.34027437D+04 0.12611119D+01  1  2 15  1  6  1        4 -.150840452912D-06 0.100000000000D+01
0.449854432953D-08 0.000000000000D+00 0.000000000000D+00 0.923949755930D-07 0.000000000000D+00  6 4 22 9900012 -13 3 21 2 0.42730489D-02 0.24451122D-01 0.38846239D+04 0.38846239D+04 0.38846239D+04 0.12543796D+01  1  2 12  1  6  1        4 0.109210266193D-05 0.100000000000D+01
-.554537596157D-09 0.000000000000D+00 0.000000000000D+00 0.923949755930D-07 0.000000000000D+00  6 4 22 9900012 -13 3 21 2 0.37581816D-02 0.24451122D-01 0.34027437D+04 0.34027437D+04 0.34027437D+04 0.12611119D+01  1  2  4  1  6  1        4 -.161765798745D-06 0.100000000000D+01
0.903184333909D-10 0.000000000000D+00 0.000000000000D+00 0.923949755930D-07 0.000000000000D+00  6 21 22 9900012 -13 3 -4 2 0.42730489D-02 0.24451122D-01 0.38846239D+04 0.38846239D+04 0.38846239D+04 0.12543796D+01  1  2 12  3  6  1        4 0.524932809026D-06 0.100000000000D+01
  </mgrwgt>
  </event>
  <event>
  6     66 0.77897878E-06 0.22274329E+02 0.78161638E-02 0.11749500E+00
        4 -1    0    0  501    0 0.00000000E+00 0.00000000E+00 0.27985698E+03 0.27985698E+03 0.00000000E+00 0.0000E+00 0.9000E+01
       22 -1    0    0    0    0 0.00000000E+00 0.00000000E+00 -.18936998E+02 0.18936998E+02 0.00000000E+00 0.0000E+00 0.9000E+01
       24  2    1    2    0    0 -.11461735E+02 -.19099067E+02 0.77649367E+02 0.11417474E+03 0.80686435E+02 0.0000E+00 0.0000E+00
  9900012  1    3    3    0    0 -.68866417E+00 -.32929171E+02 0.38242433E+02 0.71044269E+02 0.50000000E+02 0.0000E+00 0.9000E+01
      -13  1    3    3    0    0 -.10773071E+02 0.13830104E+02 0.39406934E+02 0.43130468E+02 0.00000000E+00 0.0000E+00 0.9000E+01
        3  1    1    2  501    0 0.11461735E+02 0.19099067E+02 0.18327061E+03 0.18461924E+03 0.00000000E+00 0.0000E+00 0.9000E+01
#aMCatNLO 1  0  0  1  5 0.29263183D+02 0.00000000D+00  -5  6  0 0.00000000D+00 0.00000000D+00 0.00000000D+00 0.00000000D+00 0.00000000D+00
  <mgrwgt>
 0.1620897667D-05    3    2    0
 0.727987026109610D+02 0.000000000000000D+00 0.000000000000000D+00 0.727987026109610D+02
 0.727987026109610D+02 0.000000000000000D+00 0.000000000000000D+00 -.727987026109610D+02
 0.772636361663877D+02 -.688664171581419D+00 -.329291705313506D+02 -.488350790255113D+02
 0.178922668764599D+02 -.107730712908937D+02 0.138301035650451D+02 0.357804196732126D+01
 0.504415021790745D+02 0.114617354624751D+02 0.190990669663055D+02 0.452570370581901D+02
 0.000000000000000D+00 -.000000000000000D+00 -.000000000000000D+00 -.000000000000000D+00
 0.900534559128029D+02 0.000000000000000D+00 0.000000000000000D+00 0.900534559128029D+02
 0.180913769286646D+03 0.000000000000000D+00 0.000000000000000D+00 -.180913769286646D+03
 0.780406206215098D+02 0.291572391337850D+02 -.188501705471796D+02 -.488350790255113D+02
 0.178739634827078D+02 -.389962509582223D+01 0.170724664408308D+02 0.357804196732126D+01
 0.634520052124082D+02 0.333494459413814D+02 0.294240041053552D+02 0.452570370581901D+02
 0.111600635882823D+03 -.586070599793442D+02 -.276462999990063D+02 -.908603133738431D+02
0.313253136764D-07 0.000000000000D+00 0.000000000000D+00 0.295710158829D-06 0.000000000000D+00  6 4 22 9900012 -13 3 21 0 0.43054920D-01 0.29133843D-02 0.24839469D+04 0.24839469D+04 0.24839469D+04 0.12775810D+01  1  2  2  1  6  1        4 0.175472391097D-05 0.100000000000D+01
0.188772331586D-08 0.000000000000D+00 -.601487263310D-10 0.295710158829D-06 0.000000000000D+00  6 4 22 9900012 -13 3 21 2 0.43054920D-01 0.29133843D-02 0.24839469D+04 0.24839469D+04 0.24839469D+04 0.12775810D+01  1  2  3  1  6  1        4 0.172595164434D-06 0.100000000000D+01
-.335141971176D-08 0.000000000000D+00 0.000000000000D+00 0.295710158829D-06 0.000000000000D+00  6 4 22 9900012 -13 3 21 2 0.43054920D-01 0.29133843D-02 0.24839469D+04 0.24839469D+04 0.24839469D+04 0.12775810D+01  1  2 15  1  6  1        4 -.306421407936D-06 0.100000000000D+01
  </mgrwgt>
  </event>
  <event>
  6     66 0.77897878E-06 0.43124466E+02 0.78161638E-02 0.11382143E+00
        2 -1    0    0  501    0 0.00000000E+00 0.00000000E+00 0.11417927E+03 0.11417927E+03 0.00000000E+00 0.0000E+00 0.9000E+01
       22 -1    0    0    0    0 0.00000000E+00 0.00000000E+00 -.14099020E+03 0.14099020E+03 0.00000000E+00 0.0000E+00 0.9000E+01
       24  2    1    2    0    0 -.90042572E+02 -.44978575E+02 -.69670527E+02 0.14577257E+03 0.79151273E+02 0.0000E+00 0.0000E+00
  9900012  1    3    3    0    0 -.57809548E+02 -.10233713E+02 -.59245895E+02 0.97245816E+02 0.50000000E+02 0.0000E+00 0.9000E+01
      -13  1    3    3    0    0 -.32233024E+02 -.34744862E+02 -.10424632E+02 0.48526758E+02 0.00000000E+00 0.0000E+00 0.9000E+01
        1  1    1    2  501    0 0.90042572E+02 0.44978575E+02 0.42859598E+02 0.10939690E+03 0.00000000E+00 0.0000E+00 0.9000E+01
#aMCatNLO 1  0  0  1  5 0.73130588D+01 0.00000000D+00  -5  6  0 0.00000000D+00 0.00000000D+00 0.00000000D+00 0.00000000D+00 0.00000000D+00
  <mgrwgt>
 0.6964537799D-05   11    2    0
 0.126878520124396D+03 0.000000000000000D+00 0.000000000000000D+00 0.126878520124396D+03
 0.126878520124396D+03 0.000000000000000D+00 0.000000000000000D+00 -.126878520124396D+03
 0.915274171410448D+02 -.578095477351619D+02 -.102337132881252D+02 -.493010688677568D+02
 0.476954384124855D+02 -.322330240945459D+02 -.347448619129573D+02 -.535551806356227D+01
 0.114534184695262D+03 0.900425718297079D+02 0.449785752010825D+02 0.546565869313191D+02
 0.000000000000000D+00 -.000000000000000D+00 -.000000000000000D+00 0.000000000000000D+00
 0.154462213641461D+03 0.000000000000000D+00 0.000000000000000D+00 0.154462213641461D+03
 0.127405777350054D+03 0.000000000000000D+00 0.000000000000000D+00 -.127405777350054D+03
 0.903145781600748D+02 -.562043212738949D+02 -.819767691908885D+01 -.493010688677568D+02
 0.463674230278989D+02 -.314026757805794D+02 -.336916651167436D+02 -.535551806356227D+01
 0.117178234188907D+03 0.920880339111217D+02 0.475729974148529D+02 0.546565869313191D+02
 0.280077556146340D+02 -.448103685664738D+01 -.568365537902046D+01 0.270564362914069D+02
0.147860464497D-07 0.000000000000D+00 0.000000000000D+00 0.245803767107D-06 0.000000000000D+00  6 2 22 9900012 -13 1 21 0 0.17566042D-01 0.21690800D-01 0.12674261D+05 0.12674261D+05 0.12674261D+05 0.11988063D+01  1  2  2  1  6  1        2 0.931929752644D-06 0.100000000000D+01
-.291755063936D-09 0.000000000000D+00 -.283911558112D-10 0.245803767107D-06 0.000000000000D+00  6 2 22 9900012 -13 1 21 2 0.17566042D-01 0.21690800D-01 0.12674261D+05 0.12674261D+05 0.12674261D+05 0.11988063D+01  1  2  3  1  6  1        2 -.264269794765D-07 0.100000000000D+01
-.144562278716D-08 0.000000000000D+00 0.000000000000D+00 0.245803767107D-06 0.000000000000D+00  6 2 22 9900012 -13 1 21 2 0.17566042D-01 0.21690800D-01 0.12674261D+05 0.12674261D+05 0.12674261D+05 0.11988063D+01  1  2 15  1  6  1        2 -.130943549742D-06 0.100000000000D+01
0.202540815498D-06 0.000000000000D+00 0.000000000000D+00 0.245803767107D-06 0.000000000000D+00  6 2 22 9900012 -13 1 21 2 0.21473809D-01 0.21690800D-01 0.13527584D+05 0.13527584D+05 0.13527584D+05 0.11959608D+01  1  2 12  1  6  1        2 0.145606814310D-04 0.100000000000D+01
-.136477224693D-06 0.000000000000D+00 0.000000000000D+00 0.245803767107D-06 0.000000000000D+00  6 2 22 9900012 -13 1 21 2 0.17566042D-01 0.21690800D-01 0.12674261D+05 0.12674261D+05 0.12674261D+05 0.11988063D+01  1  2  4  1  6  1        2 -.123620161629D-04 0.100000000000D+01
-.226704157470D-06 0.000000000000D+00 -.850874234735D-08 0.245803767107D-06 0.000000000000D+00  6 2 22 9900012 -13 1 21 2 0.21437266D-01 0.21690800D-01 0.12674261D+05 0.12674261D+05 0.12674261D+05 0.11988063D+01  1  2  5  1  6  1        2 -.163286336031D-04 0.100000000000D+01
0.224105403204D-06 0.000000000000D+00 0.834273334093D-08 0.245803767107D-06 0.000000000000D+00  6 2 22 9900012 -13 1 21 2 0.17566042D-01 0.21690800D-01 0.12674261D+05 0.12674261D+05 0.12674261D+05 0.11988063D+01  1  2  6  1  6  1        2 0.202993182402D-04 0.100000000000D+01
0.328095272209D-08 0.000000000000D+00 0.000000000000D+00 0.245803767107D-06 0.242966027162D-07  6 2 22 9900012 -13 1 21 2 0.21384942D-01 0.21780939D-01 0.13527584D+05 0.13527584D+05 0.13527584D+05 0.11959608D+01  1  2 11  1  6  1        2 0.235512627233D-06 0.100000000000D+01
0.581531357408D-08 0.000000000000D+00 0.000000000000D+00 0.245803767107D-06 0.000000000000D+00  6 21 22 9900012 -13 1 -2 2 0.21473809D-01 0.21690800D-01 0.13527584D+05 0.13527584D+05 0.13527584D+05 0.11959608D+01  1  2 12  3  6  1        2 0.279457474250D-05 0.100000000000D+01
-.636942724540D-08 0.000000000000D+00 -.242711072577D-09 0.245803767107D-06 0.000000000000D+00  6 21 22 9900012 -13 1 -2 2 0.21437266D-01 0.21690800D-01 0.12674261D+05 0.12674261D+05 0.12674261D+05 0.11988063D+01  1  2  5  3  6  1        2 -.307356768086D-05 0.100000000000D+01
0.133236017936D-09 0.000000000000D+00 0.000000000000D+00 0.245803767107D-06 0.974508109160D-09  6 21 22 9900012 -13 1 -2 2 0.21384942D-01 0.21780939D-01 0.13527584D+05 0.13527584D+05 0.13527584D+05 0.11959608D+01  1  2 11  3  6  1        2 0.641089813652D-07 0.100000000000D+01
  </mgrwgt>
  </event>
  <event>
  6     66 0.77897878E-06 0.25063079E+02 0.78161638E-02 0.13119871E+00
        2 -1    0    0  501    0 0.00000000E+00 0.00000000E+00 0.21698099E+02 0.21698099E+02 0.00000000E+00 0.0000E+00 0.9000E+01
       22 -1    0    0    0    0 0.00000000E+00 0.00000000E+00 -.18782391E+03 0.18782391E+03 0.00000000E+00 0.0000E+00 0.9000E+01
       24  2    1    2    0    0 0.18232750E+02 -.17196650E+02 -.65377355E+02 0.10570289E+03 0.79188033E+02 0.0000E+00 0.0000E+00
  9900012  1    3    3    0    0 0.27438488E+02 -.12089524E+02 -.24068920E+02 0.63074084E+02 0.50000000E+02 0.0000E+00 0.9000E+01
      -13  1    3    3    0    0 -.92057376E+01 -.51071265E+01 -.41308434E+02 0.42628806E+02 0.00000000E+00 0.0000E+00 0.9000E+01
        1  1    1    2  501    0 -.18232750E+02 0.17196650E+02 -.10074846E+03 0.10381912E+03 0.00000000E+00 0.0000E+00 0.9000E+01
#aMCatNLO 1  0  0  1  5 0.21119029D+02 0.00000000D+00  -5  6  0 0.00000000D+00 0.00000000D+00 0.00000000D+00 0.00000000D+00 0.00000000D+00
  <mgrwgt>
 0.2728761095D-05    9    2    0
 0.638390308688124D+02 0.000000000000000D+00 0.000000000000000D+00 0.638390308688124D+02
 0.638390308688124D+02 0.000000000000000D+00 0.000000000000000D+00 -.638390308688124D+02
 0.721889099478868D+02 0.274384875008466D+02 -.120895237637416D+02 0.425700779691078D+02
 0.162069807060090D+02 -.920573759808116D+01 -.510712648717831D+01 -.123222513334286D+02
 0.392821710837291D+02 -.182327499027654D+02 0.171966502509199D+02 -.302478266356792D+02
 0.000000000000000D+00 -.000000000000000D+00 0.000000000000000D+00 0.000000000000000D+00
 0.822679705262208D+02 0.000000000000000D+00 0.000000000000000D+00 0.822679705262208D+02
 0.692583167957984D+02 0.000000000000000D+00 0.000000000000000D+00 -.692583167957984D+02
 0.772313224615648D+02 0.376273449476200D+02 -.153833852925517D+02 0.425700779691078D+02
 0.153386913837980D+02 -.705466106177286D+01 -.580252813407402D+01 -.123222513334286D+02
 0.364262573607277D+02 -.130702469906697D+02 0.155277124113875D+02 -.302478266356792D+02
 0.225300161159287D+02 -.175024368951775D+02 0.565820101523821D+01 0.130096537304224D+02
0.110194999355D-07 0.000000000000D+00 0.000000000000D+00 0.103789904485D-06 0.000000000000D+00  6 2 22 9900012 -13 1 21 0 0.33381691D-02 0.28895987D-01 0.22039157D+04 0.22039157D+04 0.22039157D+04 0.12840139D+01  1  2  2  1  6  1        2 0.296408985549D-05 0.100000000000D+01
-.621792891526D-09 0.000000000000D+00 -.211588906266D-10 0.103789904485D-06 0.000000000000D+00  6 2 22 9900012 -13 1 21 2 0.33381691D-02 0.28895987D-01 0.22039157D+04 0.22039157D+04 0.22039157D+04 0.12840139D+01  1  2  3  1  6  1        2 -.275749450101D-06 0.100000000000D+01
-.209193935662D-09 0.000000000000D+00 0.000000000000D+00 0.103789904485D-06 0.000000000000D+00  6 2 22 9900012 -13 1 21 2 0.33381691D-02 0.28895987D-01 0.22039157D+04 0.22039157D+04 0.22039157D+04 0.12840139D+01  1  2 15  1  6  1        2 -.927722293215D-07 0.100000000000D+01
0.740952727986D-08 0.000000000000D+00 0.000000000000D+00 0.103789904485D-06 0.000000000000D+00  6 2 22 9900012 -13 1 21 2 0.46670072D-02 0.28895987D-01 0.31508400D+04 0.31508400D+04 0.31508400D+04 0.12650747D+01  1  2 12  1  6  1        2 0.216201544543D-05 0.100000000000D+01
-.899520433993D-08 0.000000000000D+00 0.000000000000D+00 0.103789904485D-06 0.000000000000D+00  6 2 22 9900012 -13 1 21 2 0.33381691D-02 0.28895987D-01 0.22039157D+04 0.22039157D+04 0.22039157D+04 0.12840139D+01  1  2  4  1  6  1        2 -.398914603895D-05 0.100000000000D+01
-.122701001379D-07 0.000000000000D+00 -.423851272909D-08 0.103789904485D-06 0.000000000000D+00  6 2 22 9900012 -13 1 21 2 0.46613049D-02 0.28895987D-01 0.22039157D+04 0.22039157D+04 0.22039157D+04 0.12840139D+01  1  2  5  1  6  1        2 -.354485756377D-05 0.100000000000D+01
0.131700784721D-07 0.000000000000D+00 0.401277316903D-08 0.103789904485D-06 0.000000000000D+00  6 2 22 9900012 -13 1 21 2 0.33381691D-02 0.28895987D-01 0.22039157D+04 0.22039157D+04 0.22039157D+04 0.12840139D+01  1  2  6  1  6  1        2 0.584059732100D-05 0.100000000000D+01
0.310196740243D-09 0.000000000000D+00 0.000000000000D+00 0.103789904485D-06 0.000000000000D+00  6 21 22 9900012 -13 1 -2 2 0.46670072D-02 0.28895987D-01 0.31508400D+04 0.31508400D+04 0.31508400D+04 0.12650747D+01  1  2 12  3  6  1        2 0.121112820387D-05 0.100000000000D+01
-.400510797442D-09 0.000000000000D+00 -.176976948861D-09 0.103789904485D-06 0.000000000000D+00  6 21 22 9900012 -13 1 -2 2 0.46613049D-02 0.28895987D-01 0.22039157D+04 0.22039157D+04 0.22039157D+04 0.12840139D+01  1  2  5  3  6  1        2 -.154654444835D-05 0.100000000000D+01
  </mgrwgt>
  </event>
</LesHouchesEvents>
