<LesHouchesEvents version="3.0">
  <!--
  <scalesfunctionalform>
    muR  H_T/2 := sum_i mT(i)/2, i=final state
    muF1 H_T/2 := sum_i mT(i)/2, i=final state
    muF2 H_T/2 := sum_i mT(i)/2, i=final state
    QES  H_T/2 := sum_i mT(i)/2, i=final state
  </scalesfunctionalform>
PYTHIA8   
  -->
  <header>
      116
  </header>
  <init>
   2212   2212 0.65000000D+04 0.65000000D+04 -1 -1  82200  82200 -4   1
 0.65645785D-04 0.19361374D-06 0.10827799D-05     66
  </init>
  <event>
  7     66 -.10827799E-05 0.41659812E+02 0.78161638E-02 0.12481543E+00
       22 -1    0    0    0    0 0.00000000E+00 0.00000000E+00 0.12189019E+02 0.12189019E+02 0.00000000E+00 0.0000E+00 0.9000E+01
        1 -1    0    0  501    0 -.00000000E+00 -.00000000E+00 -.92578709E+03 0.92578709E+03 0.00000000E+00 0.0000E+00 0.9000E+01
      -24  2    1    2    0    0 0.16548673E+02 -.35260681E+02 -.17320413E+03 0.19530953E+03 0.81418479E+02 0.0000E+00 0.0000E+00
  9900012  1    3    3    0    0 -.13712737E+01 -.28268987E+02 -.71115182E+02 0.91424205E+02 0.50000000E+02 0.0000E+00 0.9000E+01
       13  1    3    3    0    0 0.17919947E+02 -.69916941E+01 -.10208894E+03 0.10388533E+03 0.00000000E+00 0.0000E+00 0.9000E+01
        2  1    1    2  502    0 0.39340800E+01 -.43484799E+01 -.29241085E+03 0.29246964E+03 0.00000000E+00 0.0000E+00 0.9000E+01
       21  1    1    2  501  502 -.20482753E+02 0.39609161E+02 -.44798309E+03 0.45019693E+03 0.00000000E+00 0.0000E+00 0.9000E+01
#aMCatNLO 2  0  0  5  2 0.20612292D+02 0.00000000D+00  -5  6  0 0.00000000D+00 0.00000000D+00 0.00000000D+00 0.00000000D+00 0.00000000D+00
  <mgrwgt>
 -.1024653497D-03    2    2    0
 0.106228226398942D+03 0.000000000000000D+00 0.000000000000000D+00 0.106228226398942D+03
 0.106228226398942D+03 -.000000000000000D+00 -.000000000000000D+00 -.106228226398942D+03
 0.102016753179476D+03 -.399529590816856D+00 -.303395070278092D+02 0.835869165521598D+02
 0.198122438947933D+02 0.181118120625130D+02 -.740050688711534D+01 -.311765453069110D+01
 0.906274557236141D+02 -.177122824716962D+02 0.377400139149246D+02 -.804692620214687D+02
 0.000000000000000D+00 -.000000000000000D+00 0.000000000000000D+00 0.000000000000000D+00
 0.106228226398942D+03 0.000000000000000D+00 0.000000000000000D+00 0.106228226398942D+03
 0.106228226398942D+03 -.000000000000000D+00 -.000000000000000D+00 -.106228226398942D+03
 0.978225224844624D+02 -.137127368838163D+01 -.282689869905162D+02 0.791721534898775D+02
 0.196449226443130D+02 0.179199465317578D+02 -.699169408661554D+01 -.398932523105985D+01
 0.338118611730175D+02 0.393408003911537D+01 -.434847991385196D+01 -.332994848709115D+02
 0.611771464960907D+02 -.204827528824915D+02 0.396091609909837D+02 -.418833433879061D+02
-.814639376215D-06 0.000000000000D+00 0.000000000000D+00 0.937240381701D-06 0.000000000000D+00  6 22 1 9900012 13 2 21 2 0.18752336D-02 0.14242878D+00 0.40415168D+04 0.40415168D+04 0.40415168D+04 0.12523885D+01  1  2 13  2  6  5        2 -.122027285614D-03 0.100000000000D+01
0.130593114470D-06 0.000000000000D+00 0.000000000000D+00 0.937240381701D-06 0.687768617456D-09  6 22 1 9900012 13 2 21 2 0.18752336D-02 0.14242878D+00 0.40415168D+04 0.40415168D+04 0.40415168D+04 0.12523885D+01  1  2  1  2  6  5        2 0.195619359239D-04 0.100000000000D+01
  </mgrwgt>
  </event>
  <event>
  6     66 0.10827799E-05 0.45634784E+02 0.78161638E-02 0.11946636E+00
       22 -1    0    0    0    0 0.00000000E+00 0.00000000E+00 0.23270537E+02 0.23270537E+02 0.00000000E+00 0.0000E+00 0.9000E+01
        1 -1    0    0  501    0 -.00000000E+00 -.00000000E+00 -.75041729E+03 0.75041729E+03 0.00000000E+00 0.0000E+00 0.9000E+01
      -24  2    1    2    0    0 0.70030194E+02 -.31355379E+01 -.11518448E+03 0.15772364E+03 0.81824337E+02 0.0000E+00 0.0000E+00
  9900012  1    3    3    0    0 0.41334138E+02 0.11222017E+02 -.10522898E+03 0.12412729E+03 0.50000000E+02 0.0000E+00 0.9000E+01
       13  1    3    3    0    0 0.28696055E+02 -.14357555E+02 -.99555009E+01 0.33596354E+02 0.00000000E+00 0.0000E+00 0.9000E+01
        2  1    1    2  501    0 -.70030194E+02 0.31355379E+01 -.61196227E+03 0.61596418E+03 0.00000000E+00 0.0000E+00 0.9000E+01
#aMCatNLO 1  0  0  5  2 0.55502716D+01 0.00000000D+00  -5  6  0 0.00000000D+00 0.00000000D+00 0.00000000D+00 0.00000000D+00 0.00000000D+00
  <mgrwgt>
 0.2126704104D-03    8    2    0
 0.132146181529739D+03 0.000000000000000D+00 0.000000000000000D+00 0.132146181529739D+03
 0.132146181529739D+03 -.000000000000000D+00 -.000000000000000D+00 -.132146181529739D+03
 0.738532804907289D+02 0.413341383641889D+02 0.112220170419434D+02 0.334643448829153D+02
 0.709592186889113D+02 0.286960553267916D+02 -.143575549317466D+02 0.632898707693762D+02
 0.119479863879839D+03 -.700301936909805D+02 0.313553788980320D+01 -.967542156522916D+02
 0.000000000000000D+00 0.000000000000000D+00 0.000000000000000D+00 0.000000000000000D+00
 0.132146181529739D+03 0.000000000000000D+00 0.000000000000000D+00 0.132146181529739D+03
 0.132146181529739D+03 -.000000000000000D+00 -.000000000000000D+00 -.132146181529739D+03
 0.736779446357929D+02 0.411852169059415D+02 0.112286848640688D+02 0.332585939328309D+02
 0.707238767159048D+02 0.285530371070311D+02 -.143511514217268D+02 0.630922757757371D+02
 0.993617601202012D+02 -.552205109145729D+02 -.149520966460038D+01 -.825906707599401D+02
 0.205287815875801D+02 -.145177430983998D+02 0.461767622225834D+01 -.137601989486280D+02
0.373359001775D-06 0.000000000000D+00 0.000000000000D+00 0.709031725756D-06 0.000000000000D+00  6 22 1 9900012 13 2 21 0 0.35800826D-02 0.11544881D+00 0.70580397D+04 0.70580397D+04 0.70580397D+04 0.12253433D+01  1  2  2  2  6  5        2 0.213951571740D-04 0.100000000000D+01
0.130034370761D-08 0.000000000000D+00 -.716898437249D-09 0.709031725756D-06 0.000000000000D+00  6 22 1 9900012 13 2 21 2 0.35800826D-02 0.11544881D+00 0.70580397D+04 0.70580397D+04 0.70580397D+04 0.12253433D+01  1  2  3  2  6  5        2 0.111882598642D-06 0.100000000000D+01
-.503398788919D-07 0.000000000000D+00 0.000000000000D+00 0.709031725756D-06 0.000000000000D+00  6 22 1 9900012 13 2 21 2 0.35800826D-02 0.11544881D+00 0.70580397D+04 0.70580397D+04 0.70580397D+04 0.12253433D+01  1  2 15  2  6  5        2 -.433128290068D-05 0.100000000000D+01
0.330921818692D-05 0.000000000000D+00 0.000000000000D+00 0.709031725756D-06 0.000000000000D+00  6 22 1 9900012 13 2 21 2 0.35800826D-02 0.11544881D+00 0.70708030D+04 0.70708030D+04 0.70708030D+04 0.12252586D+01  1  2 12  2  6  5        2 0.284720877186D-03 0.100000000000D+01
-.311686843648D-05 0.000000000000D+00 0.000000000000D+00 0.709031725756D-06 0.000000000000D+00  6 22 1 9900012 13 2 21 2 0.35800826D-02 0.11544881D+00 0.70580397D+04 0.70580397D+04 0.70580397D+04 0.12253433D+01  1  2  4  2  6  5        2 -.268177819649D-03 0.100000000000D+01
-.527859017909D-05 0.000000000000D+00 0.000000000000D+00 0.709031725756D-06 0.000000000000D+00  6 22 1 9900012 13 2 21 2 0.35800826D-02 0.11544881D+00 0.70580397D+04 0.70580397D+04 0.70580397D+04 0.12253433D+01  1  2  5  2  6  5        2 -.454174064096D-03 0.100000000000D+01
0.626209786374D-05 0.000000000000D+00 -.000000000000D+00 0.709031725756D-06 0.000000000000D+00  6 22 1 9900012 13 2 21 2 0.35800826D-02 0.11544881D+00 0.70580397D+04 0.70580397D+04 0.70580397D+04 0.12253433D+01  1  2  6  2  6  5        2 0.538795841322D-03 0.100000000000D+01
0.109636481451D-05 0.000000000000D+00 0.000000000000D+00 0.709031725756D-06 0.735563856458D-07  6 22 1 9900012 13 2 21 2 0.35800826D-02 0.11544881D+00 0.70708030D+04 0.70708030D+04 0.70708030D+04 0.12252586D+01  1  2 11  2  6  5        2 0.943298187285D-04 0.100000000000D+01
  </mgrwgt>
  </event>
  <event>
  6     66 0.10827799E-05 0.25060585E+02 0.78161638E-02 0.12965189E+00
       22 -1    0    0    0    0 0.00000000E+00 0.00000000E+00 0.35254535E+02 0.35254535E+02 0.00000000E+00 0.0000E+00 0.9000E+01
        3 -1    0    0  501    0 0.00000000E+00 0.00000000E+00 -.30578236E+03 0.30578236E+03 0.00000000E+00 0.0000E+00 0.9000E+01
      -24  2    1    2    0    0 -.58044766E+01 -.24379109E+02 -.13344013E+02 0.82634987E+02 0.77604416E+02 0.0000E+00 0.0000E+00
  9900012  1    3    3    0    0 0.63315011E+01 -.33507660E+02 -.22881432E+02 0.64702481E+02 0.50000000E+02 0.0000E+00 0.9000E+01
       13  1    3    3    0    0 -.12135978E+02 0.91285510E+01 0.95374181E+01 0.17932505E+02 0.00000000E+00 0.0000E+00 0.9000E+01
        4  1    1    2  501    0 0.58044766E+01 0.24379109E+02 -.25718382E+03 0.25840191E+03 0.00000000E+00 0.0000E+00 0.9000E+01
#aMCatNLO 1  0  0  2  2 0.75484610D+03 0.00000000D+00  -5  6  0 0.00000000D+00 0.00000000D+00 0.00000000D+00 0.00000000D+00 0.00000000D+00
  <mgrwgt>
 0.4786296094D-04    4    2    0
 0.103827813860234D+03 0.000000000000000D+00 0.000000000000000D+00 0.103827813860234D+03
 0.103827813860234D+03 0.000000000000000D+00 0.000000000000000D+00 -.103827813860234D+03
 0.764528741289950D+02 0.633150110246887D+01 -.335076599871720D+02 0.467139248892389D+02
 0.418759804118493D+02 -.121359777463173D+02 0.912855099810692D+01 0.390254447286567D+02
 0.893267731796230D+02 0.580447664384840D+01 0.243791089890651D+02 -.857393696178956D+02
 0.000000000000000D+00 -.000000000000000D+00 -.000000000000000D+00 0.000000000000000D+00
 0.153650701534053D+03 0.000000000000000D+00 0.000000000000000D+00 0.153650701534053D+03
 0.123219824593929D+03 0.000000000000000D+00 0.000000000000000D+00 -.123219824593929D+03
 0.774942771600321D+02 0.248607254118581D+02 -.265540306920551D+02 0.467139248892389D+02
 0.411514320408484D+02 -.214272008430382D+01 0.128788110236719D+02 0.390254447286567D+02
 0.959891082951557D+02 0.281092709007533D+02 0.327496305055960D+02 -.857393696178956D+02
 0.622357086319456D+02 -.508272762283076D+02 -.190744108372128D+02 0.304308769401240D+02
0.172813167207D-05 0.000000000000D+00 0.000000000000D+00 0.520304273630D-06 0.000000000000D+00  6 22 3 9900012 13 4 21 0 0.54237745D-02 0.47043441D-01 0.25385478D+04 0.25385478D+04 0.25385478D+04 0.12764222D+01  1  2  2  1  6  2        3 0.521630989523D-04 0.100000000000D+01
0.129310905754D-06 0.000000000000D+00 -.331824032413D-08 0.520304273630D-06 0.000000000000D+00  6 22 3 9900012 13 4 21 2 0.54237745D-02 0.47043441D-01 0.25385478D+04 0.25385478D+04 0.25385478D+04 0.12764222D+01  1  2  3  1  6  2        3 0.635931630184D-05 0.100000000000D+01
-.212424210493D-06 0.000000000000D+00 0.000000000000D+00 0.520304273630D-06 0.000000000000D+00  6 22 3 9900012 13 4 21 2 0.54237745D-02 0.47043441D-01 0.25385478D+04 0.25385478D+04 0.25385478D+04 0.12764222D+01  1  2 15  1  6  2        3 -.104467039096D-04 0.100000000000D+01
-.432608570337D-08 0.000000000000D+00 0.000000000000D+00 0.520304273630D-06 0.000000000000D+00  6 22 3 9900012 13 4 21 2 0.54237745D-02 0.47043441D-01 0.25385478D+04 0.25385478D+04 0.25385478D+04 0.12764222D+01  1  2  4  1  6  2        3 -.212750403195D-06 0.100000000000D+01
  </mgrwgt>
  </event>
  <event>
  6     66 0.10827799E-05 0.59320247E+02 0.78161638E-02 0.11237937E+00
       22 -1    0    0    0    0 0.00000000E+00 0.00000000E+00 0.42212914E+03 0.42212914E+03 0.00000000E+00 0.0000E+00 0.9000E+01
        1 -1    0    0  501    0 0.00000000E+00 0.00000000E+00 -.42864786E+02 0.42864786E+02 0.00000000E+00 0.0000E+00 0.9000E+01
      -24  2    1    2    0    0 -.10926965E+03 0.47484532E+02 0.25614637E+03 0.29366770E+03 0.80219202E+02 0.0000E+00 0.0000E+00
  9900012  1    3    3    0    0 -.78552291E+02 0.48515638E+02 0.23175683E+03 0.25443164E+03 0.50000000E+02 0.0000E+00 0.9000E+01
       13  1    3    3    0    0 -.30717357E+02 -.10311055E+01 0.24389536E+02 0.39236063E+02 0.00000000E+00 0.0000E+00 0.9000E+01
        2  1    1    2  501    0 0.10926965E+03 -.47484532E+02 0.12311798E+03 0.17132622E+03 0.00000000E+00 0.0000E+00 0.9000E+01
#aMCatNLO 1  0  0  5  2 0.10131509D+02 0.00000000D+00  -5  6  0 0.00000000D+00 0.00000000D+00 0.00000000D+00 0.00000000D+00 0.00000000D+00
  <mgrwgt>
 0.2300869446D-04    5    2    0
 0.134515706510530D+03 0.000000000000000D+00 0.000000000000000D+00 0.134515706510530D+03
 0.134515706510530D+03 -.000000000000000D+00 -.000000000000000D+00 -.134515706510530D+03
 0.113042789430280D+03 -.785522907940500D+02 0.485156376418202D+02 0.418860687746317D+02
 0.334327108181181D+02 -.307173569158387D+02 -.103110545658225D+01 -.131577717828777D+02
 0.122555912772663D+03 0.109269647709889D+03 -.474845321852380D+02 -.287282969917540D+02
 0.000000000000000D+00 0.000000000000000D+00 0.000000000000000D+00 0.000000000000000D+00
 0.134515706510530D+03 0.000000000000000D+00 0.000000000000000D+00 0.134515706510530D+03
 0.134515706510530D+03 -.000000000000000D+00 -.000000000000000D+00 -.134515706510530D+03
 0.110318450419348D+03 -.757581393713304D+02 0.473014031682652D+02 0.411514529540981D+02
 0.327749830727491D+02 -.298891276214245D+02 -.139102315936269D+01 -.133755231680599D+02
 0.118380697765805D+03 0.107705682643046D+03 -.389629342101450D+02 -.299226550902501D+02
 0.755728176315940D+01 -.205841565029140D+01 -.694744579875749D+01 0.214672530421195D+01
0.329282532517D-06 0.000000000000D+00 0.000000000000D+00 0.376929002717D-06 0.000000000000D+00  6 22 1 9900012 13 2 21 0 0.64942944D-01 0.65945825D-02 0.16239964D+05 0.16239964D+05 0.16239964D+05 0.11880883D+01  1  2  2  2  6  5        2 0.109842562309D-04 0.100000000000D+01
-.113425979429D-07 0.000000000000D+00 -.632265813473D-09 0.376929002717D-06 0.000000000000D+00  6 22 1 9900012 13 2 21 2 0.64942944D-01 0.65945825D-02 0.16239964D+05 0.16239964D+05 0.16239964D+05 0.11880883D+01  1  2  3  2  6  5        2 -.534086906246D-06 0.100000000000D+01
-.344893805931D-07 0.000000000000D+00 0.000000000000D+00 0.376929002717D-06 0.000000000000D+00  6 22 1 9900012 13 2 21 2 0.64942944D-01 0.65945825D-02 0.16239964D+05 0.16239964D+05 0.16239964D+05 0.11880883D+01  1  2 15  2  6  5        2 -.162399537320D-05 0.100000000000D+01
0.485327577672D-06 0.000000000000D+00 0.000000000000D+00 0.376929002717D-06 0.000000000000D+00  6 22 1 9900012 13 2 21 2 0.64942944D-01 0.65945825D-02 0.16136602D+05 0.16136602D+05 0.16136602D+05 0.11883605D+01  1  2 12  2  6  5        2 0.228510419119D-04 0.100000000000D+01
-.184096542926D-06 0.000000000000D+00 0.000000000000D+00 0.376929002717D-06 0.000000000000D+00  6 22 1 9900012 13 2 21 2 0.64942944D-01 0.65945825D-02 0.16239964D+05 0.16239964D+05 0.16239964D+05 0.11880883D+01  1  2  4  2  6  5        2 -.866852140553D-05 0.100000000000D+01
  </mgrwgt>
  </event>
  <event>
  7     66 0.10827799E-05 0.36375540E+02 0.78161638E-02 0.11141278E+00
       22 -1    0    0    0    0 0.00000000E+00 0.00000000E+00 0.39390604E+03 0.39390604E+03 0.00000000E+00 0.0000E+00 0.9000E+01
       21 -1    0    0  501  502 0.00000000E+00 0.00000000E+00 -.21204751E+03 0.21204751E+03 0.00000000E+00 0.0000E+00 0.9000E+01
      -24  2    1    2    0    0 0.10091208E+03 0.64480366E+02 0.31937184E+03 0.35045468E+03 0.80493120E+02 0.0000E+00 0.0000E+00
  9900012  1    3    3    0    0 0.61195163E+02 0.34120451E+02 0.14088339E+03 0.16509750E+03 0.50000000E+02 0.0000E+00 0.9000E+01
       13  1    3    3    0    0 0.39716915E+02 0.30359916E+02 0.17848845E+03 0.18535718E+03 0.00000000E+00 0.0000E+00 0.9000E+01
        2  1    1    2  501    0 -.32550330E+02 -.56223403E+02 0.32083348E+02 0.72456444E+02 0.00000000E+00 0.0000E+00 0.9000E+01
       -1  1    1    2    0  502 -.68361747E+02 -.82569636E+01 -.16959665E+03 0.18304243E+03 0.00000000E+00 0.0000E+00 0.9000E+01
#aMCatNLO 2  0  0  2  5 0.69561686D+02 0.00000000D+00  -5  6  0 0.00000000D+00 0.00000000D+00 0.00000000D+00 0.00000000D+00 0.00000000D+00
  <mgrwgt>
 0.4254144447D-04    2    2    0
 0.112462838311441D+03 0.000000000000000D+00 0.000000000000000D+00 0.112462838311441D+03
 0.112462838311441D+03 0.000000000000000D+00 0.000000000000000D+00 -.112462838311441D+03
 0.704331697849772D+02 0.379060834123128D+02 0.313075168470621D+02 0.661812928017648D+01
 0.564325202821085D+02 0.214435873279406D+02 0.281528012039992D+02 0.439570437161973D+02
 0.980599865557965D+02 -.593496707402534D+02 -.594603180510613D+02 -.505751729963738D+02
 0.000000000000000D+00 -.000000000000000D+00 -.000000000000000D+00 -.000000000000000D+00
 0.119657124065133D+03 0.000000000000000D+00 0.000000000000000D+00 0.119657124065133D+03
 0.698051152005734D+03 0.000000000000000D+00 0.000000000000000D+00 -.698051152005734D+03
 0.863299064536919D+02 0.611951627931559D+02 0.341204508155038D+02 0.661812928017648D+01
 0.665686074004286D+02 0.397169147929524D+02 0.303599156503122D+02 0.439570437161973D+02
 0.823313012641738D+02 -.325503304717860D+02 -.562234028711935D+02 -.505751729963738D+02
 0.582478460952572D+03 -.683617471143223D+02 -.825696359462247D+01 -.578394027940600D+03
-.123207294607D-06 0.000000000000D+00 0.000000000000D+00 0.572116997068D-06 0.000000000000D+00  6 22 21 9900012 13 2 -1 2 0.56957349D-01 0.34709578D-01 0.18210441D+05 0.18210441D+05 0.18210441D+05 0.11832389D+01  1  2 13  3  6  2        1 -.511288073791D-05 0.100000000000D+01
0.113258220716D-05 0.000000000000D+00 0.000000000000D+00 0.572116997068D-06 0.100632308832D-08  6 22 21 9900012 13 2 -1 2 0.60600929D-01 0.32622693D-01 0.18210441D+05 0.18210441D+05 0.18210441D+05 0.11832389D+01  1  2  1  3  6  2        1 0.476543252039D-04 0.100000000000D+01
  </mgrwgt>
  </event>
  <event>
  6     66 0.10827799E-05 0.25333012E+02 0.78161638E-02 0.11996831E+00
       22 -1    0    0    0    0 0.00000000E+00 0.00000000E+00 0.20575438E+03 0.20575438E+03 0.00000000E+00 0.0000E+00 0.9000E+01
        1 -1    0    0  501    0 0.00000000E+00 0.00000000E+00 -.27067823E+03 0.27067823E+03 0.00000000E+00 0.0000E+00 0.9000E+01
      -24  2    1    2    0    0 -.79299458E+01 -.24059872E+02 0.19601447E+03 0.21426745E+03 0.82747227E+02 0.0000E+00 0.0000E+00
  9900012  1    3    3    0    0 -.20189869E+02 -.13533947E+02 0.81730025E+02 0.98846322E+02 0.50000000E+02 0.0000E+00 0.9000E+01
       13  1    3    3    0    0 0.12259923E+02 -.10525925E+02 0.11428445E+03 0.11542112E+03 0.00000000E+00 0.0000E+00 0.9000E+01
        2  1    1    2  501    0 0.79299458E+01 0.24059872E+02 -.26093832E+03 0.26216516E+03 0.00000000E+00 0.0000E+00 0.9000E+01
#aMCatNLO 1  0  0  2  5 0.12270298D+03 0.00000000D+00  -5  6  0 0.00000000D+00 0.00000000D+00 0.00000000D+00 0.00000000D+00 0.00000000D+00
  <mgrwgt>
 0.6457313201D-03    4    2    0
 0.235994131799066D+03 0.000000000000000D+00 0.000000000000000D+00 0.235994131799066D+03
 0.235994131799066D+03 0.000000000000000D+00 0.000000000000000D+00 -.235994131799066D+03
 0.111019368121509D+03 -.201898689014173D+02 -.135339469804365D+02 0.960963140342724D+02
 0.132228231802981D+03 0.122599231191231D+02 -.105259249720427D+02 0.131237206897811D+03
 0.228740663673641D+03 0.792994578229419D+01 0.240598719524792D+02 -.227333520932084D+03
 0.000000000000000D+00 0.000000000000000D+00 0.000000000000000D+00 0.000000000000000D+00
 0.293512277507518D+03 0.000000000000000D+00 0.000000000000000D+00 0.293512277507518D+03
 0.257894448822803D+03 0.000000000000000D+00 0.000000000000000D+00 -.257894448822803D+03
 0.114811292894390D+03 -.254058320349593D+02 -.283138676926938D+02 0.960963140342724D+02
 0.134323597158945D+03 0.610343176055727D+01 -.279709206163102D+02 0.131237206897811D+03
 0.227422289974292D+03 -.260595372050946D+01 -.579458738646271D+01 -.227333520932084D+03
 0.748495463026929D+02 0.219083539949115D+02 0.620793756954667D+02 0.356178286847150D+02
0.766173486388D-04 0.000000000000D+00 0.000000000000D+00 0.128620906203D-04 0.000000000000D+00  6 22 1 9900012 13 2 21 0 0.31654520D-01 0.41642804D-01 0.23564508D+04 0.23564508D+04 0.23564508D+04 0.12804026D+01  1  2  2  1  6  2        1 0.695593645398D-03 0.100000000000D+01
0.673580581364D-05 0.000000000000D+00 -.147115396292D-06 0.128620906203D-04 0.000000000000D+00  6 22 1 9900012 13 2 21 2 0.31654520D-01 0.41642804D-01 0.23564508D+04 0.23564508D+04 0.23564508D+04 0.12804026D+01  1  2  3  1  6  2        1 0.100256171535D-03 0.100000000000D+01
-.100333229274D-04 0.000000000000D+00 0.000000000000D+00 0.128620906203D-04 0.000000000000D+00  6 22 1 9900012 13 2 21 2 0.31654520D-01 0.41642804D-01 0.23564508D+04 0.23564508D+04 0.23564508D+04 0.12804026D+01  1  2 15  1  6  2        1 -.149336630584D-03 0.100000000000D+01
-.525304212134D-07 0.000000000000D+00 0.000000000000D+00 0.128620906203D-04 0.000000000000D+00  6 22 1 9900012 13 2 21 2 0.31654520D-01 0.41642804D-01 0.23564508D+04 0.23564508D+04 0.23564508D+04 0.12804026D+01  1  2  4  1  6  2        1 -.781866203641D-06 0.100000000000D+01
  </mgrwgt>
  </event>
  <event>
  6     66 0.10827799E-05 0.69709717E+02 0.78161638E-02 0.11208407E+00
       22 -1    0    0    0    0 0.00000000E+00 0.00000000E+00 0.92874258E+03 0.92874258E+03 0.00000000E+00 0.0000E+00 0.9000E+01
        1 -1    0    0  501    0 0.00000000E+00 0.00000000E+00 -.14567362E+03 0.14567362E+03 0.00000000E+00 0.0000E+00 0.9000E+01
      -24  2    1    2    0    0 -.19606464E+02 0.10309422E+03 0.90444245E+03 0.91396572E+03 0.79400000E+02 0.0000E+00 0.0000E+00
  9900012  1    3    3    0    0 -.31045456E+02 0.82556404E+02 0.59019278E+03 0.59883796E+03 0.50000000E+02 0.0000E+00 0.9000E+01
       13  1    3    3    0    0 0.11438992E+02 0.20537817E+02 0.31424966E+03 0.31512776E+03 0.00000000E+00 0.0000E+00 0.9000E+01
        2  1    1    2  501    0 0.19606464E+02 -.10309422E+03 -.12137349E+03 0.16045048E+03 0.00000000E+00 0.0000E+00 0.9000E+01
#aMCatNLO 1  0  0  2  5 0.30739304D+02 0.00000000D+00  -5  6  0 0.00000000D+00 0.00000000D+00 0.00000000D+00 0.00000000D+00 0.00000000D+00
  <mgrwgt>
 0.4212635598D-03    9    2    0
 0.367822370616576D+03 0.000000000000000D+00 0.000000000000000D+00 0.367822370616576D+03
 0.367822370616576D+03 0.000000000000000D+00 0.000000000000000D+00 -.367822370616576D+03
 0.246368321358411D+03 -.310454560058223D+02 0.825564043550838D+02 0.224539460964686D+03
 0.125738970851056D+03 0.114389917111584D+02 0.205378169726313D+02 0.123521805092516D+03
 0.363537449023685D+03 0.196064642946639D+02 -.103094221327715D+03 -.348061266057202D+03
 0.000000000000000D+00 0.000000000000000D+00 -.000000000000000D+00 -.000000000000000D+00
 0.370339809706519D+03 0.000000000000000D+00 0.000000000000000D+00 0.370339809706519D+03
 0.472459542588779D+03 0.000000000000000D+00 0.000000000000000D+00 -.472459542588779D+03
 0.249502947406668D+03 -.396216561358242D+02 0.881128571739521D+02 0.224539460964686D+03
 0.125910433553077D+03 0.708666119573977D+01 0.233576577872648D+02 0.123521805092516D+03
 0.360856462099285D+03 0.707791596756049D+01 -.949770731020187D+02 -.348061266057202D+03
 0.106529509236268D+03 0.254570789725240D+02 -.164934418591982D+02 -.102119732882260D+03
0.335376565556D-04 0.000000000000D+00 0.000000000000D+00 0.616874117378D-04 0.000000000000D+00  6 22 1 9900012 13 2 21 0 0.14288347D+00 0.22411327D-01 0.13206363D+05 0.13206363D+05 0.13206363D+05 0.11970080D+01  1  2  2  1  6  2        1 0.489485328624D-04 0.100000000000D+01
0.391712332088D-06 0.000000000000D+00 -.643967159207D-07 0.616874117378D-04 0.000000000000D+00  6 22 1 9900012 13 2 21 2 0.14288347D+00 0.22411327D-01 0.13206363D+05 0.13206363D+05 0.13206363D+05 0.11970080D+01  1  2  3  1  6  2        1 0.819159244281D-06 0.100000000000D+01
-.445895601761D-05 0.000000000000D+00 0.000000000000D+00 0.616874117378D-04 0.000000000000D+00  6 22 1 9900012 13 2 21 2 0.14288347D+00 0.22411327D-01 0.13206363D+05 0.13206363D+05 0.13206363D+05 0.11970080D+01  1  2 15  1  6  2        1 -.932468738526D-05 0.100000000000D+01
0.329654311407D-03 0.000000000000D+00 0.000000000000D+00 0.616874117378D-04 0.000000000000D+00  6 22 1 9900012 13 2 21 2 0.14288347D+00 0.28983866D-01 0.16739911D+05 0.16739911D+05 0.16739911D+05 0.11867982D+01  1  2 12  1  6  2        1 0.495583737160D-03 0.100000000000D+01
-.141652262636D-03 0.000000000000D+00 0.000000000000D+00 0.616874117378D-04 0.000000000000D+00  6 22 1 9900012 13 2 21 2 0.14288347D+00 0.22411327D-01 0.13206363D+05 0.13206363D+05 0.13206363D+05 0.11970080D+01  1  2  4  1  6  2        1 -.296226978082D-03 0.100000000000D+01
-.340846658353D-03 0.000000000000D+00 -.182018368328D-04 0.616874117378D-04 0.000000000000D+00  6 22 1 9900012 13 2 21 2 0.14288347D+00 0.28900291D-01 0.13206363D+05 0.13206363D+05 0.13206363D+05 0.11970080D+01  1  2  5  1  6  2        1 -.517722265721D-03 0.100000000000D+01
0.335153941997D-03 0.000000000000D+00 0.176288112563D-04 0.616874117378D-04 0.000000000000D+00  6 22 1 9900012 13 2 21 2 0.14288347D+00 0.22411327D-01 0.13206363D+05 0.13206363D+05 0.13206363D+05 0.11970080D+01  1  2  6  1  6  2        1 0.700882835066D-03 0.100000000000D+01
0.113913317442D-04 0.000000000000D+00 0.000000000000D+00 0.616874117378D-04 0.000000000000D+00  6 22 21 9900012 13 2 -1 2 0.14288347D+00 0.28983866D-01 0.16739911D+05 0.16739911D+05 0.16739911D+05 0.11867982D+01  1  2 12  3  6  2        1 0.116478573449D-03 0.100000000000D+01
-.113670690612D-04 0.000000000000D+00 -.623771077005D-06 0.616874117378D-04 0.000000000000D+00  6 22 21 9900012 13 2 -1 2 0.14288347D+00 0.28900291D-01 0.13206363D+05 0.13206363D+05 0.13206363D+05 0.11970080D+01  1  2  5  3  6  2        1 -.118175346746D-03 0.100000000000D+01
  </mgrwgt>
  </event>
  <event>
  6     66 0.10827799E-05 0.47091942E+02 0.78161638E-02 0.11511881E+00
       22 -1    0    0    0    0 0.00000000E+00 0.00000000E+00 0.32804142E+02 0.32804142E+02 0.00000000E+00 0.0000E+00 0.9000E+01
        1 -1    0    0  501    0 -.00000000E+00 -.00000000E+00 -.61830151E+03 0.61830151E+03 0.00000000E+00 0.0000E+00 0.9000E+01
      -24  2    1    2    0    0 0.95276133E+02 0.30221746E+02 -.12137889E+03 0.17634587E+03 0.79838171E+02 0.0000E+00 0.0000E+00
  9900012  1    3    3    0    0 0.36780965E+02 0.25226040E+02 -.48248337E+02 0.82565698E+02 0.50000000E+02 0.0000E+00 0.9000E+01
       13  1    3    3    0    0 0.58495168E+02 0.49957063E+01 -.73130557E+02 0.93780169E+02 0.00000000E+00 0.0000E+00 0.9000E+01
        2  1    1    2  501    0 -.95276133E+02 -.30221746E+02 -.46411848E+03 0.47475979E+03 0.00000000E+00 0.0000E+00 0.9000E+01
#aMCatNLO 1  0  0  5  2 0.32300711D+02 0.00000000D+00  -5  6  0 0.00000000D+00 0.00000000D+00 0.00000000D+00 0.00000000D+00 0.00000000D+00
  <mgrwgt>
 0.1258459519D-03    7    2    0
 0.142417873367641D+03 0.000000000000000D+00 0.000000000000000D+00 0.142417873367641D+03
 0.142417873367641D+03 -.000000000000000D+00 -.000000000000000D+00 -.142417873367641D+03
 0.895593990693471D+02 0.367809646032176D+02 0.252260400015828D+02 0.594280532270575D+02
 0.640476133166156D+02 0.584951683570858D+02 0.499570626805862D+01 0.256018548022245D+02
 0.131228734349319D+03 -.952761329603034D+02 -.302217462696414D+02 -.850299080292820D+02
 0.000000000000000D+00 0.000000000000000D+00 -.000000000000000D+00 0.000000000000000D+00
 0.142417873367641D+03 0.000000000000000D+00 0.000000000000000D+00 0.142417873367641D+03
 0.142417873367641D+03 -.000000000000000D+00 -.000000000000000D+00 -.142417873367641D+03
 0.851560582669234D+02 0.326859610311090D+02 0.239270981251204D+02 0.557734362070631D+02
 0.602898206860636D+02 0.555809314363776D+02 0.407130551783126D+01 0.230010219425764D+02
 0.919913835009695D+02 -.476741226429618D+02 -.352778689421458D+01 -.785948305442240D+02
 0.473984842813254D+02 -.405927698245248D+02 -.244706167487370D+02 -.179627605415465D+00
0.147526393275D-05 0.000000000000D+00 0.000000000000D+00 0.157985703087D-05 0.000000000000D+00  6 22 1 9900012 13 2 21 0 0.50467911D-02 0.95123310D-01 0.12731061D+05 0.12731061D+05 0.12731061D+05 0.11986104D+01  1  2  2  2  6  5        2 0.723181487260D-04 0.100000000000D+01
-.131609860948D-07 0.000000000000D+00 -.283270097384D-08 0.157985703087D-05 0.000000000000D+00  6 22 1 9900012 13 2 21 2 0.50467911D-02 0.95123310D-01 0.12731061D+05 0.12731061D+05 0.12731061D+05 0.11986104D+01  1  2  3  2  6  5        2 -.926876915663D-06 0.100000000000D+01
-.187730114382D-06 0.000000000000D+00 0.000000000000D+00 0.157985703087D-05 0.000000000000D+00  6 22 1 9900012 13 2 21 2 0.50467911D-02 0.95123310D-01 0.12731061D+05 0.12731061D+05 0.12731061D+05 0.11986104D+01  1  2 15  2  6  5        2 -.132210997066D-04 0.100000000000D+01
0.866326097944D-06 0.000000000000D+00 0.000000000000D+00 0.157985703087D-05 0.000000000000D+00  6 22 1 9900012 13 2 21 2 0.50467911D-02 0.95123310D-01 0.11586597D+05 0.11586597D+05 0.11586597D+05 0.12027575D+01  1  2 12  2  6  5        2 0.610855652646D-04 0.100000000000D+01
-.254120024625D-06 0.000000000000D+00 0.000000000000D+00 0.157985703087D-05 0.000000000000D+00  6 22 1 9900012 13 2 21 2 0.50467911D-02 0.95123310D-01 0.12731061D+05 0.12731061D+05 0.12731061D+05 0.11986104D+01  1  2  4  2  6  5        2 -.178966821283D-04 0.100000000000D+01
-.827109091939D-06 0.000000000000D+00 0.000000000000D+00 0.157985703087D-05 0.000000000000D+00  6 22 1 9900012 13 2 21 2 0.50467911D-02 0.95123310D-01 0.12731061D+05 0.12731061D+05 0.12731061D+05 0.11986104D+01  1  2  5  2  6  5        2 -.582500671706D-04 0.100000000000D+01
0.117480542640D-05 0.000000000000D+00 -.000000000000D+00 0.157985703087D-05 0.000000000000D+00  6 22 1 9900012 13 2 21 2 0.50467911D-02 0.95123310D-01 0.12731061D+05 0.12731061D+05 0.12731061D+05 0.11986104D+01  1  2  6  2  6  5        2 0.827369638019D-04 0.100000000000D+01
  </mgrwgt>
  </event>
  <event>
  7     66 -.10827799E-05 0.70173588E+02 0.78161638E-02 0.11751434E+00
       22 -1    0    0    0    0 0.00000000E+00 0.00000000E+00 0.27467696E+02 0.27467696E+02 0.00000000E+00 0.0000E+00 0.9000E+01
        1 -1    0    0  501    0 -.00000000E+00 -.00000000E+00 -.96624319E+03 0.96624319E+03 0.00000000E+00 0.0000E+00 0.9000E+01
      -24  2    1    2    0    0 0.25207076E+02 -.63666664E+02 -.92043331E+02 0.14010532E+03 0.80428135E+02 0.0000E+00 0.0000E+00
  9900012  1    3    3    0    0 0.40355645E+02 -.54682646E+02 -.59968788E+02 0.10351341E+03 0.50000000E+02 0.0000E+00 0.9000E+01
       13  1    3    3    0    0 -.15148569E+02 -.89840181E+01 -.32074543E+02 0.36591913E+02 0.00000000E+00 0.0000E+00 0.9000E+01
        2  1    1    2  502    0 -.20154142E+02 0.72523854E+02 -.83353993E+03 0.83693173E+03 0.00000000E+00 0.0000E+00 0.9000E+01
       21  1    1    2  501  502 -.50529338E+01 -.88571901E+01 -.13192229E+02 0.16673838E+02 0.00000000E+00 0.0000E+00 0.9000E+01
#aMCatNLO 2  0  0  5  2 0.22491869D+02 0.00000000D+00  -5  6  0 0.00000000D+00 0.00000000D+00 0.00000000D+00 0.00000000D+00 0.00000000D+00
  <mgrwgt>
 -.1076127607D-03    3    2    0
 0.162912474542717D+03 0.000000000000000D+00 0.000000000000000D+00 0.162912474542717D+03
 0.162912474542717D+03 -.000000000000000D+00 -.000000000000000D+00 -.162912474542717D+03
 0.153017036194691D+03 0.422935479660102D+02 -.595772953541672D+02 0.124803906367294D+03
 0.198220644471103D+02 -.148931315987278D+02 -.962918869998709D+01 0.885367692591100D+01
 0.152985848443634D+03 -.274004163672824D+02 0.692064840541543D+02 -.133657583293205D+03
 0.000000000000000D+00 0.000000000000000D+00 -.000000000000000D+00 0.000000000000000D+00
 0.162912474542717D+03 0.000000000000000D+00 0.000000000000000D+00 0.162912474542717D+03
 0.162912474542717D+03 -.000000000000000D+00 -.000000000000000D+00 -.162912474542717D+03
 0.142914686770975D+03 0.403556452372527D+02 -.546826458532788D+02 0.115350933393778D+03
 0.191851071418405D+02 -.151485692500408D+02 -.898401814836265D+01 0.760766742375814D+01
 0.150882576140493D+03 -.201541421681053D+02 0.725238540765708D+02 -.130765641229414D+03
 0.128425790321260D+02 -.505293381910670D+01 -.885719007492943D+01 0.780704041187841D+01
-.242597035419D-05 0.000000000000D+00 0.000000000000D+00 0.567027508716D-05 0.000000000000D+00  6 22 1 9900012 13 2 21 2 0.42257994D-02 0.14865280D+00 0.87847864D+04 0.87847864D+04 0.87847864D+04 0.12152073D+01  1  2 13  2  6  5        2 -.111717884546D-03 0.100000000000D+01
-.682139121119D-08 0.000000000000D+00 0.000000000000D+00 0.567027508716D-05 0.000000000000D+00  6 22 1 9900012 13 2 21 2 0.42257994D-02 0.14865280D+00 0.81632875D+04 0.81632875D+04 0.81632875D+04 0.12185773D+01  1  2  8  2  6  5        2 -.314675485863D-06 0.100000000000D+01
0.959765939061D-07 0.000000000000D+00 0.000000000000D+00 0.567027508716D-05 0.516999298892D-08  6 22 1 9900012 13 2 21 2 0.42257994D-02 0.14865280D+00 0.87847864D+04 0.87847864D+04 0.87847864D+04 0.12152073D+01  1  2  1  2  6  5        2 0.441979928511D-05 0.100000000000D+01
  </mgrwgt>
  </event>
  <event>
  7     66 -.10827799E-05 0.67808515E+02 0.78161638E-02 0.11869114E+00
       22 -1    0    0    0    0 0.00000000E+00 0.00000000E+00 0.55302830E+03 0.55302830E+03 0.00000000E+00 0.0000E+00 0.9000E+01
        3 -1    0    0  502    0 0.00000000E+00 0.00000000E+00 -.16484506E+02 0.16484506E+02 0.00000000E+00 0.0000E+00 0.9000E+01
      -24  2    1    2    0    0 0.28421294E+02 0.62484782E+02 0.42216162E+03 0.43601056E+03 0.84691558E+02 0.0000E+00 0.0000E+00
  9900012  1    3    3    0    0 -.70267749E+01 0.30567907E+02 0.18829620E+03 0.19733026E+03 0.50000000E+02 0.0000E+00 0.9000E+01
       13  1    3    3    0    0 0.35448069E+02 0.31916874E+02 0.23386543E+03 0.23868031E+03 0.00000000E+00 0.0000E+00 0.9000E+01
        4  1    1    2  501    0 -.24692722E+02 -.57345726E+02 0.10534971E+03 0.12246152E+03 0.00000000E+00 0.0000E+00 0.9000E+01
       21  1    1    2  502  501 -.37285721E+01 -.51390554E+01 0.90324675E+01 0.11040725E+02 0.00000000E+00 0.0000E+00 0.9000E+01
#aMCatNLO 2  0  0  2  5 0.72334398D+01 0.00000000D+00  -5  6  0 0.00000000D+00 0.00000000D+00 0.00000000D+00 0.00000000D+00 0.00000000D+00
  <mgrwgt>
 -.6370774336D-04    3    2    0
 0.916277169193802D+02 0.000000000000000D+00 0.000000000000000D+00 0.916277169193802D+02
 0.916277169193802D+02 0.000000000000000D+00 0.000000000000000D+00 -.916277169193802D+02
 0.586294885877659D+02 -.822621305695133D+01 0.289147332662228D+02 0.580383932822118D+01
 0.525683436570394D+02 0.343627109273901D+02 0.304209348623701D+02 0.256359430227300D+02
 0.720576015939550D+02 -.261364978704388D+02 -.593356681285929D+02 -.314397823509511D+02
 0.000000000000000D+00 -.000000000000000D+00 -.000000000000000D+00 -.000000000000000D+00
 0.933773472761626D+02 0.000000000000000D+00 0.000000000000000D+00 0.933773472761626D+02
 0.976296578808894D+02 0.000000000000000D+00 0.000000000000000D+00 -.976296578808894D+02
 0.593081535877849D+02 -.702677492187611D+01 0.305679074396951D+02 0.580383932822118D+01
 0.541521379779452D+02 0.354480693685573D+02 0.319168740787644D+02 0.256359430227300D+02
 0.699050982204285D+02 -.246927223906632D+02 -.573457261168626D+02 -.314397823509511D+02
 0.764161537089336D+01 -.372857205601806D+01 -.513905540159694D+01 -.425231060472683D+01
-.882055848298D-06 0.000000000000D+00 0.000000000000D+00 0.243465983244D-07 0.000000000000D+00  6 22 3 9900012 13 4 21 2 0.83487092D-01 0.25845042D-02 0.77007954D+04 0.77007954D+04 0.77007954D+04 0.12212767D+01  1  2 13  1  6  2        3 -.789017818089D-04 0.100000000000D+01
-.120328739844D-07 0.000000000000D+00 0.000000000000D+00 0.243465983244D-07 0.000000000000D+00  6 22 3 9900012 13 4 21 2 0.83487092D-01 0.23801684D-02 0.71463521D+04 0.71463521D+04 0.71463521D+04 0.12247606D+01  1  2  8  1  6  2        3 -.121016479685D-05 0.100000000000D+01
0.184733625545D-06 0.000000000000D+00 0.000000000000D+00 0.243465983244D-07 0.867751850629D-07  6 22 3 9900012 13 4 21 2 0.85081278D-01 0.25360779D-02 0.77007954D+04 0.77007954D+04 0.77007954D+04 0.12212767D+01  1  2  1  1  6  2        3 0.164042032458D-04 0.100000000000D+01
  </mgrwgt>
  </event>
  <event>
  7     66 -.10827799E-05 0.18788644E+02 0.78161638E-02 0.12243520E+00
       22 -1    0    0    0    0 0.00000000E+00 0.00000000E+00 0.77632876E+02 0.77632876E+02 0.00000000E+00 0.0000E+00 0.9000E+01
        1 -1    0    0  501    0 -.00000000E+00 -.00000000E+00 -.12673493E+03 0.12673493E+03 0.00000000E+00 0.0000E+00 0.9000E+01
      -24  2    1    2    0    0 0.42500205E+02 0.40880307E+02 0.22663634E+02 0.10134575E+03 0.79245523E+02 0.0000E+00 0.0000E+00
  9900012  1    3    3    0    0 0.24839819E+02 0.27177062E+02 0.39296255E+02 0.73483365E+02 0.50000000E+02 0.0000E+00 0.9000E+01
       13  1    3    3    0    0 0.17660386E+02 0.13703245E+02 -.16632621E+02 0.27862380E+02 0.00000000E+00 0.0000E+00 0.9000E+01
        2  1    1    2  502    0 -.17967448E+02 -.19984504E+02 -.64660025E+02 0.70022342E+02 0.00000000E+00 0.0000E+00 0.9000E+01
       21  1    1    2  501  502 -.24532757E+02 -.20895803E+02 -.71056573E+01 0.32999714E+02 0.00000000E+00 0.0000E+00 0.9000E+01
#aMCatNLO 2  0  0  5  2 0.21450970D+02 0.00000000D+00  -5  6  0 0.00000000D+00 0.00000000D+00 0.00000000D+00 0.00000000D+00 0.00000000D+00
  <mgrwgt>
 -.1121405090D-03    2    2    0
 0.991907091912568D+02 0.000000000000000D+00 0.000000000000000D+00 0.991907091912568D+02
 0.991907091912568D+02 -.000000000000000D+00 -.000000000000000D+00 -.991907091912568D+02
 0.897135893786127D+02 0.278973240068239D+02 0.301180299011546D+02 0.621544182446089D+02
 0.253048444380777D+02 0.185313578671634D+02 0.145410190382478D+02 -.924568509975062D+01
 0.833629845658232D+02 -.464286818739873D+02 -.446590489394023D+02 -.529087331448583D+02
 0.000000000000000D+00 -.000000000000000D+00 0.000000000000000D+00 0.000000000000000D+00
 0.991907091912568D+02 0.000000000000000D+00 0.000000000000000D+00 0.991907091912568D+02
 0.991907091912568D+02 -.000000000000000D+00 -.000000000000000D+00 -.991907091912568D+02
 0.854271561062478D+02 0.248398189894114D+02 0.271770619327834D+02 0.586701772425835D+02
 0.245863634324450D+02 0.176603862496418D+02 0.137032445738057D+02 -.102382182285883D+02
 0.561311263741429D+02 -.179674480743908D+02 -.199845036879991D+02 -.492797501015216D+02
 0.322367724696778D+02 -.245327571646624D+02 -.208958028185901D+02 0.847791087526467D+00
-.935411434769D-06 0.000000000000D+00 0.000000000000D+00 0.677992779097D-06 0.000000000000D+00  6 22 1 9900012 13 2 21 2 0.11943519D-01 0.19497681D-01 0.51513916D+04 0.51513916D+04 0.51513916D+04 0.12403895D+01  1  2 13  2  6  5        2 -.148127559196D-03 0.100000000000D+01
0.227254796268D-06 0.000000000000D+00 0.000000000000D+00 0.677992779097D-06 0.138060402340D-08  6 22 1 9900012 13 2 21 2 0.11943519D-01 0.19497681D-01 0.51513916D+04 0.51513916D+04 0.51513916D+04 0.12403895D+01  1  2  1  2  6  5        2 0.359870502279D-04 0.100000000000D+01
  </mgrwgt>
  </event>
  <event>
  6     66 0.10827799E-05 0.13822358E+03 0.78161638E-02 0.11024542E+00
       22 -1    0    0    0    0 0.00000000E+00 0.00000000E+00 0.21036576E+03 0.21036576E+03 0.00000000E+00 0.0000E+00 0.9000E+01
        3 -1    0    0  501    0 0.00000000E+00 0.00000000E+00 -.13729335E+03 0.13729335E+03 0.00000000E+00 0.0000E+00 0.9000E+01
      -24  2    1    2    0    0 0.17840703E+02 0.13706738E+03 0.12263560E+03 0.20081815E+03 0.78630036E+02 0.0000E+00 0.0000E+00
  9900012  1    3    3    0    0 0.42449984E+01 0.12360025E+03 0.12332347E+03 0.18166926E+03 0.50000000E+02 0.0000E+00 0.9000E+01
       13  1    3    3    0    0 0.13595705E+02 0.13467132E+02 -.68787469E+00 0.19148891E+02 0.00000000E+00 0.0000E+00 0.9000E+01
        4  1    1    2  501    0 -.17840703E+02 -.13706738E+03 -.49563184E+02 0.14684096E+03 0.00000000E+00 0.0000E+00 0.9000E+01
#aMCatNLO 1  0  0  2  2 0.19462570D+03 0.00000000D+00  -5  6  0 0.00000000D+00 0.00000000D+00 0.00000000D+00 0.00000000D+00 0.00000000D+00
  <mgrwgt>
 0.4363155711D-05    1    2    0
 0.169946522905521D+03 0.000000000000000D+00 0.000000000000000D+00 0.169946522905521D+03
 0.169946522905521D+03 0.000000000000000D+00 0.000000000000000D+00 -.169946522905521D+03
 0.159307264947845D+03 0.424499836348720D+01 0.123600251908245D+03 0.870847999496770D+02
 0.197342992121056D+02 0.135957048571800D+02 0.134671323501154D+02 -.482034449949766D+01
 0.160851481651091D+03 -.178407032206672D+02 -.137067384258360D+03 -.822644554501793D+02
 0.000000000000000D+00 -.000000000000000D+00 0.000000000000000D+00 0.000000000000000D+00
 0.321060524484567D+03 0.000000000000000D+00 0.000000000000000D+00 0.321060524484567D+03
 0.213018931048594D+03 0.000000000000000D+00 0.000000000000000D+00 -.213018931048594D+03
 0.136002668649437D+03 0.404843011351551D+02 0.823042213928998D+02 0.870847999496770D+02
 0.207044079708756D+02 0.185581879523046D+02 0.781219868267286D+01 -.482034449949766D+01
 0.207560035201742D+03 0.273693455615257D+02 -.188585912798299D+03 -.822644554501793D+02
 0.169812343711106D+03 -.864118346489854D+02 0.984694927227263D+02 0.108041593435974D+03
0.266269671783D-06 0.000000000000D+00 0.000000000000D+00 0.389476169863D-06 0.000000000000D+00  6 22 3 9900012 13 4 21 2 0.32363964D-01 0.21122054D-01 0.21135079D+05 0.21135079D+05 0.21135079D+05 0.11770237D+01  1  2 14  1  6  2        3 0.436315571095D-05 0.100000000000D+01
  </mgrwgt>
  </event>
  <event>
  6     66 -.10827799E-05 0.47780546E+02 0.78161638E-02 0.12210315E+00
       22 -1    0    0    0    0 0.00000000E+00 0.00000000E+00 0.10126285E+04 0.10126285E+04 0.00000000E+00 0.0000E+00 0.9000E+01
        1 -1    0    0  501    0 0.00000000E+00 0.00000000E+00 -.11238601E+02 0.11238601E+02 0.00000000E+00 0.0000E+00 0.9000E+01
      -24  2    1    2    0    0 0.51105554E+02 -.93458570E+00 0.93513487E+03 0.94018687E+03 0.82833964E+02 0.0000E+00 0.0000E+00
  9900012  1    3    3    0    0 0.74780626E+01 0.54410403E+01 0.39581369E+03 0.39906641E+03 0.50000000E+02 0.0000E+00 0.9000E+01
       13  1    3    3    0    0 0.43627491E+02 -.63756260E+01 0.53932119E+03 0.54112046E+03 0.00000000E+00 0.0000E+00 0.9000E+01
        2  1    1    2  501    0 -.51105554E+02 0.93458570E+00 0.66254978E+02 0.83680184E+02 0.00000000E+00 0.0000E+00 0.9000E+01
#aMCatNLO 1  0  0  2  2 0.19462570D+03 0.00000000D+00  -5  6  0 0.00000000D+00 0.00000000D+00 0.00000000D+00 0.00000000D+00 0.00000000D+00
  <mgrwgt>
 -.4525974270D-05    1    2    0
 0.106679551623532D+03 0.000000000000000D+00 0.000000000000000D+00 0.106679551623532D+03
 0.106679551623532D+03 0.000000000000000D+00 0.000000000000000D+00 -.106679551623532D+03
 0.573078045273336D+02 0.747806257632691D+01 0.544104030703244D+01 0.264321418016940D+02
 0.654513646326422D+02 0.436274912648918D+02 -.637562600849070D+01 0.483722495983672D+02
 0.905999340870877D+02 -.511055538412187D+02 0.934585701458257D+00 -.748043914000612D+02
 0.000000000000000D+00 0.000000000000000D+00 0.000000000000000D+00 0.000000000000000D+00
 0.131025684723801D+03 0.000000000000000D+00 0.000000000000000D+00 0.131025684723801D+03
 0.128807702802123D+03 0.000000000000000D+00 0.000000000000000D+00 -.128807702802123D+03
 0.566365559924104D+02 -.281014953785594D+01 0.106977288779803D+01 0.264321418016940D+02
 0.592624386912758D+02 0.323668895439262D+02 -.111600434444391D+02 0.483722495983672D+02
 0.101606880608237D+03 -.684602036927512D+02 -.643907792700112D+01 -.748043914000612D+02
 0.423275122340007D+02 0.389034636866809D+02 0.165293484836422D+02 0.221798192167893D+01
-.887280455922D-07 0.000000000000D+00 0.000000000000D+00 0.254635641275D-06 0.000000000000D+00  6 22 1 9900012 13 2 21 2 0.15578899D+00 0.17290155D-02 0.53328741D+04 0.53328741D+04 0.53328741D+04 0.12387064D+01  1  2 14  1  6  2        1 -.452597427023D-05 0.100000000000D+01
  </mgrwgt>
  </event>
  <event>
  7     66 -.10827799E-05 0.10807584E+03 0.78161638E-02 0.11087871E+00
       22 -1    0    0    0    0 0.00000000E+00 0.00000000E+00 0.24053530E+04 0.24053530E+04 0.00000000E+00 0.0000E+00 0.9000E+01
        1 -1    0    0  502    0 0.00000000E+00 0.00000000E+00 -.14236061E+02 0.14236061E+02 0.00000000E+00 0.0000E+00 0.9000E+01
      -24  2    1    2    0    0 -.16648243E+02 -.90426173E+02 0.18435669E+04 0.18475474E+04 0.78982812E+02 0.0000E+00 0.0000E+00
  9900012  1    3    3    0    0 -.76332388E+01 -.45852485E+02 0.77093302E+03 0.77394990E+03 0.50000000E+02 0.0000E+00 0.9000E+01
       13  1    3    3    0    0 -.90150041E+01 -.44573688E+02 0.10726339E+04 0.10735975E+04 0.00000000E+00 0.0000E+00 0.9000E+01
        2  1    1    2  501    0 0.56982073E+01 0.12707115E+03 0.41054902E+03 0.42980233E+03 0.00000000E+00 0.0000E+00 0.9000E+01
       21  1    1    2  502  501 0.10950036E+02 -.36644974E+02 0.13700093E+03 0.14223928E+03 0.00000000E+00 0.0000E+00 0.9000E+01
#aMCatNLO 2  0  0  2  5 0.43866300D+02 0.00000000D+00  -5  6  0 0.00000000D+00 0.00000000D+00 0.00000000D+00 0.00000000D+00 0.00000000D+00
  <mgrwgt>
 -.4755073872D-04    2    2    0
 0.161105779960536D+03 0.000000000000000D+00 0.000000000000000D+00 0.161105779960536D+03
 0.161105779960536D+03 0.000000000000000D+00 0.000000000000000D+00 -.161105779960536D+03
 0.818680698117510D+02 -.495375205313400D+01 -.548195532209661D+02 0.342440911684259D+02
 0.889181273038957D+02 -.609436345762401D+01 -.543477932476414D+02 0.701114075339370D+02
 0.151425362805426D+03 0.110481155107580D+02 0.109167346468608D+03 -.104355498702363D+03
 0.000000000000000D+00 0.000000000000000D+00 -.000000000000000D+00 -.000000000000000D+00
 0.172234178574979D+03 0.000000000000000D+00 0.000000000000000D+00 0.172234178574979D+03
 0.198815070448503D+03 0.000000000000000D+00 0.000000000000000D+00 -.198815070448503D+03
 0.763765308203899D+02 -.763323876921557D+01 -.458524846229584D+02 0.342440911684259D+02
 0.835684954348715D+02 -.901500411445554D+01 -.445736880196678D+02 0.701114075339370D+02
 0.164528465294146D+03 0.569820731859204D+01 0.127071146276337D+03 -.104355498702363D+03
 0.465757574740752D+02 0.109500355650791D+02 -.366449736337111D+02 -.265808918735244D+02
-.157939149745D-04 0.000000000000D+00 0.000000000000D+00 0.126368440993D-05 0.000000000000D+00  6 22 1 9900012 13 2 21 2 0.34614434D+00 0.23414489D-02 0.19486832D+05 0.19486832D+05 0.19486832D+05 0.11803995D+01  1  2 13  1  6  2        1 -.595140255010D-04 0.100000000000D+01
0.372166978111D-05 0.000000000000D+00 0.000000000000D+00 0.126368440993D-05 0.128829797619D-08  6 22 1 9900012 13 2 21 2 0.37005430D+00 0.21901632D-02 0.19486832D+05 0.19486832D+05 0.19486832D+05 0.11803995D+01  1  2  1  1  6  2        1 0.119632867803D-04 0.100000000000D+01
  </mgrwgt>
  </event>
  <event>
  6     66 0.10827799E-05 0.51838667E+02 0.78161638E-02 0.11881570E+00
       22 -1    0    0    0    0 0.00000000E+00 0.00000000E+00 0.45469033E+02 0.45469033E+02 0.00000000E+00 0.0000E+00 0.9000E+01
        1 -1    0    0  501    0 0.00000000E+00 0.00000000E+00 -.31694208E+04 0.31694208E+04 0.00000000E+00 0.0000E+00 0.9000E+01
      -24  2    1    2    0    0 0.41562885E+02 0.35043039E+02 -.67327578E+01 0.97196802E+02 0.80289478E+02 0.0000E+00 0.0000E+00
  9900012  1    3    3    0    0 0.42501425E+02 0.96912871E+01 -.19021523E+02 0.69008046E+02 0.50000000E+02 0.0000E+00 0.9000E+01
       13  1    3    3    0    0 -.93853963E+00 0.25351752E+02 0.12288765E+02 0.28188755E+02 0.00000000E+00 0.0000E+00 0.9000E+01
        2  1    1    2  501    0 -.41562885E+02 -.35043039E+02 -.31172190E+04 0.31176930E+04 0.00000000E+00 0.0000E+00 0.9000E+01
#aMCatNLO 1  0  0  2  5 0.33314743D+02 0.00000000D+00  -5  6  0 0.00000000D+00 0.00000000D+00 0.00000000D+00 0.00000000D+00 0.00000000D+00
  <mgrwgt>
 0.2474124038D-02    9    2    0
 0.379618885904021D+03 0.000000000000000D+00 0.000000000000000D+00 0.379618885904021D+03
 0.379618885904021D+03 0.000000000000000D+00 0.000000000000000D+00 -.379618885904021D+03
 0.213939494662494D+03 0.425014245386756D+02 0.969128705538972D+01 0.203395710976993D+03
 0.169924701807255D+03 -.938539628784063D+00 0.253517517474433D+02 0.168020272916650D+03
 0.375373575338293D+03 -.415628849098916D+02 -.350430388028330D+02 -.371415983893644D+03
 0.000000000000000D+00 -.000000000000000D+00 -.000000000000000D+00 -.000000000000000D+00
 0.382262740730446D+03 0.000000000000000D+00 0.000000000000000D+00 0.382262740730446D+03
 0.498288151390703D+03 0.000000000000000D+00 0.000000000000000D+00 -.498288151390703D+03
 0.216024145941908D+03 0.517099458431047D+02 0.110769078265284D+02 0.203395710976993D+03
 0.170207446490545D+03 0.634606269135329D+01 0.264478773848366D+02 0.168020272916650D+03
 0.373718788523141D+03 -.255195911515947D+02 -.326289790060356D+02 -.371415983893644D+03
 0.120600511165555D+03 -.325364173828633D+02 -.489580620532939D+01 -.116025410660257D+03
0.679814271198D-03 0.000000000000D+00 0.000000000000D+00 0.314078805441D-03 0.000000000000D+00  6 22 1 9900012 13 2 21 0 0.69952359D-02 0.48760320D+00 0.53339809D+04 0.53339809D+04 0.53339809D+04 0.12386963D+01  1  2  2  1  6  2        1 0.340458624124D-03 0.100000000000D+01
0.250534914887D-04 0.000000000000D+00 -.130533290030D-05 0.314078805441D-03 0.000000000000D+00  6 22 1 9900012 13 2 21 2 0.69952359D-02 0.48760320D+00 0.53339809D+04 0.53339809D+04 0.53339809D+04 0.12386963D+01  1  2  3  1  6  2        1 0.192518296398D-04 0.100000000000D+01
-.922916970299D-04 0.000000000000D+00 0.000000000000D+00 0.314078805441D-03 0.000000000000D+00  6 22 1 9900012 13 2 21 2 0.69952359D-02 0.48760320D+00 0.53339809D+04 0.53339809D+04 0.53339809D+04 0.12386963D+01  1  2 15  1  6  2        1 -.709196172993D-04 0.100000000000D+01
0.276602996991D-02 0.000000000000D+00 0.000000000000D+00 0.314078805441D-03 0.000000000000D+00  6 22 1 9900012 13 2 21 2 0.69952359D-02 0.64448595D+00 0.75953450D+04 0.75953450D+04 0.75953450D+04 0.12219174D+01  1  2 12  1  6  2        1 0.317343952315D-03 0.100000000000D+01
-.386888953288D-03 0.000000000000D+00 0.000000000000D+00 0.314078805441D-03 0.000000000000D+00  6 22 1 9900012 13 2 21 2 0.69952359D-02 0.48760320D+00 0.53339809D+04 0.53339809D+04 0.53339809D+04 0.12386963D+01  1  2  4  1  6  2        1 -.297296695017D-03 0.100000000000D+01
-.345101793094D-02 0.000000000000D+00 -.182569554305D-03 0.314078805441D-03 0.000000000000D+00  6 22 1 9900012 13 2 21 2 0.69952359D-02 0.64072921D+00 0.53339809D+04 0.53339809D+04 0.53339809D+04 0.12386963D+01  1  2  5  1  6  2        1 -.431200218986D-03 0.100000000000D+01
0.338062216313D-02 0.000000000000D+00 0.175966324198D-03 0.314078805441D-03 0.000000000000D+00  6 22 1 9900012 13 2 21 2 0.69952359D-02 0.48760320D+00 0.53339809D+04 0.53339809D+04 0.53339809D+04 0.12386963D+01  1  2  6  1  6  2        1 0.259776813904D-02 0.100000000000D+01
0.101430884209D-03 0.000000000000D+00 0.000000000000D+00 0.314078805441D-03 0.000000000000D+00  6 22 21 9900012 13 2 -1 2 0.69952359D-02 0.64448595D+00 0.75953450D+04 0.75953450D+04 0.75953450D+04 0.12219174D+01  1  2 12  3  6  2        1 0.347342391484D-05 0.100000000000D+01
-.121082664431D-03 0.000000000000D+00 -.659241879129D-05 0.314078805441D-03 0.000000000000D+00  6 22 21 9900012 13 2 -1 2 0.69952359D-02 0.64072921D+00 0.53339809D+04 0.53339809D+04 0.53339809D+04 0.12386963D+01  1  2  5  3  6  2        1 -.475539926387D-05 0.100000000000D+01
  </mgrwgt>
  </event>
  <event>
  6     66 0.10827799E-05 0.11591600E+03 0.78161638E-02 0.10653186E+00
       22 -1    0    0    0    0 0.00000000E+00 0.00000000E+00 0.71132679E+03 0.71132679E+03 0.00000000E+00 0.0000E+00 0.9000E+01
        1 -1    0    0  501    0 0.00000000E+00 0.00000000E+00 -.99089588E+02 0.99089588E+02 0.00000000E+00 0.0000E+00 0.9000E+01
      -24  2    1    2    0    0 -.15073990E+03 -.78198370E+02 0.61260208E+03 0.64059991E+03 0.79053335E+02 0.0000E+00 0.0000E+00
  9900012  1    3    3    0    0 -.94748895E+02 -.33337255E+02 0.31220998E+03 0.33175864E+03 0.50000000E+02 0.0000E+00 0.9000E+01
       13  1    3    3    0    0 -.55991002E+02 -.44861114E+02 0.30039211E+03 0.30884127E+03 0.00000000E+00 0.0000E+00 0.9000E+01
        2  1    1    2  501    0 0.15073990E+03 0.78198370E+02 -.36487598E+00 0.16981647E+03 0.00000000E+00 0.0000E+00 0.9000E+01
#aMCatNLO 1  0  0  5  2 0.32278988D+02 0.00000000D+00  -5  6  0 0.00000000D+00 0.00000000D+00 0.00000000D+00 0.00000000D+00 0.00000000D+00
  <mgrwgt>
 0.1073291598D-03    5    2    0
 0.265490261318123D+03 0.000000000000000D+00 0.000000000000000D+00 0.265490261318123D+03
 0.265490261318123D+03 -.000000000000000D+00 -.000000000000000D+00 -.265490261318123D+03
 0.146363321491973D+03 -.947488949277187D+02 -.333372553029067D+02 0.939866809553758D+02
 0.125011741087271D+03 -.559910021704141D+02 -.448611142683525D+02 0.102373939614657D+03
 0.259605460057001D+03 0.150739897098133D+03 0.781983695712592D+02 -.196360620570033D+03
 0.000000000000000D+00 0.000000000000000D+00 -.000000000000000D+00 0.000000000000000D+00
 0.265490261318123D+03 0.000000000000000D+00 0.000000000000000D+00 0.265490261318123D+03
 0.265490261318123D+03 -.000000000000000D+00 -.000000000000000D+00 -.265490261318123D+03
 0.140086310975162D+03 -.908169011706991D+02 -.312974801214023D+02 0.888646877135785D+02
 0.119311155225903D+03 -.526372673629150D+02 -.431213187731355D+02 0.980052126836632D+02
 0.247135729598683D+03 0.147385618578734D+03 0.949428227549567D+02 -.174182113570131D+03
 0.244473268364971D+02 -.393145004512006D+01 -.205240238604190D+02 -.126877868271102D+02
0.981519896604D-05 0.000000000000D+00 0.000000000000D+00 0.261071618989D-05 0.000000000000D+00  6 22 1 9900012 13 2 21 0 0.10943489D+00 0.15244552D-01 0.31286841D+05 0.31286841D+05 0.31286841D+05 0.11611162D+01  1  2  2  2  6  5        2 0.427398653510D-04 0.100000000000D+01
-.559142083189D-07 0.000000000000D+00 -.188464742154D-07 0.261071618989D-05 0.000000000000D+00  6 22 1 9900012 13 2 21 2 0.10943489D+00 0.15244552D-01 0.31286841D+05 0.31286841D+05 0.31286841D+05 0.11611162D+01  1  2  3  2  6  5        2 -.328252150942D-06 0.100000000000D+01
-.137838104885D-05 0.000000000000D+00 0.000000000000D+00 0.261071618989D-05 0.000000000000D+00  6 22 1 9900012 13 2 21 2 0.10943489D+00 0.15244552D-01 0.31286841D+05 0.31286841D+05 0.31286841D+05 0.11611162D+01  1  2 15  2  6  5        2 -.809197800894D-05 0.100000000000D+01
0.143319644769D-04 0.000000000000D+00 0.000000000000D+00 0.261071618989D-05 0.000000000000D+00  6 22 1 9900012 13 2 21 2 0.10943489D+00 0.15244552D-01 0.34699002D+05 0.34699002D+05 0.34699002D+05 0.11570302D+01  1  2 12  2  6  5        2 0.840270691422D-04 0.100000000000D+01
-.187671970850D-05 0.000000000000D+00 0.000000000000D+00 0.261071618989D-05 0.000000000000D+00  6 22 1 9900012 13 2 21 2 0.10943489D+00 0.15244552D-01 0.31286841D+05 0.31286841D+05 0.31286841D+05 0.11611162D+01  1  2  4  2  6  5        2 -.110175445482D-04 0.100000000000D+01
  </mgrwgt>
  </event>
  <event>
  6     66 0.10827799E-05 0.59864914E+02 0.78161638E-02 0.10688944E+00
       22 -1    0    0    0    0 0.00000000E+00 0.00000000E+00 0.19530870E+04 0.19530870E+04 0.00000000E+00 0.0000E+00 0.9000E+01
        1 -1    0    0  501    0 0.00000000E+00 0.00000000E+00 -.39697120E+03 0.39697120E+03 0.00000000E+00 0.0000E+00 0.9000E+01
      -24  2    1    2    0    0 0.43478741E+02 -.14712680E+03 0.19342278E+04 0.19420075E+04 0.81357463E+02 0.0000E+00 0.0000E+00
  9900012  1    3    3    0    0 0.87679364E+01 -.80669050E+02 0.88923642E+03 0.89432980E+03 0.50000000E+02 0.0000E+00 0.9000E+01
       13  1    3    3    0    0 0.34710804E+02 -.66457753E+02 0.10449914E+04 0.10476777E+04 0.00000000E+00 0.0000E+00 0.9000E+01
        2  1    1    2  501    0 -.43478741E+02 0.14712680E+03 -.37811202E+03 0.40805073E+03 0.00000000E+00 0.0000E+00 0.9000E+01
#aMCatNLO 1  0  0  2  5 0.40860488D+02 0.00000000D+00  -5  6  0 0.00000000D+00 0.00000000D+00 0.00000000D+00 0.00000000D+00 0.00000000D+00
  <mgrwgt>
 0.6901643782D-03    9    2    0
 0.880522165661841D+03 0.000000000000000D+00 0.000000000000000D+00 0.880522165661841D+03
 0.880522165661841D+03 0.000000000000000D+00 0.000000000000000D+00 -.880522165661841D+03
 0.407696847681636D+03 0.876793642935552D+01 -.806690499254750D+02 0.396399227149140D+03
 0.474704611023128D+03 0.347108044887906D+02 -.664577525485031D+02 0.468746194549420D+03
 0.878642872618917D+03 -.434787409181461D+02 0.147126802473978D+03 -.865145421698560D+03
 0.000000000000000D+00 0.000000000000000D+00 0.000000000000000D+00 -.000000000000000D+00
 0.883417865712485D+03 0.000000000000000D+00 0.000000000000000D+00 0.883417865712485D+03
 0.103434915316548D+04 0.000000000000000D+00 0.000000000000000D+00 -.103434915316548D+04
 0.409504999757819D+03 0.587424066258927D+01 -.895962657640054D+02 0.396399227149140D+03
 0.476036155173553D+03 0.313442500211818D+02 -.768437643434120D+02 0.468746194549420D+03
 0.875967713336704D+03 -.496917827031247D+02 0.127959215588956D+03 -.865145421698560D+03
 0.156258150609892D+03 0.124732920193536D+02 0.384808145184612D+02 -.150931287452998D+03
0.548445058527D-03 0.000000000000D+00 0.000000000000D+00 0.418509239587D-03 0.000000000000D+00  6 22 1 9900012 13 2 21 0 0.30047492D+00 0.61072492D-01 0.26196264D+05 0.26196264D+05 0.26196264D+05 0.11682345D+01  1  2  2  1  6  2        1 0.333083442222D-04 0.100000000000D+01
0.544854077343D-05 0.000000000000D+00 -.105308671682D-05 0.418509239587D-03 0.000000000000D+00  6 22 1 9900012 13 2 21 2 0.30047492D+00 0.61072492D-01 0.26196264D+05 0.26196264D+05 0.26196264D+05 0.11682345D+01  1  2  3  1  6  2        1 0.451606460144D-06 0.100000000000D+01
-.733466477097D-04 0.000000000000D+00 0.000000000000D+00 0.418509239587D-03 0.000000000000D+00  6 22 1 9900012 13 2 21 2 0.30047492D+00 0.61072492D-01 0.26196264D+05 0.26196264D+05 0.26196264D+05 0.11682345D+01  1  2 15  1  6  2        1 -.607939287105D-05 0.100000000000D+01
0.101315785277D-01 0.000000000000D+00 0.000000000000D+00 0.418509239587D-03 0.000000000000D+00  6 22 1 9900012 13 2 21 2 0.30047492D+00 0.71977771D-01 0.33030009D+05 0.33030009D+05 0.33030009D+05 0.11589704D+01  1  2 12  1  6  2        1 0.667129053254D-03 0.100000000000D+01
-.197756805631D-02 0.000000000000D+00 0.000000000000D+00 0.418509239587D-03 0.000000000000D+00  6 22 1 9900012 13 2 21 2 0.30047492D+00 0.61072492D-01 0.26196264D+05 0.26196264D+05 0.26196264D+05 0.11682345D+01  1  2  4  1  6  2        1 -.163912237559D-03 0.100000000000D+01
-.103557817958D-01 0.000000000000D+00 -.419873812609D-03 0.418509239587D-03 0.000000000000D+00  6 22 1 9900012 13 2 21 2 0.30047492D+00 0.71852177D-01 0.26196264D+05 0.26196264D+05 0.26196264D+05 0.11682345D+01  1  2  5  1  6  2        1 -.692620171261D-03 0.100000000000D+01
0.102932334946D-01 0.000000000000D+00 0.414387216839D-03 0.418509239587D-03 0.000000000000D+00  6 22 1 9900012 13 2 21 2 0.30047492D+00 0.61072492D-01 0.26196264D+05 0.26196264D+05 0.26196264D+05 0.11682345D+01  1  2  6  1  6  2        1 0.853162513644D-03 0.100000000000D+01
0.248633653583D-03 0.000000000000D+00 0.000000000000D+00 0.418509239587D-03 0.000000000000D+00  6 22 21 9900012 13 2 -1 2 0.30047492D+00 0.71977771D-01 0.33030009D+05 0.33030009D+05 0.33030009D+05 0.11589704D+01  1  2 12  3  6  2        1 0.535155519474D-04 0.100000000000D+01
-.248616636188D-03 0.000000000000D+00 -.102165257056D-04 0.418509239587D-03 0.000000000000D+00  6 22 21 9900012 13 2 -1 2 0.30047492D+00 0.71852177D-01 0.26196264D+05 0.26196264D+05 0.26196264D+05 0.11682345D+01  1  2  5  3  6  2        1 -.547908896573D-04 0.100000000000D+01
  </mgrwgt>
  </event>
  <event>
  6     66 0.10827799E-05 0.96401686E+02 0.78161638E-02 0.11132360E+00
       22 -1    0    0    0    0 0.00000000E+00 0.00000000E+00 0.48186959E+03 0.48186959E+03 0.00000000E+00 0.0000E+00 0.9000E+01
        1 -1    0    0  501    0 0.00000000E+00 0.00000000E+00 -.21098798E+04 0.21098798E+04 0.00000000E+00 0.0000E+00 0.9000E+01
      -24  2    1    2    0    0 -.29251350E+01 0.11785729E+03 0.46898249E+03 0.49144530E+03 0.87607178E+02 0.0000E+00 0.0000E+00
  9900012  1    3    3    0    0 0.33845044E+01 0.74808850E+02 0.20503063E+03 0.22393163E+03 0.50000000E+02 0.0000E+00 0.9000E+01
       13  1    3    3    0    0 -.63096394E+01 0.43048443E+02 0.26395186E+03 0.26751367E+03 0.00000000E+00 0.0000E+00 0.9000E+01
        2  1    1    2  501    0 0.29251350E+01 -.11785729E+03 -.20969927E+04 0.21003041E+04 0.00000000E+00 0.0000E+00 0.9000E+01
#aMCatNLO 1  0  0  2  5 0.19841563D+02 0.00000000D+00  -5  6  0 0.00000000D+00 0.00000000D+00 0.00000000D+00 0.00000000D+00 0.00000000D+00
  <mgrwgt>
 0.2822198051D-02    9    2    0
 0.100830895106135D+04 0.000000000000000D+00 0.000000000000000D+00 0.100830895106135D+04
 0.100830895106135D+04 0.000000000000000D+00 0.000000000000000D+00 -.100830895106135D+04
 0.453316740315325D+03 0.338450440346940D+01 0.748088498609917D+02 0.444283972434895D+03
 0.556895153674440D+03 -.630963938918913D+01 0.430484429228026D+02 0.555192968434200D+03
 0.100640600813293D+04 0.292513498571972D+01 -.117857292783794D+03 -.999476940869095D+03
 0.000000000000000D+00 0.000000000000000D+00 0.000000000000000D+00 -.000000000000000D+00
 0.101123666717514D+04 0.000000000000000D+00 0.000000000000000D+00 0.101123666717514D+04
 0.103952665687696D+04 0.000000000000000D+00 0.000000000000000D+00 -.103952665687696D+04
 0.452671323398253D+03 0.181256012244738D+01 0.708505009890412D+02 0.444283972434895D+03
 0.556565490177226D+03 -.824156118965015D+01 0.381836264201594D+02 0.555192968434200D+03
 0.100747022275327D+04 -.569062510494278D+00 -.126656111472532D+03 -.999476940869095D+03
 0.340562877233408D+02 0.699806357769704D+01 0.176219840633314D+02 -.282899897018216D+02
0.537396246083D-02 0.000000000000D+00 0.000000000000D+00 0.102760889402D-03 0.000000000000D+00  6 22 1 9900012 13 2 21 0 0.74133783D-01 0.32459690D+00 0.15806198D+05 0.15806198D+05 0.15806198D+05 0.11892440D+01  1  2  2  1  6  2        1 0.386067470149D-03 0.100000000000D+01
0.563953739464D-04 0.000000000000D+00 -.103187154232D-04 0.102760889402D-03 0.000000000000D+00  6 22 1 9900012 13 2 21 2 0.74133783D-01 0.32459690D+00 0.15806198D+05 0.15806198D+05 0.15806198D+05 0.11892440D+01  1  2  3  1  6  2        1 0.572999218126D-05 0.100000000000D+01
-.721624930231D-03 0.000000000000D+00 0.000000000000D+00 0.102760889402D-03 0.000000000000D+00  6 22 1 9900012 13 2 21 2 0.74133783D-01 0.32459690D+00 0.15806198D+05 0.15806198D+05 0.15806198D+05 0.11892440D+01  1  2 15  1  6  2        1 -.733199359926D-04 0.100000000000D+01
0.156351855739D-01 0.000000000000D+00 0.000000000000D+00 0.102760889402D-03 0.000000000000D+00  6 22 1 9900012 13 2 21 2 0.74133783D-01 0.33561824D+00 0.18416754D+05 0.18416754D+05 0.18416754D+05 0.11827652D+01  1  2 12  1  6  2        1 0.140456694695D-02 0.100000000000D+01
-.278500384176D-03 0.000000000000D+00 0.000000000000D+00 0.102760889402D-03 0.000000000000D+00  6 22 1 9900012 13 2 21 2 0.74133783D-01 0.32459690D+00 0.15806198D+05 0.15806198D+05 0.15806198D+05 0.11892440D+01  1  2  4  1  6  2        1 -.282967362771D-04 0.100000000000D+01
-.110496256642D+00 0.000000000000D+00 -.141361249208D-01 0.102760889402D-03 0.000000000000D+00  6 22 1 9900012 13 2 21 2 0.74133783D-01 0.33498597D+00 0.15806198D+05 0.15806198D+05 0.15806198D+05 0.11892440D+01  1  2  5  1  6  2        1 -.101312780111D-01 0.100000000000D+01
0.110893583779D+00 0.000000000000D+00 0.141291125097D-01 0.102760889402D-03 0.000000000000D+00  6 22 1 9900012 13 2 21 2 0.74133783D-01 0.32459690D+00 0.15806198D+05 0.15806198D+05 0.15806198D+05 0.11892440D+01  1  2  6  1  6  2        1 0.112672250141D-01 0.100000000000D+01
0.482844054919D-03 0.000000000000D+00 0.000000000000D+00 0.102760889402D-03 0.000000000000D+00  6 22 21 9900012 13 2 -1 2 0.74133783D-01 0.33561824D+00 0.18416754D+05 0.18416754D+05 0.18416754D+05 0.11827652D+01  1  2 12  3  6  2        1 0.266448564137D-04 0.100000000000D+01
-.617882827675D-03 0.000000000000D+00 -.796945594378D-04 0.102760889402D-03 0.000000000000D+00  6 22 21 9900012 13 2 -1 2 0.74133783D-01 0.33498597D+00 0.15806198D+05 0.15806198D+05 0.15806198D+05 0.11892440D+01  1  2  5  3  6  2        1 -.351415449547D-04 0.100000000000D+01
  </mgrwgt>
  </event>
  <event>
  6     66 0.10827799E-05 0.28361978E+02 0.78161638E-02 0.12147504E+00
       22 -1    0    0    0    0 0.00000000E+00 0.00000000E+00 0.40286652E+02 0.40286652E+02 0.00000000E+00 0.0000E+00 0.9000E+01
        1 -1    0    0  501    0 -.00000000E+00 -.00000000E+00 -.28511952E+03 0.28511952E+03 0.00000000E+00 0.0000E+00 0.9000E+01
      -24  2    1    2    0    0 -.57003411E+02 0.21120336E+02 -.38573299E+02 0.11037486E+03 0.83661532E+02 0.0000E+00 0.0000E+00
  9900012  1    3    3    0    0 -.44665532E+02 -.30136539E+01 -.51034903E+01 0.67306296E+02 0.50000000E+02 0.0000E+00 0.9000E+01
       13  1    3    3    0    0 -.12337879E+02 0.24133990E+02 -.33469809E+02 0.43068560E+02 0.00000000E+00 0.0000E+00 0.9000E+01
        2  1    1    2  501    0 0.57003411E+02 -.21120336E+02 -.20625957E+03 0.21503132E+03 0.00000000E+00 0.0000E+00 0.9000E+01
#aMCatNLO 1  0  0  5  2 0.30114988D+02 0.00000000D+00  -5  6  0 0.00000000D+00 0.00000000D+00 0.00000000D+00 0.00000000D+00 0.00000000D+00
  <mgrwgt>
 0.3119872476D-03    4    2    0
 0.107175141806566D+03 0.000000000000000D+00 0.000000000000000D+00 0.107175141806566D+03
 0.107175141806566D+03 -.000000000000000D+00 -.000000000000000D+00 -.107175141806566D+03
 0.963487507997753D+02 -.446655319128656D+02 -.301365392413918D+01 0.691302388947378D+02
 0.271530591513841D+02 -.123378793202184D+02 0.241339900244232D+02 -.161736843648389D+01
 0.908484736619719D+02 0.570034112330839D+02 -.211203361002840D+02 -.675128704582539D+02
 0.000000000000000D+00 0.000000000000000D+00 0.000000000000000D+00 0.000000000000000D+00
 0.107175141806566D+03 0.000000000000000D+00 0.000000000000000D+00 0.107175141806566D+03
 0.107175141806566D+03 -.000000000000000D+00 -.000000000000000D+00 -.107175141806566D+03
 0.870781471775440D+02 -.373438284017306D+02 -.572641857517907D+01 0.604586662644649D+02
 0.258215556635609D+02 -.102233343567007D+02 0.233505298882211D+02 -.412176242119449D+01
 0.279350167247200D+02 0.121548216042597D+02 -.239187946405821D+02 0.777925022869627D+01
 0.735155640473065D+02 0.354123411541716D+02 0.629468332754005D+01 -.641161540719667D+02
0.315438675189D-05 0.000000000000D+00 0.000000000000D+00 0.102675898210D-06 0.000000000000D+00  6 22 1 9900012 13 2 21 0 0.61979465D-02 0.43864542D-01 0.60068431D+04 0.60068431D+04 0.60068431D+04 0.12329767D+01  1  2  2  2  6  5        2 0.302280735986D-03 0.100000000000D+01
0.295518667509D-08 0.000000000000D+00 -.605683784818D-08 0.102675898210D-06 0.000000000000D+00  6 22 1 9900012 13 2 21 2 0.61979465D-02 0.43864542D-01 0.60068431D+04 0.60068431D+04 0.60068431D+04 0.12329767D+01  1  2  3  2  6  5        2 0.430516875367D-06 0.100000000000D+01
-.333085533613D-06 0.000000000000D+00 0.000000000000D+00 0.102675898210D-06 0.000000000000D+00  6 22 1 9900012 13 2 21 2 0.61979465D-02 0.43864542D-01 0.60068431D+04 0.60068431D+04 0.60068431D+04 0.12329767D+01  1  2 15  2  6  5        2 -.485244957178D-04 0.100000000000D+01
0.396800732584D-06 0.000000000000D+00 0.000000000000D+00 0.102675898210D-06 0.000000000000D+00  6 22 1 9900012 13 2 21 2 0.61979465D-02 0.43864542D-01 0.56969661D+04 0.56969661D+04 0.56969661D+04 0.12355162D+01  1  2 12  2  6  5        2 0.578004904817D-04 0.100000000000D+01
  </mgrwgt>
  </event>
  <event>
  6     66 0.10827799E-05 0.21982584E+02 0.78161638E-02 0.11702545E+00
       22 -1    0    0    0    0 0.00000000E+00 0.00000000E+00 0.86073940E+02 0.86073940E+02 0.00000000E+00 0.0000E+00 0.9000E+01
        1 -1    0    0  501    0 -.00000000E+00 -.00000000E+00 -.14238669E+03 0.14238669E+03 0.00000000E+00 0.0000E+00 0.9000E+01
      -24  2    1    2    0    0 -.51659091E+02 0.56038719E+02 0.28879274E+02 0.11415105E+03 0.79921521E+02 0.0000E+00 0.0000E+00
  9900012  1    3    3    0    0 -.20057167E+02 0.11672548E+02 0.74813166E+01 0.55628306E+02 0.50000000E+02 0.0000E+00 0.9000E+01
       13  1    3    3    0    0 -.31601925E+02 0.44366171E+02 0.21397957E+02 0.58522742E+02 0.00000000E+00 0.0000E+00 0.9000E+01
        2  1    1    2  501    0 0.51659091E+02 -.56038719E+02 -.85192023E+02 0.11430958E+03 0.00000000E+00 0.0000E+00 0.9000E+01
#aMCatNLO 1  0  0  5  2 0.29359600D+02 0.00000000D+00  -5  6  0 0.00000000D+00 0.00000000D+00 0.00000000D+00 0.00000000D+00 0.00000000D+00
  <mgrwgt>
 0.3093185927D-03    5    2    0
 0.110705841887452D+03 0.000000000000000D+00 0.000000000000000D+00 0.110705841887452D+03
 0.110705841887452D+03 -.000000000000000D+00 -.000000000000000D+00 -.110705841887452D+03
 0.593020706323206D+02 -.200571667548213D+02 0.116725480340769D+02 0.218677219993807D+02
 0.658281445140603D+02 -.316019246950009D+02 0.443661710586377D+02 0.369635743852134D+02
 0.962814686285228D+02 0.516590914498221D+02 -.560387190927146D+02 -.588312963845941D+02
 0.000000000000000D+00 0.000000000000000D+00 0.000000000000000D+00 0.000000000000000D+00
 0.110705841887452D+03 0.000000000000000D+00 0.000000000000000D+00 0.110705841887452D+03
 0.110705841887452D+03 -.000000000000000D+00 -.000000000000000D+00 -.110705841887452D+03
 0.568414237978027D+02 -.173577188844797D+02 0.874424254774385D+01 0.187934902760241D+02
 0.604020217868771D+02 -.286680388560576D+02 0.411835520894610D+02 0.336223559761152D+02
 0.462047967604130D+02 -.507921134909623D+01 -.354227505498835D+02 -.292286434721663D+02
 0.579634414298109D+02 0.511049690896335D+02 -.145050440873213D+02 -.231872027799729D+02
0.445304015339D-05 0.000000000000D+00 0.000000000000D+00 0.119513061315D-05 0.000000000000D+00  6 22 1 9900012 13 2 21 0 0.13242145D-01 0.21905645D-01 0.86313636D+04 0.86313636D+04 0.86313636D+04 0.12160137D+01  1  2  2  2  6  5        2 0.357174590746D-03 0.100000000000D+01
-.342169880081D-07 0.000000000000D+00 -.855042335071D-08 0.119513061315D-05 0.000000000000D+00  6 22 1 9900012 13 2 21 2 0.13242145D-01 0.21905645D-01 0.86313636D+04 0.86313636D+04 0.86313636D+04 0.12160137D+01  1  2  3  2  6  5        2 -.405828617546D-05 0.100000000000D+01
-.510783280303D-06 0.000000000000D+00 0.000000000000D+00 0.119513061315D-05 0.000000000000D+00  6 22 1 9900012 13 2 21 2 0.13242145D-01 0.21905645D-01 0.86313636D+04 0.86313636D+04 0.86313636D+04 0.12160137D+01  1  2 15  2  6  5        2 -.605811570738D-04 0.100000000000D+01
0.114857741863D-05 0.000000000000D+00 0.000000000000D+00 0.119513061315D-05 0.000000000000D+00  6 22 1 9900012 13 2 21 2 0.13242145D-01 0.21905645D-01 0.92864445D+04 0.92864445D+04 0.92864445D+04 0.12126769D+01  1  2 12  2  6  5        2 0.136285823216D-03 0.100000000000D+01
-.100757099388D-05 0.000000000000D+00 0.000000000000D+00 0.119513061315D-05 0.000000000000D+00  6 22 1 9900012 13 2 21 2 0.13242145D-01 0.21905645D-01 0.86313636D+04 0.86313636D+04 0.86313636D+04 0.12160137D+01  1  2  5  2  6  5        2 -.119502378009D-03 0.100000000000D+01
  </mgrwgt>
  </event>
  <event>
  6     66 0.10827799E-05 0.24319119E+02 0.78161638E-02 0.12796780E+00
       22 -1    0    0    0    0 0.00000000E+00 0.00000000E+00 0.44926462E+01 0.44926462E+01 0.00000000E+00 0.0000E+00 0.9000E+01
        1 -1    0    0  501    0 -.00000000E+00 -.00000000E+00 -.10025786E+04 0.10025786E+04 0.00000000E+00 0.0000E+00 0.9000E+01
      -24  2    1    2    0    0 0.23149109E+02 -.11668713E+02 -.42346194E+03 0.43186277E+03 0.80705593E+02 0.0000E+00 0.0000E+00
  9900012  1    3    3    0    0 0.16011669E+02 0.11916869E+02 -.35586733E+03 0.35991658E+03 0.50000000E+02 0.0000E+00 0.9000E+01
       13  1    3    3    0    0 0.71374402E+01 -.23585582E+02 -.67594609E+02 0.71946187E+02 0.00000000E+00 0.0000E+00 0.9000E+01
        2  1    1    2  501    0 -.23149109E+02 0.11668713E+02 -.57462397E+03 0.57520844E+03 0.00000000E+00 0.0000E+00 0.9000E+01
#aMCatNLO 1  0  0  5  2 0.75056873D+01 0.00000000D+00  -5  6  0 0.00000000D+00 0.00000000D+00 0.00000000D+00 0.00000000D+00 0.00000000D+00
  <mgrwgt>
 0.2113488176D-03    5    2    0
 0.671135663493164D+02 0.000000000000000D+00 0.000000000000000D+00 0.671135663493164D+02
 0.671135663493164D+02 -.000000000000000D+00 -.000000000000000D+00 -.671135663493164D+02
 0.542025385061908D+02 0.160116688696248D+02 0.119168685730658D+02 0.628727953385724D+01
 0.371736065599677D+02 0.713744024521215D+01 -.235855815939767D+02 0.278326123871829D+02
 0.428509876324743D+02 -.231491091148369D+02 0.116687130209109D+02 -.341198919210401D+02
 0.000000000000000D+00 0.000000000000000D+00 0.000000000000000D+00 0.000000000000000D+00
 0.671135663493164D+02 0.000000000000000D+00 0.000000000000000D+00 0.671135663493164D+02
 0.671135663493164D+02 -.000000000000000D+00 -.000000000000000D+00 -.671135663493164D+02
 0.537132822678347D+02 0.144152591321339D+02 0.127215668013285D+02 0.393430225794239D+01
 0.354514374916680D+02 0.606309056526568D+01 -.230440368616411D+02 0.262491089018724D+02
 0.478404640624637D+01 0.468894481017290D+01 0.933814856632042D+00 -.169959988834116D+00
 0.402783665328837D+02 -.251672945075725D+02 0.938865520368057D+01 -.300134511709807D+02
0.689078867759D-06 0.000000000000D+00 0.000000000000D+00 0.225668766126D-06 0.000000000000D+00  6 22 1 9900012 13 2 21 0 0.69117634D-03 0.15424285D+00 0.27249590D+04 0.27249590D+04 0.27249590D+04 0.12726673D+01  1  2  2  2  6  5        2 0.208770947665D-03 0.100000000000D+01
0.229524636659D-07 0.000000000000D+00 -.132312214541D-08 0.225668766126D-06 0.000000000000D+00  6 22 1 9900012 13 2 21 2 0.69117634D-03 0.15424285D+00 0.27249590D+04 0.27249590D+04 0.27249590D+04 0.12726673D+01  1  2  3  2  6  5        2 0.112631589485D-04 0.100000000000D+01
-.859397429852D-07 0.000000000000D+00 0.000000000000D+00 0.225668766126D-06 0.000000000000D+00  6 22 1 9900012 13 2 21 2 0.69117634D-03 0.15424285D+00 0.27249590D+04 0.27249590D+04 0.27249590D+04 0.12726673D+01  1  2 15  2  6  5        2 -.421720735224D-04 0.100000000000D+01
0.675322752882D-07 0.000000000000D+00 0.000000000000D+00 0.225668766126D-06 0.000000000000D+00  6 22 1 9900012 13 2 21 2 0.69117634D-03 0.15424285D+00 0.29724213D+04 0.29724213D+04 0.29724213D+04 0.12681052D+01  1  2 12  2  6  5        2 0.331557619524D-04 0.100000000000D+01
0.674232886955D-09 0.000000000000D+00 0.000000000000D+00 0.225668766126D-06 0.139775355210D-08  6 22 1 9900012 13 2 21 2 0.69117634D-03 0.15424285D+00 0.29724213D+04 0.29724213D+04 0.29724213D+04 0.12681052D+01  1  2 11  2  6  5        2 0.331022537075D-06 0.100000000000D+01
  </mgrwgt>
  </event>
  <event>
  6     66 0.10827799E-05 0.30641331E+02 0.78161638E-02 0.11814476E+00
       22 -1    0    0    0    0 0.00000000E+00 0.00000000E+00 0.49600171E+01 0.49600171E+01 0.00000000E+00 0.0000E+00 0.9000E+01
        1 -1    0    0  501    0 0.00000000E+00 0.00000000E+00 -.19689464E+04 0.19689464E+04 0.00000000E+00 0.0000E+00 0.9000E+01
      -24  2    1    2    0    0 -.36885839E+02 -.34065595E+02 -.49976426E+03 0.50882367E+03 0.81339916E+02 0.0000E+00 0.0000E+00
  9900012  1    3    3    0    0 -.17157669E+02 -.43752094E+02 -.43626473E+03 0.44162829E+03 0.50000000E+02 0.0000E+00 0.9000E+01
       13  1    3    3    0    0 -.19728170E+02 0.96864985E+01 -.63499534E+02 0.67195385E+02 0.00000000E+00 0.0000E+00 0.9000E+01
        2  1    1    2  501    0 0.36885839E+02 0.34065595E+02 -.14642222E+04 0.14650828E+04 0.00000000E+00 0.0000E+00 0.9000E+01
#aMCatNLO 1  0  0  2  5 0.37050572D+02 0.00000000D+00  -5  6  0 0.00000000D+00 0.00000000D+00 0.00000000D+00 0.00000000D+00 0.00000000D+00
  <mgrwgt>
 0.2090289578D-03    9    2    0
 0.988231144181495D+02 0.000000000000000D+00 0.000000000000000D+00 0.988231144181495D+02
 0.988231144181495D+02 0.000000000000000D+00 0.000000000000000D+00 -.988231144181495D+02
 0.754627372474828D+02 -.171576688265703D+02 -.437520937129390D+02 0.314005319868082D+02
 0.400978126638813D+02 -.197281697472108D+02 0.968649847286782D+01 0.335381222817868D+02
 0.820856789249350D+02 0.368858385737811D+02 0.340655952400712D+02 -.649386542685950D+02
 0.000000000000000D+00 -.000000000000000D+00 -.000000000000000D+00 -.000000000000000D+00
 0.105756101466715D+03 0.000000000000000D+00 0.000000000000000D+00 0.105756101466715D+03
 0.155577556237039D+03 0.000000000000000D+00 0.000000000000000D+00 -.155577556237039D+03
 0.710268565843507D+02 -.529020440454859D+01 -.391258825403013D+02 0.314005319868082D+02
 0.381044050523295D+02 -.133928252889845D+02 0.121561617701741D+02 0.335381222817868D+02
 0.915262732329577D+02 0.509505486434721D+02 0.395483434119194D+02 -.649386542685950D+02
 0.606761228341162D+02 -.322675189499390D+02 -.125786226417921D+02 -.498214547703244D+02
0.161832612065D-05 0.000000000000D+00 0.000000000000D+00 0.384267009266D-06 0.000000000000D+00  6 22 1 9900012 13 2 21 0 0.76307955D-03 0.30291484D+00 0.49566701D+04 0.49566701D+04 0.49566701D+04 0.12422715D+01  1  2  2  1  6  2        1 0.105620666832D-03 0.100000000000D+01
0.193025365193D-07 0.000000000000D+00 -.310739920917D-08 0.384267009266D-06 0.000000000000D+00  6 22 1 9900012 13 2 21 2 0.76307955D-03 0.30291484D+00 0.49566701D+04 0.49566701D+04 0.49566701D+04 0.12422715D+01  1  2  3  1  6  2        1 0.194415227653D-05 0.100000000000D+01
-.196499157353D-06 0.000000000000D+00 0.000000000000D+00 0.384267009266D-06 0.000000000000D+00  6 22 1 9900012 13 2 21 2 0.76307955D-03 0.30291484D+00 0.49566701D+04 0.49566701D+04 0.49566701D+04 0.12422715D+01  1  2 15  1  6  2        1 -.197914032554D-04 0.100000000000D+01
0.988457100383D-06 0.000000000000D+00 0.000000000000D+00 0.384267009266D-06 0.000000000000D+00  6 22 1 9900012 13 2 21 2 0.76307955D-03 0.51033558D+00 0.81836220D+04 0.81836220D+04 0.81836220D+04 0.12184625D+01  1  2 12  1  6  2        1 0.112873625104D-04 0.100000000000D+01
-.307908754669D-06 0.000000000000D+00 0.000000000000D+00 0.384267009266D-06 0.000000000000D+00  6 22 1 9900012 13 2 21 2 0.76307955D-03 0.30291484D+00 0.49566701D+04 0.49566701D+04 0.49566701D+04 0.12422715D+01  1  2  4  1  6  2        1 -.310125825047D-04 0.100000000000D+01
-.160821607699D-05 0.000000000000D+00 -.404104574383D-06 0.384267009266D-06 0.000000000000D+00  6 22 1 9900012 13 2 21 2 0.76307955D-03 0.48460397D+00 0.49566701D+04 0.49566701D+04 0.49566701D+04 0.12422715D+01  1  2  5  1  6  2        1 -.252937320065D-04 0.100000000000D+01
0.165307065784D-05 0.000000000000D+00 0.363259695168D-06 0.384267009266D-06 0.000000000000D+00  6 22 1 9900012 13 2 21 2 0.76307955D-03 0.30291484D+00 0.49566701D+04 0.49566701D+04 0.49566701D+04 0.12422715D+01  1  2  6  1  6  2        1 0.166497345025D-03 0.100000000000D+01
0.576533089692D-07 0.000000000000D+00 0.000000000000D+00 0.384267009266D-06 0.000000000000D+00  6 22 21 9900012 13 2 -1 2 0.76307955D-03 0.51033558D+00 0.81836220D+04 0.81836220D+04 0.81836220D+04 0.12184625D+01  1  2 12  3  6  2        1 0.272719686417D-06 0.100000000000D+01
-.694243861274D-07 0.000000000000D+00 -.217048783346D-07 0.384267009266D-06 0.000000000000D+00  6 22 21 9900012 13 2 -1 2 0.76307955D-03 0.48460397D+00 0.49566701D+04 0.49566701D+04 0.49566701D+04 0.12422715D+01  1  2  5  3  6  2        1 -.495570794677D-06 0.100000000000D+01
  </mgrwgt>
  </event>
  <event>
  6     66 0.10827799E-05 0.44442935E+02 0.78161638E-02 0.12066664E+00
       22 -1    0    0    0    0 0.00000000E+00 0.00000000E+00 0.54658168E+03 0.54658168E+03 0.00000000E+00 0.0000E+00 0.9000E+01
        1 -1    0    0  501    0 0.00000000E+00 0.00000000E+00 -.30326202E+03 0.30326202E+03 0.00000000E+00 0.0000E+00 0.9000E+01
      -24  2    1    2    0    0 0.40723774E+02 -.17797435E+02 0.54102376E+03 0.54884053E+03 0.80895243E+02 0.0000E+00 0.0000E+00
  9900012  1    3    3    0    0 0.45709847E+01 -.12243371E+02 0.23359024E+03 0.23923878E+03 0.50000000E+02 0.0000E+00 0.9000E+01
       13  1    3    3    0    0 0.36152789E+02 -.55540643E+01 0.30743352E+03 0.30960175E+03 0.00000000E+00 0.0000E+00 0.9000E+01
        2  1    1    2  501    0 -.40723774E+02 0.17797435E+02 -.29770411E+03 0.30100317E+03 0.00000000E+00 0.0000E+00 0.9000E+01
#aMCatNLO 1  0  0  5  2 0.78816881D+02 0.00000000D+00  -5  6  0 0.00000000D+00 0.00000000D+00 0.00000000D+00 0.00000000D+00 0.00000000D+00
  <mgrwgt>
 0.2484702513D-02    3    2    0
 0.407133227560240D+03 0.000000000000000D+00 0.000000000000000D+00 0.407133227560240D+03
 0.407133227560240D+03 -.000000000000000D+00 -.000000000000000D+00 -.407133227560240D+03
 0.179890100412124D+03 0.457098473582334D+01 -.122433711387141D+02 0.172306860536627D+03
 0.231261492588951D+03 0.361527892658760D+02 -.555406432743058D+01 0.228350621090054D+03
 0.403114862119405D+03 -.407237740016997D+02 0.177974354661448D+02 -.400657481626681D+03
 0.000000000000000D+00 0.000000000000000D+00 -.000000000000000D+00 0.000000000000000D+00
 0.407133227560240D+03 0.000000000000000D+00 0.000000000000000D+00 0.407133227560240D+03
 0.407133227560240D+03 -.000000000000000D+00 -.000000000000000D+00 -.407133227560240D+03
 0.164980528970049D+03 0.299156041637711D+01 -.115531182560163D+02 0.156767825028208D+03
 0.211239678748992D+03 0.341262406071902D+02 -.466840552354717D+01 0.208412589758549D+03
 0.546541160827320D+02 -.368775697802146D+02 0.362526117142897D+02 0.176880014637901D+02
 0.383392131318708D+03 -.240231243353023D+00 -.200310879347260D+02 -.382868416250547D+03
0.178658340878D-02 0.000000000000D+00 0.000000000000D+00 0.389142659432D-03 0.000000000000D+00  6 22 1 9900012 13 2 21 0 0.84089489D-01 0.46655696D-01 0.44022953D+04 0.44022953D+04 0.44022953D+04 0.12481209D+01  1  2  2  2  6  5        2 0.285115105689D-02 0.100000000000D+01
0.922411921078D-04 0.000000000000D+00 -.343047535396D-05 0.389142659432D-03 0.000000000000D+00  6 22 1 9900012 13 2 21 2 0.84089489D-01 0.46655696D-01 0.44022953D+04 0.44022953D+04 0.44022953D+04 0.12481209D+01  1  2  3  2  6  5        2 0.229316419447D-03 0.100000000000D+01
-.239642981473D-03 0.000000000000D+00 0.000000000000D+00 0.389142659432D-03 0.000000000000D+00  6 22 1 9900012 13 2 21 2 0.84089489D-01 0.46655696D-01 0.44022953D+04 0.44022953D+04 0.44022953D+04 0.12481209D+01  1  2 15  2  6  5        2 -.595764963584D-03 0.100000000000D+01
  </mgrwgt>
  </event>
  <event>
  6     66 0.10827799E-05 0.62161200E+02 0.78161638E-02 0.11522599E+00
       22 -1    0    0    0    0 0.00000000E+00 0.00000000E+00 0.25664036E+02 0.25664036E+02 0.00000000E+00 0.0000E+00 0.9000E+01
        1 -1    0    0  501    0 0.00000000E+00 0.00000000E+00 -.45768784E+03 0.45768784E+03 0.00000000E+00 0.0000E+00 0.9000E+01
      -24  2    1    2    0    0 0.26825336E+02 -.56075093E+02 -.88025695E+02 0.13378255E+03 0.79279462E+02 0.0000E+00 0.0000E+00
  9900012  1    3    3    0    0 0.66798988E+01 -.34274007E+02 -.84033706E+02 0.10383156E+03 0.50000000E+02 0.0000E+00 0.9000E+01
       13  1    3    3    0    0 0.20145437E+02 -.21801086E+02 -.39919889E+01 0.29950993E+02 0.00000000E+00 0.0000E+00 0.9000E+01
        2  1    1    2  501    0 -.26825336E+02 0.56075093E+02 -.34399810E+03 0.34956932E+03 0.00000000E+00 0.0000E+00 0.9000E+01
#aMCatNLO 1  0  0  2  2 0.90481869D+02 0.00000000D+00  -5  6  0 0.00000000D+00 0.00000000D+00 0.00000000D+00 0.00000000D+00 0.00000000D+00
  <mgrwgt>
 0.1902143654D-03    4    2    0
 0.108379505594100D+03 0.000000000000000D+00 0.000000000000000D+00 0.108379505594100D+03
 0.108379505594100D+03 0.000000000000000D+00 0.000000000000000D+00 -.108379505594100D+03
 0.640463192582828D+02 0.667989875098804D+01 -.342740073466073D+02 0.195602245287507D+02
 0.588313911792443D+02 0.201454372784345D+02 -.218010859567866D+02 0.507937653265706D+02
 0.938813007506736D+02 -.268253360294226D+02 0.560750933033940D+02 -.703539898553213D+02
 0.000000000000000D+00 -.000000000000000D+00 0.000000000000000D+00 0.000000000000000D+00
 0.149672419426790D+03 0.000000000000000D+00 0.000000000000000D+00 0.149672419426790D+03
 0.132720700709705D+03 0.000000000000000D+00 0.000000000000000D+00 -.132720700709705D+03
 0.743884265496771D+02 0.167934416281962D+02 -.486725378339976D+02 0.195602245287507D+02
 0.683648198547426D+02 0.294379333682181D+02 -.350307019160199D+02 0.507937653265706D+02
 0.811243438200375D+02 -.140400552836868D+02 0.378728414474016D+02 -.703539898553213D+02
 0.585155299120380D+02 -.321913197127275D+02 0.458303983026159D+02 0.169517187170844D+02
0.249222352470D-05 0.000000000000D+00 0.000000000000D+00 0.101986349817D-05 0.000000000000D+00  6 22 1 9900012 13 2 21 0 0.39483133D-02 0.70413513D-01 0.58393489D+04 0.58393489D+04 0.58393489D+04 0.12343306D+01  1  2  2  1  6  2        1 0.243101710559D-03 0.100000000000D+01
-.179044485118D-08 0.000000000000D+00 -.478539727619D-08 0.101986349817D-05 0.000000000000D+00  6 22 1 9900012 13 2 21 2 0.39483133D-02 0.70413513D-01 0.58393489D+04 0.58393489D+04 0.58393489D+04 0.12343306D+01  1  2  3  1  6  2        1 -.266087789234D-06 0.100000000000D+01
-.301818017883D-06 0.000000000000D+00 0.000000000000D+00 0.101986349817D-05 0.000000000000D+00  6 22 1 9900012 13 2 21 2 0.39483133D-02 0.70413513D-01 0.58393489D+04 0.58393489D+04 0.58393489D+04 0.12343306D+01  1  2 15  1  6  2        1 -.448548242503D-04 0.100000000000D+01
-.522585806020D-07 0.000000000000D+00 0.000000000000D+00 0.101986349817D-05 0.000000000000D+00  6 22 1 9900012 13 2 21 2 0.39483133D-02 0.70413513D-01 0.58393489D+04 0.58393489D+04 0.58393489D+04 0.12343306D+01  1  2  4  1  6  2        1 -.776643311395D-05 0.100000000000D+01
  </mgrwgt>
  </event>
  <event>
  6     66 0.10827799E-05 0.54817575E+02 0.78161638E-02 0.84890792E-01
       22 -1    0    0    0    0 0.00000000E+00 0.00000000E+00 0.61455281E+03 0.61455281E+03 0.00000000E+00 0.0000E+00 0.9000E+01
        3 -1    0    0  501    0 0.00000000E+00 0.00000000E+00 -.51957938E+02 0.51957938E+02 0.00000000E+00 0.0000E+00 0.9000E+01
      -24  2    1    2    0    0 -.18370173E+02 0.51647877E+02 0.59491824E+03 0.60287297E+03 0.80765895E+02 0.0000E+00 0.0000E+00
  9900012  1    3    3    0    0 -.50465582E+01 0.70238887E+01 0.33368257E+03 0.33751868E+03 0.50000000E+02 0.0000E+00 0.9000E+01
       13  1    3    3    0    0 -.13323614E+02 0.44623989E+02 0.26123567E+03 0.26535428E+03 0.00000000E+00 0.0000E+00 0.9000E+01
        4  1    1    2  501    0 0.18370173E+02 -.51647877E+02 -.32323375E+02 0.63637780E+02 0.00000000E+00 0.0000E+00 0.9000E+01
#aMCatNLO 1  0  0  2  5 0.14719632D+03 0.00000000D+00  -5  6  0 0.00000000D+00 0.00000000D+00 0.00000000D+00 0.00000000D+00 0.00000000D+00
  <mgrwgt>
 0.7319347504D-04    3    2    0
 0.178692184553969D+03 0.000000000000000D+00 0.000000000000000D+00 0.178692184553969D+03
 0.178692184553969D+03 0.000000000000000D+00 0.000000000000000D+00 -.178692184553969D+03
 0.104178384582452D+03 -.504655824131096D+01 0.702388872316697D+01 0.909853452558759D+02
 0.836400102087830D+02 -.133236143946981D+02 0.446239886654505D+02 0.694754074674806D+02
 0.169565974316702D+03 0.183701726360091D+02 -.516478773886174D+02 -.160460752723357D+03
 0.000000000000000D+00 0.000000000000000D+00 -.000000000000000D+00 0.000000000000000D+00
 0.142392221537004D+04 0.000000000000000D+00 0.000000000000000D+00 0.142392221537004D+04
 0.111904403132596D+04 0.000000000000000D+00 0.000000000000000D+00 -.111904403132596D+04
 0.401246289249345D+03 -.135570158529887D+03 0.363099137566064D+03 0.909853452558759D+02
 0.458805531292424D+03 -.153407683699130D+03 0.426780699989840D+03 0.694754074674806D+02
 0.418268373534528D+03 -.133435347409425D+03 0.362485568259482D+03 -.160460752723357D+03
 0.126464605261970D+04 0.422413189638442D+03 -.115236540581539D+04 0.304878184044080D+03
0.101513013693D-04 0.000000000000D+00 0.000000000000D+00 0.100822912998D-04 0.000000000000D+00  6 22 3 9900012 13 4 21 0 0.94546586D-01 0.79935290D-02 0.57859352D+04 0.57859352D+04 0.57859352D+04 0.12347715D+01  1  2  2  1  6  2        3 0.857641236870D-04 0.100000000000D+01
0.341500872362D-06 0.000000000000D+00 -.194918350786D-07 0.100822912998D-04 0.000000000000D+00  6 22 3 9900012 13 4 21 2 0.94546586D-01 0.79935290D-02 0.57859352D+04 0.57859352D+04 0.57859352D+04 0.12347715D+01  1  2  3  1  6  2        3 0.439894931738D-05 0.100000000000D+01
-.131739015138D-05 0.000000000000D+00 0.000000000000D+00 0.100822912998D-04 0.000000000000D+00  6 22 3 9900012 13 4 21 2 0.94546586D-01 0.79935290D-02 0.57859352D+04 0.57859352D+04 0.57859352D+04 0.12347715D+01  1  2 15  1  6  2        3 -.169695979605D-04 0.100000000000D+01
  </mgrwgt>
  </event>
  <event>
  6     66 -.10827799E-05 0.52183107E+02 0.78161638E-02 0.11630470E+00
       22 -1    0    0    0    0 0.00000000E+00 0.00000000E+00 0.27356731E+02 0.27356731E+02 0.00000000E+00 0.0000E+00 0.9000E+01
        1 -1    0    0  501    0 0.00000000E+00 0.00000000E+00 -.48491230E+03 0.48491230E+03 0.00000000E+00 0.0000E+00 0.9000E+01
      -24  2    1    2    0    0 0.68862037E+02 0.33829418E+02 -.10879296E+03 0.15516713E+03 0.79715249E+02 0.0000E+00 0.0000E+00
  9900012  1    3    3    0    0 0.26661282E+02 0.63699385E+01 -.76268100E+02 0.95227219E+02 0.50000000E+02 0.0000E+00 0.9000E+01
       13  1    3    3    0    0 0.42200755E+02 0.27459479E+02 -.32524864E+02 0.59939916E+02 0.00000000E+00 0.0000E+00 0.9000E+01
        2  1    1    2  501    0 -.68862037E+02 -.33829418E+02 -.34876260E+03 0.35710189E+03 0.00000000E+00 0.0000E+00 0.9000E+01
#aMCatNLO 1  0  0  2  5 0.16877000D+02 0.00000000D+00  -5  6  0 0.00000000D+00 0.00000000D+00 0.00000000D+00 0.00000000D+00 0.00000000D+00
  <mgrwgt>
 -.4794070565D-04    9    2    0
 0.115176452269564D+03 0.000000000000000D+00 0.000000000000000D+00 0.115176452269564D+03
 0.115176452269564D+03 0.000000000000000D+00 0.000000000000000D+00 -.115176452269564D+03
 0.602773428205959D+02 0.266612823289015D+02 0.636993852505663D+01 0.195437449143516D+02
 0.686921217687936D+02 0.422007549907991D+02 0.274594791871862D+02 0.467298713252434D+02
 0.101383439949739D+03 -.688620373197006D+02 -.338294177122429D+02 -.662736162395950D+02
 0.000000000000000D+00 -.000000000000000D+00 -.000000000000000D+00 -.000000000000000D+00
 0.117035102504093D+03 0.000000000000000D+00 0.000000000000000D+00 0.117035102504093D+03
 0.158867607410375D+03 0.000000000000000D+00 0.000000000000000D+00 -.158867607410375D+03
 0.618630389803310D+02 0.290667246487213D+02 0.100101520867630D+02 0.195437449143516D+02
 0.721708663537769D+02 0.449749217973067D+02 0.316576923591576D+02 0.467298713252434D+02
 0.969076601556468D+02 -.649568767429593D+02 -.279196445387335D+02 -.662736162395950D+02
 0.449611444247132D+02 -.908476970306871D+01 -.137481999071871D+02 -.418325049062824D+02
0.255968960412D-06 0.000000000000D+00 0.000000000000D+00 0.135731409778D-05 0.000000000000D+00  6 22 1 9900012 13 2 21 0 0.42087278D-02 0.74601892D-01 0.84724704D+04 0.84724704D+04 0.84724704D+04 0.12168660D+01  1  2  2  1  6  2        1 0.218109391017D-04 0.100000000000D+01
-.160904951111D-08 0.000000000000D+00 -.491494103078D-09 0.135731409778D-05 0.000000000000D+00  6 22 1 9900012 13 2 21 2 0.42087278D-02 0.74601892D-01 0.84724704D+04 0.84724704D+04 0.84724704D+04 0.12168660D+01  1  2  3  1  6  2        1 -.203021488932D-06 0.100000000000D+01
-.305332173091D-07 0.000000000000D+00 0.000000000000D+00 0.135731409778D-05 0.000000000000D+00  6 22 1 9900012 13 2 21 2 0.42087278D-02 0.74601892D-01 0.84724704D+04 0.84724704D+04 0.84724704D+04 0.12168660D+01  1  2 15  1  6  2        1 -.385252237247D-05 0.100000000000D+01
0.114671981500D-05 0.000000000000D+00 0.000000000000D+00 0.135731409778D-05 0.000000000000D+00  6 22 1 9900012 13 2 21 2 0.42087278D-02 0.10456201D+00 0.10087785D+05 0.10087785D+05 0.10087785D+05 0.12089367D+01  1  2 12  1  6  2        1 0.909507632283D-04 0.100000000000D+01
-.166853200189D-05 0.000000000000D+00 0.000000000000D+00 0.135731409778D-05 0.000000000000D+00  6 22 1 9900012 13 2 21 2 0.42087278D-02 0.74601892D-01 0.84724704D+04 0.84724704D+04 0.84724704D+04 0.12168660D+01  1  2  4  1  6  2        1 -.210526679891D-03 0.100000000000D+01
-.126298348137D-05 0.000000000000D+00 -.107581896640D-06 0.135731409778D-05 0.000000000000D+00  6 22 1 9900012 13 2 21 2 0.42087278D-02 0.10366139D+00 0.84724704D+04 0.84724704D+04 0.84724704D+04 0.12168660D+01  1  2  5  1  6  2        1 -.101646008484D-03 0.100000000000D+01
0.123643636413D-05 0.000000000000D+00 0.102012199885D-06 0.135731409778D-05 0.000000000000D+00  6 22 1 9900012 13 2 21 2 0.42087278D-02 0.74601892D-01 0.84724704D+04 0.84724704D+04 0.84724704D+04 0.12168660D+01  1  2  6  1  6  2        1 0.156007102256D-03 0.100000000000D+01
0.482666580764D-07 0.000000000000D+00 0.000000000000D+00 0.135731409778D-05 0.000000000000D+00  6 22 21 9900012 13 2 -1 2 0.42087278D-02 0.10456201D+00 0.10087785D+05 0.10087785D+05 0.10087785D+05 0.12089367D+01  1  2 12  3  6  2        1 0.893180320233D-05 0.100000000000D+01
-.493994002011D-07 0.000000000000D+00 -.444435418832D-08 0.135731409778D-05 0.000000000000D+00  6 22 21 9900012 13 2 -1 2 0.42087278D-02 0.10366139D+00 0.84724704D+04 0.84724704D+04 0.84724704D+04 0.12168660D+01  1  2  5  3  6  2        1 -.941308119936D-05 0.100000000000D+01
  </mgrwgt>
  </event>
  <event>
  6     66 0.10827799E-05 0.15437353E+02 0.78161638E-02 0.10305338E+00
       22 -1    0    0    0    0 0.00000000E+00 0.00000000E+00 0.55261840E+03 0.55261840E+03 0.00000000E+00 0.0000E+00 0.9000E+01
        3 -1    0    0  501    0 0.00000000E+00 0.00000000E+00 -.40404840E+03 0.40404840E+03 0.00000000E+00 0.0000E+00 0.9000E+01
      -24  2    1    2    0    0 -.12231561E+02 -.94181093E+01 0.54969347E+03 0.55524638E+03 0.76793956E+02 0.0000E+00 0.0000E+00
  9900012  1    3    3    0    0 0.10434659E+02 0.17412579E+01 0.30501031E+03 0.30926236E+03 0.50000000E+02 0.0000E+00 0.9000E+01
       13  1    3    3    0    0 -.22666220E+02 -.11159367E+02 0.24468316E+03 0.24598402E+03 0.00000000E+00 0.0000E+00 0.9000E+01
        4  1    1    2  501    0 0.12231561E+02 0.94181093E+01 -.40112347E+03 0.40142042E+03 0.00000000E+00 0.0000E+00 0.9000E+01
#aMCatNLO 1  0  0  2  5 0.65474647D+03 0.00000000D+00  -5  6  0 0.00000000D+00 0.00000000D+00 0.00000000D+00 0.00000000D+00 0.00000000D+00
  <mgrwgt>
 0.6952977711D-03    7    2    0
 0.472529976305402D+03 0.000000000000000D+00 0.000000000000000D+00 0.472529976305402D+03
 0.472529976305402D+03 0.000000000000000D+00 0.000000000000000D+00 -.472529976305402D+03
 0.265110848469871D+03 0.104346587324926D+02 0.174125794800766D+01 0.260138132334170D+03
 0.210539200646141D+03 -.226662196606987D+02 -.111593672601716D+02 0.209017860522400D+03
 0.469409903494792D+03 0.122315609282061D+02 0.941810931216398D+01 -.469155992856570D+03
 0.000000000000000D+00 0.000000000000000D+00 -.000000000000000D+00 -.000000000000000D+00
 0.565053812400098D+03 0.000000000000000D+00 0.000000000000000D+00 0.565053812400098D+03
 0.650724723247500D+03 0.000000000000000D+00 0.000000000000000D+00 -.650724723247500D+03
 0.270278496472382D+03 -.526915649294623D+02 0.101102297870008D+02 0.260138132334170D+03
 0.221649269464285D+03 -.736243238628873D+02 -.440358631372452D+01 0.209017860522400D+03
 0.480254332814387D+03 -.997406281923652D+02 0.242628448775079D+02 -.469155992856570D+03
 0.243596436896544D+03 0.226056516984715D+03 -.299694883507841D+02 -.856709108474015D+02
0.222444625092D-02 0.000000000000D+00 0.000000000000D+00 0.182974700534D-03 0.000000000000D+00  6 22 3 9900012 13 4 21 0 0.85018215D-01 0.62161292D-01 0.21072058D+04 0.21072058D+04 0.21072058D+04 0.12864533D+01  1  2  2  1  6  2        3 0.591918262453D-03 0.100000000000D+01
0.409944638091D-03 0.000000000000D+00 -.427122965684D-05 0.182974700534D-03 0.000000000000D+00  6 22 3 9900012 13 4 21 2 0.85018215D-01 0.62161292D-01 0.21072058D+04 0.21072058D+04 0.21072058D+04 0.12864533D+01  1  2  3  1  6  2        3 0.180531551514D-03 0.100000000000D+01
-.308048557762D-03 0.000000000000D+00 0.000000000000D+00 0.182974700534D-03 0.000000000000D+00  6 22 3 9900012 13 4 21 2 0.85018215D-01 0.62161292D-01 0.21072058D+04 0.21072058D+04 0.21072058D+04 0.12864533D+01  1  2 15  1  6  2        3 -.135658522901D-03 0.100000000000D+01
-.363557371982D-06 0.000000000000D+00 0.000000000000D+00 0.182974700534D-03 0.000000000000D+00  6 22 3 9900012 13 4 21 2 0.85018215D-01 0.62161292D-01 0.21072058D+04 0.21072058D+04 0.21072058D+04 0.12864533D+01  1  2  4  1  6  2        3 -.160103512352D-06 0.100000000000D+01
0.190537024813D-02 0.000000000000D+00 -.753287910579D-03 0.182974700534D-03 0.000000000000D+00  6 22 3 9900012 13 4 21 2 0.85018215D-01 0.98810368D-01 0.21072058D+04 0.21072058D+04 0.21072058D+04 0.12864533D+01  1  2  5  1  6  2        3 0.315298844485D-03 0.100000000000D+01
-.133592963631D-02 0.000000000000D+00 0.679042366529D-03 0.182974700534D-03 0.000000000000D+00  6 22 3 9900012 13 4 21 2 0.85018215D-01 0.62161292D-01 0.21072058D+04 0.21072058D+04 0.21072058D+04 0.12864533D+01  1  2  6  1  6  2        3 -.588317122720D-03 0.100000000000D+01
0.132349296435D-03 0.000000000000D+00 -.400349033563D-04 0.182974700534D-03 0.000000000000D+00  6 22 21 9900012 13 4 -3 2 0.85018215D-01 0.98810368D-01 0.21072058D+04 0.21072058D+04 0.21072058D+04 0.12864533D+01  1  2  5  3  6  2        3 0.331684861779D-03 0.100000000000D+01
  </mgrwgt>
  </event>
  <event>
  6     66 0.10827799E-05 0.67254639E+02 0.78161638E-02 0.11531427E+00
       22 -1    0    0    0    0 0.00000000E+00 0.00000000E+00 0.23345611E+03 0.23345611E+03 0.00000000E+00 0.0000E+00 0.9000E+01
        1 -1    0    0  501    0 0.00000000E+00 0.00000000E+00 -.70209441E+02 0.70209441E+02 0.00000000E+00 0.0000E+00 0.9000E+01
      -24  2    1    2    0    0 -.61550349E+02 -.69657708E+02 0.16984000E+03 0.21047696E+03 0.82548667E+02 0.0000E+00 0.0000E+00
  9900012  1    3    3    0    0 -.35910904E+02 -.26578510E+02 0.13062456E+03 0.14682911E+03 0.50000000E+02 0.0000E+00 0.9000E+01
       13  1    3    3    0    0 -.25639445E+02 -.43079198E+02 0.39215437E+02 0.63647850E+02 0.00000000E+00 0.0000E+00 0.9000E+01
        2  1    1    2  501    0 0.61550349E+02 0.69657708E+02 -.65933311E+01 0.93188592E+02 0.00000000E+00 0.0000E+00 0.9000E+01
#aMCatNLO 1  0  0  5  2 0.81499934D+01 0.00000000D+00  -5  6  0 0.00000000D+00 0.00000000D+00 0.00000000D+00 0.00000000D+00 0.00000000D+00
  <mgrwgt>
 0.1064744594D-03    6    2    0
 0.128026649076533D+03 0.000000000000000D+00 0.000000000000000D+00 0.128026649076533D+03
 0.128026649076533D+03 -.000000000000000D+00 -.000000000000000D+00 -.128026649076533D+03
 0.908518541393018D+02 -.359109043544098D+02 -.265785101642696D+02 0.613029293463634D+02
 0.504811701101334D+02 -.256394445613908D+02 -.430791976309927D+02 0.592875617153146D+01
 0.114720273903631D+03 0.615503489158006D+02 0.696577077952622D+02 -.672316855178949D+02
 0.000000000000000D+00 0.000000000000000D+00 -.000000000000000D+00 0.000000000000000D+00
 0.128026649076533D+03 0.000000000000000D+00 0.000000000000000D+00 0.128026649076533D+03
 0.128026649076533D+03 -.000000000000000D+00 -.000000000000000D+00 -.128026649076533D+03
 0.886705523417867D+02 -.344087372644505D+02 -.248784789206581D+02 0.596621063913932D+02
 0.491520492204185D+02 -.248057561874506D+02 -.421356965433924D+02 0.501811511808514D+01
 0.113687707206843D+03 0.612414904114657D+02 0.710549509475919D+02 -.642305890364288D+02
 0.454298938401733D+01 -.202699695956461D+01 -.404077548354141D+01 -.449632473049554D+00
0.161847964257D-05 0.000000000000D+00 0.000000000000D+00 0.154491750358D-06 0.000000000000D+00  6 22 1 9900012 13 2 21 0 0.35916325D-01 0.10801452D-01 0.11039616D+05 0.11039616D+05 0.11039616D+05 0.12049036D+01  1  2  2  2  6  5        2 0.728702778697D-04 0.100000000000D+01
-.225731003137D-07 0.000000000000D+00 -.310769399148D-08 0.154491750358D-06 0.000000000000D+00  6 22 1 9900012 13 2 21 2 0.35916325D-01 0.10801452D-01 0.11039616D+05 0.11039616D+05 0.11039616D+05 0.12049036D+01  1  2  3  2  6  5        2 -.147549917698D-05 0.100000000000D+01
-.174216003627D-06 0.000000000000D+00 0.000000000000D+00 0.154491750358D-06 0.000000000000D+00  6 22 1 9900012 13 2 21 2 0.35916325D-01 0.10801452D-01 0.11039616D+05 0.11039616D+05 0.11039616D+05 0.12049036D+01  1  2 15  2  6  5        2 -.113876944857D-04 0.100000000000D+01
0.827682338512D-06 0.000000000000D+00 0.000000000000D+00 0.154491750358D-06 0.000000000000D+00  6 22 1 9900012 13 2 21 2 0.35916325D-01 0.10801452D-01 0.11322782D+05 0.11322782D+05 0.11322782D+05 0.12037782D+01  1  2 12  2  6  5        2 0.541126407566D-04 0.100000000000D+01
-.118701668757D-06 0.000000000000D+00 0.000000000000D+00 0.154491750358D-06 0.000000000000D+00  6 22 1 9900012 13 2 21 2 0.35916325D-01 0.10801452D-01 0.11039616D+05 0.11039616D+05 0.11039616D+05 0.12049036D+01  1  2  4  2  6  5        2 -.775897914430D-05 0.100000000000D+01
0.173931185597D-08 0.000000000000D+00 0.000000000000D+00 0.154491750358D-06 0.747680258391D-08  6 22 1 9900012 13 2 21 2 0.35916325D-01 0.10801452D-01 0.11322782D+05 0.11322782D+05 0.11322782D+05 0.12037782D+01  1  2 11  2  6  5        2 0.113713623266D-06 0.100000000000D+01
  </mgrwgt>
  </event>
  <event>
  6     66 0.10827799E-05 0.19862881E+02 0.78161638E-02 0.11446203E+00
       22 -1    0    0    0    0 0.00000000E+00 0.00000000E+00 0.19368113E+03 0.19368113E+03 0.00000000E+00 0.0000E+00 0.9000E+01
        1 -1    0    0  501    0 0.00000000E+00 0.00000000E+00 -.40022534E+02 0.40022534E+02 0.00000000E+00 0.0000E+00 0.9000E+01
      -24  2    1    2    0    0 -.36353900E+01 -.19527364E+02 0.18130502E+03 0.19966164E+03 0.81232548E+02 0.0000E+00 0.0000E+00
  9900012  1    3    3    0    0 0.85849897E+01 0.98221255E+01 0.11815894E+03 0.12896399E+03 0.50000000E+02 0.0000E+00 0.9000E+01
       13  1    3    3    0    0 -.12220380E+02 -.29349490E+02 0.63146085E+02 0.70697654E+02 0.00000000E+00 0.0000E+00 0.9000E+01
        2  1    1    2  501    0 0.36353900E+01 0.19527364E+02 -.27646429E+02 0.34042019E+02 0.00000000E+00 0.0000E+00 0.9000E+01
#aMCatNLO 1  0  0  2  5 0.26445129D+02 0.00000000D+00  -5  6  0 0.00000000D+00 0.00000000D+00 0.00000000D+00 0.00000000D+00 0.00000000D+00
  <mgrwgt>
 0.3964643991D-04    3    2    0
 0.880432259783921D+02 0.000000000000000D+00 0.000000000000000D+00 0.880432259783921D+02
 0.880432259783921D+02 0.000000000000000D+00 0.000000000000000D+00 -.880432259783921D+02
 0.680530529009611D+02 0.858498966240853D+01 0.982212552706617D+01 0.442836517438196D+02
 0.387273525194929D+02 -.122203796391870D+02 -.293494900012098D+02 0.221150987181181D+02
 0.693060465363303D+02 0.363538997677843D+01 0.195273644741436D+02 -.663987504619377D+02
 0.000000000000000D+00 0.000000000000000D+00 0.000000000000000D+00 0.000000000000000D+00
 0.145299531368462D+03 0.000000000000000D+00 0.000000000000000D+00 0.145299531368462D+03
 0.141315914220583D+03 0.000000000000000D+00 0.000000000000000D+00 -.141315914220583D+03
 0.707549308049867D+02 -.233321355530703D+02 0.910973097140349D+00 0.442836517438196D+02
 0.533640499069529D+02 -.333956229071862D+02 -.352615456524622D+02 0.221150987181181D+02
 0.732517206032574D+02 -.291439501069456D+02 0.103754845956644D+02 -.663987504619377D+02
 0.892447442738489D+02 0.858717085672022D+02 0.239750879596575D+02 0.398361714787901D+01
0.373444939395D-06 0.000000000000D+00 0.000000000000D+00 0.620487846837D-06 0.000000000000D+00  6 22 1 9900012 13 2 21 0 0.29797097D-01 0.61573130D-02 0.26692005D+04 0.26692005D+04 0.26692005D+04 0.12737595D+01  1  2  2  1  6  2        1 0.409443161215D-04 0.100000000000D+01
0.401991658590D-07 0.000000000000D+00 -.717063448795D-09 0.620487846837D-06 0.000000000000D+00  6 22 1 9900012 13 2 21 2 0.29797097D-01 0.61573130D-02 0.26692005D+04 0.26692005D+04 0.26692005D+04 0.12737595D+01  1  2  3  1  6  2        1 0.715087084276D-05 0.100000000000D+01
-.474952759974D-07 0.000000000000D+00 0.000000000000D+00 0.620487846837D-06 0.000000000000D+00  6 22 1 9900012 13 2 21 2 0.29797097D-01 0.61573130D-02 0.26692005D+04 0.26692005D+04 0.26692005D+04 0.12737595D+01  1  2 15  1  6  2        1 -.844874705833D-05 0.100000000000D+01
  </mgrwgt>
  </event>
  <event>
  6     66 0.10827799E-05 0.31971396E+02 0.78161638E-02 0.12650992E+00
       22 -1    0    0    0    0 0.00000000E+00 0.00000000E+00 0.83512896E+01 0.83512896E+01 0.00000000E+00 0.0000E+00 0.9000E+01
        1 -1    0    0  501    0 0.00000000E+00 0.00000000E+00 -.12090628E+04 0.12090628E+04 0.00000000E+00 0.0000E+00 0.9000E+01
      -24  2    1    2    0    0 0.70661941E+01 -.37091338E+02 -.23822347E+03 0.25418570E+03 0.80213783E+02 0.0000E+00 0.0000E+00
  9900012  1    3    3    0    0 0.15836708E+02 -.22994342E+02 -.10218636E+03 0.11713921E+03 0.50000000E+02 0.0000E+00 0.9000E+01
       13  1    3    3    0    0 -.87705140E+01 -.14096997E+02 -.13603711E+03 0.13704649E+03 0.00000000E+00 0.0000E+00 0.9000E+01
        2  1    1    2  501    0 -.70661941E+01 0.37091338E+02 -.96248801E+03 0.96322836E+03 0.00000000E+00 0.0000E+00 0.9000E+01
#aMCatNLO 1  0  0  2  5 0.48137765D+01 0.00000000D+00  -5  6  0 0.00000000D+00 0.00000000D+00 0.00000000D+00 0.00000000D+00 0.00000000D+00
  <mgrwgt>
 0.2838759531D-03   11    2    0
 0.100484990665800D+03 0.000000000000000D+00 0.000000000000000D+00 0.100484990665800D+03
 0.100484990665800D+03 0.000000000000000D+00 0.000000000000000D+00 -.100484990665800D+03
 0.990724022636056D+02 0.158367081616188D+02 -.229943417854473D+02 0.808442936189031D+02
 0.174205785290062D+02 -.877051404420441D+01 -.140969966537100D+02 -.527535070217863D+01
 0.844770005389885D+02 -.706619411741443D+01 0.370913384391573D+02 -.755689429167245D+02
 0.000000000000000D+00 -.000000000000000D+00 -.000000000000000D+00 -.000000000000000D+00
 0.101175686949037D+03 0.000000000000000D+00 0.000000000000000D+00 0.101175686949037D+03
 0.108520569873981D+03 0.000000000000000D+00 0.000000000000000D+00 -.108520569873981D+03
 0.986646894063660D+02 0.163410269138709D+02 -.207820105936693D+02 0.808442936189031D+02
 0.170649407791332D+02 -.868256041890647D+01 -.137111641860342D+02 -.527535070217863D+01
 0.852932862320853D+02 -.663320332913703D+01 0.389907701425810D+02 -.755689429167245D+02
 0.867334040543295D+01 -.102526316582739D+01 -.449759536287761D+01 -.734488292494409D+01
0.493249354661D-06 0.000000000000D+00 0.000000000000D+00 0.253852943283D-05 0.000000000000D+00  6 22 1 9900012 13 2 21 0 0.12848138D-02 0.18600966D+00 0.31152209D+04 0.31152209D+04 0.31152209D+04 0.12656639D+01  1  2  2  1  6  2        1 0.482657879873D-04 0.100000000000D+01
0.114492780650D-07 0.000000000000D+00 -.947103698719D-09 0.253852943283D-05 0.000000000000D+00  6 22 1 9900012 13 2 21 2 0.12848138D-02 0.18600966D+00 0.31152209D+04 0.31152209D+04 0.31152209D+04 0.12656639D+01  1  2  3  1  6  2        1 0.179468299856D-05 0.100000000000D+01
-.606111037039D-07 0.000000000000D+00 0.000000000000D+00 0.253852943283D-05 0.000000000000D+00  6 22 1 9900012 13 2 21 2 0.12848138D-02 0.18600966D+00 0.31152209D+04 0.31152209D+04 0.31152209D+04 0.12656639D+01  1  2 15  1  6  2        1 -.950083636046D-05 0.100000000000D+01
0.118459400139D-05 0.000000000000D+00 0.000000000000D+00 0.253852943283D-05 0.000000000000D+00  6 22 1 9900012 13 2 21 2 0.12848138D-02 0.20226527D+00 0.34194443D+04 0.34194443D+04 0.34194443D+04 0.12608610D+01  1  2 12  1  6  2        1 0.157939920607D-03 0.100000000000D+01
-.666646049692D-06 0.000000000000D+00 0.000000000000D+00 0.253852943283D-05 0.000000000000D+00  6 22 1 9900012 13 2 21 2 0.12848138D-02 0.18600966D+00 0.31152209D+04 0.31152209D+04 0.31152209D+04 0.12656639D+01  1  2  4  1  6  2        1 -.104497272635D-03 0.100000000000D+01
-.589148927950D-05 0.000000000000D+00 -.633336630015D-06 0.253852943283D-05 0.000000000000D+00  6 22 1 9900012 13 2 21 2 0.12848138D-02 0.20147903D+00 0.31152209D+04 0.31152209D+04 0.31152209D+04 0.12656639D+01  1  2  5  1  6  2        1 -.792792465104D-03 0.100000000000D+01
0.592518306008D-05 0.000000000000D+00 0.631321048886D-06 0.253852943283D-05 0.000000000000D+00  6 22 1 9900012 13 2 21 2 0.12848138D-02 0.18600966D+00 0.31152209D+04 0.31152209D+04 0.31152209D+04 0.12656639D+01  1  2  6  1  6  2        1 0.928776927320D-03 0.100000000000D+01
0.433964831978D-06 0.000000000000D+00 0.000000000000D+00 0.253852943283D-05 0.194448333564D-06  6 22 1 9900012 13 2 21 2 0.12936451D-02 0.20088447D+00 0.34194443D+04 0.34194443D+04 0.34194443D+04 0.12608610D+01  1  2 11  1  6  2        1 0.581183370131D-04 0.100000000000D+01
0.174670860327D-07 0.000000000000D+00 0.000000000000D+00 0.253852943283D-05 0.000000000000D+00  6 22 21 9900012 13 2 -1 2 0.12848138D-02 0.20226527D+00 0.34194443D+04 0.34194443D+04 0.34194443D+04 0.12608610D+01  1  2 12  3  6  2        1 0.273142623043D-05 0.100000000000D+01
-.772242688715D-07 0.000000000000D+00 -.844876803526D-08 0.253852943283D-05 0.000000000000D+00  6 22 21 9900012 13 2 -1 2 0.12848138D-02 0.20147903D+00 0.31152209D+04 0.31152209D+04 0.31152209D+04 0.12656639D+01  1  2  5  3  6  2        1 -.122903730330D-04 0.100000000000D+01
0.336702708276D-07 0.000000000000D+00 0.000000000000D+00 0.253852943283D-05 0.125715908773D-07  6 22 21 9900012 13 2 -1 2 0.12936451D-02 0.20088447D+00 0.34194443D+04 0.34194443D+04 0.34194443D+04 0.12608610D+01  1  2 11  3  6  2        1 0.532981812366D-05 0.100000000000D+01
  </mgrwgt>
  </event>
  <event>
  6     66 0.10827799E-05 0.56220163E+02 0.78161638E-02 0.11532427E+00
       22 -1    0    0    0    0 0.00000000E+00 0.00000000E+00 0.21650113E+03 0.21650113E+03 0.00000000E+00 0.0000E+00 0.9000E+01
        1 -1    0    0  501    0 0.00000000E+00 0.00000000E+00 -.32071179E+02 0.32071179E+02 0.00000000E+00 0.0000E+00 0.9000E+01
      -24  2    1    2    0    0 0.25585223E+02 -.50060993E+02 0.65980487E+02 0.11745792E+03 0.79260535E+02 0.0000E+00 0.0000E+00
  9900012  1    3    3    0    0 -.65211843E+01 -.24582922E+02 0.40622344E+02 0.69260528E+02 0.50000000E+02 0.0000E+00 0.9000E+01
       13  1    3    3    0    0 0.32106407E+02 -.25478071E+02 0.25358142E+02 0.48197395E+02 0.00000000E+00 0.0000E+00 0.9000E+01
        2  1    1    2  501    0 -.25585223E+02 0.50060993E+02 0.11844946E+03 0.13111439E+03 0.00000000E+00 0.0000E+00 0.9000E+01
#aMCatNLO 1  0  0  2  5 0.68898793D+02 0.00000000D+00  -5  6  0 0.00000000D+00 0.00000000D+00 0.00000000D+00 0.00000000D+00 0.00000000D+00
  <mgrwgt>
 0.6880910842D-04    7    2    0
 0.833273457474226D+02 0.000000000000000D+00 0.000000000000000D+00 0.833273457474226D+02
 0.833273457474226D+02 0.000000000000000D+00 0.000000000000000D+00 -.833273457474226D+02
 0.583498273475855D+02 -.652118431507825D+01 -.245829223723806D+02 -.160579087759061D+02
 0.438255699078683D+02 0.321064074572715D+02 -.254780710801768D+02 -.155153817861686D+02
 0.644792942393914D+02 -.255852231421933D+02 0.500609934525574D+02 0.315732905620747D+02
 0.000000000000000D+00 0.000000000000000D+00 0.000000000000000D+00 -.000000000000000D+00
 0.109542218865268D+03 0.000000000000000D+00 0.000000000000000D+00 0.109542218865268D+03
 0.116425342590291D+03 0.000000000000000D+00 0.000000000000000D+00 -.116425342590291D+03
 0.657803041857045D+02 -.237279394901898D+02 -.317202911723455D+02 -.160579087759061D+02
 0.397363268030681D+02 0.205231675064830D+02 -.302828035579683D+02 -.155153817861686D+02
 0.688175679725573D+02 -.440626584382033D+02 0.423965460397257D+02 0.315732905620747D+02
 0.516333624942294D+02 0.472674304219101D+02 0.196065486905881D+02 -.688312372502307D+01
0.552898030146D-06 0.000000000000D+00 0.000000000000D+00 0.172961965724D-06 0.000000000000D+00  6 22 1 9900012 13 2 21 0 0.33307866D-01 0.49340276D-02 0.58755409D+04 0.58755409D+04 0.58755409D+04 0.12340344D+01  1  2  2  1  6  2        1 0.744352228775D-04 0.100000000000D+01
-.317928448875D-07 0.000000000000D+00 -.106163700858D-08 0.172961965724D-06 0.000000000000D+00  6 22 1 9900012 13 2 21 2 0.33307866D-01 0.49340276D-02 0.58755409D+04 0.58755409D+04 0.58755409D+04 0.12340344D+01  1  2  3  1  6  2        1 -.651804493372D-05 0.100000000000D+01
-.591647003482D-07 0.000000000000D+00 0.000000000000D+00 0.172961965724D-06 0.000000000000D+00  6 22 1 9900012 13 2 21 2 0.33307866D-01 0.49340276D-02 0.58755409D+04 0.58755409D+04 0.58755409D+04 0.12340344D+01  1  2 15  1  6  2        1 -.121297158755D-04 0.100000000000D+01
-.105804321157D-06 0.000000000000D+00 0.000000000000D+00 0.172961965724D-06 0.000000000000D+00  6 22 1 9900012 13 2 21 2 0.33307866D-01 0.49340276D-02 0.58755409D+04 0.58755409D+04 0.58755409D+04 0.12340344D+01  1  2  4  1  6  2        1 -.216915888440D-04 0.100000000000D+01
-.186559483176D-06 0.000000000000D+00 -.173973614468D-06 0.172961965724D-06 0.000000000000D+00  6 22 1 9900012 13 2 21 2 0.33307866D-01 0.90321566D-02 0.58755409D+04 0.58755409D+04 0.58755409D+04 0.12340344D+01  1  2  5  1  6  2        1 -.172172185894D-04 0.100000000000D+01
0.268702738156D-06 0.000000000000D+00 0.146389548180D-06 0.172961965724D-06 0.000000000000D+00  6 22 1 9900012 13 2 21 2 0.33307866D-01 0.49340276D-02 0.58755409D+04 0.58755409D+04 0.58755409D+04 0.12340344D+01  1  2  6  1  6  2        1 0.550883863118D-04 0.100000000000D+01
-.284978900824D-08 0.000000000000D+00 -.114965957787D-07 0.172961965724D-06 0.000000000000D+00  6 22 21 9900012 13 2 -1 2 0.33307866D-01 0.90321566D-02 0.58755409D+04 0.58755409D+04 0.58755409D+04 0.12340344D+01  1  2  5  3  6  2        1 -.315793252982D-05 0.100000000000D+01
  </mgrwgt>
  </event>
  <event>
  7     66 -.10827799E-05 0.21808185E+02 0.78161638E-02 0.12317475E+00
       22 -1    0    0    0    0 0.00000000E+00 0.00000000E+00 0.16512553E+02 0.16512553E+02 0.00000000E+00 0.0000E+00 0.9000E+01
        1 -1    0    0  501    0 -.00000000E+00 -.00000000E+00 -.85233920E+03 0.85233920E+03 0.00000000E+00 0.0000E+00 0.9000E+01
      -24  2    1    2    0    0 0.39470731E+02 -.24326878E+02 -.11866379E+03 0.14963816E+03 0.78490438E+02 0.0000E+00 0.0000E+00
  9900012  1    3    3    0    0 0.47505204E+02 -.41857976E+01 -.84221233E+02 0.10893797E+03 0.50000000E+02 0.0000E+00 0.9000E+01
       13  1    3    3    0    0 -.80344727E+01 -.20141080E+02 -.34442559E+02 0.40700193E+02 0.00000000E+00 0.0000E+00 0.9000E+01
        2  1    1    2  502    0 -.27972185E+02 0.11735228E+02 -.60519508E+03 0.60595482E+03 0.00000000E+00 0.0000E+00 0.9000E+01
       21  1    1    2  501  502 -.11498546E+02 0.12591649E+02 -.11196777E+03 0.11325876E+03 0.00000000E+00 0.0000E+00 0.9000E+01
#aMCatNLO 2  0  0  5  2 0.11050621D+02 0.00000000D+00  -5  6  0 0.00000000D+00 0.00000000D+00 0.00000000D+00 0.00000000D+00 0.00000000D+00
  <mgrwgt>
 -.1512852039D-03    2    2    0
 0.118635138026191D+03 0.000000000000000D+00 0.000000000000000D+00 0.118635138026191D+03
 0.118635138026191D+03 -.000000000000000D+00 -.000000000000000D+00 -.118635138026191D+03
 0.103631455675854D+03 0.481342482253058D+02 -.457349466701447D+01 0.768222357121423D+02
 0.279862374599452D+02 -.786428939204631D+01 -.202459685872704D+02 0.176488865225500D+02
 0.105652582916583D+03 -.402699588332595D+02 0.248194632542849D+02 -.944711222346923D+02
 0.000000000000000D+00 0.000000000000000D+00 0.000000000000000D+00 0.000000000000000D+00
 0.118635138026191D+03 0.000000000000000D+00 0.000000000000000D+00 0.118635138026191D+03
 0.118635138026191D+03 -.000000000000000D+00 -.000000000000000D+00 -.118635138026191D+03
 0.102231918578729D+03 0.475052038466574D+02 -.418579762699953D+01 0.753465319839017D+02
 0.277085930926132D+02 -.803447274887566D+01 -.201410799880840D+02 0.172496456697867D+02
 0.870177802067925D+02 -.279721853406746D+02 0.117352282982519D+02 -.815593975956940D+02
 0.203119841742478D+02 -.114985457571072D+02 0.125916493168316D+02 -.110367800579943D+02
-.162285916562D-05 0.000000000000D+00 0.000000000000D+00 0.118614284250D-05 0.000000000000D+00  6 22 1 9900012 13 2 21 2 0.25403927D-02 0.13112911D+00 0.47724958D+04 0.47724958D+04 0.47724958D+04 0.12441300D+01  1  2 13  2  6  5        2 -.184105739858D-03 0.100000000000D+01
0.289307153459D-06 0.000000000000D+00 0.000000000000D+00 0.118614284250D-05 0.115058389600D-07  6 22 1 9900012 13 2 21 2 0.25403927D-02 0.13112911D+00 0.47724958D+04 0.47724958D+04 0.47724958D+04 0.12441300D+01  1  2  1  2  6  5        2 0.328205359172D-04 0.100000000000D+01
  </mgrwgt>
  </event>
  <event>
  6     66 0.10827799E-05 0.70670872E+02 0.78161638E-02 0.10298366E+00
       22 -1    0    0    0    0 0.00000000E+00 0.00000000E+00 0.13123005E+04 0.13123005E+04 0.00000000E+00 0.0000E+00 0.9000E+01
        3 -1    0    0  501    0 0.00000000E+00 0.00000000E+00 -.54652281E+02 0.54652281E+02 0.00000000E+00 0.0000E+00 0.9000E+01
      -24  2    1    2    0    0 0.14935932E+03 -.16877821E+03 0.98296369E+03 0.10116418E+04 0.80045378E+02 0.0000E+00 0.0000E+00
  9900012  1    3    3    0    0 0.60073522E+02 -.67525020E+02 0.38351244E+03 0.39717785E+03 0.50000000E+02 0.0000E+00 0.9000E+01
       13  1    3    3    0    0 0.89285799E+02 -.10125319E+03 0.59945125E+03 0.61446396E+03 0.00000000E+00 0.0000E+00 0.9000E+01
        4  1    1    2  501    0 -.14935932E+03 0.16877821E+03 0.27468455E+03 0.35531098E+03 0.00000000E+00 0.0000E+00 0.9000E+01
#aMCatNLO 1  0  0  2  5 0.16399218D+02 0.00000000D+00  -5  6  0 0.00000000D+00 0.00000000D+00 0.00000000D+00 0.00000000D+00 0.00000000D+00
  <mgrwgt>
 0.5802806858D-04    9    2    0
 0.267806303563815D+03 0.000000000000000D+00 0.000000000000000D+00 0.267806303563815D+03
 0.267806303563815D+03 0.000000000000000D+00 0.000000000000000D+00 -.267806303563815D+03
 0.113140793776602D+03 0.600735219594786D+02 -.675250199483655D+02 0.461777311780946D+02
 0.160646756783948D+03 0.892857988885123D+02 -.101253192548536D+03 0.870816718992578D+02
 0.261825056567080D+03 -.149359320847991D+03 0.168778212496902D+03 -.133259403077352D+03
 0.000000000000000D+00 0.000000000000000D+00 -.000000000000000D+00 -.000000000000000D+00
 0.268684190444642D+03 0.000000000000000D+00 0.000000000000000D+00 0.268684190444642D+03
 0.356124726638091D+03 0.000000000000000D+00 0.000000000000000D+00 -.356124726638091D+03
 0.110448328387650D+03 0.576389233669392D+02 -.651475625021383D+02 0.461777311780946D+02
 0.156622548277000D+03 0.858311433306721D+02 -.978796193421335D+02 0.870816718992578D+02
 0.268789913812584D+03 -.155137036899480D+03 0.174420322901012D+03 -.133259403077352D+03
 0.889481266054991D+02 0.116669702018684D+02 -.113931410567401D+02 -.874405361934488D+02
0.359543580776D-05 0.000000000000D+00 0.000000000000D+00 0.188673728881D-05 0.000000000000D+00  6 22 3 9900012 13 4 21 0 0.20189239D+00 0.84080432D-02 0.53745383D+05 0.53745383D+05 0.53745383D+05 0.11402286D+01  1  2  2  1  6  2        3 0.644316916987D-05 0.100000000000D+01
-.727959739374D-07 0.000000000000D+00 -.690371010089D-08 0.188673728881D-05 0.000000000000D+00  6 22 3 9900012 13 4 21 2 0.20189239D+00 0.84080432D-02 0.53745383D+05 0.53745383D+05 0.53745383D+05 0.11402286D+01  1  2  3  1  6  2        3 -.169605218884D-06 0.100000000000D+01
-.456675913439D-06 0.000000000000D+00 0.000000000000D+00 0.188673728881D-05 0.000000000000D+00  6 22 3 9900012 13 4 21 2 0.20189239D+00 0.84080432D-02 0.53745383D+05 0.53745383D+05 0.53745383D+05 0.11402286D+01  1  2 15  1  6  2        3 -.106399590621D-05 0.100000000000D+01
0.802366859295D-04 0.000000000000D+00 0.000000000000D+00 0.188673728881D-05 0.000000000000D+00  6 22 3 9900012 13 4 21 2 0.20189239D+00 0.11217539D-01 0.57660456D+05 0.57660456D+05 0.57660456D+05 0.11375987D+01  1  2 12  1  6  2        3 0.116848469583D-03 0.100000000000D+01
-.550189957415D-04 0.000000000000D+00 0.000000000000D+00 0.188673728881D-05 0.000000000000D+00  6 22 3 9900012 13 4 21 2 0.20189239D+00 0.84080432D-02 0.53745383D+05 0.53745383D+05 0.53745383D+05 0.11402286D+01  1  2  4  1  6  2        3 -.128187155289D-03 0.100000000000D+01
-.828456577651D-04 0.000000000000D+00 -.179689625778D-05 0.188673728881D-05 0.000000000000D+00  6 22 3 9900012 13 4 21 2 0.20189239D+00 0.11202746D-01 0.53745383D+05 0.53745383D+05 0.53745383D+05 0.11402286D+01  1  2  5  1  6  2        3 -.120976110607D-03 0.100000000000D+01
0.801114806797D-04 0.000000000000D+00 0.172536389688D-05 0.188673728881D-05 0.000000000000D+00  6 22 3 9900012 13 4 21 2 0.20189239D+00 0.84080432D-02 0.53745383D+05 0.53745383D+05 0.53745383D+05 0.11402286D+01  1  2  6  1  6  2        3 0.186649404918D-03 0.100000000000D+01
0.301348164627D-05 0.000000000000D+00 0.000000000000D+00 0.188673728881D-05 0.000000000000D+00  6 22 21 9900012 13 4 -3 2 0.20189239D+00 0.11217539D-01 0.57660456D+05 0.57660456D+05 0.57660456D+05 0.11375987D+01  1  2 12  3  6  2        3 0.728749808061D-04 0.100000000000D+01
-.306354816545D-05 0.000000000000D+00 -.672626670856D-07 0.188673728881D-05 0.000000000000D+00  6 22 21 9900012 13 4 -3 2 0.20189239D+00 0.11202746D-01 0.53745383D+05 0.53745383D+05 0.53745383D+05 0.11402286D+01  1  2  5  3  6  2        3 -.743910888782D-04 0.100000000000D+01
  </mgrwgt>
  </event>
  <event>
  6     66 0.10827799E-05 0.52724331E+02 0.78161638E-02 0.11710907E+00
       22 -1    0    0    0    0 0.00000000E+00 0.00000000E+00 0.33344542E+03 0.33344542E+03 0.00000000E+00 0.0000E+00 0.9000E+01
        1 -1    0    0  501    0 0.00000000E+00 0.00000000E+00 -.64593538E+03 0.64593538E+03 0.00000000E+00 0.0000E+00 0.9000E+01
      -24  2    1    2    0    0 -.45163351E+02 -.63977983E+02 0.32152131E+03 0.34055125E+03 0.80413240E+02 0.0000E+00 0.0000E+00
  9900012  1    3    3    0    0 -.46093574E+01 -.36213501E+02 0.20341135E+03 0.21262371E+03 0.50000000E+02 0.0000E+00 0.9000E+01
       13  1    3    3    0    0 -.40553993E+02 -.27764482E+02 0.11810996E+03 0.12792754E+03 0.00000000E+00 0.0000E+00 0.9000E+01
        2  1    1    2  501    0 0.45163351E+02 0.63977983E+02 -.63401127E+03 0.63882956E+03 0.00000000E+00 0.0000E+00 0.9000E+01
#aMCatNLO 1  0  0  2  5 0.22528302D+01 0.00000000D+00  -5  6  0 0.00000000D+00 0.00000000D+00 0.00000000D+00 0.00000000D+00 0.00000000D+00
  <mgrwgt>
 0.1324042753D-02   11    2    0
 0.464095029218836D+03 0.000000000000000D+00 0.000000000000000D+00 0.464095029218836D+03
 0.464095029218836D+03 0.000000000000000D+00 0.000000000000000D+00 -.464095029218836D+03
 0.292831822672738D+03 -.460935742820896D+01 -.362135012698940D+02 0.286212879723663D+03
 0.174746485128829D+03 -.405539932274959D+02 -.277644817547081D+02 0.167692698860376D+03
 0.460611750636105D+03 0.451633506557049D+02 0.639779830246020D+02 -.453905578584039D+03
 0.000000000000000D+00 0.000000000000000D+00 -.000000000000000D+00 -.000000000000000D+00
 0.464110355213423D+03 0.000000000000000D+00 0.000000000000000D+00 0.464110355213423D+03
 0.554973466992918D+03 0.000000000000000D+00 0.000000000000000D+00 -.554973466992918D+03
 0.292750887505775D+03 -.479730703214490D+01 -.355282347006753D+02 0.286212879723663D+03
 0.174708050569831D+03 -.406661547384773D+02 -.273555395051954D+02 0.167692698860376D+03
 0.460733853802465D+03 0.448676340328737D+02 0.650561694711005D+02 -.453905578584039D+03
 0.908910303282700D+02 0.595827737748522D+00 -.217239526522986D+01 -.908631117794952D+02
0.884868792500D-05 0.000000000000D+00 0.000000000000D+00 0.345466485479D-03 0.000000000000D+00  6 22 1 9900012 13 2 21 0 0.51299296D-01 0.99374674D-01 0.89651618D+04 0.89651618D+04 0.89651618D+04 0.12142792D+01  1  2  2  1  6  2        1 0.128595235995D-04 0.100000000000D+01
0.214732881918D-06 0.000000000000D+00 -.169906457725D-07 0.345466485479D-03 0.000000000000D+00  6 22 1 9900012 13 2 21 2 0.51299296D-01 0.99374674D-01 0.89651618D+04 0.89651618D+04 0.89651618D+04 0.12142792D+01  1  2  3  1  6  2        1 0.460131187975D-06 0.100000000000D+01
-.119133237250D-05 0.000000000000D+00 0.000000000000D+00 0.345466485479D-03 0.000000000000D+00  6 22 1 9900012 13 2 21 2 0.51299296D-01 0.99374674D-01 0.89651618D+04 0.89651618D+04 0.89651618D+04 0.12142792D+01  1  2 15  1  6  2        1 -.255279571035D-05 0.100000000000D+01
0.424779373169D-04 0.000000000000D+00 0.000000000000D+00 0.345466485479D-03 0.000000000000D+00  6 22 1 9900012 13 2 21 2 0.51299296D-01 0.11883801D+00 0.91983354D+04 0.91983354D+04 0.91983354D+04 0.12131100D+01  1  2 12  1  6  2        1 0.700945792848D-04 0.100000000000D+01
-.130090412117D-01 0.000000000000D+00 0.000000000000D+00 0.345466485479D-03 0.000000000000D+00  6 22 1 9900012 13 2 21 2 0.51299296D-01 0.99374674D-01 0.89651618D+04 0.89651618D+04 0.89651618D+04 0.12142792D+01  1  2  4  1  6  2        1 -.278758685382D-01 0.100000000000D+01
-.162494960544D-01 0.000000000000D+00 -.596926845964D-05 0.345466485479D-03 0.000000000000D+00  6 22 1 9900012 13 2 21 2 0.51299296D-01 0.11883566D+00 0.89651618D+04 0.89651618D+04 0.89651618D+04 0.12142792D+01  1  2  5  1  6  2        1 -.268497551002D-01 0.100000000000D+01
0.159941862266D-01 0.000000000000D+00 0.587506009709D-05 0.345466485479D-03 0.000000000000D+00  6 22 1 9900012 13 2 21 2 0.51299296D-01 0.99374674D-01 0.89651618D+04 0.89651618D+04 0.89651618D+04 0.12142792D+01  1  2  6  1  6  2        1 0.342724590824D-01 0.100000000000D+01
0.131659489801D-01 0.000000000000D+00 0.000000000000D+00 0.345466485479D-03 0.442208767279D-03  6 22 1 9900012 13 2 21 2 0.51300990D-01 0.11883408D+00 0.91983354D+04 0.91983354D+04 0.91983354D+04 0.12131100D+01  1  2 11  1  6  2        1 0.217255472120D-01 0.100000000000D+01
0.111476854986D-05 0.000000000000D+00 0.000000000000D+00 0.345466485479D-03 0.000000000000D+00  6 22 21 9900012 13 2 -1 2 0.51299296D-01 0.11883801D+00 0.91983354D+04 0.91983354D+04 0.91983354D+04 0.12131100D+01  1  2 12  3  6  2        1 0.375821508813D-05 0.100000000000D+01
-.426349663106D-03 0.000000000000D+00 -.156640767662D-06 0.345466485479D-03 0.000000000000D+00  6 22 21 9900012 13 2 -1 2 0.51299296D-01 0.11883566D+00 0.89651618D+04 0.89651618D+04 0.89651618D+04 0.12142792D+01  1  2  5  3  6  2        1 -.144054539514D-02 0.100000000000D+01
0.417508204864D-03 0.000000000000D+00 0.000000000000D+00 0.345466485479D-03 0.139849413060D-04  6 22 21 9900012 13 2 -1 2 0.51300990D-01 0.11883408D+00 0.91983354D+04 0.91983354D+04 0.91983354D+04 0.12131100D+01  1  2 11  3  6  2        1 0.140758583909D-02 0.100000000000D+01
  </mgrwgt>
  </event>
  <event>
  6     66 0.10827799E-05 0.34579163E+02 0.78161638E-02 0.12562102E+00
       22 -1    0    0    0    0 0.00000000E+00 0.00000000E+00 0.28977823E+03 0.28977823E+03 0.00000000E+00 0.0000E+00 0.9000E+01
        1 -1    0    0  501    0 0.00000000E+00 0.00000000E+00 -.19996125E+02 0.19996125E+02 0.00000000E+00 0.0000E+00 0.9000E+01
      -24  2    1    2    0    0 0.63222067E+01 -.41683694E+02 0.24503090E+03 0.26088547E+03 0.79016370E+02 0.0000E+00 0.0000E+00
  9900012  1    3    3    0    0 -.10134606E+01 -.16057776E+02 0.21216061E+03 0.21856579E+03 0.50000000E+02 0.0000E+00 0.9000E+01
       13  1    3    3    0    0 0.73356673E+01 -.25625918E+02 0.32870292E+02 0.42319686E+02 0.00000000E+00 0.0000E+00 0.9000E+01
        2  1    1    2  501    0 -.63222067E+01 0.41683694E+02 0.24751201E+02 0.48888880E+02 0.00000000E+00 0.0000E+00 0.9000E+01
#aMCatNLO 1  0  0  2  5 0.79543628D+00 0.00000000D+00  -5  6  0 0.00000000D+00 0.00000000D+00 0.00000000D+00 0.00000000D+00 0.00000000D+00
  <mgrwgt>
 0.6276597089D-04   11    2    0
 0.761212307322267D+02 0.000000000000000D+00 0.000000000000000D+00 0.761212307322267D+02
 0.761212307322267D+02 0.000000000000000D+00 0.000000000000000D+00 -.761212307322267D+02
 0.687649165459339D+02 -.101346059525084D+01 -.160577761075308D+02 0.443816907256983D+02
 0.278617192270214D+02 0.733566730305681D+01 -.256259180421960D+02 -.811022243831148D+01
 0.556158256914981D+02 -.632220670780598D+01 0.416836941497267D+02 -.362714682873869D+02
 0.000000000000000D+00 -.000000000000000D+00 -.000000000000000D+00 -.000000000000000D+00
 0.761408320084865D+02 0.000000000000000D+00 0.000000000000000D+00 0.761408320084865D+02
 0.846220448405862D+02 0.000000000000000D+00 0.000000000000000D+00 -.846220448405862D+02
 0.687008295704613D+02 -.769490180643396D+00 -.157948534928287D+02 0.443816907256983D+02
 0.277901100251085D+02 0.743443663461675D+01 -.255194760748455D+02 -.811022243831148D+01
 0.557535948201648D+02 -.612455133208921D+01 0.418967038635356D+02 -.362714682873869D+02
 0.851834243333817D+01 -.540395121884143D+00 -.582374295861401D+00 -.848121283209975D+01
0.718582713758D-07 0.000000000000D+00 0.000000000000D+00 0.350713419054D-06 0.000000000000D+00  6 22 1 9900012 13 2 21 0 0.44581265D-01 0.30763270D-02 0.36808884D+04 0.36808884D+04 0.36808884D+04 0.12571044D+01  1  2  2  1  6  2        1 0.108633738919D-04 0.100000000000D+01
-.129556155714D-09 0.000000000000D+00 -.137977341400D-09 0.350713419054D-06 0.000000000000D+00  6 22 1 9900012 13 2 21 2 0.44581265D-01 0.30763270D-02 0.36808884D+04 0.36808884D+04 0.36808884D+04 0.12571044D+01  1  2  3  1  6  2        1 -.309519973604D-07 0.100000000000D+01
-.802721661323D-08 0.000000000000D+00 0.000000000000D+00 0.350713419054D-06 0.000000000000D+00  6 22 1 9900012 13 2 21 2 0.44581265D-01 0.30763270D-02 0.36808884D+04 0.36808884D+04 0.36808884D+04 0.12571044D+01  1  2 15  1  6  2        1 -.191776597612D-05 0.100000000000D+01
0.189476075588D-10 0.000000000000D+00 0.000000000000D+00 0.350713419054D-06 0.000000000000D+00  6 22 1 9900012 13 2 21 2 0.44581265D-01 0.34207555D-02 0.37306385D+04 0.37306385D+04 0.37306385D+04 0.12564236D+01  1  2 12  1  6  2        1 0.392908208485D-08 0.100000000000D+01
-.155053327014D-04 0.000000000000D+00 0.000000000000D+00 0.350713419054D-06 0.000000000000D+00  6 22 1 9900012 13 2 21 2 0.44581265D-01 0.30763270D-02 0.36808884D+04 0.36808884D+04 0.36808884D+04 0.12571044D+01  1  2  4  1  6  2        1 -.370434746386D-02 0.100000000000D+01
-.181411896817D-04 0.000000000000D+00 -.864635332090D-07 0.350713419054D-06 0.000000000000D+00  6 22 1 9900012 13 2 21 2 0.44581265D-01 0.34203782D-02 0.36808884D+04 0.36808884D+04 0.36808884D+04 0.12571044D+01  1  2  5  1  6  2        1 -.376068706740D-02 0.100000000000D+01
0.180493153295D-04 0.000000000000D+00 0.859799105527D-07 0.350713419054D-06 0.000000000000D+00  6 22 1 9900012 13 2 21 2 0.44581265D-01 0.30763270D-02 0.36808884D+04 0.36808884D+04 0.36808884D+04 0.12571044D+01  1  2  6  1  6  2        1 0.431212517351D-02 0.100000000000D+01
0.155589792676D-04 0.000000000000D+00 0.000000000000D+00 0.350713419054D-06 0.409880379315D-05  6 22 1 9900012 13 2 21 2 0.44592745D-01 0.34198748D-02 0.37306385D+04 0.37306385D+04 0.37306385D+04 0.12564236D+01  1  2 11  1  6  2        1 0.322615925339D-02 0.100000000000D+01
0.323900947935D-12 0.000000000000D+00 0.000000000000D+00 0.350713419054D-06 0.000000000000D+00  6 22 21 9900012 13 2 -1 2 0.44581265D-01 0.34207555D-02 0.37306385D+04 0.37306385D+04 0.37306385D+04 0.12564236D+01  1  2 12  3  6  2        1 0.103835053257D-08 0.100000000000D+01
-.309521535190D-06 0.000000000000D+00 -.147673989270D-08 0.350713419054D-06 0.000000000000D+00  6 22 21 9900012 13 2 -1 2 0.44581265D-01 0.34203782D-02 0.36808884D+04 0.36808884D+04 0.36808884D+04 0.12571044D+01  1  2  5  3  6  2        1 -.991928278766D-03 0.100000000000D+01
0.303374401539D-06 0.000000000000D+00 0.000000000000D+00 0.350713419054D-06 0.797547761677D-07  6 22 21 9900012 13 2 -1 2 0.44592745D-01 0.34198748D-02 0.37306385D+04 0.37306385D+04 0.37306385D+04 0.12564236D+01  1  2 11  3  6  2        1 0.972524730663D-03 0.100000000000D+01
  </mgrwgt>
  </event>
  <event>
  6     66 0.10827799E-05 0.25185313E+02 0.78161638E-02 0.12635803E+00
       22 -1    0    0    0    0 0.00000000E+00 0.00000000E+00 0.65286605E+03 0.65286605E+03 0.00000000E+00 0.0000E+00 0.9000E+01
        3 -1    0    0  501    0 0.00000000E+00 0.00000000E+00 -.68796953E+01 0.68796953E+01 0.00000000E+00 0.0000E+00 0.9000E+01
      -24  2    1    2    0    0 -.21485854E+02 -.22349990E+02 0.58471355E+03 0.59107609E+03 0.80745612E+02 0.0000E+00 0.0000E+00
  9900012  1    3    3    0    0 -.28252577E+02 -.38370404E+02 0.47353652E+03 0.47854711E+03 0.50000000E+02 0.0000E+00 0.9000E+01
       13  1    3    3    0    0 0.67667228E+01 0.16020414E+02 0.11117702E+03 0.11252899E+03 0.00000000E+00 0.0000E+00 0.9000E+01
        4  1    1    2  501    0 0.21485854E+02 0.22349990E+02 0.61272812E+02 0.68669655E+02 0.00000000E+00 0.0000E+00 0.9000E+01
#aMCatNLO 1  0  0  2  5 0.40772297D+01 0.00000000D+00  -5  6  0 0.00000000D+00 0.00000000D+00 0.00000000D+00 0.00000000D+00 0.00000000D+00
  <mgrwgt>
 0.1058261987D-03   10    2    0
 0.670187999685568D+02 0.000000000000000D+00 0.000000000000000D+00 0.670187999685568D+02
 0.670187999685568D+02 0.000000000000000D+00 0.000000000000000D+00 -.670187999685568D+02
 0.732726206680075D+02 -.282525772781067D+02 -.383704039149090D+02 0.244618257721917D+02
 0.180671675791211D+02 0.676672283964831D+01 0.160204136397272D+02 0.489697387735226D+01
 0.426978116899849D+02 0.214858544384584D+02 0.223499902751818D+02 -.293587996495440D+02
 0.000000000000000D+00 -.000000000000000D+00 0.000000000000000D+00 0.000000000000000D+00
 0.690810481943320D+02 0.000000000000000D+00 0.000000000000000D+00 0.690810481943320D+02
 0.670335864308174D+02 0.000000000000000D+00 0.000000000000000D+00 -.670335864308174D+02
 0.732343241407219D+02 -.280725795960319D+02 -.384293584003650D+02 0.244618257721917D+02
 0.180709618526480D+02 0.681112196039123D+01 0.160058716340306D+02 0.489697387735226D+01
 0.427327619977776D+02 0.215908140037691D+02 0.223156129593450D+02 -.293587996495440D+02
 0.207658663400192D+01 -.329356368128492D+00 0.107873806989434D+00 0.204746176351458D+01
0.280497561993D-06 0.000000000000D+00 0.000000000000D+00 0.231348313665D-06 0.000000000000D+00  6 22 3 9900012 13 4 21 0 0.10044093D+00 0.10584147D-02 0.34493473D+04 0.34493473D+04 0.34493473D+04 0.12604152D+01  1  2  2  1  6  2        3 0.384347113782D-04 0.100000000000D+01
0.628390795505D-08 0.000000000000D+00 -.538592247378D-09 0.231348313665D-06 0.000000000000D+00  6 22 3 9900012 13 4 21 2 0.10044093D+00 0.10584147D-02 0.34493473D+04 0.34493473D+04 0.34493473D+04 0.12604152D+01  1  2  3  1  6  2        3 0.136789140062D-05 0.100000000000D+01
-.282016916705D-07 0.000000000000D+00 0.000000000000D+00 0.231348313665D-06 0.000000000000D+00  6 22 3 9900012 13 4 21 2 0.10044093D+00 0.10584147D-02 0.34493473D+04 0.34493473D+04 0.34493473D+04 0.12604152D+01  1  2 15  1  6  2        3 -.613899054456D-05 0.100000000000D+01
0.939024651796D-08 0.000000000000D+00 0.000000000000D+00 0.231348313665D-06 0.000000000000D+00  6 22 3 9900012 13 4 21 2 0.10044093D+00 0.10912241D-02 0.34704052D+04 0.34704052D+04 0.34704052D+04 0.12601039D+01  1  2 12  1  6  2        3 0.195925366423D-05 0.100000000000D+01
-.243837592623D-07 0.000000000000D+00 0.000000000000D+00 0.231348313665D-06 0.000000000000D+00  6 22 3 9900012 13 4 21 2 0.10044093D+00 0.10584147D-02 0.34493473D+04 0.34493473D+04 0.34493473D+04 0.12604152D+01  1  2  4  1  6  2        3 -.530789674964D-05 0.100000000000D+01
0.493976283044D-07 0.000000000000D+00 0.000000000000D+00 0.231348313665D-06 0.000000000000D+00  6 22 3 9900012 13 4 21 2 0.10044093D+00 0.10948259D-02 0.34493473D+04 0.34493473D+04 0.34493473D+04 0.12604152D+01  1  2  5  1  6  2        3 0.102557333440D-04 0.100000000000D+01
-.493693862119D-07 0.000000000000D+00 0.000000000000D+00 0.231348313665D-06 0.000000000000D+00  6 22 3 9900012 13 4 21 2 0.10044093D+00 0.10584147D-02 0.34493473D+04 0.34493473D+04 0.34493473D+04 0.12604152D+01  1  2  6  1  6  2        3 -.107468090456D-04 0.100000000000D+01
0.235676394973D-07 0.000000000000D+00 0.000000000000D+00 0.231348313665D-06 0.209840996433D-07  6 22 3 9900012 13 4 21 2 0.10353162D+00 0.10586482D-02 0.34704052D+04 0.34704052D+04 0.34704052D+04 0.12601039D+01  1  2 11  1  6  2        3 0.483871917402D-05 0.100000000000D+01
0.329291416984D-09 0.000000000000D+00 0.000000000000D+00 0.231348313665D-06 0.000000000000D+00  6 22 21 9900012 13 4 -3 2 0.10044093D+00 0.10912241D-02 0.34704052D+04 0.34704052D+04 0.34704052D+04 0.12601039D+01  1  2 12  3  6  2        3 0.139556475665D-05 0.100000000000D+01
0.166983748695D-07 0.000000000000D+00 0.000000000000D+00 0.231348313665D-06 0.509821176682D-08  6 22 21 9900012 13 4 -3 2 0.10353162D+00 0.10586482D-02 0.34704052D+04 0.34704052D+04 0.34704052D+04 0.12601039D+01  1  2 11  3  6  2        3 0.697680212908D-04 0.100000000000D+01
  </mgrwgt>
  </event>
  <event>
  6     66 -.10827799E-05 0.33737544E+02 0.78161638E-02 0.12365753E+00
       22 -1    0    0    0    0 0.00000000E+00 0.00000000E+00 0.18830570E+02 0.18830570E+02 0.00000000E+00 0.0000E+00 0.9000E+01
        1 -1    0    0  501    0 0.00000000E+00 0.00000000E+00 -.32033712E+03 0.32033712E+03 0.00000000E+00 0.0000E+00 0.9000E+01
      -24  2    1    2    0    0 0.66424668E+01 0.43067564E+02 -.10676021E+03 0.13960548E+03 0.78695687E+02 0.0000E+00 0.0000E+00
  9900012  1    3    3    0    0 0.26033447E+02 0.20015664E+02 -.69891661E+02 0.91995714E+02 0.50000000E+02 0.0000E+00 0.9000E+01
       13  1    3    3    0    0 -.19390980E+02 0.23051900E+02 -.36868545E+02 0.47609766E+02 0.00000000E+00 0.0000E+00 0.9000E+01
        2  1    1    2  501    0 -.66424668E+01 -.43067564E+02 -.19474635E+03 0.19956221E+03 0.00000000E+00 0.0000E+00 0.9000E+01
#aMCatNLO 1  0  0  2  5 0.13659940D+01 0.00000000D+00  -5  6  0 0.00000000D+00 0.00000000D+00 0.00000000D+00 0.00000000D+00 0.00000000D+00
  <mgrwgt>
 -.6810510992D-04   11    2    0
 0.776667929080435D+02 0.000000000000000D+00 0.000000000000000D+00 0.776667929080435D+02
 0.776667929080435D+02 0.000000000000000D+00 0.000000000000000D+00 -.776667929080435D+02
 0.652092099556883D+02 0.260334470924270D+02 0.200156636400266D+02 0.259590813508523D+02
 0.323921357137514D+02 -.193909803097980D+02 0.230518998915829D+02 0.119100902646267D+02
 0.577322401466472D+02 -.664246678262894D+01 -.430675635316094D+02 -.378691716154790D+02
 0.000000000000000D+00 -.000000000000000D+00 -.000000000000000D+00 -.000000000000000D+00
 0.776931264216319D+02 0.000000000000000D+00 0.000000000000000D+00 0.776931264216319D+02
 0.976313709274136D+02 0.000000000000000D+00 0.000000000000000D+00 -.976313709274136D+02
 0.654004078106450D+02 0.260662589867442D+02 0.205885788643726D+02 0.259590813508523D+02
 0.325858801708864D+02 -.193746564599421D+02 0.233369240359358D+02 0.119100902646267D+02
 0.573532951423420D+02 -.661355486568188D+01 -.425627442357821D+02 -.378691716154790D+02
 0.199849142251720D+02 -.780476611201949D-01 -.136275866452630D+01 -.199382445057817D+02
0.385400229805D-07 0.000000000000D+00 0.000000000000D+00 0.193821764094D-06 0.000000000000D+00  6 22 1 9900012 13 2 21 0 0.28970108D-02 0.49282634D-01 0.44568534D+04 0.44568534D+04 0.44568534D+04 0.12475097D+01  1  2  2  1  6  2        1 0.877806251621D-05 0.100000000000D+01
0.273796989094D-09 0.000000000000D+00 -.740019180331D-10 0.193821764094D-06 0.000000000000D+00  6 22 1 9900012 13 2 21 2 0.28970108D-02 0.49282634D-01 0.44568534D+04 0.44568534D+04 0.44568534D+04 0.12475097D+01  1  2  3  1  6  2        1 0.970517214060D-07 0.100000000000D+01
-.450645046998D-08 0.000000000000D+00 0.000000000000D+00 0.193821764094D-06 0.000000000000D+00  6 22 1 9900012 13 2 21 2 0.28970108D-02 0.49282634D-01 0.44568534D+04 0.44568534D+04 0.44568534D+04 0.12475097D+01  1  2 15  1  6  2        1 -.159738343723D-05 0.100000000000D+01
0.765449335618D-09 0.000000000000D+00 0.000000000000D+00 0.193821764094D-06 0.000000000000D+00  6 22 1 9900012 13 2 21 2 0.28970108D-02 0.61971949D-01 0.45426009D+04 0.45426009D+04 0.45426009D+04 0.12465658D+01  1  2 12  1  6  2        1 0.203591935039D-06 0.100000000000D+01
-.877573685085D-05 0.000000000000D+00 0.000000000000D+00 0.193821764094D-06 0.000000000000D+00  6 22 1 9900012 13 2 21 2 0.28970108D-02 0.49282634D-01 0.44568534D+04 0.44568534D+04 0.44568534D+04 0.12475097D+01  1  2  4  1  6  2        1 -.311070027030D-02 0.100000000000D+01
-.760631263354D-05 0.000000000000D+00 -.221891453301D-07 0.193821764094D-06 0.000000000000D+00  6 22 1 9900012 13 2 21 2 0.28970108D-02 0.61959754D-01 0.44568534D+04 0.44568534D+04 0.44568534D+04 0.12475097D+01  1  2  5  1  6  2        1 -.202336158028D-02 0.100000000000D+01
0.741678632102D-05 0.000000000000D+00 0.216202040865D-07 0.193821764094D-06 0.000000000000D+00  6 22 1 9900012 13 2 21 2 0.28970108D-02 0.49282634D-01 0.44568534D+04 0.44568534D+04 0.44568534D+04 0.12475097D+01  1  2  6  1  6  2        1 0.262899852237D-02 0.100000000000D+01
0.910972808065D-05 0.000000000000D+00 0.000000000000D+00 0.193821764094D-06 0.106593064722D-05  6 22 1 9900012 13 2 21 2 0.28979931D-02 0.61950944D-01 0.45426009D+04 0.45426009D+04 0.45426009D+04 0.12465658D+01  1  2 11  1  6  2        1 0.242291548197D-02 0.100000000000D+01
0.242793652103D-10 0.000000000000D+00 0.000000000000D+00 0.193821764094D-06 0.000000000000D+00  6 22 21 9900012 13 2 -1 2 0.28970108D-02 0.61971949D-01 0.45426009D+04 0.45426009D+04 0.45426009D+04 0.12465658D+01  1  2 12  3  6  2        1 0.255636690575D-07 0.100000000000D+01
-.240788946109D-06 0.000000000000D+00 -.703367323512D-09 0.193821764094D-06 0.000000000000D+00  6 22 21 9900012 13 2 -1 2 0.28970108D-02 0.61959754D-01 0.44568534D+04 0.44568534D+04 0.44568534D+04 0.12475097D+01  1  2  5  3  6  2        1 -.253738266230D-03 0.100000000000D+01
0.247131846903D-06 0.000000000000D+00 0.000000000000D+00 0.193821764094D-06 0.288740341493D-07  6 22 21 9900012 13 2 -1 2 0.28979931D-02 0.61950944D-01 0.45426009D+04 0.45426009D+04 0.45426009D+04 0.12465658D+01  1  2 11  3  6  2        1 0.260274116152D-03 0.100000000000D+01
  </mgrwgt>
  </event>
  <event>
  6     66 0.10827799E-05 0.28138281E+02 0.78161638E-02 0.11895192E+00
       22 -1    0    0    0    0 0.00000000E+00 0.00000000E+00 0.42366135E+03 0.42366135E+03 0.00000000E+00 0.0000E+00 0.9000E+01
        1 -1    0    0  501    0 0.00000000E+00 0.00000000E+00 -.50335042E+03 0.50335042E+03 0.00000000E+00 0.0000E+00 0.9000E+01
      -24  2    1    2    0    0 0.22206787E+02 0.41591927E+02 0.41639083E+03 0.42869631E+03 0.90422188E+02 0.0000E+00 0.0000E+00
  9900012  1    3    3    0    0 0.38135573E+02 0.10686691E+02 0.31823880E+03 0.32456811E+03 0.50000000E+02 0.0000E+00 0.9000E+01
       13  1    3    3    0    0 -.15928786E+02 0.30905236E+02 0.98152036E+02 0.10412820E+03 0.00000000E+00 0.0000E+00 0.9000E+01
        2  1    1    2  501    0 -.22206787E+02 -.41591927E+02 -.49607990E+03 0.49831546E+03 0.00000000E+00 0.0000E+00 0.9000E+01
#aMCatNLO 1  0  0  2  5 0.31562468D+02 0.00000000D+00  -5  6  0 0.00000000D+00 0.00000000D+00 0.00000000D+00 0.00000000D+00 0.00000000D+00
  <mgrwgt>
 0.6471269694D-03    9    2    0
 0.461790124643344D+03 0.000000000000000D+00 0.000000000000000D+00 0.461790124643344D+03
 0.461790124643344D+03 0.000000000000000D+00 0.000000000000000D+00 -.461790124643344D+03
 0.353232557624818D+03 0.381355725797745D+02 0.106866911180207D+02 0.347425837414449D+03
 0.112983913356018D+03 -.159287860048611D+02 0.309052363545522D+02 0.107501185200540D+03
 0.457363778305853D+03 -.222067865749134D+02 -.415919274725729D+02 -.454927022614988D+03
 0.000000000000000D+00 -.000000000000000D+00 0.000000000000000D+00 -.000000000000000D+00
 0.471663023369074D+03 0.000000000000000D+00 0.000000000000000D+00 0.471663023369074D+03
 0.477781381887228D+03 0.000000000000000D+00 0.000000000000000D+00 -.477781381887228D+03
 0.354264369884264D+03 0.472594066192364D+02 0.806720226357153D+01 0.347425837414449D+03
 0.112384797933464D+03 -.130224458646543D+02 0.300708146003223D+02 0.107501185200540D+03
 0.457263655050714D+03 -.104118110981087D+02 -.449783116030117D+02 -.454927022614988D+03
 0.255315823878590D+02 -.238251496564734D+02 0.684029473911789D+01 -.611835851815427D+01
0.143215233280D-03 0.000000000000D+00 0.000000000000D+00 0.618636081787D-05 0.000000000000D+00  6 22 1 9900012 13 2 21 0 0.65178670D-01 0.77438526D-01 0.53073183D+04 0.53073183D+04 0.53073183D+04 0.12389395D+01  1  2  2  1  6  2        1 0.190975524109D-03 0.100000000000D+01
0.812977919676D-05 0.000000000000D+00 -.274992102616D-06 0.618636081787D-05 0.000000000000D+00  6 22 1 9900012 13 2 21 2 0.65178670D-01 0.77438526D-01 0.53073183D+04 0.53073183D+04 0.53073183D+04 0.12389395D+01  1  2  3  1  6  2        1 0.166405398166D-04 0.100000000000D+01
-.179946978687D-04 0.000000000000D+00 0.000000000000D+00 0.618636081787D-05 0.000000000000D+00  6 22 1 9900012 13 2 21 2 0.65178670D-01 0.77438526D-01 0.53073183D+04 0.53073183D+04 0.53073183D+04 0.12389395D+01  1  2 15  1  6  2        1 -.368326714814D-04 0.100000000000D+01
0.187806332033D-03 0.000000000000D+00 0.000000000000D+00 0.618636081787D-05 0.000000000000D+00  6 22 1 9900012 13 2 21 2 0.65178670D-01 0.81833070D-01 0.74819231D+04 0.74819231D+04 0.74819231D+04 0.12226176D+01  1  2 12  1  6  2        1 0.351972904018D-03 0.100000000000D+01
-.828634904730D-06 0.000000000000D+00 0.000000000000D+00 0.618636081787D-05 0.000000000000D+00  6 22 1 9900012 13 2 21 2 0.65178670D-01 0.77438526D-01 0.53073183D+04 0.53073183D+04 0.53073183D+04 0.12389395D+01  1  2  4  1  6  2        1 -.169610167654D-05 0.100000000000D+01
-.912006138257D-03 0.000000000000D+00 -.319308520696D-03 0.618636081787D-05 0.000000000000D+00  6 22 1 9900012 13 2 21 2 0.65178670D-01 0.81516045D-01 0.53073183D+04 0.53073183D+04 0.53073183D+04 0.12389395D+01  1  2  5  1  6  2        1 -.174435425845D-02 0.100000000000D+01
0.927589987548D-03 0.000000000000D+00 0.318888567615D-03 0.618636081787D-05 0.000000000000D+00  6 22 1 9900012 13 2 21 2 0.65178670D-01 0.77438526D-01 0.53073183D+04 0.53073183D+04 0.53073183D+04 0.12389395D+01  1  2  6  1  6  2        1 0.189864912043D-02 0.100000000000D+01
0.312487914034D-05 0.000000000000D+00 0.000000000000D+00 0.618636081787D-05 0.000000000000D+00  6 22 21 9900012 13 2 -1 2 0.65178670D-01 0.81833070D-01 0.74819231D+04 0.74819231D+04 0.74819231D+04 0.12226176D+01  1  2 12  3  6  2        1 0.176616570735D-04 0.100000000000D+01
-.784214552184D-05 0.000000000000D+00 -.284911204588D-05 0.618636081787D-05 0.000000000000D+00  6 22 21 9900012 13 2 -1 2 0.65178670D-01 0.81516045D-01 0.53073183D+04 0.53073183D+04 0.53073183D+04 0.12389395D+01  1  2  5  3  6  2        1 -.458897444214D-04 0.100000000000D+01
  </mgrwgt>
  </event>
  <event>
  6     66 -.10827799E-05 0.59275561E+02 0.78161638E-02 0.12036580E+00
       22 -1    0    0    0    0 0.00000000E+00 0.00000000E+00 0.67687730E+02 0.67687730E+02 0.00000000E+00 0.0000E+00 0.9000E+01
        1 -1    0    0  501    0 -.00000000E+00 -.00000000E+00 -.42469885E+03 0.42469885E+03 0.00000000E+00 0.0000E+00 0.9000E+01
      -24  2    1    2    0    0 0.29568727E+02 -.56405248E+02 0.22042549E+02 0.10802016E+03 0.84419306E+02 0.0000E+00 0.0000E+00
  9900012  1    3    3    0    0 0.38190282E+02 -.32417963E+02 0.35516254E+02 0.79188549E+02 0.50000000E+02 0.0000E+00 0.9000E+01
       13  1    3    3    0    0 -.86215548E+01 -.23987285E+02 -.13473705E+02 0.28831611E+02 0.00000000E+00 0.0000E+00 0.9000E+01
        2  1    1    2  501    0 -.29568727E+02 0.56405248E+02 -.37905366E+03 0.38436642E+03 0.00000000E+00 0.0000E+00 0.9000E+01
#aMCatNLO 1  0  0  5  2 0.20600252D+01 0.00000000D+00  -5  6  0 0.00000000D+00 0.00000000D+00 0.00000000D+00 0.00000000D+00 0.00000000D+00
  <mgrwgt>
 -.6228533876D-04    8    2    0
 0.169549110806188D+03 0.000000000000000D+00 0.000000000000000D+00 0.169549110806188D+03
 0.169549110806188D+03 -.000000000000000D+00 -.000000000000000D+00 -.169549110806188D+03
 0.152377902477022D+03 0.381902817486622D+02 -.324179628995756D+02 0.134942962857262D+03
 0.276794014579204D+02 -.862155476116718D+01 -.239872853313996D+02 0.107901900353489D+02
 0.159040917677433D+03 -.295687269874950D+02 0.564052482309752D+02 -.145733152892611D+03
 0.000000000000000D+00 0.000000000000000D+00 0.000000000000000D+00 -.000000000000000D+00
 0.169549110806188D+03 0.000000000000000D+00 0.000000000000000D+00 0.169549110806188D+03
 0.169549110806188D+03 -.000000000000000D+00 -.000000000000000D+00 -.169549110806188D+03
 0.152333079650211D+03 0.381813547688663D+02 -.324009338096335D+02 0.134898965125739D+03
 0.276741108598129D+02 -.862317642797631D+01 -.239841918428312D+02 0.107821974485481D+02
 0.135823394402823D+03 -.238429858326843D+02 0.496414390442442D+02 -.124158100916951D+03
 0.232676366995285D+02 -.571519250820568D+01 0.674368660822058D+01 -.215230616573363D+02
0.436632880578D-06 0.000000000000D+00 0.000000000000D+00 0.498919908689D-06 0.000000000000D+00  6 22 1 9900012 13 2 21 0 0.10413497D-01 0.65338284D-01 0.63962041D+04 0.63962041D+04 0.63962041D+04 0.12299865D+01  1  2  2  2  6  5        2 0.123183673900D-04 0.100000000000D+01
0.785722059274D-08 0.000000000000D+00 -.838392614749D-09 0.498919908689D-06 0.000000000000D+00  6 22 1 9900012 13 2 21 2 0.10413497D-01 0.65338284D-01 0.63962041D+04 0.63962041D+04 0.63962041D+04 0.12299865D+01  1  2  3  2  6  5        2 0.335356208324D-06 0.100000000000D+01
-.584390278589D-07 0.000000000000D+00 0.000000000000D+00 0.498919908689D-06 0.000000000000D+00  6 22 1 9900012 13 2 21 2 0.10413497D-01 0.65338284D-01 0.63962041D+04 0.63962041D+04 0.63962041D+04 0.12299865D+01  1  2 15  2  6  5        2 -.249425233383D-05 0.100000000000D+01
0.109517734431D-06 0.000000000000D+00 0.000000000000D+00 0.498919908689D-06 0.000000000000D+00  6 22 1 9900012 13 2 21 2 0.10413497D-01 0.65338284D-01 0.64129784D+04 0.64129784D+04 0.64129784D+04 0.12298623D+01  1  2 12  2  6  5        2 0.467416847898D-05 0.100000000000D+01
-.942874247559D-04 0.000000000000D+00 0.000000000000D+00 0.498919908689D-06 0.000000000000D+00  6 22 1 9900012 13 2 21 2 0.10413497D-01 0.65338284D-01 0.63962041D+04 0.63962041D+04 0.63962041D+04 0.12299865D+01  1  2  4  2  6  5        2 -.402430769068D-02 0.100000000000D+01
-.735700770023D-04 0.000000000000D+00 0.000000000000D+00 0.498919908689D-06 0.000000000000D+00  6 22 1 9900012 13 2 21 2 0.10413497D-01 0.65338284D-01 0.63962041D+04 0.63962041D+04 0.63962041D+04 0.12299865D+01  1  2  5  2  6  5        2 -.314006483315D-02 0.100000000000D+01
0.851109409212D-04 0.000000000000D+00 -.000000000000D+00 0.498919908689D-06 0.000000000000D+00  6 22 1 9900012 13 2 21 2 0.10413497D-01 0.65338284D-01 0.63962041D+04 0.63962041D+04 0.63962041D+04 0.12299865D+01  1  2  6  2  6  5        2 0.363264364253D-02 0.100000000000D+01
0.809429637803D-04 0.000000000000D+00 0.000000000000D+00 0.498919908689D-06 0.781284548286D-06  6 22 1 9900012 13 2 21 2 0.10413497D-01 0.65338284D-01 0.64129784D+04 0.64129784D+04 0.64129784D+04 0.12298623D+01  1  2 11  2  6  5        2 0.345460990280D-02 0.100000000000D+01
  </mgrwgt>
  </event>
  <event>
  7     66 -.10827799E-05 0.37869854E+02 0.78161638E-02 0.12430915E+00
       22 -1    0    0    0    0 0.00000000E+00 0.00000000E+00 0.10865536E+03 0.10865536E+03 0.00000000E+00 0.0000E+00 0.9000E+01
        3 -1    0    0  502    0 0.00000000E+00 0.00000000E+00 -.20656577E+03 0.20656577E+03 0.00000000E+00 0.0000E+00 0.9000E+01
      -24  2    1    2    0    0 0.87490266E+01 -.32192703E+02 0.88586011E+02 0.12108385E+03 0.75504312E+02 0.0000E+00 0.0000E+00
  9900012  1    3    3    0    0 0.10488475E+02 -.60176950E+01 0.76533222E+02 0.92214721E+02 0.50000000E+02 0.0000E+00 0.9000E+01
       13  1    3    3    0    0 -.17394488E+01 -.26175008E+02 0.12052789E+02 0.28869126E+02 0.00000000E+00 0.0000E+00 0.9000E+01
        4  1    1    2  501    0 -.79748436E+01 0.42079214E+02 -.16493169E+03 0.17040165E+03 0.00000000E+00 0.0000E+00 0.9000E+01
       21  1    1    2  502  501 -.77418298E+00 -.98865116E+01 -.21564736E+02 0.23735634E+02 0.00000000E+00 0.0000E+00 0.9000E+01
#aMCatNLO 2  0  0  2  5 0.10358669D+02 0.00000000D+00  -5  6  0 0.00000000D+00 0.00000000D+00 0.00000000D+00 0.00000000D+00 0.00000000D+00
  <mgrwgt>
 -.1410855666D-03    2    2    0
 0.140567411322559D+03 0.000000000000000D+00 0.000000000000000D+00 0.140567411322559D+03
 0.140567411322559D+03 0.000000000000000D+00 0.000000000000000D+00 -.140567411322559D+03
 0.116576126828335D+03 0.101679015136966D+02 -.101115044420539D+02 0.104328158246094D+03
 0.341303719806531D+02 -.183210509265418D+01 -.273582512509968D+02 0.203236751340538D+02
 0.130428323836129D+03 -.833579642104242D+01 0.374697556930507D+02 -.124651833380148D+03
 0.000000000000000D+00 -.000000000000000D+00 -.000000000000000D+00 -.000000000000000D+00
 0.142074132336940D+03 0.000000000000000D+00 0.000000000000000D+00 0.142074132336940D+03
 0.157977228310489D+03 0.000000000000000D+00 0.000000000000000D+00 -.157977228310489D+03
 0.116321044409495D+03 0.104884754140959D+02 -.601769498907338D+01 0.104328158246094D+03
 0.331844613587894D+02 -.173944884198501D+01 -.261750075920628D+02 0.203236751340538D+02
 0.131804165189839D+03 -.797484359636158D+01 0.420792141795897D+02 -.124651833380148D+03
 0.187416896893053D+02 -.774182975749332D+00 -.988651159845349D+01 -.159030959735493D+02
-.723929273907D-05 0.000000000000D+00 0.000000000000D+00 0.531442140228D-06 0.000000000000D+00  6 22 3 9900012 13 4 21 2 0.16538930D-01 0.32119988D-01 0.42522914D+04 0.42522914D+04 0.42522914D+04 0.12498459D+01  1  2 13  1  6  2        3 -.152976405276D-03 0.100000000000D+01
0.560519839771D-06 0.000000000000D+00 0.000000000000D+00 0.531442140228D-06 0.435772590648D-08  6 22 3 9900012 13 4 21 2 0.16716209D-01 0.31779350D-01 0.42522914D+04 0.42522914D+04 0.42522914D+04 0.12498459D+01  1  2  1  1  6  2        3 0.118908386752D-04 0.100000000000D+01
  </mgrwgt>
  </event>
  <event>
  6     66 0.10827799E-05 0.27831982E+02 0.78161638E-02 0.12501929E+00
       22 -1    0    0    0    0 0.00000000E+00 0.00000000E+00 0.15204127E+03 0.15204127E+03 0.00000000E+00 0.0000E+00 0.9000E+01
        3 -1    0    0  501    0 -.00000000E+00 -.00000000E+00 -.21418403E+03 0.21418403E+03 0.00000000E+00 0.0000E+00 0.9000E+01
      -24  2    1    2    0    0 0.20139660E+02 0.19209719E+02 0.13858439E+03 0.16357781E+03 0.82325259E+02 0.0000E+00 0.0000E+00
  9900012  1    3    3    0    0 0.11391065E+02 0.33372086E+02 0.69854300E+02 0.92860518E+02 0.50000000E+02 0.0000E+00 0.9000E+01
       13  1    3    3    0    0 0.87485950E+01 -.14162367E+02 0.68730086E+02 0.70717291E+02 0.00000000E+00 0.0000E+00 0.9000E+01
        4  1    1    2  501    0 -.20139660E+02 -.19209719E+02 -.20072714E+03 0.20264749E+03 0.00000000E+00 0.0000E+00 0.9000E+01
#aMCatNLO 1  0  0  5  2 0.13923919D+02 0.00000000D+00  -5  6  0 0.00000000D+00 0.00000000D+00 0.00000000D+00 0.00000000D+00 0.00000000D+00
  <mgrwgt>
 0.2600028922D-03    7    2    0
 0.180457229158455D+03 0.000000000000000D+00 0.000000000000000D+00 0.180457229158455D+03
 0.180457229158455D+03 -.000000000000000D+00 -.000000000000000D+00 -.180457229158455D+03
 0.106254566470652D+03 0.113910646930817D+02 0.333720861794296D+02 0.868710561985804D+02
 0.835919350333100D+02 0.874859500108956D+01 -.141623671094333D+02 0.819176479519382D+02
 0.171067956812948D+03 -.201396596941714D+02 -.192097190699964D+02 -.168788704150519D+03
 0.000000000000000D+00 0.000000000000000D+00 0.000000000000000D+00 -.000000000000000D+00
 0.180457229158455D+03 0.000000000000000D+00 0.000000000000000D+00 0.180457229158455D+03
 0.180457229158455D+03 -.000000000000000D+00 -.000000000000000D+00 -.180457229158455D+03
 0.104728027207521D+03 0.111801937392073D+02 0.331709521063885D+02 0.851037654107549D+02
 0.822410392129950D+02 0.858284977607591D+01 -.143204591158552D+02 0.805285519009613D+02
 0.155820074030217D+03 -.216973704083971D+02 -.298816139767937D+02 -.151381005196441D+03
 0.181253178661759D+02 0.193432689311386D+01 0.110311209862603D+02 -.142513121152748D+02
0.483084574674D-05 0.000000000000D+00 0.000000000000D+00 0.430398036652D-05 0.000000000000D+00  6 22 3 9900012 13 4 21 0 0.23390965D-01 0.32951389D-01 0.27911346D+04 0.27911346D+04 0.27911346D+04 0.12714031D+01  1  2  2  2  6  5        4 0.360790928654D-04 0.100000000000D+01
0.397781916608D-06 0.000000000000D+00 -.927585982919D-08 0.430398036652D-05 0.000000000000D+00  6 22 3 9900012 13 4 21 2 0.23390965D-01 0.32951389D-01 0.27911346D+04 0.27911346D+04 0.27911346D+04 0.12714031D+01  1  2  3  2  6  5        4 0.480224197435D-05 0.100000000000D+01
-.684906629633D-06 0.000000000000D+00 0.000000000000D+00 0.430398036652D-05 0.000000000000D+00  6 22 3 9900012 13 4 21 2 0.23390965D-01 0.32951389D-01 0.27911346D+04 0.27911346D+04 0.27911346D+04 0.12714031D+01  1  2 15  2  6  5        4 -.826856935423D-05 0.100000000000D+01
0.172824322873D-04 0.000000000000D+00 0.000000000000D+00 0.430398036652D-05 0.000000000000D+00  6 22 3 9900012 13 4 21 2 0.23390965D-01 0.32951389D-01 0.39600843D+04 0.39600843D+04 0.39600843D+04 0.12534109D+01  1  2 12  2  6  5        4 0.208953220285D-03 0.100000000000D+01
-.380690904443D-06 0.000000000000D+00 0.000000000000D+00 0.430398036652D-05 0.000000000000D+00  6 22 3 9900012 13 4 21 2 0.23390965D-01 0.32951389D-01 0.27911346D+04 0.27911346D+04 0.27911346D+04 0.12714031D+01  1  2  4  2  6  5        4 -.459590987986D-05 0.100000000000D+01
-.171060036258D-04 0.000000000000D+00 0.000000000000D+00 0.430398036652D-05 0.000000000000D+00  6 22 3 9900012 13 4 21 2 0.23390965D-01 0.32951389D-01 0.27911346D+04 0.27911346D+04 0.27911346D+04 0.12714031D+01  1  2  5  2  6  5        4 -.206513079643D-03 0.100000000000D+01
0.190138703834D-04 0.000000000000D+00 -.000000000000D+00 0.430398036652D-05 0.000000000000D+00  6 22 3 9900012 13 4 21 2 0.23390965D-01 0.32951389D-01 0.27911346D+04 0.27911346D+04 0.27911346D+04 0.12714031D+01  1  2  6  2  6  5        4 0.229545895974D-03 0.100000000000D+01
  </mgrwgt>
  </event>
  <event>
  7     66 -.10827799E-05 0.15248748E+03 0.78161638E-02 0.10809173E+00
       22 -1    0    0    0    0 0.00000000E+00 0.00000000E+00 0.54350258E+03 0.54350258E+03 0.00000000E+00 0.0000E+00 0.9000E+01
        1 -1    0    0  502    0 0.00000000E+00 0.00000000E+00 -.13098076E+03 0.13098076E+03 0.00000000E+00 0.0000E+00 0.9000E+01
      -24  2    1    2    0    0 0.15566246E+03 0.40516851E+02 0.46534380E+03 0.49893229E+03 0.80722743E+02 0.0000E+00 0.0000E+00
  9900012  1    3    3    0    0 0.13910604E+03 0.37815502E+02 0.45327577E+03 0.47826711E+03 0.50000000E+02 0.0000E+00 0.9000E+01
       13  1    3    3    0    0 0.16556425E+02 0.27013493E+01 0.12068031E+02 0.20665185E+02 0.00000000E+00 0.0000E+00 0.9000E+01
        2  1    1    2  501    0 -.13895521E+03 -.48426105E+02 -.54658724E+02 0.15697520E+03 0.00000000E+00 0.0000E+00 0.9000E+01
       21  1    1    2  502  501 -.16707259E+02 0.79092540E+01 0.18367440E+01 0.18575856E+02 0.00000000E+00 0.0000E+00 0.9000E+01
#aMCatNLO 2  0  0  2  5 0.21026286D+02 0.00000000D+00  -5  6  0 0.00000000D+00 0.00000000D+00 0.00000000D+00 0.00000000D+00 0.00000000D+00
  <mgrwgt>
 -.1054716929D-03    3    2    0
 0.255543888650984D+03 0.000000000000000D+00 0.000000000000000D+00 0.255543888650984D+03
 0.255543888650984D+03 0.000000000000000D+00 0.000000000000000D+00 -.255543888650984D+03
 0.245594595723648D+03 0.131018198108138D+03 0.416443046416812D+02 0.197273133254556D+03
 0.163240895616905D+02 0.160149908751451D+02 0.295766548269517D+01 -.111722073897067D+01
 0.249169092016629D+03 -.147033188983283D+03 -.446019701243764D+02 -.196155912515585D+03
 0.000000000000000D+00 -.000000000000000D+00 0.000000000000000D+00 -.000000000000000D+00
 0.260604804930807D+03 0.000000000000000D+00 0.000000000000000D+00 0.260604804930807D+03
 0.273166042644417D+03 0.000000000000000D+00 0.000000000000000D+00 -.273166042644417D+03
 0.249393647850558D+03 0.139106039701098D+03 0.378155021494501D+02 0.197273133254556D+03
 0.168125157150012D+02 0.165564251776472D+02 0.270134926000804D+01 -.111722073897067D+01
 0.245215780528904D+03 -.138955206148314D+03 -.484261054582894D+02 -.196155912515585D+03
 0.223489034807609D+02 -.167072587304317D+02 0.790925404883126D+01 -.125612377136103D+02
-.191961974518D-04 0.000000000000D+00 0.000000000000D+00 0.391038896678D-05 0.000000000000D+00  6 22 1 9900012 13 2 21 2 0.81991973D-01 0.20549965D-01 0.28054814D+05 0.28054814D+05 0.28054814D+05 0.11654702D+01  1  2 13  1  6  2        1 -.133552093475D-03 0.100000000000D+01
-.194056937320D-06 0.000000000000D+00 0.000000000000D+00 0.391038896678D-05 0.000000000000D+00  6 22 1 9900012 13 2 21 2 0.81991973D-01 0.18850937D-01 0.24999170D+05 0.24999170D+05 0.24999170D+05 0.11701331D+01  1  2  8  1  6  2        1 -.151053988291D-05 0.100000000000D+01
0.430125557760D-05 0.000000000000D+00 0.000000000000D+00 0.391038896678D-05 0.676440986797D-07  6 22 1 9900012 13 2 21 2 0.83615782D-01 0.20150887D-01 0.28054814D+05 0.28054814D+05 0.28054814D+05 0.11654702D+01  1  2  1  1  6  2        1 0.295909405044D-04 0.100000000000D+01
  </mgrwgt>
  </event>
  <event>
  7     66 0.10827799E-05 0.81324581E+02 0.78161638E-02 0.11615619E+00
       22 -1    0    0    0    0 0.00000000E+00 0.00000000E+00 0.35644141E+03 0.35644141E+03 0.00000000E+00 0.0000E+00 0.9000E+01
        1 -1    0    0  502    0 0.00000000E+00 0.00000000E+00 -.35891898E+02 0.35891898E+02 0.00000000E+00 0.0000E+00 0.9000E+01
      -24  2    1    2    0    0 0.70898106E+02 0.52899794E+02 0.22418931E+03 0.25476281E+03 0.82573057E+02 0.0000E+00 0.0000E+00
  9900012  1    3    3    0    0 0.28236466E+02 0.34298375E+02 0.86008013E+02 0.10895437E+03 0.50000000E+02 0.0000E+00 0.9000E+01
       13  1    3    3    0    0 0.42661640E+02 0.18601419E+02 0.13818130E+03 0.14580843E+03 0.00000000E+00 0.0000E+00 0.9000E+01
        2  1    1    2  501    0 -.68796728E+02 -.48100361E+02 0.10046171E+03 0.13091673E+03 0.00000000E+00 0.0000E+00 0.9000E+01
       21  1    1    2  502  501 -.21013782E+01 -.47994321E+01 -.41015106E+01 0.66537755E+01 0.00000000E+00 0.0000E+00 0.9000E+01
#aMCatNLO 2  0  0  2  5 0.53015349D+01 0.00000000D+00  -5  6  0 0.00000000D+00 0.00000000D+00 0.00000000D+00 0.00000000D+00 0.00000000D+00
  <mgrwgt>
 0.1338172821D-03    2    2    0
 0.104070848110330D+03 0.000000000000000D+00 0.000000000000000D+00 0.104070848110330D+03
 0.104070848110330D+03 0.000000000000000D+00 0.000000000000000D+00 -.104070848110330D+03
 0.666609979236890D+02 0.275582478016837D+02 0.327493608933720D+02 -.105693416710191D+02
 0.537888598897045D+02 0.421144271603498D+02 0.173516159216269D+02 0.286101013297436D+02
 0.876918384072663D+02 -.696726749620336D+02 -.501009768149989D+02 -.180407596587246D+02
 0.000000000000000D+00 -.000000000000000D+00 -.000000000000000D+00 -.000000000000000D+00
 0.104477865531500D+03 0.000000000000000D+00 0.000000000000000D+00 0.104477865531500D+03
 0.122450424004502D+03 0.000000000000000D+00 0.000000000000000D+00 -.122450424004502D+03
 0.677154894810144D+02 0.282364663081747D+02 0.342983746367368D+02 -.105693416710191D+02
 0.546311831608728D+02 0.426616395565929D+02 0.186014189190497D+02 0.286101013297436D+02
 0.858609546056883D+02 -.687967277011108D+02 -.481003614784278D+02 -.180407596587246D+02
 0.187206622884268D+02 -.210137816365680D+01 -.479943207735868D+01 -.179725584730013D+02
-.428083049681D-05 0.000000000000D+00 0.000000000000D+00 0.528935510942D-07 0.000000000000D+00  6 22 1 9900012 13 2 21 2 0.54623510D-01 0.55434262D-02 0.10262672D+05 0.10262672D+05 0.10262672D+05 0.12081646D+01  1  2 13  1  6  2        1 -.340596213709D-03 0.100000000000D+01
0.597090779437D-05 0.000000000000D+00 0.000000000000D+00 0.528935510942D-07 0.213826987584D-07  6 22 1 9900012 13 2 21 2 0.54837141D-01 0.55218305D-02 0.10262672D+05 0.10262672D+05 0.10262672D+05 0.12081646D+01  1  2  1  1  6  2        1 0.474413495796D-03 0.100000000000D+01
  </mgrwgt>
  </event>
  <event>
  6     66 0.10827799E-05 0.55639653E+02 0.78161638E-02 0.11161668E+00
       22 -1    0    0    0    0 0.00000000E+00 0.00000000E+00 0.11882533E+04 0.11882533E+04 0.00000000E+00 0.0000E+00 0.9000E+01
        3 -1    0    0  501    0 0.00000000E+00 0.00000000E+00 -.17384282E+02 0.17384282E+02 0.00000000E+00 0.0000E+00 0.9000E+01
      -24  2    1    2    0    0 -.40427396E+02 -.85357697E+02 0.10206493E+04 0.10281938E+04 0.80853649E+02 0.0000E+00 0.0000E+00
  9900012  1    3    3    0    0 -.15943434E+02 -.28785520E+02 0.39412280E+03 0.39864217E+03 0.50000000E+02 0.0000E+00 0.9000E+01
       13  1    3    3    0    0 -.24483962E+02 -.56572177E+02 0.62652646E+03 0.62955166E+03 0.00000000E+00 0.0000E+00 0.9000E+01
        4  1    1    2  501    0 0.40427396E+02 0.85357697E+02 0.15021973E+03 0.17744373E+03 0.00000000E+00 0.0000E+00 0.9000E+01
#aMCatNLO 1  0  0  2  5 0.55887153D+02 0.00000000D+00  -5  6  0 0.00000000D+00 0.00000000D+00 0.00000000D+00 0.00000000D+00 0.00000000D+00
  <mgrwgt>
 0.1497367712D-03    9    2    0
 0.143725189322637D+03 0.000000000000000D+00 0.000000000000000D+00 0.143725189322637D+03
 0.143725189322637D+03 0.000000000000000D+00 0.000000000000000D+00 -.143725189322637D+03
 0.666264822204708D+02 -.159434342714446D+02 -.287855200339668D+02 0.292624139995478D+02
 0.884699089488679D+02 -.244839617382617D+02 -.565721766171953D+02 0.634590359193486D+02
 0.132353987475935D+03 0.404273960097063D+02 0.853576966511621D+02 -.927214499188964D+02
 0.000000000000000D+00 0.000000000000000D+00 -.000000000000000D+00 -.000000000000000D+00
 0.160582633497927D+03 0.000000000000000D+00 0.000000000000000D+00 0.160582633497927D+03
 0.180565440461972D+03 0.000000000000000D+00 0.000000000000000D+00 -.180565440461972D+03
 0.639796096970967D+02 -.193817770980832D+02 -.190117937194815D+02 0.292624139995478D+02
 0.823671398127996D+02 -.289814268450542D+02 -.437878222700431D+02 0.634590359193486D+02
 0.144744467377706D+03 0.331324875522968D+02 0.106093976407665D+03 -.927214499188964D+02
 0.500568570722969D+02 0.152307163908407D+02 -.432943604181407D+02 -.199828069640446D+02
0.848858084183D-05 0.000000000000D+00 0.000000000000D+00 0.146613951083D-05 0.000000000000D+00  6 22 3 9900012 13 4 21 0 0.18280820D+00 0.26745049D-02 0.11658278D+05 0.11658278D+05 0.11658278D+05 0.12024847D+01  1  2  2  1  6  2        3 0.993053771360D-04 0.100000000000D+01
-.428447724778D-07 0.000000000000D+00 -.162991927637D-07 0.146613951083D-05 0.000000000000D+00  6 22 3 9900012 13 4 21 2 0.18280820D+00 0.26745049D-02 0.11658278D+05 0.11658278D+05 0.11658278D+05 0.12024847D+01  1  2  3  1  6  2        3 -.724760667993D-06 0.100000000000D+01
-.100087335012D-05 0.000000000000D+00 0.000000000000D+00 0.146613951083D-05 0.000000000000D+00  6 22 3 9900012 13 4 21 2 0.18280820D+00 0.26745049D-02 0.11658278D+05 0.11658278D+05 0.11658278D+05 0.12024847D+01  1  2 15  1  6  2        3 -.169307384742D-04 0.100000000000D+01
0.325473902221D-05 0.000000000000D+00 0.000000000000D+00 0.146613951083D-05 0.000000000000D+00  6 22 3 9900012 13 4 21 2 0.18280820D+00 0.37541432D-02 0.17748627D+05 0.17748627D+05 0.17748627D+05 0.11843212D+01  1  2 12  1  6  2        3 0.335552811980D-04 0.100000000000D+01
-.912039807747D-06 0.000000000000D+00 0.000000000000D+00 0.146613951083D-05 0.000000000000D+00  6 22 3 9900012 13 4 21 2 0.18280820D+00 0.26745049D-02 0.11658278D+05 0.11658278D+05 0.11658278D+05 0.12024847D+01  1  2  4  1  6  2        3 -.154280333882D-04 0.100000000000D+01
-.866829388081D-05 0.000000000000D+00 -.371489130552D-05 0.146613951083D-05 0.000000000000D+00  6 22 3 9900012 13 4 21 2 0.18280820D+00 0.37756571D-02 0.11658278D+05 0.11658278D+05 0.11658278D+05 0.12024847D+01  1  2  5  1  6  2        3 -.879723985595D-04 0.100000000000D+01
0.958420962071D-05 0.000000000000D+00 0.350448765649D-05 0.146613951083D-05 0.000000000000D+00  6 22 3 9900012 13 4 21 2 0.18280820D+00 0.26745049D-02 0.11658278D+05 0.11658278D+05 0.11658278D+05 0.12024847D+01  1  2  6  1  6  2        3 0.162126153675D-03 0.100000000000D+01
0.137428272482D-06 0.000000000000D+00 0.000000000000D+00 0.146613951083D-05 0.000000000000D+00  6 22 21 9900012 13 4 -3 2 0.18280820D+00 0.37541432D-02 0.17748627D+05 0.17748627D+05 0.17748627D+05 0.11843212D+01  1  2 12  3  6  2        3 0.261809923958D-04 0.100000000000D+01
-.267657270502D-06 0.000000000000D+00 -.158758583610D-06 0.146613951083D-05 0.000000000000D+00  6 22 21 9900012 13 4 -3 2 0.18280820D+00 0.37756571D-02 0.11658278D+05 0.11658278D+05 0.11658278D+05 0.12024847D+01  1  2  5  3  6  2        3 -.503751021644D-04 0.100000000000D+01
  </mgrwgt>
  </event>
  <event>
  6     66 0.10827799E-05 0.25658378E+02 0.78161638E-02 0.12424402E+00
       22 -1    0    0    0    0 0.00000000E+00 0.00000000E+00 0.85573428E+03 0.85573428E+03 0.00000000E+00 0.0000E+00 0.9000E+01
        3 -1    0    0  501    0 0.00000000E+00 0.00000000E+00 -.17467385E+02 0.17467385E+02 0.00000000E+00 0.0000E+00 0.9000E+01
      -24  2    1    2    0    0 -.24391261E+02 0.23360000E+02 0.83478301E+03 0.83924933E+03 0.79599879E+02 0.0000E+00 0.0000E+00
  9900012  1    3    3    0    0 0.45590113E+01 0.26436994E+02 0.50256915E+03 0.50576225E+03 0.50000000E+02 0.0000E+00 0.9000E+01
       13  1    3    3    0    0 -.28950272E+02 -.30769938E+01 0.33221386E+03 0.33348709E+03 0.00000000E+00 0.0000E+00 0.9000E+01
        4  1    1    2  501    0 0.24391261E+02 -.23360000E+02 0.34838774E+01 0.33952328E+02 0.00000000E+00 0.0000E+00 0.9000E+01
#aMCatNLO 1  0  0  5  2 0.16702684D+02 0.00000000D+00  -5  6  0 0.00000000D+00 0.00000000D+00 0.00000000D+00 0.00000000D+00 0.00000000D+00
  <mgrwgt>
 0.1061203106D-03    5    2    0
 0.122259725067825D+03 0.000000000000000D+00 0.000000000000000D+00 0.122259725067825D+03
 0.122259725067825D+03 -.000000000000000D+00 -.000000000000000D+00 -.122259725067825D+03
 0.832054669001634D+02 0.455901132596513D+01 0.264369938970861D+02 0.608559815588357D+02
 0.520105704004187D+02 -.289502718813982D+02 -.307699383750597D+01 0.430988781790661D+02
 0.109303412835069D+03 0.243912605554331D+02 -.233600000595801D+02 -.103954859737902D+03
 0.000000000000000D+00 0.000000000000000D+00 0.000000000000000D+00 -.000000000000000D+00
 0.122259725067825D+03 0.000000000000000D+00 0.000000000000000D+00 0.122259725067825D+03
 0.122259725067825D+03 -.000000000000000D+00 -.000000000000000D+00 -.122259725067825D+03
 0.809466624929286D+02 0.523732456324020D+01 0.257873596878516D+02 0.579650298067097D+02
 0.503126887726385D+02 -.285274493360263D+02 -.348193948033706D+01 0.412968204995022D+02
 0.197861207133091D+02 0.159785581853607D+02 0.546778790864463D+01 -.103091971842992D+02
 0.934739781567746D+02 0.731156658742536D+01 -.277732081161592D+02 -.889526531219127D+02
0.520362207718D-05 0.000000000000D+00 0.000000000000D+00 0.436814836895D-05 0.000000000000D+00  6 22 3 9900012 13 4 21 0 0.13165143D+00 0.26872901D-02 0.35777648D+04 0.35777648D+04 0.35777648D+04 0.12585491D+01  1  2  2  2  6  5        4 0.110764512764D-03 0.100000000000D+01
0.313863460902D-06 0.000000000000D+00 -.999163946076D-08 0.436814836895D-05 0.000000000000D+00  6 22 3 9900012 13 4 21 2 0.13165143D+00 0.26872901D-02 0.35777648D+04 0.35777648D+04 0.35777648D+04 0.12585491D+01  1  2  3  2  6  5        4 0.105821997710D-04 0.100000000000D+01
-.669958334638D-06 0.000000000000D+00 0.000000000000D+00 0.436814836895D-05 0.000000000000D+00  6 22 3 9900012 13 4 21 2 0.13165143D+00 0.26872901D-02 0.35777648D+04 0.35777648D+04 0.35777648D+04 0.12585491D+01  1  2 15  2  6  5        4 -.225882710750D-04 0.100000000000D+01
0.112167913758D-05 0.000000000000D+00 0.000000000000D+00 0.436814836895D-05 0.000000000000D+00  6 22 3 9900012 13 4 21 2 0.13165143D+00 0.26872901D-02 0.42803221D+04 0.42803221D+04 0.42803221D+04 0.12495185D+01  1  2 12  2  6  5        4 0.380619654402D-04 0.100000000000D+01
-.910551557799D-06 0.000000000000D+00 0.000000000000D+00 0.436814836895D-05 0.000000000000D+00  6 22 3 9900012 13 4 21 2 0.13165143D+00 0.26872901D-02 0.35777648D+04 0.35777648D+04 0.35777648D+04 0.12585491D+01  1  2  5  2  6  5        4 -.307000963372D-04 0.100000000000D+01
  </mgrwgt>
  </event>
  <event>
  7     66 -.10827799E-05 0.99176332E+02 0.78161638E-02 0.11285240E+00
       22 -1    0    0    0    0 0.00000000E+00 0.00000000E+00 0.17827416E+02 0.17827416E+02 0.00000000E+00 0.0000E+00 0.9000E+01
        1 -1    0    0  502    0 0.00000000E+00 0.00000000E+00 -.12976390E+04 0.12976390E+04 0.00000000E+00 0.0000E+00 0.9000E+01
      -24  2    1    2    0    0 -.10984591E+03 0.87889663E+01 -.32179350E+03 0.34950164E+03 0.80355295E+02 0.0000E+00 0.0000E+00
  9900012  1    3    3    0    0 -.44319484E+02 -.11418989E+02 -.15643564E+03 0.17048965E+03 0.50000000E+02 0.0000E+00 0.9000E+01
       13  1    3    3    0    0 -.65526423E+02 0.20207956E+02 -.16535786E+03 0.17901199E+03 0.00000000E+00 0.0000E+00 0.9000E+01
        2  1    1    2  501    0 0.10244293E+03 -.98603793E+01 -.94741668E+03 0.95299011E+03 0.00000000E+00 0.0000E+00 0.9000E+01
       21  1    1    2  502  501 0.74029724E+01 0.10714130E+01 -.10601363E+02 0.12974622E+02 0.00000000E+00 0.0000E+00 0.9000E+01
#aMCatNLO 2  0  0  2  5 0.21585307D+02 0.00000000D+00  -5  6  0 0.00000000D+00 0.00000000D+00 0.00000000D+00 0.00000000D+00 0.00000000D+00
  <mgrwgt>
 -.6017110853D-04    3    2    0
 0.146231267537424D+03 0.000000000000000D+00 0.000000000000000D+00 0.146231267537424D+03
 0.146231267537424D+03 0.000000000000000D+00 0.000000000000000D+00 -.146231267537424D+03
 0.792283394092043D+02 -.422999480689361D+02 -.111267072717831D+02 0.431745358306655D+02
 0.780419034830518D+02 -.635315836259730D+02 0.204966637338323D+02 0.404247864189308D+02
 0.135192292182591D+03 0.105831531694909D+03 -.936995646204921D+01 -.835993222495963D+02
 0.000000000000000D+00 0.000000000000000D+00 0.000000000000000D+00 0.000000000000000D+00
 0.156710031274811D+03 0.000000000000000D+00 0.000000000000000D+00 0.156710031274811D+03
 0.147620096300500D+03 0.000000000000000D+00 0.000000000000000D+00 -.147620096300500D+03
 0.803657299405128D+02 -.443194842426462D+02 -.114189894974930D+02 0.431745358306655D+02
 0.796004831765405D+02 -.655264228055631D+02 0.202079558399435D+02 0.404247864189308D+02
 0.132591962889541D+03 0.102442934662001D+03 -.986037931047628D+01 -.835993222495963D+02
 0.117719515687170D+02 0.740297238620813D+01 0.107141296802573D+01 0.908993497431113D+01
-.146818975723D-05 0.000000000000D+00 0.000000000000D+00 0.143576671524D-05 0.000000000000D+00  6 22 1 9900012 13 2 21 2 0.25592841D-02 0.21394250D+00 0.15221601D+05 0.15221601D+05 0.15221601D+05 0.11908590D+01  1  2 13  1  6  2        1 -.670078281781D-04 0.100000000000D+01
-.160771838777D-07 0.000000000000D+00 0.000000000000D+00 0.143576671524D-05 0.000000000000D+00  6 22 1 9900012 13 2 21 2 0.25592841D-02 0.19775855D+00 0.14332003D+05 0.14332003D+05 0.14332003D+05 0.11934545D+01  1  2  8  1  6  2        1 -.864304757204D-06 0.100000000000D+01
0.160680361087D-06 0.000000000000D+00 0.000000000000D+00 0.143576671524D-05 0.858706849337D-08  6 22 1 9900012 13 2 21 2 0.27426794D-02 0.19963676D+00 0.15221601D+05 0.15221601D+05 0.15221601D+05 0.11908590D+01  1  2  1  1  6  2        1 0.770102440460D-05 0.100000000000D+01
  </mgrwgt>
  </event>
  <event>
  6     66 0.10827799E-05 0.31620378E+02 0.78161638E-02 0.11513942E+00
       22 -1    0    0    0    0 0.00000000E+00 0.00000000E+00 0.45793257E+03 0.45793257E+03 0.00000000E+00 0.0000E+00 0.9000E+01
        1 -1    0    0  501    0 -.00000000E+00 -.00000000E+00 -.63027818E+03 0.63027818E+03 0.00000000E+00 0.0000E+00 0.9000E+01
      -24  2    1    2    0    0 0.72755960E+02 0.30965756E+02 0.44895382E+03 0.46189991E+03 0.74429071E+02 0.0000E+00 0.0000E+00
  9900012  1    3    3    0    0 0.63801745E+02 0.68419208E+01 0.37082101E+03 0.37963890E+03 0.50000000E+02 0.0000E+00 0.9000E+01
       13  1    3    3    0    0 0.89542149E+01 0.24123836E+02 0.78132804E+02 0.82261002E+02 0.00000000E+00 0.0000E+00 0.9000E+01
        2  1    1    2  501    0 -.72755960E+02 -.30965756E+02 -.62129942E+03 0.62631085E+03 0.00000000E+00 0.0000E+00 0.9000E+01
#aMCatNLO 1  0  0  5  2 0.31911543D+02 0.00000000D+00  -5  6  0 0.00000000D+00 0.00000000D+00 0.00000000D+00 0.00000000D+00 0.00000000D+00
  <mgrwgt>
 0.3721205136D-02    7    2    0
 0.537238223581715D+03 0.000000000000000D+00 0.000000000000000D+00 0.537238223581715D+03
 0.537238223581715D+03 -.000000000000000D+00 -.000000000000000D+00 -.537238223581715D+03
 0.443971117129365D+03 0.638017450843957D+02 0.684192077194149D+01 0.436454898345102D+03
 0.958449603882144D+02 0.895421491997960D+01 0.241238356537289D+02 0.923261556674873D+02
 0.534660369645850D+03 -.727559600043752D+02 -.309657564256704D+02 -.528781054012589D+03
 0.000000000000000D+00 0.000000000000000D+00 0.000000000000000D+00 -.000000000000000D+00
 0.537238223581715D+03 0.000000000000000D+00 0.000000000000000D+00 0.537238223581715D+03
 0.537238223581715D+03 -.000000000000000D+00 -.000000000000000D+00 -.537238223581715D+03
 0.441845033169537D+03 0.635102946240691D+02 0.671787617182789D+01 0.434336673506962D+03
 0.953918764455819D+02 0.889129434203821D+01 0.240970559467389D+02 0.918688569180663D+02
 0.406917144202826D+03 -.644001447614093D+02 -.537828623857007D+02 -.398172810867962D+03
 0.130322393345485D+03 -.800144420469790D+01 0.229679302671340D+02 -.128032719557067D+03
0.285328915686D-03 0.000000000000D+00 0.000000000000D+00 0.298365784870D-04 0.000000000000D+00  6 22 1 9900012 13 2 21 0 0.70451165D-01 0.96965874D-01 0.86630885D+04 0.86630885D+04 0.86630885D+04 0.12158457D+01  1  2  2  2  6  5        2 0.248423661884D-03 0.100000000000D+01
0.611127397140D-05 0.000000000000D+00 -.547869082531D-06 0.298365784870D-04 0.000000000000D+00  6 22 1 9900012 13 2 21 2 0.70451165D-01 0.96965874D-01 0.86630885D+04 0.86630885D+04 0.86630885D+04 0.12158457D+01  1  2  3  2  6  5        2 0.786567173589D-05 0.100000000000D+01
-.361511638922D-04 0.000000000000D+00 0.000000000000D+00 0.298365784870D-04 0.000000000000D+00  6 22 1 9900012 13 2 21 2 0.70451165D-01 0.96965874D-01 0.86630885D+04 0.86630885D+04 0.86630885D+04 0.12158457D+01  1  2 15  2  6  5        2 -.465292816812D-04 0.100000000000D+01
0.241062541505D-02 0.000000000000D+00 0.000000000000D+00 0.298365784870D-04 0.000000000000D+00  6 22 1 9900012 13 2 21 2 0.70451165D-01 0.96965874D-01 0.11558456D+05 0.11558456D+05 0.11558456D+05 0.12028652D+01  1  2 12  2  6  5        2 0.305974788685D-02 0.100000000000D+01
-.384269734414D-03 0.000000000000D+00 0.000000000000D+00 0.298365784870D-04 0.000000000000D+00  6 22 1 9900012 13 2 21 2 0.70451165D-01 0.96965874D-01 0.86630885D+04 0.86630885D+04 0.86630885D+04 0.12158457D+01  1  2  4  2  6  5        2 -.494584206678D-03 0.100000000000D+01
-.269971545548D-02 0.000000000000D+00 0.000000000000D+00 0.298365784870D-04 0.000000000000D+00  6 22 1 9900012 13 2 21 2 0.70451165D-01 0.96965874D-01 0.86630885D+04 0.86630885D+04 0.86630885D+04 0.12158457D+01  1  2  5  2  6  5        2 -.347473794376D-02 0.100000000000D+01
0.343493364264D-02 0.000000000000D+00 -.000000000000D+00 0.298365784870D-04 0.000000000000D+00  6 22 1 9900012 13 2 21 2 0.70451165D-01 0.96965874D-01 0.86630885D+04 0.86630885D+04 0.86630885D+04 0.12158457D+01  1  2  6  2  6  5        2 0.442101934784D-02 0.100000000000D+01
  </mgrwgt>
  </event>
  <event>
  7     66 0.10827799E-05 0.40027702E+02 0.78161638E-02 0.11842262E+00
       22 -1    0    0    0    0 0.00000000E+00 0.00000000E+00 0.86965199E+03 0.86965199E+03 0.00000000E+00 0.0000E+00 0.9000E+01
       21 -1    0    0  501  502 0.00000000E+00 0.00000000E+00 -.25882255E+02 0.25882255E+02 0.00000000E+00 0.0000E+00 0.9000E+01
      -24  2    1    2    0    0 0.87857084E+00 -.63089519E+02 0.79964426E+03 0.80646492E+03 0.83508504E+02 0.0000E+00 0.0000E+00
  9900012  1    3    3    0    0 0.56519978E+01 -.10039959E+02 0.37558819E+03 0.37907682E+03 0.50000000E+02 0.0000E+00 0.9000E+01
       13  1    3    3    0    0 -.47734269E+01 -.53049559E+02 0.42405607E+03 0.42738810E+03 0.00000000E+00 0.0000E+00 0.9000E+01
        2  1    1    2  501    0 0.16618219E+02 0.14962778E+02 0.27033508E+02 0.35083621E+02 0.00000000E+00 0.0000E+00 0.9000E+01
       -1  1    1    2    0  502 -.17496789E+02 0.48126740E+02 0.17091971E+02 0.53985704E+02 0.00000000E+00 0.0000E+00 0.9000E+01
#aMCatNLO 2  0  0  2  5 0.52656220D+02 0.00000000D+00  -5  6  0 0.00000000D+00 0.00000000D+00 0.00000000D+00 0.00000000D+00 0.00000000D+00
  <mgrwgt>
 0.2778062632D-03    1    2    0
 0.744739876801235D+02 0.000000000000000D+00 0.000000000000000D+00 0.744739876801235D+02
 0.744739876801235D+02 0.000000000000000D+00 0.000000000000000D+00 -.744739876801235D+02
 0.533008644867797D+02 -.480047649408680D+00 0.682686984267137D+01 0.171506722155016D+02
 0.445828747644100D+02 -.106212218514207D+02 -.369645907222759D+02 0.225486452226426D+02
 0.510642361090572D+02 0.111012695008294D+02 0.301377208796045D+02 -.396993174381442D+02
 0.000000000000000D+00 -.000000000000000D+00 0.000000000000000D+00 -.000000000000000D+00
 0.821078786948378D+02 0.000000000000000D+00 0.000000000000000D+00 0.821078786948378D+02
 0.274133915815979D+03 0.000000000000000D+00 0.000000000000000D+00 -.274133915815979D+03
 0.541007524785522D+02 0.565199777539982D+01 -.100399592852194D+02 0.171506722155016D+02
 0.578401481732858D+02 -.477342693970273D+01 -.530495592308020D+02 0.225486452226426D+02
 0.455640837673140D+02 0.166182185333202D+02 0.149627783943716D+02 -.396993174381442D+02
 0.198736810091664D+03 -.174967893690173D+02 0.481267401216499D+02 -.192026037121141D+03
0.800367556633D-06 0.000000000000D+00 0.000000000000D+00 0.461976101717D-07 0.186625434951D-09  6 22 21 9900012 13 2 -1 2 0.13379261D+00 0.39818853D-02 0.79338720D+04 0.79338720D+04 0.79338720D+04 0.12198945D+01  1  2  1  3  6  2        1 0.277806263198D-03 0.100000000000D+01
  </mgrwgt>
  </event>
  <event>
  7     66 0.10827799E-05 0.72810349E+02 0.78161638E-02 0.11559719E+00
       22 -1    0    0    0    0 0.00000000E+00 0.00000000E+00 0.31712066E+03 0.31712066E+03 0.00000000E+00 0.0000E+00 0.9000E+01
        3 -1    0    0  502    0 0.00000000E+00 0.00000000E+00 -.20398446E+03 0.20398446E+03 0.00000000E+00 0.0000E+00 0.9000E+01
      -24  2    1    2    0    0 0.29058841E+02 -.70076330E+02 0.29418857E+03 0.31412755E+03 0.79837908E+02 0.0000E+00 0.0000E+00
  9900012  1    3    3    0    0 0.14109733E+02 -.76751936E+02 0.23220416E+03 0.25001743E+03 0.50000000E+02 0.0000E+00 0.9000E+01
       13  1    3    3    0    0 0.14949107E+02 0.66756057E+01 0.61984413E+02 0.64110116E+02 0.00000000E+00 0.0000E+00 0.9000E+01
        4  1    1    2  501    0 -.14176381E+02 0.80724868E+02 -.14574786E+03 0.16721218E+03 0.00000000E+00 0.0000E+00 0.9000E+01
       21  1    1    2  502  501 -.14882459E+02 -.10648538E+02 -.35304513E+02 0.39765407E+02 0.00000000E+00 0.0000E+00 0.9000E+01
#aMCatNLO 2  0  0  2  5 0.28492641D+03 0.00000000D+00  -5  6  0 0.00000000D+00 0.00000000D+00 0.00000000D+00 0.00000000D+00 0.00000000D+00
  <mgrwgt>
 0.4487155485D-04    1    2    0
 0.228756641139181D+03 0.000000000000000D+00 0.000000000000000D+00 0.228756641139181D+03
 0.228756641139181D+03 0.000000000000000D+00 0.000000000000000D+00 -.228756641139181D+03
 0.189026375464147D+03 0.798736696578155D+01 -.811325459704379D+02 0.163048098959851D+03
 0.466962836325855D+02 0.134209127463096D+02 0.558216833367439D+01 0.443763608562637D+02
 0.221790623181630D+03 -.214082797120912D+02 0.755503776367635D+02 -.207424459816115D+03
 0.000000000000000D+00 -.000000000000000D+00 -.000000000000000D+00 -.000000000000000D+00
 0.230561193431415D+03 0.000000000000000D+00 0.000000000000000D+00 0.230561193431415D+03
 0.280566247382645D+03 0.000000000000000D+00 0.000000000000000D+00 -.280566247382645D+03
 0.187548998381846D+03 0.141097333705526D+02 -.767519357659751D+02 0.163048098959851D+03
 0.473001154357229D+02 0.149491071950009D+02 0.667560569984105D+01 0.443763608562637D+02
 0.223029999508946D+03 -.141763813309084D+02 0.807248683078151D+02 -.207424459816115D+03
 0.532483274875446D+02 -.148824592346451D+02 -.106485382416810D+02 -.500050539512296D+02
0.107974030299D-04 0.000000000000D+00 0.000000000000D+00 0.203060622996D-04 0.166500921758D-06  6 22 3 9900012 13 4 21 2 0.48787795D-01 0.31382225D-01 0.10953063D+05 0.10953063D+05 0.10953063D+05 0.12052540D+01  1  2  1  1  6  2        3 0.448715548527D-04 0.100000000000D+01
  </mgrwgt>
  </event>
  <event>
  6     66 0.10827799E-05 0.23152194E+02 0.78161638E-02 0.12494976E+00
       22 -1    0    0    0    0 0.00000000E+00 0.00000000E+00 0.19573998E+02 0.19573998E+02 0.00000000E+00 0.0000E+00 0.9000E+01
        1 -1    0    0  501    0 -.00000000E+00 -.00000000E+00 -.33389651E+03 0.33389651E+03 0.00000000E+00 0.0000E+00 0.9000E+01
      -24  2    1    2    0    0 -.44179104E+02 -.10713635E+01 -.10666329E+03 0.14116107E+03 0.81218542E+02 0.0000E+00 0.0000E+00
  9900012  1    3    3    0    0 -.14714939E+02 -.13154877E+01 -.32695864E+02 0.61540876E+02 0.50000000E+02 0.0000E+00 0.9000E+01
       13  1    3    3    0    0 -.29464165E+02 0.24412424E+00 -.73967421E+02 0.79620199E+02 0.00000000E+00 0.0000E+00 0.9000E+01
        2  1    1    2  501    0 0.44179104E+02 0.10713635E+01 -.20765922E+03 0.21230943E+03 0.00000000E+00 0.0000E+00 0.9000E+01
#aMCatNLO 1  0  0  5  2 0.89068178D+01 0.00000000D+00  -5  6  0 0.00000000D+00 0.00000000D+00 0.00000000D+00 0.00000000D+00 0.00000000D+00
  <mgrwgt>
 0.2281013530D-03    8    2    0
 0.808436121918690D+02 0.000000000000000D+00 0.000000000000000D+00 0.808436121918690D+02
 0.808436121918690D+02 -.000000000000000D+00 -.000000000000000D+00 -.808436121918690D+02
 0.709755437925265D+02 -.147149394961256D+02 -.131548774023159D+01 0.481587776451554D+02
 0.302668711719958D+02 -.294641648621988D+02 0.244124237793780D+00 -.692003488949870D+01
 0.604448094192156D+02 0.441791043583244D+02 0.107136350243781D+01 -.412387427556567D+02
 0.000000000000000D+00 0.000000000000000D+00 0.000000000000000D+00 0.000000000000000D+00
 0.808436121918690D+02 0.000000000000000D+00 0.000000000000000D+00 0.808436121918690D+02
 0.808436121918690D+02 -.000000000000000D+00 -.000000000000000D+00 -.808436121918690D+02
 0.694072567510133D+02 -.128144350968224D+02 -.126939963864579D+01 0.463847622329554D+02
 0.296647169105566D+02 -.286528101494626D+02 0.263799960952544D+00 -.767738949792946D+01
 0.544812419617468D+02 0.374054197112540D+02 -.602774466972330D+01 -.391497968847343D+02
 0.813400876042132D+01 0.406182553503094D+01 0.703334434741655D+01 0.442424149708339D+00
0.413509574036D-06 0.000000000000D+00 0.000000000000D+00 0.298745492000D-06 0.000000000000D+00  6 22 1 9900012 13 2 21 0 0.30113844D-02 0.51368693D-01 0.39560454D+04 0.39560454D+04 0.39560454D+04 0.12534622D+01  1  2  2  2  6  5        2 0.840020893996D-04 0.100000000000D+01
-.617303065672D-10 0.000000000000D+00 -.793992821935D-09 0.298745492000D-06 0.000000000000D+00  6 22 1 9900012 13 2 21 2 0.30113844D-02 0.51368693D-01 0.39560454D+04 0.39560454D+04 0.39560454D+04 0.12534622D+01  1  2  3  2  6  5        2 -.197026854575D-07 0.100000000000D+01
-.479758902890D-07 0.000000000000D+00 0.000000000000D+00 0.298745492000D-06 0.000000000000D+00  6 22 1 9900012 13 2 21 2 0.30113844D-02 0.51368693D-01 0.39560454D+04 0.39560454D+04 0.39560454D+04 0.12534622D+01  1  2 15  2  6  5        2 -.153126386126D-04 0.100000000000D+01
0.544280140642D-06 0.000000000000D+00 0.000000000000D+00 0.298745492000D-06 0.000000000000D+00  6 22 1 9900012 13 2 21 2 0.30113844D-02 0.51368693D-01 0.39876424D+04 0.39876424D+04 0.39876424D+04 0.12530623D+01  1  2 12  2  6  5        2 0.173734267757D-03 0.100000000000D+01
-.119526798841D-06 0.000000000000D+00 0.000000000000D+00 0.298745492000D-06 0.000000000000D+00  6 22 1 9900012 13 2 21 2 0.30113844D-02 0.51368693D-01 0.39560454D+04 0.39560454D+04 0.39560454D+04 0.12534622D+01  1  2  4  2  6  5        2 -.381498011638D-04 0.100000000000D+01
-.520337847765D-06 0.000000000000D+00 0.000000000000D+00 0.298745492000D-06 0.000000000000D+00  6 22 1 9900012 13 2 21 2 0.30113844D-02 0.51368693D-01 0.39560454D+04 0.39560454D+04 0.39560454D+04 0.12534622D+01  1  2  5  2  6  5        2 -.166078114889D-03 0.100000000000D+01
0.595021870585D-06 0.000000000000D+00 -.000000000000D+00 0.298745492000D-06 0.000000000000D+00  6 22 1 9900012 13 2 21 2 0.30113844D-02 0.51368693D-01 0.39560454D+04 0.39560454D+04 0.39560454D+04 0.12534622D+01  1  2  6  2  6  5        2 0.189915284865D-03 0.100000000000D+01
0.312290161137D-10 0.000000000000D+00 0.000000000000D+00 0.298745492000D-06 0.635130208572D-08  6 22 1 9900012 13 2 21 2 0.30113844D-02 0.51368693D-01 0.39876424D+04 0.39876424D+04 0.39876424D+04 0.12530623D+01  1  2 11  2  6  5        2 0.996830463237D-08 0.100000000000D+01
  </mgrwgt>
  </event>
  <event>
  6     66 0.10827799E-05 0.74509223E+02 0.78161638E-02 0.11077463E+00
       22 -1    0    0    0    0 0.00000000E+00 0.00000000E+00 0.10439021E+04 0.10439021E+04 0.00000000E+00 0.0000E+00 0.9000E+01
        3 -1    0    0  501    0 0.00000000E+00 0.00000000E+00 -.35245646E+02 0.35245646E+02 0.00000000E+00 0.0000E+00 0.9000E+01
      -24  2    1    2    0    0 -.74242610E+02 0.62975429E+01 0.99803537E+03 0.10038853E+04 0.78482896E+02 0.0000E+00 0.0000E+00
  9900012  1    3    3    0    0 -.37542479E+02 -.12998678E+02 0.48677132E+03 0.49094269E+03 0.50000000E+02 0.0000E+00 0.9000E+01
       13  1    3    3    0    0 -.36700131E+02 0.19296221E+02 0.51126404E+03 0.51294265E+03 0.00000000E+00 0.0000E+00 0.9000E+01
        4  1    1    2  501    0 0.74242610E+02 -.62975429E+01 0.10621107E+02 0.75262422E+02 0.00000000E+00 0.0000E+00 0.9000E+01
#aMCatNLO 1  0  0  5  5 0.87648045D+02 0.00000000D+00  -5  6  0 0.00000000D+00 0.00000000D+00 0.00000000D+00 0.00000000D+00 0.00000000D+00
  <mgrwgt>
 0.1101119165D-03    4    2    0
 0.191815025739386D+03 0.000000000000000D+00 0.000000000000000D+00 0.191815025739386D+03
 0.191815025739386D+03 -.000000000000000D+00 -.000000000000000D+00 -.191815025739386D+03
 0.101177318477953D+03 -.375424793593185D+02 -.129986778441335D+02 0.784757694594237D+02
 0.986657083407712D+02 -.367001310476975D+02 0.192962207596512D+02 0.895303202711951D+02
 0.183787024660049D+03 0.742426104070159D+02 -.629754291551766D+01 -.168006089730619D+03
 0.000000000000000D+00 -.000000000000000D+00 0.000000000000000D+00 0.000000000000000D+00
 0.191815025739386D+03 0.000000000000000D+00 0.000000000000000D+00 0.191815025739386D+03
 0.191815025739386D+03 -.000000000000000D+00 -.000000000000000D+00 -.191815025739386D+03
 0.813293112146360D+02 -.276903514609725D+02 -.138343731127786D+02 0.561810592565801D+02
 0.757679120190305D+02 -.272838027726591D+02 0.184974916862315D+02 0.682217956323636D+02
 0.141711258820319D+03 0.115489822622747D+03 0.302909500204174D+02 -.763324314683241D+02
 0.848215694247874D+02 -.605156683891155D+02 -.349540685938702D+02 -.480704234206196D+02
0.257177362122D-04 0.000000000000D+00 0.000000000000D+00 0.453774178963D-05 0.000000000000D+00  6 22 3 9900012 13 4 21 0 0.16060033D+00 0.54224070D-02 0.80851897D+04 0.80851897D+04 0.80851897D+04 0.12190210D+01  1  2  2  2  6  5        4 0.136688106114D-03 0.100000000000D+01
0.414500513053D-06 0.000000000000D+00 -.493814393452D-07 0.453774178963D-05 0.000000000000D+00  6 22 3 9900012 13 4 21 2 0.16060033D+00 0.54224070D-02 0.80851897D+04 0.80851897D+04 0.80851897D+04 0.12190210D+01  1  2  3  2  6  5        4 0.327374956034D-05 0.100000000000D+01
-.356386644528D-05 0.000000000000D+00 0.000000000000D+00 0.453774178963D-05 0.000000000000D+00  6 22 3 9900012 13 4 21 2 0.16060033D+00 0.54224070D-02 0.80851897D+04 0.80851897D+04 0.80851897D+04 0.12190210D+01  1  2 15  2  6  5        4 -.281476279062D-04 0.100000000000D+01
-.215535396509D-06 0.000000000000D+00 0.000000000000D+00 0.453774178963D-05 0.000000000000D+00  6 22 3 9900012 13 4 21 2 0.16060033D+00 0.54224070D-02 0.80851897D+04 0.80851897D+04 0.80851897D+04 0.12190210D+01  1  2  4  2  6  5        4 -.170231130563D-05 0.100000000000D+01
  </mgrwgt>
  </event>
  <event>
  6     66 0.10827799E-05 0.17996514E+02 0.78161638E-02 0.12802354E+00
       22 -1    0    0    0    0 0.00000000E+00 0.00000000E+00 0.66987283E+03 0.66987283E+03 0.00000000E+00 0.0000E+00 0.9000E+01
        1 -1    0    0  501    0 0.00000000E+00 0.00000000E+00 -.58986156E+01 0.58986156E+01 0.00000000E+00 0.0000E+00 0.9000E+01
      -24  2    1    2    0    0 0.87786197E+01 -.15710199E+02 0.64280350E+03 0.64798523E+03 0.79778732E+02 0.0000E+00 0.0000E+00
  9900012  1    3    3    0    0 -.12697978E+02 -.26129416E+02 0.46819091E+03 0.47174857E+03 0.50000000E+02 0.0000E+00 0.9000E+01
       13  1    3    3    0    0 0.21476597E+02 0.10419217E+02 0.17461259E+03 0.17623666E+03 0.00000000E+00 0.0000E+00 0.9000E+01
        2  1    1    2  501    0 -.87786197E+01 0.15710199E+02 0.21170713E+02 0.27786212E+02 0.00000000E+00 0.0000E+00 0.9000E+01
#aMCatNLO 1  0  0  5  2 0.10138580D+02 0.00000000D+00  -5  6  0 0.00000000D+00 0.00000000D+00 0.00000000D+00 0.00000000D+00 0.00000000D+00
  <mgrwgt>
 0.4355055375D-04    5    2    0
 0.628595445444521D+02 0.000000000000000D+00 0.000000000000000D+00 0.628595445444521D+02
 0.628595445444521D+02 -.000000000000000D+00 -.000000000000000D+00 -.628595445444521D+02
 0.630574202747505D+02 -.126979776963721D+02 -.261294157898171D+02 0.251446464403818D+02
 0.251150906398019D+02 0.214765974049046D+02 0.104192166195639D+02 0.780791052636451D+01
 0.375465781743519D+02 -.877861970853248D+01 0.157101991702532D+02 -.329525569667463D+02
 0.000000000000000D+00 0.000000000000000D+00 -.000000000000000D+00 0.000000000000000D+00
 0.628595445444521D+02 0.000000000000000D+00 0.000000000000000D+00 0.628595445444521D+02
 0.628595445444521D+02 -.000000000000000D+00 -.000000000000000D+00 -.628595445444521D+02
 0.611454462196956D+02 -.136928376309295D+02 -.243490165656418D+02 0.214102121265715D+02
 0.246586421037563D+02 0.210779118198006D+02 0.111327034952062D+02 0.631135299327182D+01
 0.310615373977573D+02 -.217877354834343D+01 0.194196682881151D+02 -.241443271787990D+02
 0.885346336769503D+01 -.520630064052767D+01 -.620335521767955D+01 -.357723794104429D+01
0.151227559355D-06 0.000000000000D+00 0.000000000000D+00 0.378215196313D-06 0.000000000000D+00  6 22 1 9900012 13 2 21 0 0.10305736D+00 0.90747932D-03 0.24847378D+04 0.24847378D+04 0.24847378D+04 0.12775641D+01  1  2  2  2  6  5        2 0.256188981414D-04 0.100000000000D+01
0.119124366392D-07 0.000000000000D+00 -.290376823526D-09 0.378215196313D-06 0.000000000000D+00  6 22 1 9900012 13 2 21 2 0.10305736D+00 0.90747932D-03 0.24847378D+04 0.24847378D+04 0.24847378D+04 0.12775641D+01  1  2  3  2  6  5        2 0.329378672661D-05 0.100000000000D+01
-.188459334968D-07 0.000000000000D+00 0.000000000000D+00 0.378215196313D-06 0.000000000000D+00  6 22 1 9900012 13 2 21 2 0.10305736D+00 0.90747932D-03 0.24847378D+04 0.24847378D+04 0.24847378D+04 0.12775641D+01  1  2 15  2  6  5        2 -.521089744126D-05 0.100000000000D+01
0.789353675733D-07 0.000000000000D+00 0.000000000000D+00 0.378215196313D-06 0.000000000000D+00  6 22 1 9900012 13 2 21 2 0.10305736D+00 0.90747932D-03 0.29567424D+04 0.29567424D+04 0.29567424D+04 0.12683813D+01  1  2 12  2  6  5        2 0.220327709783D-04 0.100000000000D+01
-.789875582033D-08 0.000000000000D+00 0.000000000000D+00 0.378215196313D-06 0.000000000000D+00  6 22 1 9900012 13 2 21 2 0.10305736D+00 0.90747932D-03 0.24847378D+04 0.24847378D+04 0.24847378D+04 0.12775641D+01  1  2  4  2  6  5        2 -.218400465545D-05 0.100000000000D+01
  </mgrwgt>
  </event>
  <event>
  6     66 0.10827799E-05 0.29913029E+02 0.78161638E-02 0.12757819E+00
       22 -1    0    0    0    0 0.00000000E+00 0.00000000E+00 0.16929786E+02 0.16929786E+02 0.00000000E+00 0.0000E+00 0.9000E+01
        1 -1    0    0  501    0 0.00000000E+00 0.00000000E+00 -.20933083E+03 0.20933083E+03 0.00000000E+00 0.0000E+00 0.9000E+01
      -24  2    1    2    0    0 0.28464531E+02 0.91956392E+01 -.12612148E+03 0.15354357E+03 0.82305581E+02 0.0000E+00 0.0000E+00
  9900012  1    3    3    0    0 0.10998029E+01 0.85911432E+01 -.11151701E+03 0.12251963E+03 0.50000000E+02 0.0000E+00 0.9000E+01
       13  1    3    3    0    0 0.27364728E+02 0.60449604E+00 -.14604477E+02 0.31023934E+02 0.00000000E+00 0.0000E+00 0.9000E+01
        2  1    1    2  501    0 -.28464531E+02 -.91956392E+01 -.66279561E+02 0.72717051E+02 0.00000000E+00 0.0000E+00 0.9000E+01
#aMCatNLO 1  0  0  2  5 0.28568915D+01 0.00000000D+00  -5  6  0 0.00000000D+00 0.00000000D+00 0.00000000D+00 0.00000000D+00 0.00000000D+00
  <mgrwgt>
 0.6525839254D-03    9    2    0
 0.595308845712568D+02 0.000000000000000D+00 0.000000000000000D+00 0.595308845712568D+02
 0.595308845712568D+02 0.000000000000000D+00 0.000000000000000D+00 -.595308845712568D+02
 0.526229274043256D+02 0.109980288291913D+01 0.859114319352909D+01 -.139339578314247D+02
 0.353562523753006D+02 0.273647282199766D+02 0.604496040064511D+00 0.223801433420413D+02
 0.310825893628873D+02 -.284645311028957D+02 -.919563923359360D+01 -.844618551061657D+01
 0.000000000000000D+00 -.000000000000000D+00 -.000000000000000D+00 -.000000000000000D+00
 0.595744293717931D+02 0.000000000000000D+00 0.000000000000000D+00 0.595744293717931D+02
 0.136710389137536D+03 0.000000000000000D+00 0.000000000000000D+00 -.136710389137536D+03
 0.526913980953941D+02 0.235159666826207D+01 0.875775345103990D+01 -.139339578314247D+02
 0.360189565163791D+02 0.282131127345638D+02 0.717413650056346D+00 0.223801433420413D+02
 0.303856583011689D+02 -.277339033363818D+02 -.909839471796430D+01 -.844618551061657D+01
 0.771888055963870D+02 -.283080606644411D+01 -.376772383131941D+00 -.771359597657430D+02
0.684455055813D-07 0.000000000000D+00 0.000000000000D+00 0.219508870165D-07 0.000000000000D+00  6 22 1 9900012 13 2 21 0 0.26045825D-02 0.32204743D-01 0.29175695D+04 0.29175695D+04 0.29175695D+04 0.12690786D+01  1  2  2  1  6  2        1 0.290491932956D-04 0.100000000000D+01
-.645653281059D-09 0.000000000000D+00 -.131424381774D-09 0.219508870165D-07 0.000000000000D+00  6 22 1 9900012 13 2 21 2 0.26045825D-02 0.32204743D-01 0.29175695D+04 0.29175695D+04 0.29175695D+04 0.12690786D+01  1  2  3  1  6  2        1 -.441332108535D-06 0.100000000000D+01
-.780330202510D-08 0.000000000000D+00 0.000000000000D+00 0.219508870165D-07 0.000000000000D+00  6 22 1 9900012 13 2 21 2 0.26045825D-02 0.32204743D-01 0.29175695D+04 0.29175695D+04 0.29175695D+04 0.12690786D+01  1  2 15  1  6  2        1 -.533389643839D-05 0.100000000000D+01
0.144379496631D-06 0.000000000000D+00 0.000000000000D+00 0.219508870165D-07 0.000000000000D+00  6 22 1 9900012 13 2 21 2 0.26045825D-02 0.74011052D-01 0.30847926D+04 0.30847926D+04 0.30847926D+04 0.12661733D+01  1  2 12  1  6  2        1 0.352327709213D-04 0.100000000000D+01
-.123050261888D-04 0.000000000000D+00 -.193492522645D-07 0.219508870165D-07 0.000000000000D+00  6 22 1 9900012 13 2 21 2 0.26045825D-02 0.73972361D-01 0.29175695D+04 0.29175695D+04 0.29175695D+04 0.12690786D+01  1  2  5  1  6  2        1 -.300422632870D-02 0.100000000000D+01
0.141630805819D-04 0.000000000000D+00 0.000000000000D+00 0.219508870165D-07 0.365506319068D-07  6 22 1 9900012 13 2 21 2 0.26064877D-02 0.73956955D-01 0.30847926D+04 0.30847926D+04 0.30847926D+04 0.12661733D+01  1  2 11  1  6  2        1 0.345607907344D-02 0.100000000000D+01
0.130735587404D-07 0.000000000000D+00 0.000000000000D+00 0.219508870165D-07 0.000000000000D+00  6 22 21 9900012 13 2 -1 2 0.26045825D-02 0.74011052D-01 0.30847926D+04 0.30847926D+04 0.30847926D+04 0.12661733D+01  1  2 12  3  6  2        1 0.108840946427D-04 0.100000000000D+01
-.111223210540D-05 0.000000000000D+00 -.175087348112D-08 0.219508870165D-07 0.000000000000D+00  6 22 21 9900012 13 2 -1 2 0.26045825D-02 0.73972361D-01 0.29175695D+04 0.29175695D+04 0.29175695D+04 0.12690786D+01  1  2  5  3  6  2        1 -.928465500314D-03 0.100000000000D+01
0.127217385036D-05 0.000000000000D+00 0.000000000000D+00 0.219508870165D-07 0.328249959163D-08  6 22 21 9900012 13 2 -1 2 0.26064877D-02 0.73956955D-01 0.30847926D+04 0.30847926D+04 0.30847926D+04 0.12661733D+01  1  2 11  3  6  2        1 0.105980585066D-02 0.100000000000D+01
  </mgrwgt>
  </event>
  <event>
  6     66 0.10827799E-05 0.33175422E+02 0.78161638E-02 0.12465138E+00
       22 -1    0    0    0    0 0.00000000E+00 0.00000000E+00 0.19262664E+02 0.19262664E+02 0.00000000E+00 0.0000E+00 0.9000E+01
        1 -1    0    0  501    0 0.00000000E+00 0.00000000E+00 -.55355640E+03 0.55355640E+03 0.00000000E+00 0.0000E+00 0.9000E+01
      -24  2    1    2    0    0 0.22580445E+02 0.31176554E+02 -.80100822E+02 0.11699776E+03 0.76095212E+02 0.0000E+00 0.0000E+00
  9900012  1    3    3    0    0 0.39317783E+01 0.30826092E+02 -.78715208E+02 0.98294409E+02 0.50000000E+02 0.0000E+00 0.9000E+01
       13  1    3    3    0    0 0.18648667E+02 0.35046190E+00 -.13856138E+01 0.18703356E+02 0.00000000E+00 0.0000E+00 0.9000E+01
        2  1    1    2  501    0 -.22580445E+02 -.31176554E+02 -.45419291E+03 0.45582130E+03 0.00000000E+00 0.0000E+00 0.9000E+01
#aMCatNLO 1  0  0  2  5 0.14433722D+02 0.00000000D+00  -5  6  0 0.00000000D+00 0.00000000D+00 0.00000000D+00 0.00000000D+00 0.00000000D+00
  <mgrwgt>
 0.2145211219D-03    9    2    0
 0.103261663546086D+03 0.000000000000000D+00 0.000000000000000D+00 0.103261663546086D+03
 0.103261663546086D+03 0.000000000000000D+00 0.000000000000000D+00 -.103261663546086D+03
 0.689891500759108D+02 0.393177834300765D+01 0.308260922978365D+02 0.359693755979063D+02
 0.482914656960630D+02 0.186486669730705D+02 0.350461900022847D+00 0.445440237928521D+02
 0.892427113201982D+02 -.225804453160782D+02 -.311765541978594D+02 -.805133993907584D+02
 0.000000000000000D+00 -.000000000000000D+00 0.000000000000000D+00 -.000000000000000D+00
 0.108302758160551D+03 0.000000000000000D+00 0.000000000000000D+00 0.108302758160551D+03
 0.109070591523522D+03 0.000000000000000D+00 0.000000000000000D+00 -.109070591523522D+03
 0.682229957543158D+02 0.661949358536725D+01 0.285790740483909D+02 0.359693755979063D+02
 0.490740382269091D+02 0.205558651105997D+02 -.124401840532920D+01 0.445440237928521D+02
 0.894957222344843D+02 -.190793120209630D+02 -.341036166648485D+02 -.805133993907584D+02
 0.105805934683640D+02 -.809604667500395D+01 0.676856102178686D+01 -.767833362971145D+00
0.581724846780D-06 0.000000000000D+00 0.000000000000D+00 0.153974548017D-06 0.000000000000D+00  6 22 1 9900012 13 2 21 0 0.29634868D-02 0.85162523D-01 0.33649902D+04 0.33649902D+04 0.33649902D+04 0.12616843D+01  1  2  2  1  6  2        1 0.624519711530D-04 0.100000000000D+01
0.173425851908D-07 0.000000000000D+00 -.111698829165D-08 0.153974548017D-06 0.000000000000D+00  6 22 1 9900012 13 2 21 2 0.29634868D-02 0.85162523D-01 0.33649902D+04 0.33649902D+04 0.33649902D+04 0.12616843D+01  1  2  3  1  6  2        1 0.296376498248D-05 0.100000000000D+01
-.821530582744D-07 0.000000000000D+00 0.000000000000D+00 0.153974548017D-06 0.000000000000D+00  6 22 1 9900012 13 2 21 2 0.29634868D-02 0.85162523D-01 0.33649902D+04 0.33649902D+04 0.33649902D+04 0.12616843D+01  1  2 15  1  6  2        1 -.140395653035D-04 0.100000000000D+01
0.764224889105D-06 0.000000000000D+00 0.000000000000D+00 0.153974548017D-06 0.000000000000D+00  6 22 1 9900012 13 2 21 2 0.29634868D-02 0.94344692D-01 0.41084587D+04 0.41084587D+04 0.41084587D+04 0.12515652D+01  1  2 12  1  6  2        1 0.113672701577D-03 0.100000000000D+01
-.357070882716D-07 0.000000000000D+00 0.000000000000D+00 0.153974548017D-06 0.000000000000D+00  6 22 1 9900012 13 2 21 2 0.29634868D-02 0.85162523D-01 0.33649902D+04 0.33649902D+04 0.33649902D+04 0.12616843D+01  1  2  4  1  6  2        1 -.610217085176D-05 0.100000000000D+01
-.283909051235D-05 0.000000000000D+00 -.718773550455D-06 0.153974548017D-06 0.000000000000D+00  6 22 1 9900012 13 2 21 2 0.29634868D-02 0.93562911D-01 0.33649902D+04 0.33649902D+04 0.33649902D+04 0.12616843D+01  1  2  5  1  6  2        1 -.427565032241D-03 0.100000000000D+01
0.289704777728D-05 0.000000000000D+00 0.715604787642D-06 0.153974548017D-06 0.000000000000D+00  6 22 1 9900012 13 2 21 2 0.29634868D-02 0.85162523D-01 0.33649902D+04 0.33649902D+04 0.33649902D+04 0.12616843D+01  1  2  6  1  6  2        1 0.495091629096D-03 0.100000000000D+01
0.126781512698D-07 0.000000000000D+00 0.000000000000D+00 0.153974548017D-06 0.000000000000D+00  6 22 21 9900012 13 2 -1 2 0.29634868D-02 0.94344692D-01 0.41084587D+04 0.41084587D+04 0.41084587D+04 0.12515652D+01  1  2 12  3  6  2        1 0.503472372476D-05 0.100000000000D+01
-.416184115796D-07 0.000000000000D+00 -.110718474917D-07 0.153974548017D-06 0.000000000000D+00  6 22 21 9900012 13 2 -1 2 0.29634868D-02 0.93562911D-01 0.33649902D+04 0.33649902D+04 0.33649902D+04 0.12616843D+01  1  2  5  3  6  2        1 -.169869002263D-04 0.100000000000D+01
  </mgrwgt>
  </event>
  <event>
  6     66 0.10827799E-05 0.51358917E+02 0.78161638E-02 0.12352760E+00
       22 -1    0    0    0    0 0.00000000E+00 0.00000000E+00 0.58263551E+03 0.58263551E+03 0.00000000E+00 0.0000E+00 0.9000E+01
        1 -1    0    0  501    0 0.00000000E+00 0.00000000E+00 -.13014667E+02 0.13014667E+02 0.00000000E+00 0.0000E+00 0.9000E+01
      -24  2    1    2    0    0 0.39378982E+02 0.32970200E+02 0.50057912E+03 0.50960078E+03 0.80472153E+02 0.0000E+00 0.0000E+00
  9900012  1    3    3    0    0 0.13854069E+02 0.28363267E+02 0.43625699E+03 0.44024603E+03 0.50000000E+02 0.0000E+00 0.9000E+01
       13  1    3    3    0    0 0.25524914E+02 0.46069334E+01 0.64322128E+02 0.69354749E+02 0.00000000E+00 0.0000E+00 0.9000E+01
        2  1    1    2  501    0 -.39378982E+02 -.32970200E+02 0.69041727E+02 0.86049395E+02 0.00000000E+00 0.0000E+00 0.9000E+01
#aMCatNLO 1  0  0  5  2 0.17733501D+02 0.00000000D+00  -5  6  0 0.00000000D+00 0.00000000D+00 0.00000000D+00 0.00000000D+00 0.00000000D+00
  <mgrwgt>
 0.1362808242D-03    5    2    0
 0.870793155626907D+02 0.000000000000000D+00 0.000000000000000D+00 0.870793155626907D+02
 0.870793155626907D+02 -.000000000000000D+00 -.000000000000000D+00 -.870793155626907D+02
 0.788450981796706D+02 0.138540686892981D+02 0.283632666345631D+02 0.521549555989724D+02
 0.268257949088560D+02 0.255249136000247D+02 0.460693340468459D+01 -.684676732539398D+01
 0.684877380368547D+02 -.393789822893228D+02 -.329702000392477D+02 -.453081882735784D+02
 0.000000000000000D+00 0.000000000000000D+00 0.000000000000000D+00 0.000000000000000D+00
 0.870793155626907D+02 0.000000000000000D+00 0.000000000000000D+00 0.870793155626907D+02
 0.870793155626907D+02 -.000000000000000D+00 -.000000000000000D+00 -.870793155626907D+02
 0.736816529876432D+02 0.953010200741565D+01 0.247430093760772D+02 0.471799388483610D+02
 0.257343105474063D+02 0.240348920592144D+02 0.335940730301022D+01 -.856113810335653D+01
 0.616665399207135D+02 -.391917346199349D+02 -.177005920256016D+02 -.441979538578060D+02
 0.130761276696183D+02 0.562674055330494D+01 -.104018246534859D+02 0.557915311280159D+01
0.107852502498D-05 0.000000000000D+00 0.000000000000D+00 0.655935216305D-06 0.000000000000D+00  6 22 1 9900012 13 2 21 0 0.89636232D-01 0.20022565D-02 0.46530608D+04 0.46530608D+04 0.46530608D+04 0.12453787D+01  1  2  2  2  6  5        2 0.889256288447D-04 0.100000000000D+01
-.473416541212D-08 0.000000000000D+00 -.207091003905D-08 0.655935216305D-06 0.000000000000D+00  6 22 1 9900012 13 2 21 2 0.89636232D-01 0.20022565D-02 0.46530608D+04 0.46530608D+04 0.46530608D+04 0.12453787D+01  1  2  3  2  6  5        2 -.605400869835D-06 0.100000000000D+01
-.121161228253D-06 0.000000000000D+00 0.000000000000D+00 0.655935216305D-06 0.000000000000D+00  6 22 1 9900012 13 2 21 2 0.89636232D-01 0.20022565D-02 0.46530608D+04 0.46530608D+04 0.46530608D+04 0.12453787D+01  1  2 15  2  6  5        2 -.154939903001D-04 0.100000000000D+01
0.585904251318D-06 0.000000000000D+00 0.000000000000D+00 0.655935216305D-06 0.000000000000D+00  6 22 1 9900012 13 2 21 2 0.89636232D-01 0.20022565D-02 0.46031897D+04 0.46031897D+04 0.46031897D+04 0.12459108D+01  1  2 12  2  6  5        2 0.748958180830D-04 0.100000000000D+01
-.894691197447D-07 0.000000000000D+00 0.000000000000D+00 0.655935216305D-06 0.000000000000D+00  6 22 1 9900012 13 2 21 2 0.89636232D-01 0.20022565D-02 0.46530608D+04 0.46530608D+04 0.46530608D+04 0.12453787D+01  1  2  4  2  6  5        2 -.114412316008D-04 0.100000000000D+01
  </mgrwgt>
  </event>
  <event>
  6     66 0.10827799E-05 0.12405901E+03 0.78161638E-02 0.10562245E+00
       22 -1    0    0    0    0 0.00000000E+00 0.00000000E+00 0.73053018E+02 0.73053018E+02 0.00000000E+00 0.0000E+00 0.9000E+01
        1 -1    0    0  501    0 -.00000000E+00 -.00000000E+00 -.22639394E+04 0.22639394E+04 0.00000000E+00 0.0000E+00 0.9000E+01
      -24  2    1    2    0    0 0.21970071E+02 -.18327208E+03 -.77896197E+02 0.21595520E+03 0.80607028E+02 0.0000E+00 0.0000E+00
  9900012  1    3    3    0    0 0.40803209E+02 -.13972655E+03 -.57236657E+02 0.16420854E+03 0.50000000E+02 0.0000E+00 0.9000E+01
       13  1    3    3    0    0 -.18833138E+02 -.43545536E+02 -.20659540E+02 0.51746665E+02 0.00000000E+00 0.0000E+00 0.9000E+01
        2  1    1    2  501    0 -.21970071E+02 0.18327208E+03 -.21129902E+04 0.21210372E+04 0.00000000E+00 0.0000E+00 0.9000E+01
#aMCatNLO 1  0  0  5  2 0.47846781D+02 0.00000000D+00  -5  6  0 0.00000000D+00 0.00000000D+00 0.00000000D+00 0.00000000D+00 0.00000000D+00
  <mgrwgt>
 0.1621745377D-03    7    2    0
 0.406678748739180D+03 0.000000000000000D+00 0.000000000000000D+00 0.406678748739180D+03
 0.406678748739180D+03 -.000000000000000D+00 -.000000000000000D+00 -.406678748739180D+03
 0.317640272254306D+03 0.408032092365029D+02 -.139726545931140D+03 0.277861355780081D+03
 0.930327182168067D+02 -.188331377460901D+02 -.435455358993478D+02 0.800261575029263D+02
 0.402684507007247D+03 -.219700714904129D+02 0.183272081830488D+03 -.357887513283007D+03
 0.000000000000000D+00 0.000000000000000D+00 0.000000000000000D+00 0.000000000000000D+00
 0.406678748739180D+03 0.000000000000000D+00 0.000000000000000D+00 0.406678748739180D+03
 0.406678748739180D+03 -.000000000000000D+00 -.000000000000000D+00 -.406678748739180D+03
 0.310977958684927D+03 0.404339354157347D+02 -.136646101612731D+03 0.271845968461340D+03
 0.911178409319624D+02 -.189413146605138D+02 -.426431351802115D+02 0.782639799463075D+02
 0.326182129214052D+03 -.540756483276359D+02 0.120096168981931D+03 -.298408303960231D+03
 0.850795686474178D+02 0.325830275724149D+02 0.591930678110108D+02 -.517016444474159D+02
0.366801333046D-04 0.000000000000D+00 0.000000000000D+00 0.148507876170D-04 0.000000000000D+00  6 22 1 9900012 13 2 21 0 0.11238926D-01 0.34829837D+00 0.37237091D+05 0.37237091D+05 0.37237091D+05 0.11542691D+01  1  2  2  2  6  5        2 0.403695826134D-04 0.100000000000D+01
0.129496128380D-06 0.000000000000D+00 -.704306849953D-07 0.148507876170D-04 0.000000000000D+00  6 22 1 9900012 13 2 21 2 0.11238926D-01 0.34829837D+00 0.37237091D+05 0.37237091D+05 0.37237091D+05 0.11542691D+01  1  2  3  2  6  5        2 0.189886566324D-06 0.100000000000D+01
-.455371015028D-05 0.000000000000D+00 0.000000000000D+00 0.148507876170D-04 0.000000000000D+00  6 22 1 9900012 13 2 21 2 0.11238926D-01 0.34829837D+00 0.37237091D+05 0.37237091D+05 0.37237091D+05 0.11542691D+01  1  2 15  2  6  5        2 -.667733001200D-05 0.100000000000D+01
0.852864725713D-04 0.000000000000D+00 0.000000000000D+00 0.148507876170D-04 0.000000000000D+00  6 22 1 9900012 13 2 21 2 0.11238926D-01 0.34829837D+00 0.39393904D+05 0.39393904D+05 0.39393904D+05 0.11520811D+01  1  2 12  2  6  5        2 0.124583372107D-03 0.100000000000D+01
-.174814901326D-04 0.000000000000D+00 0.000000000000D+00 0.148507876170D-04 0.000000000000D+00  6 22 1 9900012 13 2 21 2 0.11238926D-01 0.34829837D+00 0.37237091D+05 0.37237091D+05 0.37237091D+05 0.11542691D+01  1  2  4  2  6  5        2 -.256339720502D-04 0.100000000000D+01
-.858887347913D-04 0.000000000000D+00 0.000000000000D+00 0.148507876170D-04 0.000000000000D+00  6 22 1 9900012 13 2 21 2 0.11238926D-01 0.34829837D+00 0.37237091D+05 0.37237091D+05 0.37237091D+05 0.11542691D+01  1  2  5  2  6  5        2 -.125942892189D-03 0.100000000000D+01
0.105899653758D-03 0.000000000000D+00 -.000000000000D+00 0.148507876170D-04 0.000000000000D+00  6 22 1 9900012 13 2 21 2 0.11238926D-01 0.34829837D+00 0.37237091D+05 0.37237091D+05 0.37237091D+05 0.11542691D+01  1  2  6  2  6  5        2 0.155285890617D-03 0.100000000000D+01
  </mgrwgt>
  </event>
  <event>
  7     66 -.10827799E-05 0.41703766E+02 0.78161638E-02 0.12218779E+00
       22 -1    0    0    0    0 0.00000000E+00 0.00000000E+00 0.39642651E+02 0.39642651E+02 0.00000000E+00 0.0000E+00 0.9000E+01
        1 -1    0    0  501    0 -.00000000E+00 -.00000000E+00 -.23230423E+03 0.23230423E+03 0.00000000E+00 0.0000E+00 0.9000E+01
      -24  2    1    2    0    0 0.46062619E+02 -.16301669E+02 -.26037558E+02 0.97396938E+02 0.80129269E+02 0.0000E+00 0.0000E+00
  9900012  1    3    3    0    0 0.51658628E+02 0.46104750E+01 -.17573898E+02 0.74153302E+02 0.50000000E+02 0.0000E+00 0.9000E+01
       13  1    3    3    0    0 -.55960083E+01 -.20912144E+02 -.84636595E+01 0.23243636E+02 0.00000000E+00 0.0000E+00 0.9000E+01
        2  1    1    2  502    0 -.26248709E+02 0.18008930E+02 -.11116757E+03 0.11563540E+03 0.00000000E+00 0.0000E+00 0.9000E+01
       21  1    1    2  501  502 -.19813910E+02 -.17072609E+01 -.55456447E+02 0.58914542E+02 0.00000000E+00 0.0000E+00 0.9000E+01
#aMCatNLO 2  0  0  5  2 0.84719229D+01 0.00000000D+00  -5  6  0 0.00000000D+00 0.00000000D+00 0.00000000D+00 0.00000000D+00 0.00000000D+00
  <mgrwgt>
 -.2230130222D-04    2    2    0
 0.959643442629640D+02 0.000000000000000D+00 0.000000000000000D+00 0.959643442629640D+02
 0.959643442629640D+02 -.000000000000000D+00 -.000000000000000D+00 -.959643442629640D+02
 0.881475604389140D+02 0.522018964777933D+02 0.441821089237542D+01 0.502536946697876D+02
 0.245435687546155D+02 -.544444784175477D+01 -.209657817197381D+02 0.115403965179385D+02
 0.792375593323985D+02 -.467574486360385D+02 0.165475708273626D+02 -.617940911877262D+02
 0.000000000000000D+00 -.000000000000000D+00 0.000000000000000D+00 0.000000000000000D+00
 0.959643442629640D+02 0.000000000000000D+00 0.000000000000000D+00 0.959643442629640D+02
 0.959643442629640D+02 -.000000000000000D+00 -.000000000000000D+00 -.959643442629640D+02
 0.874280137111301D+02 0.516586277849887D+02 0.461047495798879D+01 0.495357171897946D+02
 0.244383071627733D+02 -.559600832976444D+01 -.209121441072693D+02 0.113400959692617D+02
 0.522536048946954D+02 -.262487090831774D+02 0.180089300628913D+02 -.414381820782180D+02
 0.278087627573293D+02 -.198139103720469D+02 -.170726091361081D+01 -.194376310808384D+02
-.322993824626D-06 0.000000000000D+00 0.000000000000D+00 0.110190749692D-05 0.000000000000D+00  6 22 1 9900012 13 2 21 2 0.60988694D-02 0.35739112D-01 0.52859186D+04 0.52859186D+04 0.52859186D+04 0.12391356D+01  1  2 13  2  6  5        2 -.619456597756D-04 0.100000000000D+01
0.206711539091D-06 0.000000000000D+00 0.000000000000D+00 0.110190749692D-05 0.402975232966D-07  6 22 1 9900012 13 2 21 2 0.60988694D-02 0.35739112D-01 0.52859186D+04 0.52859186D+04 0.52859186D+04 0.12391356D+01  1  2  1  2  6  5        2 0.396443575572D-04 0.100000000000D+01
  </mgrwgt>
  </event>
  <event>
  7     66 -.10827799E-05 0.22047891E+02 0.78161638E-02 0.12729888E+00
       22 -1    0    0    0    0 0.00000000E+00 0.00000000E+00 0.15808170E+02 0.15808170E+02 0.00000000E+00 0.0000E+00 0.9000E+01
        1 -1    0    0  502    0 0.00000000E+00 0.00000000E+00 -.72155186E+03 0.72155186E+03 0.00000000E+00 0.0000E+00 0.9000E+01
      -24  2    1    2    0    0 0.25679329E+02 0.18848640E+02 -.11295422E+03 0.14340587E+03 0.82412915E+02 0.0000E+00 0.0000E+00
  9900012  1    3    3    0    0 0.19769424E+02 -.46903918E+01 -.10466323E+03 0.11775917E+03 0.50000000E+02 0.0000E+00 0.9000E+01
       13  1    3    3    0    0 0.59099048E+01 0.23539032E+02 -.82909975E+01 0.25646708E+02 0.00000000E+00 0.0000E+00 0.9000E+01
        2  1    1    2  501    0 -.23772718E+02 -.10880578E+02 -.52827352E+03 0.52892007E+03 0.00000000E+00 0.0000E+00 0.9000E+01
       21  1    1    2  502  501 -.19066114E+01 -.79680622E+01 -.64515948E+02 0.65034089E+02 0.00000000E+00 0.0000E+00 0.9000E+01
#aMCatNLO 2  0  0  2  5 0.89095058D+01 0.00000000D+00  -5  6  0 0.00000000D+00 0.00000000D+00 0.00000000D+00 0.00000000D+00 0.00000000D+00
  <mgrwgt>
 -.2253529143D-03    2    2    0
 0.100972804557903D+03 0.000000000000000D+00 0.000000000000000D+00 0.100972804557903D+03
 0.100972804557903D+03 0.000000000000000D+00 0.000000000000000D+00 -.100972804557903D+03
 0.597153741411458D+02 0.192060946065196D+02 -.704464456552500D+01 0.254445440463739D+02
 0.580735635329616D+02 0.535742861496326D+01 0.212301372429401D+02 0.537877124694705D+02
 0.841566714416979D+02 -.245635232214828D+02 -.141854926774151D+02 -.792322565158444D+02
 0.000000000000000D+00 -.000000000000000D+00 -.000000000000000D+00 -.000000000000000D+00
 0.102739605411517D+03 0.000000000000000D+00 0.000000000000000D+00 0.102739605411517D+03
 0.111022565449152D+03 0.000000000000000D+00 0.000000000000000D+00 -.111022565449152D+03
 0.596678701656357D+02 0.197694241950073D+02 -.469039181445988D+01 0.254445440463739D+02
 0.590095840132321D+02 0.590990481636845D+01 0.235390317935495D+02 0.537877124694705D+02
 0.834342827981003D+02 -.237727175784099D+02 -.108805777593820D+02 -.792322565158444D+02
 0.116504338837013D+02 -.190661143296581D+01 -.796806221970756D+01 -.828296003763434D+01
-.161741852836D-05 0.000000000000D+00 0.000000000000D+00 0.398669315951D-06 0.000000000000D+00  6 22 1 9900012 13 2 21 2 0.23902029D-02 0.11295037D+00 0.31684298D+04 0.31684298D+04 0.31684298D+04 0.12647865D+01  1  2 13  1  6  2        1 -.249611711498D-03 0.100000000000D+01
0.156911202828D-06 0.000000000000D+00 0.000000000000D+00 0.398669315951D-06 0.163239233130D-07  6 22 1 9900012 13 2 21 2 0.24320262D-02 0.11100798D+00 0.31684298D+04 0.31684298D+04 0.31684298D+04 0.12647865D+01  1  2  1  1  6  2        1 0.242587972216D-04 0.100000000000D+01
  </mgrwgt>
  </event>
  <event>
  6     66 0.10827799E-05 0.40556958E+02 0.78161638E-02 0.11958647E+00
       22 -1    0    0    0    0 0.00000000E+00 0.00000000E+00 0.12072343E+02 0.12072343E+02 0.00000000E+00 0.0000E+00 0.9000E+01
        1 -1    0    0  501    0 0.00000000E+00 0.00000000E+00 -.70171915E+03 0.70171915E+03 0.00000000E+00 0.0000E+00 0.9000E+01
      -24  2    1    2    0    0 -.34949607E+02 0.55328834E+02 -.25988485E+03 0.27907539E+03 0.77847162E+02 0.0000E+00 0.0000E+00
  9900012  1    3    3    0    0 -.21244239E+02 0.65108523E+02 -.21295177E+03 0.22921365E+03 0.50000000E+02 0.0000E+00 0.9000E+01
       13  1    3    3    0    0 -.13705367E+02 -.97796898E+01 -.46933077E+02 0.49861740E+02 0.00000000E+00 0.0000E+00 0.9000E+01
        2  1    1    2  501    0 0.34949607E+02 -.55328834E+02 -.42976195E+03 0.43471610E+03 0.00000000E+00 0.0000E+00 0.9000E+01
#aMCatNLO 1  0  0  2  5 0.40746028D+02 0.00000000D+00  -5  6  0 0.00000000D+00 0.00000000D+00 0.00000000D+00 0.00000000D+00 0.00000000D+00
  <mgrwgt>
 0.8040983956D-04    9    2    0
 0.920401780561147D+02 0.000000000000000D+00 0.000000000000000D+00 0.920401780561147D+02
 0.920401780561147D+02 0.000000000000000D+00 0.000000000000000D+00 -.920401780561147D+02
 0.909887405583265D+02 -.212442394765069D+02 0.651085234945870D+02 0.329926259308059D+02
 0.175121310565192D+02 -.137053671955788D+02 -.977968976051683D+01 0.481615119811450D+01
 0.755794844973837D+02 0.349496066720857D+02 -.553288337340702D+02 -.378087771289204D+02
 0.000000000000000D+00 -.000000000000000D+00 0.000000000000000D+00 -.000000000000000D+00
 0.104187684540439D+03 0.000000000000000D+00 0.000000000000000D+00 0.104187684540439D+03
 0.120418716091538D+03 0.000000000000000D+00 0.000000000000000D+00 -.120418716091538D+03
 0.880458111879712D+02 -.498260374836567D+01 0.643329243997547D+02 0.329926259308059D+02
 0.153791294186115D+02 -.107178673455838D+02 -.992217863544951D+01 0.481615119811450D+01
 0.837250384000164D+02 0.494191718813410D+02 -.560189599837620D+02 -.378087771289204D+02
 0.374564216253776D+02 -.337187007873915D+02 0.160821421945680D+01 -.162310315510984D+02
0.313679566171D-06 0.000000000000D+00 0.000000000000D+00 0.931062195483D-07 0.000000000000D+00  6 22 1 9900012 13 2 21 0 0.18572836D-02 0.10795679D+00 0.69786020D+04 0.69786020D+04 0.69786020D+04 0.12258743D+01  1  2  2  1  6  2        1 0.480451165984D-04 0.100000000000D+01
-.387535771769D-08 0.000000000000D+00 -.602306063912D-09 0.931062195483D-07 0.000000000000D+00  6 22 1 9900012 13 2 21 2 0.18572836D-02 0.10795679D+00 0.69786020D+04 0.69786020D+04 0.69786020D+04 0.12258743D+01  1  2  3  1  6  2        1 -.892003818287D-06 0.100000000000D+01
-.372211521244D-07 0.000000000000D+00 0.000000000000D+00 0.931062195483D-07 0.000000000000D+00  6 22 1 9900012 13 2 21 2 0.18572836D-02 0.10795679D+00 0.69786020D+04 0.69786020D+04 0.69786020D+04 0.12258743D+01  1  2 15  1  6  2        1 -.856731487379D-05 0.100000000000D+01
0.128939304303D-06 0.000000000000D+00 0.000000000000D+00 0.931062195483D-07 0.000000000000D+00  6 22 1 9900012 13 2 21 2 0.18572836D-02 0.15988416D+00 0.10475021D+05 0.10475021D+05 0.10475021D+05 0.12072467D+01  1  2 12  1  6  2        1 0.159785331080D-04 0.100000000000D+01
-.485688006086D-07 0.000000000000D+00 0.000000000000D+00 0.931062195483D-07 0.000000000000D+00  6 22 1 9900012 13 2 21 2 0.18572836D-02 0.10795679D+00 0.69786020D+04 0.69786020D+04 0.69786020D+04 0.12258743D+01  1  2  4  1  6  2        1 -.111792404079D-04 0.100000000000D+01
-.329276941147D-06 0.000000000000D+00 -.120882299986D-06 0.931062195483D-07 0.000000000000D+00  6 22 1 9900012 13 2 21 2 0.18572836D-02 0.15356346D+00 0.69786020D+04 0.69786020D+04 0.69786020D+04 0.12258743D+01  1  2  5  1  6  2        1 -.439128641647D-04 0.100000000000D+01
0.356636818627D-06 0.000000000000D+00 0.113746743860D-06 0.931062195483D-07 0.000000000000D+00  6 22 1 9900012 13 2 21 2 0.18572836D-02 0.10795679D+00 0.69786020D+04 0.69786020D+04 0.69786020D+04 0.12258743D+01  1  2  6  1  6  2        1 0.820882682662D-04 0.100000000000D+01
0.605542692751D-08 0.000000000000D+00 0.000000000000D+00 0.931062195483D-07 0.000000000000D+00  6 22 21 9900012 13 2 -1 2 0.18572836D-02 0.15988416D+00 0.10475021D+05 0.10475021D+05 0.10475021D+05 0.12072467D+01  1  2 12  3  6  2        1 0.109949169895D-05 0.100000000000D+01
-.108416395151D-07 0.000000000000D+00 -.524759172463D-08 0.931062195483D-07 0.000000000000D+00  6 22 21 9900012 13 2 -1 2 0.18572836D-02 0.15356346D+00 0.69786020D+04 0.69786020D+04 0.69786020D+04 0.12258743D+01  1  2  5  3  6  2        1 -.225014684350D-05 0.100000000000D+01
  </mgrwgt>
  </event>
  <event>
  7     66 -.10827799E-05 0.15171095E+02 0.78161638E-02 0.12440480E+00
       22 -1    0    0    0    0 0.00000000E+00 0.00000000E+00 0.54168672E+03 0.54168672E+03 0.00000000E+00 0.0000E+00 0.9000E+01
        1 -1    0    0  501    0 -.00000000E+00 -.00000000E+00 -.19087896E+04 0.19087896E+04 0.00000000E+00 0.0000E+00 0.9000E+01
      -24  2    1    2    0    0 -.15535531E+02 -.44045807E+02 0.53722962E+03 0.54472834E+03 0.77018916E+02 0.0000E+00 0.0000E+00
  9900012  1    3    3    0    0 -.41557647E+01 -.16276027E+02 0.43495256E+03 0.43813914E+03 0.50000000E+02 0.0000E+00 0.9000E+01
       13  1    3    3    0    0 -.11379766E+02 -.27769780E+02 0.10227706E+03 0.10658920E+03 0.00000000E+00 0.0000E+00 0.9000E+01
        2  1    1    2  502    0 0.11138601E+02 0.23263253E+02 -.17203307E+04 0.17205240E+04 0.00000000E+00 0.0000E+00 0.9000E+01
       21  1    1    2  501  502 0.43969300E+01 0.20782555E+02 -.18400178E+03 0.18522392E+03 0.00000000E+00 0.0000E+00 0.9000E+01
#aMCatNLO 2  0  0  5  2 0.16842507D+02 0.00000000D+00  -5  6  0 0.00000000D+00 0.00000000D+00 0.00000000D+00 0.00000000D+00 0.00000000D+00
  <mgrwgt>
 -.3822272504D-01    5    2    0
 0.101684116442716D+04 0.000000000000000D+00 0.000000000000000D+00 0.101684116442716D+04
 0.101684116442716D+04 -.000000000000000D+00 -.000000000000000D+00 -.101684116442716D+04
 0.820959081834281D+03 -.416554054193545D+01 -.163037435115345D+02 0.819262259759162D+03
 0.197340499498196D+03 -.113821160687139D+02 -.277764423206229D+02 0.195044070476405D+03
 0.101538274752185D+04 0.155476566106490D+02 0.440801858321562D+02 -.101430633023557D+04
 0.000000000000000D+00 0.000000000000000D+00 0.000000000000000D+00 0.000000000000000D+00
 0.101684116442716D+04 0.000000000000000D+00 0.000000000000000D+00 0.101684116442716D+04
 0.101684116442716D+04 -.000000000000000D+00 -.000000000000000D+00 -.101684116442716D+04
 0.820322042239929D+03 -.415576474256889D+01 -.162760274985347D+02 0.818624500936150D+03
 0.197187907468232D+03 -.113797661784396D+02 -.277697799918507D+02 0.194890767078967D+03
 0.916679220083074D+03 0.111386008742144D+02 0.232632528988584D+02 -.916316291008319D+03
 0.994931590630936D+02 0.439693004679373D+01 0.207825545915259D+02 -.971989770067972D+02
-.314164639831D+00 0.000000000000D+00 0.000000000000D+00 0.259516112890D-02 0.000000000000D+00  6 22 1 9900012 13 2 21 2 0.83336419D-01 0.29365993D+00 0.42115130D+04 0.42115130D+04 0.42115130D+04 0.12503267D+01  1  2 13  2  6  5        2 -.393973582821D-01 0.100000000000D+01
-.439777556645D-05 0.000000000000D+00 0.000000000000D+00 0.259516112890D-02 0.000000000000D+00  6 22 1 9900012 13 2 21 2 0.83336419D-01 0.29365993D+00 0.41935670D+04 0.41935670D+04 0.41935670D+04 0.12505399D+01  1  2  8  2  6  5        2 -.551723119113D-06 0.100000000000D+01
-.148526850446D-03 0.000000000000D+00 0.000000000000D+00 0.259516112890D-02 0.000000000000D+00  6 22 1 9900012 13 2 21 2 0.83336419D-01 0.29365993D+00 0.41935670D+04 0.41935670D+04 0.41935670D+04 0.12505399D+01  1  2  9  2  6  5        2 -.186334422851D-04 0.100000000000D+01
0.163789628249D-03 0.000000000000D+00 0.000000000000D+00 0.259516112890D-02 0.000000000000D+00  6 22 1 9900012 13 2 21 2 0.83336419D-01 0.29365993D+00 0.41935670D+04 0.41935670D+04 0.41935670D+04 0.12505399D+01  1  2 10  2  6  5        2 0.205482347179D-04 0.100000000000D+01
0.935595728339D-02 0.000000000000D+00 0.000000000000D+00 0.259516112890D-02 0.285776977422D-05  6 22 1 9900012 13 2 21 2 0.83336419D-01 0.29365993D+00 0.42115130D+04 0.42115130D+04 0.42115130D+04 0.12503267D+01  1  2  1  2  6  5        2 0.117327017249D-02 0.100000000000D+01
  </mgrwgt>
  </event>
  <event>
  6     66 0.10827799E-05 0.11274371E+03 0.78161638E-02 0.10860847E+00
       22 -1    0    0    0    0 0.00000000E+00 0.00000000E+00 0.33657776E+02 0.33657776E+02 0.00000000E+00 0.0000E+00 0.9000E+01
        1 -1    0    0  501    0 -.00000000E+00 -.00000000E+00 -.80349361E+03 0.80349361E+03 0.00000000E+00 0.0000E+00 0.9000E+01
      -24  2    1    2    0    0 -.67661654E+02 0.13867553E+03 -.38446704E+03 0.42203922E+03 0.80580396E+02 0.0000E+00 0.0000E+00
  9900012  1    3    3    0    0 -.37652511E+02 0.56514775E+02 -.22281229E+03 0.23823716E+03 0.50000000E+02 0.0000E+00 0.9000E+01
       13  1    3    3    0    0 -.30009143E+02 0.82160750E+02 -.16165476E+03 0.18380206E+03 0.00000000E+00 0.0000E+00 0.9000E+01
        2  1    1    2  501    0 0.67661654E+02 -.13867553E+03 -.38536879E+03 0.41511216E+03 0.00000000E+00 0.0000E+00 0.9000E+01
#aMCatNLO 1  0  0  5  2 0.16535861D+02 0.00000000D+00  -5  6  0 0.00000000D+00 0.00000000D+00 0.00000000D+00 0.00000000D+00 0.00000000D+00
  <mgrwgt>
 0.4569084092D-04    7    2    0
 0.164450016803635D+03 0.000000000000000D+00 0.000000000000000D+00 0.164450016803635D+03
 0.164450016803635D+03 -.000000000000000D+00 -.000000000000000D+00 -.164450016803635D+03
 0.848637487770755D+02 -.376525107034855D+02 0.565147751785848D+02 -.949865678590977D+01
 0.894573526945187D+02 -.300091432110503D+02 0.821607501047644D+02 0.187531441916454D+02
 0.154578932135677D+03 0.676616539145359D+02 -.138675525283349D+03 -.925448740573557D+01
 0.000000000000000D+00 0.000000000000000D+00 -.000000000000000D+00 0.000000000000000D+00
 0.164450016803635D+03 0.000000000000000D+00 0.000000000000000D+00 0.164450016803635D+03
 0.164450016803635D+03 -.000000000000000D+00 -.000000000000000D+00 -.164450016803635D+03
 0.840440783377172D+02 -.371940296727934D+02 0.555750982111256D+02 -.956136596723821D+01
 0.883731917083398D+02 -.295264424820251D+02 0.811714338040312D+02 0.186871223379209D+02
 0.106085223603435D+03 0.548172643859268D+02 -.887976220901645D+02 -.190820466241591D+02
 0.503975399577787D+02 0.119032077688917D+02 -.479489099249923D+02 0.995629025347644D+01
0.541240047626D-06 0.000000000000D+00 0.000000000000D+00 0.372195463860D-06 0.000000000000D+00  6 22 1 9900012 13 2 21 0 0.51781194D-02 0.12361440D+00 0.26585593D+05 0.26585593D+05 0.26585593D+05 0.11676377D+01  1  2  2  2  6  5        2 0.181264103666D-04 0.100000000000D+01
-.229673611416D-07 0.000000000000D+00 -.103925214733D-08 0.372195463860D-06 0.000000000000D+00  6 22 1 9900012 13 2 21 2 0.51781194D-02 0.12361440D+00 0.26585593D+05 0.26585593D+05 0.26585593D+05 0.11676377D+01  1  2  3  2  6  5        2 -.104869499190D-05 0.100000000000D+01
-.619776175785D-07 0.000000000000D+00 0.000000000000D+00 0.372195463860D-06 0.000000000000D+00  6 22 1 9900012 13 2 21 2 0.51781194D-02 0.12361440D+00 0.26585593D+05 0.26585593D+05 0.26585593D+05 0.11676377D+01  1  2 15  2  6  5        2 -.282991227262D-05 0.100000000000D+01
0.161522977735D-05 0.000000000000D+00 0.000000000000D+00 0.372195463860D-06 0.000000000000D+00  6 22 1 9900012 13 2 21 2 0.51781194D-02 0.12361440D+00 0.26184496D+05 0.26184496D+05 0.26184496D+05 0.11682526D+01  1  2 12  2  6  5        2 0.737730395017D-04 0.100000000000D+01
-.152018728912D-05 0.000000000000D+00 0.000000000000D+00 0.372195463860D-06 0.000000000000D+00  6 22 1 9900012 13 2 21 2 0.51781194D-02 0.12361440D+00 0.26585593D+05 0.26585593D+05 0.26585593D+05 0.11676377D+01  1  2  4  2  6  5        2 -.694121012430D-04 0.100000000000D+01
-.158041860064D-05 0.000000000000D+00 0.000000000000D+00 0.372195463860D-06 0.000000000000D+00  6 22 1 9900012 13 2 21 2 0.51781194D-02 0.12361440D+00 0.26585593D+05 0.26585593D+05 0.26585593D+05 0.11676377D+01  1  2  5  2  6  5        2 -.721622767792D-04 0.100000000000D+01
0.217354087733D-05 0.000000000000D+00 -.000000000000D+00 0.372195463860D-06 0.000000000000D+00  6 22 1 9900012 13 2 21 2 0.51781194D-02 0.12361440D+00 0.26585593D+05 0.26585593D+05 0.26585593D+05 0.11676377D+01  1  2  6  2  6  5        2 0.992443763428D-04 0.100000000000D+01
  </mgrwgt>
  </event>
  <event>
  6     66 0.10827799E-05 0.31060911E+02 0.78161638E-02 0.12464451E+00
       22 -1    0    0    0    0 0.00000000E+00 0.00000000E+00 0.12608288E+02 0.12608288E+02 0.00000000E+00 0.0000E+00 0.9000E+01
        3 -1    0    0  501    0 0.00000000E+00 0.00000000E+00 -.72759013E+03 0.72759013E+03 0.00000000E+00 0.0000E+00 0.9000E+01
      -24  2    1    2    0    0 -.10204729E+02 -.39377760E+02 -.15959136E+03 0.18332021E+03 0.80511831E+02 0.0000E+00 0.0000E+00
  9900012  1    3    3    0    0 -.20712971E+02 -.15441115E+02 -.13926146E+03 0.15020389E+03 0.50000000E+02 0.0000E+00 0.9000E+01
       13  1    3    3    0    0 0.10508242E+02 -.23936645E+02 -.20329903E+02 0.33116326E+02 0.00000000E+00 0.0000E+00 0.9000E+01
        4  1    1    2  501    0 0.10204729E+02 0.39377760E+02 -.55539048E+03 0.55687820E+03 0.00000000E+00 0.0000E+00 0.9000E+01
#aMCatNLO 1  0  0  2  5 0.52899136D+01 0.00000000D+00  -5  6  0 0.00000000D+00 0.00000000D+00 0.00000000D+00 0.00000000D+00 0.00000000D+00
  <mgrwgt>
 0.6735820178D-05   11    2    0
 0.957792565064886D+02 0.000000000000000D+00 0.000000000000000D+00 0.957792565064886D+02
 0.957792565064886D+02 0.000000000000000D+00 0.000000000000000D+00 -.957792565064886D+02
 0.606147367438137D+02 -.207129708861593D+02 -.154411149944626D+02 0.225098004282300D+02
 0.520840366825884D+02 0.105082420669100D+02 -.239366445367757D+02 0.450484269884807D+02
 0.788597395865752D+02 0.102047288192493D+02 0.393777595312383D+02 -.675582274167107D+02
 0.000000000000000D+00 -.000000000000000D+00 0.000000000000000D+00 -.000000000000000D+00
 0.969996794844025D+02 0.000000000000000D+00 0.000000000000000D+00 0.969996794844025D+02
 0.100445202111554D+03 0.000000000000000D+00 0.000000000000000D+00 -.100445202111554D+03
 0.602520652380324D+02 -.192901448449089D+02 -.158590845256529D+02 0.225098004282300D+02
 0.525127357198343D+02 0.117395397364492D+02 -.242983506728546D+02 0.450484269884807D+02
 0.788513932386803D+02 0.120612808509028D+02 0.388323786063722D+02 -.675582274167107D+02
 0.582868739941006D+01 -.451067574244309D+01 0.132505659213527D+01 -.344552262715193D+01
0.873477069682D-07 0.000000000000D+00 0.000000000000D+00 0.116339758333D-05 0.000000000000D+00  6 22 3 9900012 13 4 21 0 0.19397366D-02 0.11193694D+00 0.37884243D+04 0.37884243D+04 0.37884243D+04 0.12556456D+01  1  2  2  1  6  2        3 0.176597078888D-05 0.100000000000D+01
0.199896657816D-08 0.000000000000D+00 -.167719096969D-09 0.116339758333D-05 0.000000000000D+00  6 22 3 9900012 13 4 21 2 0.19397366D-02 0.11193694D+00 0.37884243D+04 0.37884243D+04 0.37884243D+04 0.12556456D+01  1  2  3  1  6  2        3 0.637194030922D-07 0.100000000000D+01
-.121419310947D-07 0.000000000000D+00 0.000000000000D+00 0.116339758333D-05 0.000000000000D+00  6 22 3 9900012 13 4 21 2 0.19397366D-02 0.11193694D+00 0.37884243D+04 0.37884243D+04 0.37884243D+04 0.12556456D+01  1  2 15  1  6  2        3 -.387038287781D-06 0.100000000000D+01
0.141537574970D-06 0.000000000000D+00 0.000000000000D+00 0.116339758333D-05 0.000000000000D+00  6 22 3 9900012 13 4 21 2 0.19397366D-02 0.11888581D+00 0.41112893D+04 0.41112893D+04 0.41112893D+04 0.12515307D+01  1  2 12  1  6  2        3 0.390389882994D-05 0.100000000000D+01
-.482113046844D-07 0.000000000000D+00 0.000000000000D+00 0.116339758333D-05 0.000000000000D+00  6 22 3 9900012 13 4 21 2 0.19397366D-02 0.11193694D+00 0.37884243D+04 0.37884243D+04 0.37884243D+04 0.12556456D+01  1  2  4  1  6  2        3 -.153679185553D-05 0.100000000000D+01
-.113939561457D-05 0.000000000000D+00 -.173247322179D-06 0.116339758333D-05 0.000000000000D+00  6 22 3 9900012 13 4 21 2 0.19397366D-02 0.11834394D+00 0.37884243D+04 0.37884243D+04 0.37884243D+04 0.12556456D+01  1  2  5  1  6  2        3 -.317698426408D-04 0.100000000000D+01
0.114752850806D-05 0.000000000000D+00 0.172979310523D-06 0.116339758333D-05 0.000000000000D+00  6 22 3 9900012 13 4 21 2 0.19397366D-02 0.11193694D+00 0.37884243D+04 0.37884243D+04 0.37884243D+04 0.12556456D+01  1  2  6  1  6  2        3 0.365788164563D-04 0.100000000000D+01
0.282800084576D-07 0.000000000000D+00 0.000000000000D+00 0.116339758333D-05 0.101915272267D-06  6 22 3 9900012 13 4 21 2 0.19644528D-02 0.11739002D+00 0.41112893D+04 0.41112893D+04 0.41112893D+04 0.12515307D+01  1  2 11  1  6  2        3 0.790962828546D-06 0.100000000000D+01
0.220300566676D-08 0.000000000000D+00 0.000000000000D+00 0.116339758333D-05 0.000000000000D+00  6 22 21 9900012 13 4 -3 2 0.19397366D-02 0.11888581D+00 0.41112893D+04 0.41112893D+04 0.41112893D+04 0.12515307D+01  1  2 12  3  6  2        3 0.873783422911D-06 0.100000000000D+01
-.107711710364D-07 0.000000000000D+00 -.166629466828D-08 0.116339758333D-05 0.000000000000D+00  6 22 21 9900012 13 4 -3 2 0.19397366D-02 0.11834394D+00 0.37884243D+04 0.37884243D+04 0.37884243D+04 0.12556456D+01  1  2  5  3  6  2        3 -.433614076863D-05 0.100000000000D+01
0.195784621656D-08 0.000000000000D+00 0.000000000000D+00 0.116339758333D-05 0.375105293195D-08  6 22 21 9900012 13 4 -3 2 0.19644528D-02 0.11739002D+00 0.41112893D+04 0.41112893D+04 0.41112893D+04 0.12515307D+01  1  2 11  3  6  2        3 0.788482001399D-06 0.100000000000D+01
  </mgrwgt>
  </event>
  <event>
  7     66 -.10827799E-05 0.38315977E+02 0.78161638E-02 0.12103030E+00
       22 -1    0    0    0    0 0.00000000E+00 0.00000000E+00 0.37643843E+04 0.37643843E+04 0.00000000E+00 0.0000E+00 0.9000E+01
        3 -1    0    0  501    0 0.00000000E+00 0.00000000E+00 -.11735622E+02 0.11735622E+02 0.00000000E+00 0.0000E+00 0.9000E+01
      -24  2    1    2    0    0 -.39046326E+02 -.12375178E+02 0.36568442E+04 0.36583175E+04 0.95390665E+02 0.0000E+00 0.0000E+00
  9900012  1    3    3    0    0 0.78757743E+01 0.47451370E+01 0.22821024E+04 0.22826686E+04 0.50000000E+02 0.0000E+00 0.9000E+01
       13  1    3    3    0    0 -.46922100E+02 -.17120315E+02 0.13747418E+04 0.13756489E+04 0.00000000E+00 0.0000E+00 0.9000E+01
        4  1    1    2  502    0 0.43364144E+02 0.30172659E+01 0.34113434E+02 0.55256486E+02 0.00000000E+00 0.0000E+00 0.9000E+01
       21  1    1    2  501  502 -.43178182E+01 0.93579118E+01 0.61690973E+02 0.62545905E+02 0.00000000E+00 0.0000E+00 0.9000E+01
#aMCatNLO 2  0  0  5  2 0.12510717D+02 0.00000000D+00  -5  6  0 0.00000000D+00 0.00000000D+00 0.00000000D+00 0.00000000D+00 0.00000000D+00
  <mgrwgt>
 -.1052239982D-04    3    2    0
 0.210184184638272D+03 0.000000000000000D+00 0.000000000000000D+00 0.210184184638272D+03
 0.210184184638272D+03 -.000000000000000D+00 -.000000000000000D+00 -.210184184638272D+03
 0.134673557101442D+03 0.738965832549005D+01 0.459106948218319D+01 0.124744867682793D+03
 0.863337289730297D+02 -.472336593718119D+02 -.172190590902723D+02 0.701854556498844D+02
 0.199361083202072D+03 0.398440010463219D+02 0.126279896080892D+02 -.194930323332678D+03
 0.000000000000000D+00 0.000000000000000D+00 0.000000000000000D+00 -.000000000000000D+00
 0.210184184638272D+03 0.000000000000000D+00 0.000000000000000D+00 0.210184184638272D+03
 0.210184184638272D+03 -.000000000000000D+00 -.000000000000000D+00 -.210184184638272D+03
 0.132507112511152D+03 0.787577425545221D+01 0.474513701432566D+01 0.122366624210344D+03
 0.849067082543059D+02 -.469220997649340D+02 -.171203147027953D+02 0.686612007228875D+02
 0.191830283390049D+03 0.433641437027070D+02 0.301726585399317D+01 -.186840318917528D+03
 0.111242651210374D+02 -.431781819322524D+01 0.935791183447644D+01 -.418750601570289D+01
-.315375697270D-04 0.000000000000D+00 0.000000000000D+00 0.143399939038D-06 0.000000000000D+00  6 22 3 9900012 13 4 21 2 0.57913604D+00 0.18054803D-02 0.59722973D+04 0.59722973D+04 0.59722973D+04 0.12332524D+01  1  2 13  2  6  5        4 -.107045209549D-04 0.100000000000D+01
-.428464315257D-06 0.000000000000D+00 0.000000000000D+00 0.143399939038D-06 0.000000000000D+00  6 22 3 9900012 13 4 21 2 0.57913604D+00 0.18054803D-02 0.50995919D+04 0.50995919D+04 0.50995919D+04 0.12408822D+01  1  2  8  2  6  5        4 -.145141535648D-06 0.100000000000D+01
0.964178541317D-06 0.000000000000D+00 0.000000000000D+00 0.143399939038D-06 0.228668905054D-09  6 22 3 9900012 13 4 21 2 0.57913604D+00 0.18054803D-02 0.59722973D+04 0.59722973D+04 0.59722973D+04 0.12332524D+01  1  2  1  2  6  5        4 0.327262673985D-06 0.100000000000D+01
  </mgrwgt>
  </event>
  <event>
  7     66 0.10827799E-05 0.46558377E+02 0.78161638E-02 0.12132203E+00
       22 -1    0    0    0    0 0.00000000E+00 0.00000000E+00 0.87244317E+03 0.87244317E+03 0.00000000E+00 0.0000E+00 0.9000E+01
        3 -1    0    0  501    0 0.00000000E+00 0.00000000E+00 -.93191476E+01 0.93191476E+01 0.00000000E+00 0.0000E+00 0.9000E+01
      -24  2    1    2    0    0 -.53571717E+02 -.89200175E+01 0.48919663E+03 0.49861586E+03 0.79717835E+02 0.0000E+00 0.0000E+00
  9900012  1    3    3    0    0 -.59624673E+02 -.22990282E+02 0.41013101E+03 0.41808026E+03 0.50000000E+02 0.0000E+00 0.9000E+01
       13  1    3    3    0    0 0.60529556E+01 0.14070265E+02 0.79065618E+02 0.80535598E+02 0.00000000E+00 0.0000E+00 0.9000E+01
        4  1    1    2  502    0 0.53841126E+01 -.28939369E+01 0.17472491E+00 0.61150690E+01 0.00000000E+00 0.0000E+00 0.9000E+01
       21  1    1    2  501  502 0.48187605E+02 0.11813954E+02 0.37375267E+03 0.37703140E+03 0.00000000E+00 0.0000E+00 0.9000E+01
#aMCatNLO 2  0  0  5  2 0.17991378D+01 0.00000000D+00  -5  6  0 0.00000000D+00 0.00000000D+00 0.00000000D+00 0.00000000D+00 0.00000000D+00
  <mgrwgt>
 0.5453518796D-05    1    2    0
 0.901688786668785D+02 0.000000000000000D+00 0.000000000000000D+00 0.901688786668785D+02
 0.901688786668785D+02 -.000000000000000D+00 -.000000000000000D+00 -.901688786668785D+02
 0.936296653403888D+02 -.747096953404661D+02 -.255020305791717D+02 0.588405389395123D+01
 0.141587436054948D+02 0.350684931798635D+01 0.136463227194868D+02 0.139638983908380D+01
 0.725493483878735D+02 0.712028460224798D+02 0.118557078596849D+02 -.728044373303503D+01
 0.000000000000000D+00 0.000000000000000D+00 0.000000000000000D+00 0.000000000000000D+00
 0.901688786668785D+02 0.000000000000000D+00 0.000000000000000D+00 0.901688786668785D+02
 0.901688786668785D+02 -.000000000000000D+00 -.000000000000000D+00 -.901688786668785D+02
 0.812557960407513D+02 -.596246730544002D+02 -.229902824220268D+02 0.434162038040026D+01
 0.153590768626003D+02 0.605295564426858D+01 0.140702649418885D+02 0.113605215762413D+01
 0.290633986698230D+02 0.538411262247274D+01 -.289393691431841D+01 -.284133349440988D+02
 0.546594857605825D+02 0.481876047876589D+02 0.118139543944567D+02 0.229356624060744D+02
0.670951031724D-07 0.000000000000D+00 0.000000000000D+00 0.175568550741D-06 0.104736529041D-09  6 22 3 9900012 13 4 21 2 0.13422203D+00 0.14337150D-02 0.57899897D+04 0.57899897D+04 0.57899897D+04 0.12347379D+01  1  2  1  2  6  5        4 0.545351879643D-05 0.100000000000D+01
  </mgrwgt>
  </event>
  <event>
  6     66 0.10827799E-05 0.24714492E+02 0.78161638E-02 0.11868247E+00
       22 -1    0    0    0    0 0.00000000E+00 0.00000000E+00 0.14358894E+04 0.14358894E+04 0.00000000E+00 0.0000E+00 0.9000E+01
        3 -1    0    0  501    0 0.00000000E+00 0.00000000E+00 -.31979806E+02 0.31979806E+02 0.00000000E+00 0.0000E+00 0.9000E+01
      -24  2    1    2    0    0 0.24663320E+02 -.15895789E+01 0.14297060E+04 0.14321444E+04 0.79796233E+02 0.0000E+00 0.0000E+00
  9900012  1    3    3    0    0 -.11835527E+01 -.11335082E+02 0.68062607E+03 0.68255530E+03 0.50000000E+02 0.0000E+00 0.9000E+01
       13  1    3    3    0    0 0.25846873E+02 0.97455026E+01 0.74907997E+03 0.74958911E+03 0.00000000E+00 0.0000E+00 0.9000E+01
        4  1    1    2  501    0 -.24663320E+02 0.15895789E+01 -.25796433E+02 0.35724811E+02 0.00000000E+00 0.0000E+00 0.9000E+01
#aMCatNLO 1  0  0  5  2 0.17991378D+01 0.00000000D+00  -5  6  0 0.00000000D+00 0.00000000D+00 0.00000000D+00 0.00000000D+00 0.00000000D+00
  <mgrwgt>
 0.1622912422D-03    6    2    0
 0.214288276118910D+03 0.000000000000000D+00 0.000000000000000D+00 0.214288276118910D+03
 0.214288276118910D+03 -.000000000000000D+00 -.000000000000000D+00 -.214288276118910D+03
 0.108182379680905D+03 -.118355270668384D+01 -.113350815892965D+02 0.952551437024683D+02
 0.113534486277150D+03 0.258468731309988D+02 0.974550264554364D+01 0.110122858216412D+03
 0.206859686279765D+03 -.246633204243149D+02 0.158957894375285D+01 -.205378001918881D+03
 0.000000000000000D+00 0.000000000000000D+00 0.000000000000000D+00 -.000000000000000D+00
 0.214288276118910D+03 0.000000000000000D+00 0.000000000000000D+00 0.214288276118910D+03
 0.214288276118910D+03 -.000000000000000D+00 -.000000000000000D+00 -.214288276118910D+03
 0.102669985930976D+03 -.194215688726643D+01 -.112861886903944D+02 0.889380457539794D+02
 0.106955276673831D+03 0.250535955433138D+02 0.979663028481690D+01 0.103517025622794D+03
 0.146725165987484D+03 -.201489000742242D+02 -.457888294209018D+02 -.137933604535361D+03
 0.722261236455278D+02 -.296253858182308D+01 0.472783878264793D+02 -.545214668414131D+02
0.468827792113D-04 0.000000000000D+00 0.000000000000D+00 0.679499902295D-04 0.000000000000D+00  6 22 3 9900012 13 4 21 0 0.22090606D+00 0.49199702D-02 0.26842759D+04 0.26842759D+04 0.26842759D+04 0.12734617D+01  1  2  2  2  6  5        4 0.119903915616D-03 0.100000000000D+01
0.488273624243D-05 0.000000000000D+00 -.900211083454D-07 0.679499902295D-04 0.000000000000D+00  6 22 3 9900012 13 4 21 2 0.22090606D+00 0.49199702D-02 0.26842759D+04 0.26842759D+04 0.26842759D+04 0.12734617D+01  1  2  3  2  6  5        4 0.202513994333D-04 0.100000000000D+01
-.648182654565D-05 0.000000000000D+00 0.000000000000D+00 0.679499902295D-04 0.000000000000D+00  6 22 3 9900012 13 4 21 2 0.22090606D+00 0.49199702D-02 0.26842759D+04 0.26842759D+04 0.26842759D+04 0.12734617D+01  1  2 15  2  6  5        4 -.268837086248D-04 0.100000000000D+01
-.316109354656D-06 0.000000000000D+00 0.000000000000D+00 0.679499902295D-04 0.000000000000D+00  6 22 3 9900012 13 4 21 2 0.22090606D+00 0.49199702D-02 0.26842759D+04 0.26842759D+04 0.26842759D+04 0.12734617D+01  1  2  4  2  6  5        4 -.131107978967D-05 0.100000000000D+01
-.299712120406D-04 0.000000000000D+00 0.000000000000D+00 0.679499902295D-04 0.000000000000D+00  6 22 3 9900012 13 4 21 2 0.22090606D+00 0.49199702D-02 0.26842759D+04 0.26842759D+04 0.26842759D+04 0.12734617D+01  1  2  5  2  6  5        4 -.124307141815D-03 0.100000000000D+01
0.421062553339D-04 0.000000000000D+00 -.000000000000D+00 0.679499902295D-04 0.000000000000D+00  6 22 3 9900012 13 4 21 2 0.22090606D+00 0.49199702D-02 0.26842759D+04 0.26842759D+04 0.26842759D+04 0.12734617D+01  1  2  6  2  6  5        4 0.174637857355D-03 0.100000000000D+01
  </mgrwgt>
  </event>
  <event>
  7     66 0.10827799E-05 0.95913529E+02 0.78161638E-02 0.11357961E+00
       22 -1    0    0    0    0 0.00000000E+00 0.00000000E+00 0.41059068E+02 0.41059068E+02 0.00000000E+00 0.0000E+00 0.9000E+01
        1 -1    0    0  502    0 0.00000000E+00 0.00000000E+00 -.54677617E+03 0.54677617E+03 0.00000000E+00 0.0000E+00 0.9000E+01
      -24  2    1    2    0    0 -.51726944E+02 -.91274210E+02 -.43335806E+03 0.45305965E+03 0.80356606E+02 0.0000E+00 0.0000E+00
  9900012  1    3    3    0    0 -.85504054E+01 -.53203770E+02 -.21396150E+03 0.22623721E+03 0.50000000E+02 0.0000E+00 0.9000E+01
       13  1    3    3    0    0 -.43176539E+02 -.38070440E+02 -.21939656E+03 0.22682244E+03 0.00000000E+00 0.0000E+00 0.9000E+01
        2  1    1    2  501    0 0.48076165E+02 0.86465497E+02 -.48531174E+02 0.11019471E+03 0.00000000E+00 0.0000E+00 0.9000E+01
       21  1    1    2  502  501 0.36507786E+01 0.48087134E+01 -.23827874E+02 0.24580877E+02 0.00000000E+00 0.0000E+00 0.9000E+01
#aMCatNLO 2  0  0  2  5 0.66334542D+01 0.00000000D+00  -5  6  0 0.00000000D+00 0.00000000D+00 0.00000000D+00 0.00000000D+00 0.00000000D+00
  <mgrwgt>
 0.1986465049D-04    3    2    0
 0.145775337540349D+03 0.000000000000000D+00 0.000000000000000D+00 0.145775337540349D+03
 0.145775337540349D+03 0.000000000000000D+00 0.000000000000000D+00 -.145775337540349D+03
 0.824429394640973D+02 -.751211903253464D+01 -.518361658334646D+02 -.394134272400587D+02
 0.744062604483325D+02 -.422377140326957D+02 -.368338438163929D+02 -.489442035067166D+02
 0.134701475168268D+03 0.497498330652304D+02 0.886700096498575D+02 0.883576307467753D+02
 0.000000000000000D+00 0.000000000000000D+00 0.000000000000000D+00 -.000000000000000D+00
 0.147155974043684D+03 0.000000000000000D+00 0.000000000000000D+00 0.147155974043684D+03
 0.152560031493732D+03 0.000000000000000D+00 0.000000000000000D+00 -.152560031493732D+03
 0.834096448928711D+02 -.855040536758047D+01 -.532037703776481D+02 -.394134272400587D+02
 0.755586325447827D+02 -.431765387108583D+02 -.380704399774991D+02 -.489442035067166D+02
 0.132644904789563D+03 0.480761654880237D+02 0.864654969766368D+02 0.883576307467753D+02
 0.810282331019983D+01 0.365077859041502D+01 0.480871337851044D+01 -.540405745004804D+01
-.912931078804D-06 0.000000000000D+00 0.000000000000D+00 0.319818180155D-06 0.000000000000D+00  6 22 1 9900012 13 2 21 2 0.62575148D-02 0.84916105D-01 0.13929155D+05 0.13929155D+05 0.13929155D+05 0.11946897D+01  1  2 13  1  6  2        1 -.557350032643D-04 0.100000000000D+01
-.103237330220D-05 0.000000000000D+00 0.000000000000D+00 0.319818180155D-06 0.000000000000D+00  6 22 1 9900012 13 2 21 2 0.62575148D-02 0.80378429D-01 0.13239609D+05 0.13239609D+05 0.13239609D+05 0.11968983D+01  1  2  8  1  6  2        1 -.679428419093D-04 0.100000000000D+01
0.235192777573D-05 0.000000000000D+00 0.000000000000D+00 0.319818180155D-06 0.103896442344D-06  6 22 1 9900012 13 2 21 2 0.63167797D-02 0.84119411D-01 0.13929155D+05 0.13929155D+05 0.13929155D+05 0.11946897D+01  1  2  1  1  6  2        1 0.143542495659D-03 0.100000000000D+01
  </mgrwgt>
  </event>
  <event>
  6     66 0.10827799E-05 0.38140787E+02 0.78161638E-02 0.12298483E+00
       22 -1    0    0    0    0 0.00000000E+00 0.00000000E+00 0.54281218E+02 0.54281218E+02 0.00000000E+00 0.0000E+00 0.9000E+01
        3 -1    0    0  501    0 -.00000000E+00 -.00000000E+00 -.32068590E+03 0.32068590E+03 0.00000000E+00 0.0000E+00 0.9000E+01
      -24  2    1    2    0    0 0.29142009E+02 0.37281702E+02 0.10094131E+02 0.94448357E+02 0.81113615E+02 0.0000E+00 0.0000E+00
  9900012  1    3    3    0    0 -.42887293E+01 0.24798663E+02 -.39115818E+01 0.56112987E+02 0.50000000E+02 0.0000E+00 0.9000E+01
       13  1    3    3    0    0 0.33430738E+02 0.12483039E+02 0.14005713E+02 0.38335369E+02 0.00000000E+00 0.0000E+00 0.9000E+01
        4  1    1    2  501    0 -.29142009E+02 -.37281702E+02 -.27649881E+03 0.28051876E+03 0.00000000E+00 0.0000E+00 0.9000E+01
#aMCatNLO 1  0  0  5  2 0.80597456D+01 0.00000000D+00  -5  6  0 0.00000000D+00 0.00000000D+00 0.00000000D+00 0.00000000D+00 0.00000000D+00
  <mgrwgt>
 0.2069248262D-03    8    2    0
 0.131936428240023D+03 0.000000000000000D+00 0.000000000000000D+00 0.131936428240023D+03
 0.131936428240023D+03 -.000000000000000D+00 -.000000000000000D+00 -.131936428240023D+03
 0.757882468075158D+02 -.428872934473420D+01 0.247986626694121D+02 0.510929690326687D+02
 0.686152056572074D+02 0.334307383648669D+02 0.124830393541090D+02 0.586055109033651D+02
 0.119469404015323D+03 -.291420090201327D+02 -.372817020235212D+02 -.109698479936034D+03
 0.000000000000000D+00 -.000000000000000D+00 0.000000000000000D+00 0.000000000000000D+00
 0.131936428240023D+03 0.000000000000000D+00 0.000000000000000D+00 0.131936428240023D+03
 0.131936428240023D+03 -.000000000000000D+00 -.000000000000000D+00 -.131936428240023D+03
 0.755270037586057D+02 -.437897814891276D+01 0.246832063526208D+02 0.507532478889551D+02
 0.682939434655075D+02 0.333490817774231D+02 0.123785751574494D+02 0.582981332097697D+02
 0.836401806236564D+02 -.128888348734730D+02 -.242267191524933D+02 -.790102767332733D+02
 0.364117286322769D+02 -.160812687550373D+02 -.128350623575769D+02 -.300411043654514D+02
0.113873233728D-05 0.000000000000D+00 0.000000000000D+00 0.245552674921D-05 0.000000000000D+00  6 22 3 9900012 13 4 21 0 0.83509567D-02 0.49336292D-01 0.48289837D+04 0.48289837D+04 0.48289837D+04 0.12435515D+01  1  2  2  2  6  5        4 0.183811596563D-04 0.100000000000D+01
0.379973035279D-07 0.000000000000D+00 -.218651600514D-08 0.245552674921D-05 0.000000000000D+00  6 22 3 9900012 13 4 21 2 0.83509567D-02 0.49336292D-01 0.48289837D+04 0.48289837D+04 0.48289837D+04 0.12435515D+01  1  2  3  2  6  5        4 0.948487443416D-06 0.100000000000D+01
-.153280980747D-06 0.000000000000D+00 0.000000000000D+00 0.245552674921D-05 0.000000000000D+00  6 22 3 9900012 13 4 21 2 0.83509567D-02 0.49336292D-01 0.48289837D+04 0.48289837D+04 0.48289837D+04 0.12435515D+01  1  2 15  2  6  5        4 -.382619481000D-05 0.100000000000D+01
0.845336188774D-05 0.000000000000D+00 0.000000000000D+00 0.245552674921D-05 0.000000000000D+00  6 22 3 9900012 13 4 21 2 0.83509567D-02 0.49336292D-01 0.48665965D+04 0.48665965D+04 0.48665965D+04 0.12431705D+01  1  2 12  2  6  5        4 0.211024607355D-03 0.100000000000D+01
-.373349833555D-05 0.000000000000D+00 0.000000000000D+00 0.245552674921D-05 0.000000000000D+00  6 22 3 9900012 13 4 21 2 0.83509567D-02 0.49336292D-01 0.48289837D+04 0.48289837D+04 0.48289837D+04 0.12435515D+01  1  2  4  2  6  5        4 -.931954629011D-04 0.100000000000D+01
-.841923093650D-05 0.000000000000D+00 0.000000000000D+00 0.245552674921D-05 0.000000000000D+00  6 22 3 9900012 13 4 21 2 0.83509567D-02 0.49336292D-01 0.48289837D+04 0.48289837D+04 0.48289837D+04 0.12435515D+01  1  2  5  2  6  5        4 -.210160566278D-03 0.100000000000D+01
0.113517771427D-04 0.000000000000D+00 -.000000000000D+00 0.245552674921D-05 0.000000000000D+00  6 22 3 9900012 13 4 21 2 0.83509567D-02 0.49336292D-01 0.48289837D+04 0.48289837D+04 0.48289837D+04 0.12435515D+01  1  2  6  2  6  5        4 0.283362688418D-03 0.100000000000D+01
0.156271761721D-07 0.000000000000D+00 0.000000000000D+00 0.245552674921D-05 0.736973611241D-07  6 22 3 9900012 13 4 21 2 0.83509567D-02 0.49336292D-01 0.48665965D+04 0.48665965D+04 0.48665965D+04 0.12431705D+01  1  2 11  2  6  5        4 0.390107363151D-06 0.100000000000D+01
  </mgrwgt>
  </event>
  <event>
  7     66 -.10827799E-05 0.70956568E+02 0.78161638E-02 0.11731785E+00
       22 -1    0    0    0    0 0.00000000E+00 0.00000000E+00 0.61777870E+01 0.61777870E+01 0.00000000E+00 0.0000E+00 0.9000E+01
        1 -1    0    0  502    0 0.00000000E+00 0.00000000E+00 -.19863452E+04 0.19863452E+04 0.00000000E+00 0.0000E+00 0.9000E+01
      -24  2    1    2    0    0 -.53271982E+02 0.40719754E+02 -.58212487E+03 0.59142521E+03 0.80115006E+02 0.0000E+00 0.0000E+00
  9900012  1    3    3    0    0 -.62401004E+02 0.27206849E+02 -.53334436E+03 0.53999102E+03 0.50000000E+02 0.0000E+00 0.9000E+01
       13  1    3    3    0    0 0.91290221E+01 0.13512905E+02 -.48780510E+02 0.51434189E+02 0.00000000E+00 0.0000E+00 0.9000E+01
        2  1    1    2  501    0 0.56509809E+02 -.52153297E+02 -.10313844E+04 0.10342471E+04 0.00000000E+00 0.0000E+00 0.9000E+01
       21  1    1    2  502  501 -.32378268E+01 0.11433543E+02 -.36665815E+03 0.36685066E+03 0.00000000E+00 0.0000E+00 0.9000E+01
#aMCatNLO 2  0  0  2  5 0.12374395D+02 0.00000000D+00  -5  6  0 0.00000000D+00 0.00000000D+00 0.00000000D+00 0.00000000D+00 0.00000000D+00
  <mgrwgt>
 -.1116120027D-03    2    2    0
 0.990670930899718D+02 0.000000000000000D+00 0.000000000000000D+00 0.990670930899718D+02
 0.990670930899718D+02 0.000000000000000D+00 0.000000000000000D+00 -.990670930899718D+02
 0.898659139336963D+02 -.638458185601166D+02 0.323088343630613D+02 0.213479076639250D+02
 0.253983187613064D+02 0.871985637135279D+01 0.149577678089535D+02 0.185823540741570D+02
 0.828699534849409D+02 0.551259621887638D+02 -.472666021720148D+02 -.399302617380820D+02
 0.000000000000000D+00 -.000000000000000D+00 0.000000000000000D+00 -.000000000000000D+00
 0.100815920363329D+03 0.000000000000000D+00 0.000000000000000D+00 0.100815920363329D+03
 0.121719044022063D+03 0.000000000000000D+00 0.000000000000000D+00 -.121719044022063D+03
 0.871196369164903D+02 -.624010043703651D+02 0.272068489245502D+02 0.213479076639250D+02
 0.247232995480298D+02 0.912902211962302D+01 0.135129054145917D+02 0.185823540741570D+02
 0.866472778092038D+02 0.565098090621646D+02 -.521532973936577D+02 -.399302617380820D+02
 0.240447501116683D+02 -.323782681142254D+01 0.114335430545157D+02 -.209031236587344D+02
-.305415621133D-05 0.000000000000D+00 0.000000000000D+00 0.396325803295D-06 0.000000000000D+00  6 22 1 9900012 13 2 21 2 0.93394194D-03 0.31098616D+00 0.89825365D+04 0.89825365D+04 0.89825365D+04 0.12141909D+01  1  2 13  1  6  2        1 -.214311926487D-03 0.100000000000D+01
0.142181349166D-05 0.000000000000D+00 0.000000000000D+00 0.396325803295D-06 0.104962806259D-07  6 22 1 9900012 13 2 21 2 0.95042878D-03 0.30559156D+00 0.89825365D+04 0.89825365D+04 0.89825365D+04 0.12141909D+01  1  2  1  1  6  2        1 0.102699923800D-03 0.100000000000D+01
  </mgrwgt>
  </event>
  <event>
  6     66 0.10827799E-05 0.31732048E+02 0.78161638E-02 0.11505157E+00
       22 -1    0    0    0    0 0.00000000E+00 0.00000000E+00 0.33372432E+04 0.33372432E+04 0.00000000E+00 0.0000E+00 0.9000E+01
        3 -1    0    0  501    0 0.00000000E+00 0.00000000E+00 -.81892856E+01 0.81892856E+01 0.00000000E+00 0.0000E+00 0.9000E+01
      -24  2    1    2    0    0 -.47121212E+02 0.63687415E+02 0.31176189E+04 0.31196422E+04 0.79644644E+02 0.0000E+00 0.0000E+00
  9900012  1    3    3    0    0 -.16995491E+02 0.51225436E+02 0.25706109E+04 0.25716635E+04 0.50000000E+02 0.0000E+00 0.9000E+01
       13  1    3    3    0    0 -.30125722E+02 0.12461979E+02 0.54700801E+03 0.54797867E+03 0.00000000E+00 0.0000E+00 0.9000E+01
        4  1    1    2  501    0 0.47121212E+02 -.63687415E+02 0.21143507E+03 0.22579035E+03 0.00000000E+00 0.0000E+00 0.9000E+01
#aMCatNLO 1  0  0  2  5 0.49278822D+02 0.00000000D+00  -5  6  0 0.00000000D+00 0.00000000D+00 0.00000000D+00 0.00000000D+00 0.00000000D+00
  <mgrwgt>
 0.4560621685D-04    6    2    0
 0.165316780747759D+03 0.000000000000000D+00 0.000000000000000D+00 0.165316780747759D+03
 0.165316780747759D+03 0.000000000000000D+00 0.000000000000000D+00 -.165316780747759D+03
 0.137990899708140D+03 -.169954906868572D+02 0.512254359079087D+02 0.116741579630479D+03
 0.369184784776434D+02 -.301257217659688D+02 0.124619794364076D+02 0.173237989399037D+02
 0.155724183309735D+03 0.471212124528260D+02 -.636874153443162D+02 -.134065378570383D+03
 0.000000000000000D+00 -.000000000000000D+00 -.000000000000000D+00 0.000000000000000D+00
 0.185812352005321D+03 0.000000000000000D+00 0.000000000000000D+00 0.185812352005321D+03
 0.177752014025255D+03 0.000000000000000D+00 0.000000000000000D+00 -.177752014025255D+03
 0.143269514360068D+03 -.167624023062635D+02 0.641605735578564D+02 0.116741579630479D+03
 0.381736735181932D+02 -.300634907969859D+02 0.159154598194002D+02 0.173237989399037D+02
 0.150592420866969D+03 0.473750655997506D+02 -.495999460763184D+02 -.134065378570383D+03
 0.315287572853454D+02 -.549172496501276D+00 -.304760873009382D+02 0.806033798006620D+01
0.449132648495D-04 0.000000000000D+00 0.000000000000D+00 0.527363342201D-05 0.000000000000D+00  6 22 3 9900012 13 4 21 0 0.51342204D+00 0.12598901D-02 0.85931259D+04 0.85931259D+04 0.85931259D+04 0.12162172D+01  1  2  2  1  6  2        3 0.389860820302D-04 0.100000000000D+01
0.352605007074D-06 0.000000000000D+00 -.862393814781D-07 0.527363342201D-05 0.000000000000D+00  6 22 3 9900012 13 4 21 2 0.51342204D+00 0.12598901D-02 0.85931259D+04 0.85931259D+04 0.85931259D+04 0.12162172D+01  1  2  3  1  6  2        3 0.452736727608D-06 0.100000000000D+01
-.549023896649D-05 0.000000000000D+00 0.000000000000D+00 0.527363342201D-05 0.000000000000D+00  6 22 3 9900012 13 4 21 2 0.51342204D+00 0.12598901D-02 0.85931259D+04 0.85931259D+04 0.85931259D+04 0.12162172D+01  1  2 15  1  6  2        3 -.704934068889D-05 0.100000000000D+01
0.949376320989D-05 0.000000000000D+00 0.000000000000D+00 0.527363342201D-05 0.000000000000D+00  6 22 3 9900012 13 4 21 2 0.51342204D+00 0.15226072D-02 0.11678984D+05 0.11678984D+05 0.11678984D+05 0.12024062D+01  1  2 12  1  6  2        3 0.934423431323D-05 0.100000000000D+01
-.951943088673D-06 0.000000000000D+00 0.000000000000D+00 0.527363342201D-05 0.000000000000D+00  6 22 3 9900012 13 4 21 2 0.51342204D+00 0.12598901D-02 0.85931259D+04 0.85931259D+04 0.85931259D+04 0.12162172D+01  1  2  4  1  6  2        3 -.122227305395D-05 0.100000000000D+01
0.260511317309D-06 0.000000000000D+00 0.000000000000D+00 0.527363342201D-05 0.000000000000D+00  6 22 21 9900012 13 4 -3 2 0.51342204D+00 0.15226072D-02 0.11678984D+05 0.11678984D+05 0.11678984D+05 0.12024062D+01  1  2 12  3  6  2        3 0.509477751842D-05 0.100000000000D+01
  </mgrwgt>
  </event>
  <event>
  6     66 0.10827799E-05 0.25289061E+02 0.78161638E-02 0.12699608E+00
       22 -1    0    0    0    0 0.00000000E+00 0.00000000E+00 0.54792789E+01 0.54792789E+01 0.00000000E+00 0.0000E+00 0.9000E+01
        1 -1    0    0  501    0 -.00000000E+00 -.00000000E+00 -.12553461E+04 0.12553461E+04 0.00000000E+00 0.0000E+00 0.9000E+01
      -24  2    1    2    0    0 -.25478026E+02 0.27044106E+02 -.37368586E+03 0.38385697E+03 0.79526965E+02 0.0000E+00 0.0000E+00
  9900012  1    3    3    0    0 -.37139017E+01 0.19435651E+02 -.33102909E+03 0.33536815E+03 0.50000000E+02 0.0000E+00 0.9000E+01
       13  1    3    3    0    0 -.21764124E+02 0.76084548E+01 -.42656773E+02 0.48488823E+02 0.00000000E+00 0.0000E+00 0.9000E+01
        2  1    1    2  501    0 0.25478026E+02 -.27044106E+02 -.87618098E+03 0.87696843E+03 0.00000000E+00 0.0000E+00 0.9000E+01
#aMCatNLO 1  0  0  5  2 0.25834384D+01 0.00000000D+00  -5  6  0 0.00000000D+00 0.00000000D+00 0.00000000D+00 0.00000000D+00 0.00000000D+00
  <mgrwgt>
 0.1453606523D-03    8    2    0
 0.829360692407496D+02 0.000000000000000D+00 0.000000000000000D+00 0.829360692407496D+02
 0.829360692407496D+02 -.000000000000000D+00 -.000000000000000D+00 -.829360692407496D+02
 0.548518790419089D+02 -.371390165973494D+01 0.194356508317100D+02 0.108254813120649D+02
 0.471486885249840D+02 -.217641243763656D+02 0.760845476752915D+01 0.411270365551240D+02
 0.638715709146064D+02 0.254780260361005D+02 -.270441055992392D+02 -.519525178671889D+02
 0.000000000000000D+00 0.000000000000000D+00 0.000000000000000D+00 0.000000000000000D+00
 0.829360692407496D+02 0.000000000000000D+00 0.000000000000000D+00 0.829360692407496D+02
 0.829360692407496D+02 -.000000000000000D+00 -.000000000000000D+00 -.829360692407496D+02
 0.548275639977337D+02 -.368511935857021D+01 0.194050993442838D+02 0.107667910111208D+02
 0.470890530532501D+02 -.217393943177145D+02 0.758220460526430D+01 0.410766092256242D+02
 0.254698570575221D+02 0.804973240302262D+01 -.122768693914121D+02 -.208133107581793D+02
 0.384856643729934D+02 0.173747812732621D+02 -.147104345581360D+02 -.310300894785657D+02
0.239560091589D-06 0.000000000000D+00 0.000000000000D+00 0.713781479445D-06 0.000000000000D+00  6 22 1 9900012 13 2 21 0 0.84296599D-03 0.19313017D+00 0.32480874D+04 0.32480874D+04 0.32480874D+04 0.12635037D+01  1  2  2  2  6  5        2 0.381278763192D-04 0.100000000000D+01
0.378197769625D-08 0.000000000000D+00 -.459986914661D-09 0.713781479445D-06 0.000000000000D+00  6 22 1 9900012 13 2 21 2 0.84296599D-03 0.19313017D+00 0.32480874D+04 0.32480874D+04 0.32480874D+04 0.12635037D+01  1  2  3  2  6  5        2 0.960948625322D-06 0.100000000000D+01
-.313676614327D-07 0.000000000000D+00 0.000000000000D+00 0.713781479445D-06 0.000000000000D+00  6 22 1 9900012 13 2 21 2 0.84296599D-03 0.19313017D+00 0.32480874D+04 0.32480874D+04 0.32480874D+04 0.12635037D+01  1  2 15  2  6  5        2 -.797009225179D-05 0.100000000000D+01
0.154372309305D-07 0.000000000000D+00 0.000000000000D+00 0.713781479445D-06 0.000000000000D+00  6 22 1 9900012 13 2 21 2 0.84296599D-03 0.19313017D+00 0.32621268D+04 0.32621268D+04 0.32621268D+04 0.12632813D+01  1  2 12  2  6  5        2 0.392227504785D-05 0.100000000000D+01
-.374463701361D-05 0.000000000000D+00 0.000000000000D+00 0.713781479445D-06 0.000000000000D+00  6 22 1 9900012 13 2 21 2 0.84296599D-03 0.19313017D+00 0.32480874D+04 0.32480874D+04 0.32480874D+04 0.12635037D+01  1  2  4  2  6  5        2 -.951460870361D-03 0.100000000000D+01
-.248475495614D-05 0.000000000000D+00 0.000000000000D+00 0.713781479445D-06 0.000000000000D+00  6 22 1 9900012 13 2 21 2 0.84296599D-03 0.19313017D+00 0.32480874D+04 0.32480874D+04 0.32480874D+04 0.12635037D+01  1  2  5  2  6  5        2 -.631342131322D-03 0.100000000000D+01
0.429157652974D-05 0.000000000000D+00 -.000000000000D+00 0.713781479445D-06 0.000000000000D+00  6 22 1 9900012 13 2 21 2 0.84296599D-03 0.19313017D+00 0.32480874D+04 0.32480874D+04 0.32480874D+04 0.12635037D+01  1  2  6  2  6  5        2 0.109043069472D-02 0.100000000000D+01
0.237206588564D-05 0.000000000000D+00 0.000000000000D+00 0.713781479445D-06 0.201364748340D-06  6 22 1 9900012 13 2 21 2 0.84296599D-03 0.19313017D+00 0.32621268D+04 0.32621268D+04 0.32621268D+04 0.12632813D+01  1  2 11  2  6  5        2 0.602691951490D-03 0.100000000000D+01
  </mgrwgt>
  </event>
  <event>
  6     66 0.10827799E-05 0.25978568E+02 0.78161638E-02 0.11761020E+00
       22 -1    0    0    0    0 0.00000000E+00 0.00000000E+00 0.28034431E+02 0.28034431E+02 0.00000000E+00 0.0000E+00 0.9000E+01
        1 -1    0    0  501    0 -.00000000E+00 -.00000000E+00 -.31155268E+04 0.31155268E+04 0.00000000E+00 0.0000E+00 0.9000E+01
      -24  2    1    2    0    0 -.19628676E+02 -.17017671E+02 -.55873775E+02 0.11183133E+03 0.93324604E+02 0.0000E+00 0.0000E+00
  9900012  1    3    3    0    0 0.10786016E+02 -.43710324E+01 -.59623792E+02 0.78679354E+02 0.50000000E+02 0.0000E+00 0.9000E+01
       13  1    3    3    0    0 -.30414692E+02 -.12646638E+02 0.37500174E+01 0.33151977E+02 0.00000000E+00 0.0000E+00 0.9000E+01
        2  1    1    2  501    0 0.19628676E+02 0.17017671E+02 -.30316186E+04 0.30317299E+04 0.00000000E+00 0.0000E+00 0.9000E+01
#aMCatNLO 1  0  0  5  2 0.28877879D+01 0.00000000D+00  -5  6  0 0.00000000D+00 0.00000000D+00 0.00000000D+00 0.00000000D+00 0.00000000D+00
  <mgrwgt>
 0.3685525611D-03    4    2    0
 0.295536832743193D+03 0.000000000000000D+00 0.000000000000000D+00 0.295536832743193D+03
 0.295536832743193D+03 -.000000000000000D+00 -.000000000000000D+00 -.295536832743193D+03
 0.107000810546155D+03 0.107860164805686D+02 -.437103243116639D+01 0.938814645257563D+02
 0.195903531770462D+03 -.304146921898615D+02 -.126466381201552D+02 0.193114481081544D+03
 0.288169323169769D+03 0.196286757092931D+02 0.170176705513217D+02 -.286995945607301D+03
 0.000000000000000D+00 0.000000000000000D+00 0.000000000000000D+00 0.000000000000000D+00
 0.295536832743193D+03 0.000000000000000D+00 0.000000000000000D+00 0.295536832743193D+03
 0.295536832743193D+03 -.000000000000000D+00 -.000000000000000D+00 -.295536832743193D+03
 0.104089282194062D+03 0.110151764962722D+02 -.417235526575109D+01 0.905308566510190D+02
 0.189781091817774D+03 -.299959918460852D+02 -.122836332687002D+02 0.186992555034782D+03
 0.898188285510176D+02 0.708325111730483D+01 -.422095728445465D+02 -.789658247355602D+02
 0.207384462923533D+03 0.118975642325084D+02 0.586655613789979D+02 -.198557586950241D+03
0.110409249443D-02 0.000000000000D+00 0.000000000000D+00 0.188976031972D-05 0.000000000000D+00  6 22 1 9900012 13 2 21 0 0.43129894D-02 0.47931181D+00 0.30390052D+04 0.30390052D+04 0.30390052D+04 0.12669507D+01  1  2  2  2  6  5        2 0.118404397629D-02 0.100000000000D+01
0.119305856924D-03 0.000000000000D+00 -.212000294643D-05 0.188976031972D-05 0.000000000000D+00  6 22 1 9900012 13 2 21 2 0.43129894D-02 0.47931181D+00 0.30390052D+04 0.30390052D+04 0.30390052D+04 0.12669507D+01  1  2  3  2  6  5        2 0.205373097276D-03 0.100000000000D+01
-.150463265220D-03 0.000000000000D+00 0.000000000000D+00 0.188976031972D-05 0.000000000000D+00  6 22 1 9900012 13 2 21 2 0.43129894D-02 0.47931181D+00 0.30390052D+04 0.30390052D+04 0.30390052D+04 0.12669507D+01  1  2 15  2  6  5        2 -.259007458656D-03 0.100000000000D+01
-.442579918531D-03 0.000000000000D+00 0.000000000000D+00 0.188976031972D-05 0.000000000000D+00  6 22 1 9900012 13 2 21 2 0.43129894D-02 0.47931181D+00 0.30390052D+04 0.30390052D+04 0.30390052D+04 0.12669507D+01  1  2  5  2  6  5        2 -.761857053832D-03 0.100000000000D+01
  </mgrwgt>
  </event>
  <event>
  7     66 -.10827799E-05 0.11726097E+03 0.78161638E-02 0.11190192E+00
       22 -1    0    0    0    0 0.00000000E+00 0.00000000E+00 0.95263097E+02 0.95263097E+02 0.00000000E+00 0.0000E+00 0.9000E+01
        1 -1    0    0  501    0 -.00000000E+00 -.00000000E+00 -.25970132E+03 0.25970132E+03 0.00000000E+00 0.0000E+00 0.9000E+01
      -24  2    1    2    0    0 -.63461879E+02 0.10217108E+03 -.33443121E+01 0.14594792E+03 0.82603089E+02 0.0000E+00 0.0000E+00
  9900012  1    3    3    0    0 -.55486806E+02 0.89635878E+02 -.25347989E+02 0.11939806E+03 0.50000000E+02 0.0000E+00 0.9000E+01
       13  1    3    3    0    0 -.79750727E+01 0.12535204E+02 0.22003677E+02 0.26549857E+02 0.00000000E+00 0.0000E+00 0.9000E+01
        2  1    1    2  502    0 0.55970157E+02 -.10863989E+03 -.15503565E+03 0.19741159E+03 0.00000000E+00 0.0000E+00 0.9000E+01
       21  1    1    2  501  502 0.74917215E+01 0.64688061E+01 -.60582600E+01 0.11604907E+02 0.00000000E+00 0.0000E+00 0.9000E+01
#aMCatNLO 2  0  0  5  2 0.14145250D+02 0.00000000D+00  -5  6  0 0.00000000D+00 0.00000000D+00 0.00000000D+00 0.00000000D+00 0.00000000D+00
  <mgrwgt>
 -.7628556459D-04    2    2    0
 0.157289388380640D+03 0.000000000000000D+00 0.000000000000000D+00 0.157289388380640D+03
 0.157289388380640D+03 -.000000000000000D+00 -.000000000000000D+00 -.157289388380640D+03
 0.125461429614182D+03 -.575084515535782D+02 0.928906461692991D+02 0.361203014244655D+02
 0.426730488249726D+02 -.866385997335973D+01 0.136441236091843D+02 0.394938541714760D+02
 0.146444298322126D+03 0.661723115269379D+02 -.106534769778483D+03 -.756141555959414D+02
 0.000000000000000D+00 0.000000000000000D+00 0.000000000000000D+00 0.000000000000000D+00
 0.157289388380640D+03 0.000000000000000D+00 0.000000000000000D+00 0.157289388380640D+03
 0.157289388380640D+03 -.000000000000000D+00 -.000000000000000D+00 -.157289388380640D+03
 0.121476358241453D+03 -.554868060566462D+02 0.896358779343754D+02 0.338101959794922D+02
 0.414602032935154D+02 -.797507268096275D+01 0.125352036707901D+02 0.387067867667260D+02
 0.141714274655057D+03 0.559701571918381D+02 -.108639887731560D+03 -.717471388879300D+02
 0.992794057125576D+01 0.749172154577085D+01 0.646880612639417D+01 -.769843858288231D+00
-.146620708567D-05 0.000000000000D+00 0.000000000000D+00 0.118521309684D-06 0.000000000000D+00  6 22 1 9900012 13 2 21 2 0.14655861D-01 0.39954049D-01 0.17376711D+05 0.17376711D+05 0.17376711D+05 0.11852158D+01  1  2 13  2  6  5        2 -.705981451719D-04 0.100000000000D+01
-.118103447082D-06 0.000000000000D+00 0.000000000000D+00 0.118521309684D-06 0.000000000000D+00  6 22 1 9900012 13 2 21 2 0.14655861D-01 0.39954049D-01 0.17124988D+05 0.17124988D+05 0.17124988D+05 0.11858334D+01  1  2  8  2  6  5        2 -.568741941511D-05 0.100000000000D+01
  </mgrwgt>
  </event>
  <event>
  6     66 0.10827799E-05 0.47540031E+02 0.78161638E-02 0.11622979E+00
       22 -1    0    0    0    0 0.00000000E+00 0.00000000E+00 0.15095003E+03 0.15095003E+03 0.00000000E+00 0.0000E+00 0.9000E+01
        3 -1    0    0  501    0 0.00000000E+00 0.00000000E+00 -.15363143E+03 0.15363143E+03 0.00000000E+00 0.0000E+00 0.9000E+01
      -24  2    1    2    0    0 -.14402744E+02 0.66764819E+02 0.12223278E+03 0.16221386E+03 0.81899353E+02 0.0000E+00 0.0000E+00
  9900012  1    3    3    0    0 0.13544709E+02 0.56575466E+02 0.92282772E+02 0.12000147E+03 0.50000000E+02 0.0000E+00 0.9000E+01
       13  1    3    3    0    0 -.27947453E+02 0.10189352E+02 0.29950005E+02 0.42212389E+02 0.00000000E+00 0.0000E+00 0.9000E+01
        4  1    1    2  501    0 0.14402744E+02 -.66764819E+02 -.12491418E+03 0.14236760E+03 0.00000000E+00 0.0000E+00 0.9000E+01
#aMCatNLO 1  0  0  2  5 0.24024190D+02 0.00000000D+00  -5  6  0 0.00000000D+00 0.00000000D+00 0.00000000D+00 0.00000000D+00 0.00000000D+00
  <mgrwgt>
 0.1871891690D-04    9    2    0
 0.152284825642553D+03 0.000000000000000D+00 0.000000000000000D+00 0.152284825642553D+03
 0.152284825642553D+03 0.000000000000000D+00 0.000000000000000D+00 -.152284825642553D+03
 0.120818568581076D+03 0.135447094151544D+02 0.565754660644081D+02 0.933428304715160D+02
 0.424777022957816D+02 -.279474530005388D+02 0.101893524789722D+02 0.303227993293989D+02
 0.141273380408249D+03 0.144027435853843D+02 -.667648185433803D+02 -.123665629800915D+03
 0.000000000000000D+00 -.000000000000000D+00 0.000000000000000D+00 -.000000000000000D+00
 0.153965282707467D+03 0.000000000000000D+00 0.000000000000000D+00 0.153965282707467D+03
 0.269291980786422D+03 0.000000000000000D+00 0.000000000000000D+00 -.269291980786422D+03
 0.120340133039521D+03 0.221289973573126D+02 0.527178441848242D+02 0.933428304715160D+02
 0.402881334004120D+02 -.250013193523851D+02 0.886541394174298D+01 0.303227993293989D+02
 0.144870491171118D+03 0.245883241595643D+02 -.713420320227015D+02 -.123665629800915D+03
 0.117758505882838D+03 -.217160021644918D+02 0.975877389613431D+01 -.115326698078955D+03
0.200892861041D-06 0.000000000000D+00 0.000000000000D+00 0.104488877393D-05 0.000000000000D+00  6 22 3 9900012 13 4 21 0 0.23223081D-01 0.23635604D-01 0.76349550D+04 0.76349550D+04 0.76349550D+04 0.12216756D+01  1  2  2  1  6  2        3 0.299656007360D-05 0.100000000000D+01
0.341466025556D-08 0.000000000000D+00 -.385740741352D-09 0.104488877393D-05 0.000000000000D+00  6 22 3 9900012 13 4 21 2 0.23223081D-01 0.23635604D-01 0.76349550D+04 0.76349550D+04 0.76349550D+04 0.12216756D+01  1  2  3  1  6  2        3 0.760182335812D-07 0.100000000000D+01
-.270792400489D-07 0.000000000000D+00 0.000000000000D+00 0.104488877393D-05 0.000000000000D+00  6 22 3 9900012 13 4 21 2 0.23223081D-01 0.23635604D-01 0.76349550D+04 0.76349550D+04 0.76349550D+04 0.12216756D+01  1  2 15  1  6  2        3 -.602846503364D-06 0.100000000000D+01
0.169007993777D-05 0.000000000000D+00 0.000000000000D+00 0.104488877393D-05 0.000000000000D+00  6 22 3 9900012 13 4 21 2 0.23223081D-01 0.42257099D-01 0.10175564D+05 0.10175564D+05 0.10175564D+05 0.12085473D+01  1  2 12  1  6  2        3 0.129692837637D-04 0.100000000000D+01
-.759675094716D-06 0.000000000000D+00 0.000000000000D+00 0.104488877393D-05 0.000000000000D+00  6 22 3 9900012 13 4 21 2 0.23223081D-01 0.23635604D-01 0.76349550D+04 0.76349550D+04 0.76349550D+04 0.12216756D+01  1  2  4  1  6  2        3 -.169121243327D-04 0.100000000000D+01
-.171228555518D-05 0.000000000000D+00 -.633480843533D-07 0.104488877393D-05 0.000000000000D+00  6 22 3 9900012 13 4 21 2 0.23223081D-01 0.42007452D-01 0.76349550D+04 0.76349550D+04 0.76349550D+04 0.12216756D+01  1  2  5  1  6  2        3 -.133054059817D-04 0.100000000000D+01
0.150252887786D-05 0.000000000000D+00 0.541448624964D-07 0.104488877393D-05 0.000000000000D+00  6 22 3 9900012 13 4 21 2 0.23223081D-01 0.23635604D-01 0.76349550D+04 0.76349550D+04 0.76349550D+04 0.12216756D+01  1  2  6  1  6  2        3 0.334497673711D-04 0.100000000000D+01
0.107865057560D-06 0.000000000000D+00 0.000000000000D+00 0.104488877393D-05 0.000000000000D+00  6 22 21 9900012 13 4 -3 2 0.23223081D-01 0.42257099D-01 0.10175564D+05 0.10175564D+05 0.10175564D+05 0.12085473D+01  1  2 12  3  6  2        3 0.130228725633D-04 0.100000000000D+01
-.105022242939D-06 0.000000000000D+00 -.400756635755D-08 0.104488877393D-05 0.000000000000D+00  6 22 21 9900012 13 4 -3 2 0.23223081D-01 0.42007452D-01 0.76349550D+04 0.76349550D+04 0.76349550D+04 0.12216756D+01  1  2  5  3  6  2        3 -.129752082891D-04 0.100000000000D+01
  </mgrwgt>
  </event>
  <event>
  6     66 0.10827799E-05 0.21438096E+02 0.78161638E-02 0.12169244E+00
       22 -1    0    0    0    0 0.00000000E+00 0.00000000E+00 0.11380033E+03 0.11380033E+03 0.00000000E+00 0.0000E+00 0.9000E+01
        1 -1    0    0  501    0 0.00000000E+00 0.00000000E+00 -.10972465E+03 0.10972465E+03 0.00000000E+00 0.0000E+00 0.9000E+01
      -24  2    1    2    0    0 0.77963215E+02 -.13293418E+02 0.55336277E+02 0.12927729E+03 0.85997297E+02 0.0000E+00 0.0000E+00
  9900012  1    3    3    0    0 0.41808267E+02 0.72129169E+01 0.58113293E+02 0.87619131E+02 0.50000000E+02 0.0000E+00 0.9000E+01
       13  1    3    3    0    0 0.36154948E+02 -.20506335E+02 -.27770153E+01 0.41658155E+02 0.00000000E+00 0.0000E+00 0.9000E+01
        2  1    1    2  501    0 -.77963215E+02 0.13293418E+02 -.51260601E+02 0.94247690E+02 0.00000000E+00 0.0000E+00 0.9000E+01
#aMCatNLO 1  0  0  5  2 0.47129670D+02 0.00000000D+00  -5  6  0 0.00000000D+00 0.00000000D+00 0.00000000D+00 0.00000000D+00 0.00000000D+00
  <mgrwgt>
 0.1706587138D-03    4    2    0
 0.111743907839695D+03 0.000000000000000D+00 0.000000000000000D+00 0.111743907839695D+03
 0.111743907839695D+03 -.000000000000000D+00 -.000000000000000D+00 -.111743907839695D+03
 0.865739062891175D+02 0.418082670804816D+02 0.721291690619630D+01 0.565250730524812D+02
 0.417157249644670D+02 0.361549481463452D+02 -.205063347812791D+02 -.353718358079465D+01
 0.951981844258059D+02 -.779632152268269D+02 0.132934178750828D+02 -.529878894716865D+02
 0.000000000000000D+00 0.000000000000000D+00 -.000000000000000D+00 0.000000000000000D+00
 0.111743907839695D+03 0.000000000000000D+00 0.000000000000000D+00 0.111743907839695D+03
 0.111743907839695D+03 -.000000000000000D+00 -.000000000000000D+00 -.111743907839695D+03
 0.730066952949956D+02 0.256365391006767D+02 0.997033958524127D+01 0.455339186693917D+02
 0.353464730704751D+02 0.283455471804636D+02 -.191747628330019D+02 -.884486200344941D+01
 0.544404957816681D+02 -.469840391757832D+02 0.144995020763010D+02 0.233673293985778D+02
 0.606941515322517D+02 -.699804710535706D+01 -.529507882854035D+01 -.600563860645200D+02
0.237866700186D-05 0.000000000000D+00 0.000000000000D+00 0.246612884201D-07 0.000000000000D+00  6 22 1 9900012 13 2 21 0 0.17507742D-01 0.16880715D-01 0.86702141D+04 0.86702141D+04 0.86702141D+04 0.12158080D+01  1  2  2  2  6  5        2 0.176582887748D-03 0.100000000000D+01
-.357642192551D-07 0.000000000000D+00 -.456735380228D-08 0.246612884201D-07 0.000000000000D+00  6 22 1 9900012 13 2 21 2 0.17507742D-01 0.16880715D-01 0.86702141D+04 0.86702141D+04 0.86702141D+04 0.12158080D+01  1  2  3  2  6  5        2 -.392458470380D-05 0.100000000000D+01
-.265222319055D-06 0.000000000000D+00 0.000000000000D+00 0.246612884201D-07 0.000000000000D+00  6 22 1 9900012 13 2 21 2 0.17507742D-01 0.16880715D-01 0.86702141D+04 0.86702141D+04 0.86702141D+04 0.12158080D+01  1  2 15  2  6  5        2 -.291041571198D-04 0.100000000000D+01
0.247914377033D-06 0.000000000000D+00 0.000000000000D+00 0.246612884201D-07 0.000000000000D+00  6 22 1 9900012 13 2 21 2 0.17507742D-01 0.16880715D-01 0.55677683D+04 0.55677683D+04 0.55677683D+04 0.12366213D+01  1  2 12  2  6  5        2 0.271045678594D-04 0.100000000000D+01
  </mgrwgt>
  </event>
  <event>
  7     66 0.10827799E-05 0.17292978E+03 0.78161638E-02 0.10302185E+00
       22 -1    0    0    0    0 0.00000000E+00 0.00000000E+00 0.48778514E+03 0.48778514E+03 0.00000000E+00 0.0000E+00 0.9000E+01
       21 -1    0    0  501  502 0.00000000E+00 0.00000000E+00 -.25432902E+03 0.25432902E+03 0.00000000E+00 0.0000E+00 0.9000E+01
      -24  2    1    2    0    0 -.90626010E+02 0.83388351E+02 0.35281941E+03 0.38210219E+03 0.79711093E+02 0.0000E+00 0.0000E+00
  9900012  1    3    3    0    0 -.72270159E+02 0.83106521E+02 0.33635953E+03 0.35744566E+03 0.50000000E+02 0.0000E+00 0.9000E+01
       13  1    3    3    0    0 -.18355850E+02 0.28183043E+00 0.16459878E+02 0.24656525E+02 0.00000000E+00 0.0000E+00 0.9000E+01
        2  1    1    2  501    0 0.13197720E+03 -.18650910E+03 -.83596247E+02 0.24329397E+03 0.00000000E+00 0.0000E+00 0.9000E+01
       -1  1    1    2    0  502 -.41351187E+02 0.10312074E+03 -.35767039E+02 0.11671799E+03 0.00000000E+00 0.0000E+00 0.9000E+01
#aMCatNLO 2  0  0  2  5 0.12554100D+03 0.00000000D+00  -5  6  0 0.00000000D+00 0.00000000D+00 0.00000000D+00 0.00000000D+00 0.00000000D+00
  <mgrwgt>
 0.6668293840D-05    2    2    0
 0.276719821043743D+03 0.000000000000000D+00 0.000000000000000D+00 0.276719821043743D+03
 0.276719821043743D+03 0.000000000000000D+00 0.000000000000000D+00 -.276719821043743D+03
 0.261180844523908D+03 -.906456060100046D+02 0.128930833814612D+03 0.202177268131631D+03
 0.212793119339965D+02 -.198630276285014D+02 0.404039832428985D+01 0.647645205299879D+01
 0.270979485629582D+03 0.110508633638506D+03 -.132971232138901D+03 -.208653720184630D+03
 0.000000000000000D+00 -.000000000000000D+00 0.000000000000000D+00 -.000000000000000D+00
 0.307779665274465D+03 0.000000000000000D+00 0.000000000000000D+00 0.307779665274465D+03
 0.403073780869498D+03 0.000000000000000D+00 0.000000000000000D+00 -.403073780869498D+03
 0.235595665199256D+03 -.722701592976264D+02 0.831065207225411D+02 0.202177268131631D+03
 0.194669232608744D+02 -.183558503387164D+02 0.281830432395340D+00 0.647645205299879D+01
 0.309418807258604D+03 0.131977196853915D+03 -.186509095888201D+03 -.208653720184630D+03
 0.146372050425228D+03 -.413511872175725D+02 0.103120744733265D+03 -.952941155950331D+02
-.895632146095D-07 0.000000000000D+00 0.000000000000D+00 0.492173747960D-05 0.000000000000D+00  6 22 21 9900012 13 2 -1 2 0.67470752D-01 0.43519331D-01 0.57335106D+05 0.57335106D+05 0.57335106D+05 0.11378096D+01  1  2 13  3  6  2        1 -.166525972894D-05 0.100000000000D+01
0.436558693428D-06 0.000000000000D+00 0.000000000000D+00 0.492173747960D-05 0.174967531188D-09  6 22 21 9900012 13 2 -1 2 0.75043867D-01 0.39127541D-01 0.57335106D+05 0.57335106D+05 0.57335106D+05 0.11378096D+01  1  2  1  3  6  2        1 0.833355356918D-05 0.100000000000D+01
  </mgrwgt>
  </event>
  <event>
  7     66 -.10827799E-05 0.72141891E+02 0.78161638E-02 0.11837815E+00
       22 -1    0    0    0    0 0.00000000E+00 0.00000000E+00 0.14572231E+03 0.14572231E+03 0.00000000E+00 0.0000E+00 0.9000E+01
        3 -1    0    0  502    0 0.00000000E+00 0.00000000E+00 -.15078181E+03 0.15078181E+03 0.00000000E+00 0.0000E+00 0.9000E+01
      -24  2    1    2    0    0 -.42681545E+02 -.59621665E+02 0.11417126E+03 0.15630494E+03 0.77586724E+02 0.0000E+00 0.0000E+00
  9900012  1    3    3    0    0 -.87767447E+01 -.46601366E+02 0.86791262E+02 0.11082167E+03 0.50000000E+02 0.0000E+00 0.9000E+01
       13  1    3    3    0    0 -.33904801E+02 -.13020299E+02 0.27379999E+02 0.45483272E+02 0.00000000E+00 0.0000E+00 0.9000E+01
        4  1    1    2  501    0 0.39683625E+02 0.54414849E+02 -.10488422E+03 0.12464536E+03 0.00000000E+00 0.0000E+00 0.9000E+01
       21  1    1    2  502  501 0.29979205E+01 0.52068155E+01 -.14346536E+02 0.15553827E+02 0.00000000E+00 0.0000E+00 0.9000E+01
#aMCatNLO 2  0  0  2  5 0.61324232D+01 0.00000000D+00  -5  6  0 0.00000000D+00 0.00000000D+00 0.00000000D+00 0.00000000D+00 0.00000000D+00
  <mgrwgt>
 -.1581644629D-04    2    2    0
 0.140366239011205D+03 0.000000000000000D+00 0.000000000000000D+00 0.140366239011205D+03
 0.140366239011205D+03 0.000000000000000D+00 0.000000000000000D+00 -.140366239011205D+03
 0.107078420080919D+03 -.762841054065006D+01 -.446069289001795D+02 0.831734169897048D+02
 0.440092355433763D+02 -.334317156144248D+02 -.121986399130268D+02 0.258906621866053D+02
 0.129644822398116D+03 0.410601261550748D+02 0.568055688132063D+02 -.109064079176310D+03
 0.000000000000000D+00 0.000000000000000D+00 0.000000000000000D+00 -.000000000000000D+00
 0.140982392922073D+03 0.000000000000000D+00 0.000000000000000D+00 0.140982392922073D+03
 0.155851198650995D+03 0.000000000000000D+00 0.000000000000000D+00 -.155851198650995D+03
 0.108011739446213D+03 -.877674466247007D+01 -.466013660484664D+02 0.831734169897048D+02
 0.446025793184843D+02 -.339048008119344D+02 -.130202985873528D+02 0.258906621866053D+02
 0.128182445232836D+03 0.396836250189599D+02 0.544148491190325D+02 -.109064079176310D+03
 0.160368275755346D+02 0.299792045544461D+01 0.520681551678670D+01 -.148688057289213D+02
-.224734186873D-05 0.000000000000D+00 0.000000000000D+00 0.592208351633D-06 0.000000000000D+00  6 22 3 9900012 13 4 21 2 0.22320838D-01 0.23299029D-01 0.79732539D+04 0.79732539D+04 0.79732539D+04 0.12196654D+01  1  2 13  1  6  2        3 -.544804554700D-04 0.100000000000D+01
0.159311701660D-05 0.000000000000D+00 0.000000000000D+00 0.592208351633D-06 0.131565176207D-05  6 22 3 9900012 13 4 21 2 0.22418818D-01 0.23197202D-01 0.79732539D+04 0.79732539D+04 0.79732539D+04 0.12196654D+01  1  2  1  1  6  2        3 0.386640091793D-04 0.100000000000D+01
  </mgrwgt>
  </event>
  <event>
  6     66 0.10827799E-05 0.26446536E+02 0.78161638E-02 0.12663241E+00
       22 -1    0    0    0    0 0.00000000E+00 0.00000000E+00 0.51727167E+03 0.51727167E+03 0.00000000E+00 0.0000E+00 0.9000E+01
        1 -1    0    0  501    0 0.00000000E+00 0.00000000E+00 -.65142089E+01 0.65142089E+01 0.00000000E+00 0.0000E+00 0.9000E+01
      -24  2    1    2    0    0 -.26319120E+02 -.25929093E+01 0.44539674E+03 0.45327742E+03 0.79892066E+02 0.0000E+00 0.0000E+00
  9900012  1    3    3    0    0 -.22134556E+02 0.20555775E+02 0.35961232E+03 0.36432609E+03 0.50000000E+02 0.0000E+00 0.9000E+01
       13  1    3    3    0    0 -.41845637E+01 -.23148684E+02 0.85784420E+02 0.88951329E+02 0.00000000E+00 0.0000E+00 0.9000E+01
        2  1    1    2  501    0 0.26319120E+02 0.25929093E+01 0.65360723E+02 0.70508463E+02 0.00000000E+00 0.0000E+00 0.9000E+01
#aMCatNLO 1  0  0  2  5 0.81359671D+01 0.00000000D+00  -5  6  0 0.00000000D+00 0.00000000D+00 0.00000000D+00 0.00000000D+00 0.00000000D+00
  <mgrwgt>
 0.1161787875D-03   11    2    0
 0.580483913681563D+02 0.000000000000000D+00 0.000000000000000D+00 0.580483913681563D+02
 0.580483913681563D+02 0.000000000000000D+00 0.000000000000000D+00 -.580483913681563D+02
 0.616225969061645D+02 -.221345563562425D+02 0.205557749998664D+02 0.196180013897142D+02
 0.239146791786238D+02 -.418456372964576D+01 -.231486842551818D+02 -.430577796256784D+01
 0.305595066515243D+02 0.263191200858883D+02 0.259290925531542D+01 -.153122234271464D+02
 0.000000000000000D+00 -.000000000000000D+00 -.000000000000000D+00 -.000000000000000D+00
 0.596535933718280D+02 0.000000000000000D+00 0.000000000000000D+00 0.596535933718280D+02
 0.676353768685995D+02 0.000000000000000D+00 0.000000000000000D+00 -.676353768685995D+02
 0.626419234281969D+02 -.210498128953163D+02 0.244141346217601D+02 0.196180013897142D+02
 0.224523437261676D+02 -.377981163497500D+01 -.217090082440252D+02 -.430577796256784D+01
 0.312443126254063D+02 0.268586247541599D+02 0.451189111864450D+01 -.153122234271464D+02
 0.109503904606566D+02 -.202900022386857D+01 -.721701749637948D+01 -.798178349677145D+01
0.148683518253D-06 0.000000000000D+00 0.000000000000D+00 0.258346866024D-06 0.000000000000D+00  6 22 1 9900012 13 2 21 0 0.79580257D-01 0.10021860D-02 0.29369258D+04 0.29369258D+04 0.29369258D+04 0.12687327D+01  1  2  2  1  6  2        1 0.365925145217D-04 0.100000000000D+01
0.196148659872D-08 0.000000000000D+00 -.285491929680D-09 0.258346866024D-06 0.000000000000D+00  6 22 1 9900012 13 2 21 2 0.79580257D-01 0.10021860D-02 0.29369258D+04 0.29369258D+04 0.29369258D+04 0.12687327D+01  1  2  3  1  6  2        1 0.777060894862D-06 0.100000000000D+01
-.157735899852D-07 0.000000000000D+00 0.000000000000D+00 0.258346866024D-06 0.000000000000D+00  6 22 1 9900012 13 2 21 2 0.79580257D-01 0.10021860D-02 0.29369258D+04 0.29369258D+04 0.29369258D+04 0.12687327D+01  1  2 15  1  6  2        1 -.624885225169D-05 0.100000000000D+01
0.364863478341D-06 0.000000000000D+00 0.000000000000D+00 0.258346866024D-06 0.000000000000D+00  6 22 1 9900012 13 2 21 2 0.79580257D-01 0.11999923D-02 0.33789857D+04 0.33789857D+04 0.33789857D+04 0.12614713D+01  1  2 12  1  6  2        1 0.114296255642D-03 0.100000000000D+01
-.134187027202D-06 0.000000000000D+00 0.000000000000D+00 0.258346866024D-06 0.000000000000D+00  6 22 1 9900012 13 2 21 2 0.79580257D-01 0.10021860D-02 0.29369258D+04 0.29369258D+04 0.29369258D+04 0.12687327D+01  1  2  4  1  6  2        1 -.531594207702D-04 0.100000000000D+01
-.651198234803D-06 0.000000000000D+00 -.110541717677D-06 0.258346866024D-06 0.000000000000D+00  6 22 1 9900012 13 2 21 2 0.79580257D-01 0.12000233D-02 0.29369258D+04 0.29369258D+04 0.29369258D+04 0.12687327D+01  1  2  5  1  6  2        1 -.202551101917D-03 0.100000000000D+01
0.662109080360D-06 0.000000000000D+00 0.108771752981D-06 0.258346866024D-06 0.000000000000D+00  6 22 1 9900012 13 2 21 2 0.79580257D-01 0.10021860D-02 0.29369258D+04 0.29369258D+04 0.29369258D+04 0.12687327D+01  1  2  6  1  6  2        1 0.262300581006D-03 0.100000000000D+01
0.448258464407D-09 0.000000000000D+00 0.000000000000D+00 0.258346866024D-06 0.178067737406D-07  6 22 1 9900012 13 2 21 2 0.81780876D-01 0.11677021D-02 0.33789857D+04 0.33789857D+04 0.33789857D+04 0.12614713D+01  1  2 11  1  6  2        1 0.138616853620D-06 0.100000000000D+01
0.962836837839D-08 0.000000000000D+00 0.000000000000D+00 0.258346866024D-06 0.000000000000D+00  6 22 21 9900012 13 2 -1 2 0.79580257D-01 0.11999923D-02 0.33789857D+04 0.33789857D+04 0.33789857D+04 0.12614713D+01  1  2 12  3  6  2        1 0.547422299714D-04 0.100000000000D+01
-.161244604502D-07 0.000000000000D+00 -.291740826449D-08 0.258346866024D-06 0.000000000000D+00  6 22 21 9900012 13 2 -1 2 0.79580257D-01 0.12000233D-02 0.29369258D+04 0.29369258D+04 0.29369258D+04 0.12687327D+01  1  2  5  3  6  2        1 -.908825889681D-04 0.100000000000D+01
0.308112007438D-10 0.000000000000D+00 0.000000000000D+00 0.258346866024D-06 0.864894674928D-09  6 22 21 9900012 13 2 -1 2 0.81780876D-01 0.11677021D-02 0.33789857D+04 0.33789857D+04 0.33789857D+04 0.12614713D+01  1  2 11  3  6  2        1 0.173492544219D-06 0.100000000000D+01
  </mgrwgt>
  </event>
  <event>
  6     66 -.10827799E-05 0.13978704E+03 0.78161638E-02 0.10336077E+00
       22 -1    0    0    0    0 0.00000000E+00 0.00000000E+00 0.26712999E+03 0.26712999E+03 0.00000000E+00 0.0000E+00 0.9000E+01
        1 -1    0    0  501    0 -.00000000E+00 -.00000000E+00 -.28977334E+03 0.28977334E+03 0.00000000E+00 0.0000E+00 0.9000E+01
  9900012  1    1    2    0    0 -.67265138E+02 0.31587731E+02 -.73480580E+02 0.11585240E+03 0.50000000E+02 0.0000E+00 0.9000E+01
       13  1    1    2    0    0 0.21859185E+03 0.15100221E+02 0.13264021E+03 0.25613246E+03 0.00000000E+00 0.0000E+00 0.9000E+01
        2  1    1    2  502    0 -.13929697E+03 -.43685211E+02 -.88609925E+02 0.17077401E+03 0.00000000E+00 0.0000E+00 0.9000E+01
       21  1    1    2  501  502 -.12029733E+02 -.30027413E+01 0.68069416E+01 0.14144447E+02 0.00000000E+00 0.0000E+00 0.9000E+01
#aMCatNLO 2  0  0  5  2 0.13311036D+02 0.00000000D+00  -5  6  0 0.00000000D+00 0.00000000D+00 0.00000000D+00 0.00000000D+00 0.00000000D+00
  <mgrwgt>
 -.2337773875D-03    3    2    0
 0.278221400717683D+03 0.000000000000000D+00 0.000000000000000D+00 0.278221400717683D+03
 0.278221400717683D+03 -.000000000000000D+00 -.000000000000000D+00 -.278221400717683D+03
 0.111996023282486D+03 -.660698476372090D+02 0.319565074331649D+02 -.682397691742962D+02
 0.264881824658858D+03 0.221390053369508D+03 0.159635363351519D+02 0.144547538240292D+03
 0.179564953494023D+03 -.155320205732299D+03 -.479200437683168D+02 -.763077690659957D+02
 0.000000000000000D+00 -.000000000000000D+00 0.000000000000000D+00 0.000000000000000D+00
 0.278221400717683D+03 0.000000000000000D+00 0.000000000000000D+00 0.278221400717683D+03
 0.278221400717683D+03 -.000000000000000D+00 -.000000000000000D+00 -.278221400717683D+03
 0.112958136243813D+03 -.672651382648956D+02 0.315877313365550D+02 -.688270073945536D+02
 0.261741975229521D+03 0.218591845531748D+03 0.151002214726322D+02 0.143172797610277D+03
 0.167309541677286D+03 -.139296974550758D+03 -.436852114780100D+02 -.817339459183905D+02
 0.144331482847466D+02 -.120297327160944D+02 -.300274133117713D+01 0.738815570266722D+01
-.412994373115D-04 0.000000000000D+00 0.000000000000D+00 0.823923123243D-10 0.000000000000D+00  6 22 1 9900012 13 2 21 2 0.41096921D-01 0.44580513D-01 0.54537621D+05 0.54537621D+05 0.54537621D+05 0.11396797D+01  1  2 13  2  6  5        2 -.348294577211D-03 0.100000000000D+01
-.127033965127D-04 0.000000000000D+00 0.000000000000D+00 0.823923123243D-10 0.000000000000D+00  6 22 1 9900012 13 2 21 2 0.41096921D-01 0.44580513D-01 0.56006757D+05 0.56006757D+05 0.56006757D+05 0.11386847D+01  1  2  8  2  6  5        2 -.107068072477D-03 0.100000000000D+01
0.262747319153D-04 0.000000000000D+00 0.000000000000D+00 0.823923123243D-10 0.100798778915D-11  6 22 1 9900012 13 2 21 2 0.41096921D-01 0.44580513D-01 0.54537621D+05 0.54537621D+05 0.54537621D+05 0.11396797D+01  1  2  1  2  6  5        2 0.221585262161D-03 0.100000000000D+01
  </mgrwgt>
  </event>
  <event>
  6     66 0.10827799E-05 0.43771826E+02 0.78161638E-02 0.12112663E+00
       22 -1    0    0    0    0 0.00000000E+00 0.00000000E+00 0.18904761E+02 0.18904761E+02 0.00000000E+00 0.0000E+00 0.9000E+01
        1 -1    0    0  501    0 -.00000000E+00 -.00000000E+00 -.56874277E+03 0.56874277E+03 0.00000000E+00 0.0000E+00 0.9000E+01
      -24  2    1    2    0    0 0.36269082E+00 -.55563004E+02 -.50819481E+03 0.51821026E+03 0.84808771E+02 0.0000E+00 0.0000E+00
  9900012  1    3    3    0    0 0.21176637E+02 -.15872729E+02 -.28233992E+03 0.28795178E+03 0.50000000E+02 0.0000E+00 0.9000E+01
       13  1    3    3    0    0 -.20813946E+02 -.39690276E+02 -.22585489E+03 0.23025848E+03 0.00000000E+00 0.0000E+00 0.9000E+01
        2  1    1    2  501    0 -.36269082E+00 0.55563004E+02 -.41643202E+02 0.69437276E+02 0.00000000E+00 0.0000E+00 0.9000E+01
#aMCatNLO 1  0  0  5  2 0.14638001D+02 0.00000000D+00  -5  6  0 0.00000000D+00 0.00000000D+00 0.00000000D+00 0.00000000D+00 0.00000000D+00
  <mgrwgt>
 0.9031274394D-04    5    2    0
 0.103691591347456D+03 0.000000000000000D+00 0.000000000000000D+00 0.103691591347456D+03
 0.103691591347456D+03 -.000000000000000D+00 -.000000000000000D+00 -.103691591347456D+03
 0.673773500914594D+02 0.211766372548274D+02 -.158727285252024D+02 -.365966368549047D+02
 0.536553958849097D+02 -.208139464344370D+02 -.396902756169311D+02 -.295019179519369D+02
 0.863504367185424D+02 -.362690820390393D+00 0.555630041421335D+02 0.660985548068416D+02
 0.000000000000000D+00 -.000000000000000D+00 0.000000000000000D+00 0.000000000000000D+00
 0.103691591347456D+03 0.000000000000000D+00 0.000000000000000D+00 0.103691591347456D+03
 0.103691591347456D+03 -.000000000000000D+00 -.000000000000000D+00 -.103691591347456D+03
 0.663701800007870D+02 0.211690763429726D+02 -.147144224609492D+02 -.352186991776098D+02
 0.523816021375354D+02 -.208199408359399D+02 -.387719536280324D+02 -.284094688079296D+02
 0.307247560471087D+02 0.429045150227206D+00 0.630257881497845D+01 0.300683231107821D+02
 0.579066445094804D+02 -.778180657259871D+00 0.471837972740031D+02 0.335598448747573D+02
0.966637156925D-06 0.000000000000D+00 0.000000000000D+00 0.173210089831D-07 0.000000000000D+00  6 22 1 9900012 13 2 21 0 0.29084247D-02 0.87498888D-01 0.61585554D+04 0.61585554D+04 0.61585554D+04 0.12317864D+01  1  2  2  2  6  5        2 0.107519775822D-03 0.100000000000D+01
-.634245941957D-07 0.000000000000D+00 -.185607060200D-08 0.173210089831D-07 0.000000000000D+00  6 22 1 9900012 13 2 21 2 0.29084247D-02 0.87498888D-01 0.61585554D+04 0.61585554D+04 0.61585554D+04 0.12317864D+01  1  2  3  2  6  5        2 -.107041797637D-04 0.100000000000D+01
-.781265562591D-07 0.000000000000D+00 0.000000000000D+00 0.173210089831D-07 0.000000000000D+00  6 22 1 9900012 13 2 21 2 0.29084247D-02 0.87498888D-01 0.61585554D+04 0.61585554D+04 0.61585554D+04 0.12317864D+01  1  2 15  2  6  5        2 -.131854324513D-04 0.100000000000D+01
0.500332594618D-06 0.000000000000D+00 0.000000000000D+00 0.173210089831D-07 0.000000000000D+00  6 22 1 9900012 13 2 21 2 0.29084247D-02 0.87498888D-01 0.59113718D+04 0.59113718D+04 0.59113718D+04 0.12337431D+01  1  2 12  2  6  5        2 0.844490909318D-04 0.100000000000D+01
-.460783496333D-06 0.000000000000D+00 0.000000000000D+00 0.173210089831D-07 0.000000000000D+00  6 22 1 9900012 13 2 21 2 0.29084247D-02 0.87498888D-01 0.61585554D+04 0.61585554D+04 0.61585554D+04 0.12317864D+01  1  2  5  2  6  5        2 -.777665106012D-04 0.100000000000D+01
  </mgrwgt>
  </event>
  <event>
  7     66 0.10827799E-05 0.14259236E+03 0.78161638E-02 0.10902805E+00
       22 -1    0    0    0    0 0.00000000E+00 0.00000000E+00 0.42687682E+02 0.42687682E+02 0.00000000E+00 0.0000E+00 0.9000E+01
        3 -1    0    0  501    0 -.00000000E+00 -.00000000E+00 -.72668491E+03 0.72668491E+03 0.00000000E+00 0.0000E+00 0.9000E+01
      -24  2    1    2    0    0 -.11342912E+03 -.94175840E+02 -.19015653E+03 0.25365952E+03 0.80301872E+02 0.0000E+00 0.0000E+00
  9900012  1    3    3    0    0 -.59870657E+02 -.29953855E+02 -.83477636E+02 0.11811115E+03 0.50000000E+02 0.0000E+00 0.9000E+01
       13  1    3    3    0    0 -.53558463E+02 -.64221984E+02 -.10667890E+03 0.13554837E+03 0.00000000E+00 0.0000E+00 0.9000E+01
        4  1    1    2  502    0 0.91073238E+02 0.71914119E+02 -.36173701E+03 0.37989425E+03 0.00000000E+00 0.0000E+00 0.9000E+01
       21  1    1    2  501  502 0.22355883E+02 0.22261720E+02 -.13210368E+03 0.13581882E+03 0.00000000E+00 0.0000E+00 0.9000E+01
#aMCatNLO 2  0  0  5  2 0.79412060D+01 0.00000000D+00  -5  6  0 0.00000000D+00 0.00000000D+00 0.00000000D+00 0.00000000D+00 0.00000000D+00
  <mgrwgt>
 0.8023832761D-05    2    2    0
 0.176126359264216D+03 0.000000000000000D+00 0.000000000000000D+00 0.176126359264216D+03
 0.176126359264216D+03 -.000000000000000D+00 -.000000000000000D+00 -.176126359264216D+03
 0.961121281971772D+02 -.600634583178206D+02 -.301139306194505D+02 0.471494787260790D+02
 0.891673054439308D+02 -.537372943709745D+02 -.643704609985513D+02 0.303241703044366D+02
 0.166973284887325D+03 0.113800752688795D+03 0.944843916180018D+02 -.774736490305156D+02
 0.000000000000000D+00 0.000000000000000D+00 0.000000000000000D+00 -.000000000000000D+00
 0.176126359264216D+03 0.000000000000000D+00 0.000000000000000D+00 0.176126359264216D+03
 0.176126359264216D+03 -.000000000000000D+00 -.000000000000000D+00 -.176126359264216D+03
 0.958772252844650D+02 -.598706572015234D+02 -.299538552618961D+02 0.470182229508422D+02
 0.889109595175201D+02 -.535584631615860D+02 -.642219843178426D+02 0.302024250081665D+02
 0.127332190789234D+03 0.910732377570078D+02 0.719141192032634D+02 -.524167114082921D+02
 0.401323429372140D+02 0.223558826061016D+02 0.222617203764753D+02 -.248039365507166D+02
-.342218870337D-05 0.000000000000D+00 0.000000000000D+00 0.102599483968D-05 0.000000000000D+00  6 22 3 9900012 13 4 21 2 0.65673357D-02 0.11179768D+00 0.24770542D+05 0.24770542D+05 0.24770542D+05 0.11705071D+01  1  2 13  2  6  5        4 -.204671376426D-04 0.100000000000D+01
0.476380619344D-05 0.000000000000D+00 0.000000000000D+00 0.102599483968D-05 0.100603796955D-06  6 22 3 9900012 13 4 21 2 0.65673357D-02 0.11179768D+00 0.24770542D+05 0.24770542D+05 0.24770542D+05 0.11705071D+01  1  2  1  2  6  5        4 0.284909704038D-04 0.100000000000D+01
  </mgrwgt>
  </event>
  <event>
  6     66 0.10827799E-05 0.50903634E+02 0.78161638E-02 0.12075407E+00
       22 -1    0    0    0    0 0.00000000E+00 0.00000000E+00 0.17010605E+03 0.17010605E+03 0.00000000E+00 0.0000E+00 0.9000E+01
        1 -1    0    0  501    0 0.00000000E+00 0.00000000E+00 -.45798765E+02 0.45798765E+02 0.00000000E+00 0.0000E+00 0.9000E+01
      -24  2    1    2    0    0 -.44760373E+02 -.32160700E+02 0.12825587E+03 0.16064730E+03 0.79499603E+02 0.0000E+00 0.0000E+00
  9900012  1    3    3    0    0 -.33685618E+02 -.47950531E+02 0.96259357E+02 0.12328762E+03 0.50000000E+02 0.0000E+00 0.9000E+01
       13  1    3    3    0    0 -.11074755E+02 0.15789831E+02 0.31996511E+02 0.37359680E+02 0.00000000E+00 0.0000E+00 0.9000E+01
        2  1    1    2  501    0 0.44760373E+02 0.32160700E+02 -.39485812E+01 0.55257514E+02 0.00000000E+00 0.0000E+00 0.9000E+01
#aMCatNLO 1  0  0  2  5 0.13536742D+02 0.00000000D+00  -5  6  0 0.00000000D+00 0.00000000D+00 0.00000000D+00 0.00000000D+00 0.00000000D+00
  <mgrwgt>
 0.8737346192D-04    6    2    0
 0.882646428696842D+02 0.000000000000000D+00 0.000000000000000D+00 0.882646428696842D+02
 0.882646428696842D+02 0.000000000000000D+00 0.000000000000000D+00 -.882646428696842D+02
 0.830040878572603D+02 -.336856177419887D+02 -.479505309117550D+02 0.309144681926963D+02
 0.231617966684955D+02 -.110747552299493D+02 0.157898312850915D+02 0.128257494711921D+02
 0.703634012136125D+02 0.447603729719381D+02 0.321606996266635D+02 -.437402176638884D+02
 0.000000000000000D+00 0.000000000000000D+00 -.000000000000000D+00 0.000000000000000D+00
 0.947456786523950D+02 0.000000000000000D+00 0.000000000000000D+00 0.947456786523950D+02
 0.893367944699674D+02 0.000000000000000D+00 0.000000000000000D+00 -.893367944699674D+02
 0.819482545581951D+02 -.343246457146985D+02 -.456248920881787D+02 0.309144681926963D+02
 0.237028602317606D+02 -.112563096489541D+02 0.164505691924461D+02 0.128257494711921D+02
 0.709536659464981D+02 0.442129084278508D+02 0.341531081793940D+02 -.437402176638884D+02
 0.747769238590857D+01 0.136804693580181D+01 -.497878528366132D+01 0.540888418242762D+01
0.349476214274D-06 0.000000000000D+00 0.000000000000D+00 0.458521974703D-06 0.000000000000D+00  6 22 1 9900012 13 2 21 0 0.26170162D-01 0.70459639D-02 0.57331433D+04 0.57331433D+04 0.57331433D+04 0.12352118D+01  1  2  2  1  6  2        1 0.424284367217D-04 0.100000000000D+01
-.448146974983D-09 0.000000000000D+00 -.671040341005D-09 0.458521974703D-06 0.000000000000D+00  6 22 1 9900012 13 2 21 2 0.26170162D-01 0.70459639D-02 0.57331433D+04 0.57331433D+04 0.57331433D+04 0.12352118D+01  1  2  3  1  6  2        1 -.830123628816D-07 0.100000000000D+01
-.389419645269D-07 0.000000000000D+00 0.000000000000D+00 0.458521974703D-06 0.000000000000D+00  6 22 1 9900012 13 2 21 2 0.26170162D-01 0.70459639D-02 0.57331433D+04 0.57331433D+04 0.57331433D+04 0.12352118D+01  1  2 15  1  6  2        1 -.721340245741D-05 0.100000000000D+01
0.289965861434D-06 0.000000000000D+00 0.000000000000D+00 0.458521974703D-06 0.000000000000D+00  6 22 1 9900012 13 2 21 2 0.26170162D-01 0.76552020D-02 0.61510782D+04 0.61510782D+04 0.61510782D+04 0.12318443D+01  1  2 12  1  6  2        1 0.482341030103D-04 0.100000000000D+01
-.268241480559D-07 0.000000000000D+00 0.000000000000D+00 0.458521974703D-06 0.000000000000D+00  6 22 1 9900012 13 2 21 2 0.26170162D-01 0.70459639D-02 0.57331433D+04 0.57331433D+04 0.57331433D+04 0.12352118D+01  1  2  4  1  6  2        1 -.496876256387D-05 0.100000000000D+01
0.426169460891D-08 0.000000000000D+00 0.000000000000D+00 0.458521974703D-06 0.000000000000D+00  6 22 21 9900012 13 2 -1 2 0.26170162D-01 0.76552020D-02 0.61510782D+04 0.61510782D+04 0.61510782D+04 0.12318443D+01  1  2 12  3  6  2        1 0.897609957552D-05 0.100000000000D+01
  </mgrwgt>
  </event>
  <event>
  7     66 -.10827799E-05 0.55633520E+02 0.78161638E-02 0.11847690E+00
       22 -1    0    0    0    0 0.00000000E+00 0.00000000E+00 0.26940629E+02 0.26940629E+02 0.00000000E+00 0.0000E+00 0.9000E+01
        1 -1    0    0  502    0 0.00000000E+00 0.00000000E+00 -.20367760E+04 0.20367760E+04 0.00000000E+00 0.0000E+00 0.9000E+01
      -24  2    1    2    0    0 0.51847638E+02 -.38541401E+02 -.75879569E+02 0.12752558E+03 0.79570392E+02 0.0000E+00 0.0000E+00
  9900012  1    3    3    0    0 0.18510188E+02 -.77695021E+01 -.56856253E+02 0.78330235E+02 0.50000000E+02 0.0000E+00 0.9000E+01
       13  1    3    3    0    0 0.33337451E+02 -.30771899E+02 -.19023316E+02 0.49195345E+02 0.00000000E+00 0.0000E+00 0.9000E+01
        2  1    1    2  501    0 -.58155073E+02 0.24765976E+02 -.18344284E+04 0.18355171E+04 0.00000000E+00 0.0000E+00 0.9000E+01
       21  1    1    2  502  501 0.63074351E+01 0.13775425E+02 -.99527342E+02 0.10067392E+03 0.00000000E+00 0.0000E+00 0.9000E+01
#aMCatNLO 2  0  0  2  5 0.18136588D+02 0.00000000D+00  -5  6  0 0.00000000D+00 0.00000000D+00 0.00000000D+00 0.00000000D+00 0.00000000D+00
  <mgrwgt>
 -.1853509890D-03    3    2    0
 0.225848607532030D+03 0.000000000000000D+00 0.000000000000000D+00 0.225848607532030D+03
 0.225848607532030D+03 0.000000000000000D+00 0.000000000000000D+00 -.225848607532030D+03
 0.999837107641051D+02 0.199054109362347D+02 -.472233735539641D+01 0.841321375190342D+02
 0.132873404973499D+03 0.351951322231726D+02 -.267147264647753D+02 0.125311483140841D+03
 0.218840099326455D+03 -.551005431594072D+02 0.314370638201717D+02 -.209443620659875D+03
 0.000000000000000D+00 0.000000000000000D+00 0.000000000000000D+00 -.000000000000000D+00
 0.230888861894779D+03 0.000000000000000D+00 0.000000000000000D+00 0.230888861894779D+03
 0.237655583927682D+03 0.000000000000000D+00 0.000000000000000D+00 -.237655583927682D+03
 0.999059996836033D+02 0.185101876400387D+02 -.776950209402286D+01 0.841321375190342D+02
 0.133271389249116D+03 0.333374507235647D+02 -.307718989450782D+02 0.125311483140841D+03
 0.218773847557993D+03 -.581550734404603D+02 0.247659761234077D+02 -.209443620659875D+03
 0.165932093317491D+02 0.630743507685683D+01 0.137754249156934D+02 -.676672203290306D+01
-.215413156897D-04 0.000000000000D+00 0.000000000000D+00 0.368374339439D-04 0.000000000000D+00  6 22 1 9900012 13 2 21 2 0.40542340D-02 0.32034318D+00 0.78861104D+04 0.78861104D+04 0.78861104D+04 0.12201740D+01  1  2 13  1  6  2        1 -.192105486046D-03 0.100000000000D+01
-.133961517332D-06 0.000000000000D+00 0.000000000000D+00 0.368374339439D-04 0.000000000000D+00  6 22 1 9900012 13 2 21 2 0.40542340D-02 0.29778259D+00 0.65324295D+04 0.65324295D+04 0.65324295D+04 0.12289882D+01  1  2  8  1  6  2        1 -.150060003786D-05 0.100000000000D+01
0.891449144141D-06 0.000000000000D+00 0.000000000000D+00 0.368374339439D-04 0.637156859438D-07  6 22 1 9900012 13 2 21 2 0.41447122D-02 0.31335015D+00 0.78861104D+04 0.78861104D+04 0.78861104D+04 0.12201740D+01  1  2  1  1  6  2        1 0.825509708859D-05 0.100000000000D+01
  </mgrwgt>
  </event>
  <event>
  6     66 0.10827799E-05 0.25062941E+02 0.78161638E-02 0.12727617E+00
       22 -1    0    0    0    0 0.00000000E+00 0.00000000E+00 0.25069913E+02 0.25069913E+02 0.00000000E+00 0.0000E+00 0.9000E+01
        1 -1    0    0  501    0 -.00000000E+00 -.00000000E+00 -.89915799E+03 0.89915799E+03 0.00000000E+00 0.0000E+00 0.9000E+01
      -24  2    1    2    0    0 -.20569317E+02 -.14319714E+02 -.44642936E+02 0.94404191E+02 0.79315878E+02 0.0000E+00 0.0000E+00
  9900012  1    3    3    0    0 -.39040125E+02 -.11962441E+02 -.34144525E+02 0.73027940E+02 0.50000000E+02 0.0000E+00 0.9000E+01
       13  1    3    3    0    0 0.18470808E+02 -.23572732E+01 -.10498411E+02 0.21376251E+02 0.00000000E+00 0.0000E+00 0.9000E+01
        2  1    1    2  501    0 0.20569317E+02 0.14319714E+02 -.82944514E+03 0.82982371E+03 0.00000000E+00 0.0000E+00 0.9000E+01
#aMCatNLO 1  0  0  5  2 0.78276656D+01 0.00000000D+00  -5  6  0 0.00000000D+00 0.00000000D+00 0.00000000D+00 0.00000000D+00 0.00000000D+00
  <mgrwgt>
 0.2334833949D-04    6    2    0
 0.150139310153929D+03 0.000000000000000D+00 0.000000000000000D+00 0.150139310153929D+03
 0.150139310153929D+03 -.000000000000000D+00 -.000000000000000D+00 -.150139310153929D+03
 0.125380678350224D+03 -.390401251912761D+02 -.119624410643321D+02 0.107485269373967D+03
 0.352339172009886D+02 0.184708080186541D+02 -.235727317677179D+01 0.299115602340335D+02
 0.139664024756645D+03 0.205693171726220D+02 0.143197142411039D+02 -.137396829608001D+03
 0.000000000000000D+00 0.000000000000000D+00 0.000000000000000D+00 0.000000000000000D+00
 0.150139310153929D+03 0.000000000000000D+00 0.000000000000000D+00 0.150139310153929D+03
 0.150139310153929D+03 -.000000000000000D+00 -.000000000000000D+00 -.150139310153929D+03
 0.125045316581121D+03 -.389851673521209D+02 -.119241811383752D+02 0.107118167598121D+03
 0.351537650510016D+02 0.184862551167909D+02 -.234651939095981D+01 0.298083782813792D+02
 0.606861634957771D+02 0.129236671603587D+02 -.520220484661240D+00 -.592918091949621D+02
 0.793933751799584D+02 0.757524507497134D+01 0.147909210139962D+02 -.776347366845376D+02
0.643602571523D-06 0.000000000000D+00 0.000000000000D+00 0.103856997464D-04 0.000000000000D+00  6 22 1 9900012 13 2 21 0 0.38569097D-02 0.13833200D+00 0.29288476D+04 0.29288476D+04 0.29288476D+04 0.12688767D+01  1  2  2  2  6  5        2 0.240038792948D-04 0.100000000000D+01
0.660335590458D-07 0.000000000000D+00 -.123580166955D-08 0.103856997464D-04 0.000000000000D+00  6 22 1 9900012 13 2 21 2 0.38569097D-02 0.13833200D+00 0.29288476D+04 0.29288476D+04 0.29288476D+04 0.12688767D+01  1  2  3  2  6  5        2 0.396521960845D-05 0.100000000000D+01
-.879991292856D-07 0.000000000000D+00 0.000000000000D+00 0.103856997464D-04 0.000000000000D+00  6 22 1 9900012 13 2 21 2 0.38569097D-02 0.13833200D+00 0.29288476D+04 0.29288476D+04 0.29288476D+04 0.12688767D+01  1  2 15  2  6  5        2 -.528422029665D-05 0.100000000000D+01
0.397796217863D-05 0.000000000000D+00 0.000000000000D+00 0.103856997464D-04 0.000000000000D+00  6 22 1 9900012 13 2 21 2 0.38569097D-02 0.13833200D+00 0.31753475D+04 0.31753475D+04 0.31753475D+04 0.12646737D+01  1  2 12  2  6  5        2 0.238435581830D-03 0.100000000000D+01
-.397635293701D-05 0.000000000000D+00 0.000000000000D+00 0.103856997464D-04 0.000000000000D+00  6 22 1 9900012 13 2 21 2 0.38569097D-02 0.13833200D+00 0.29288476D+04 0.29288476D+04 0.29288476D+04 0.12688767D+01  1  2  5  2  6  5        2 -.238774236370D-03 0.100000000000D+01
0.167188857798D-07 0.000000000000D+00 0.000000000000D+00 0.103856997464D-04 0.267353777522D-06  6 22 1 9900012 13 2 21 2 0.38569097D-02 0.13833200D+00 0.31753475D+04 0.31753475D+04 0.31753475D+04 0.12646737D+01  1  2 11  2  6  5        2 0.100211542479D-05 0.100000000000D+01
  </mgrwgt>
  </event>
  <event>
  6     66 -.10827799E-05 0.26625406E+02 0.78161638E-02 0.12977425E+00
       22 -1    0    0    0    0 0.00000000E+00 0.00000000E+00 0.14599574E+02 0.14599574E+02 0.00000000E+00 0.0000E+00 0.9000E+01
        1 -1    0    0  501    0 -.00000000E+00 -.00000000E+00 -.46491736E+03 0.46491736E+03 0.00000000E+00 0.0000E+00 0.9000E+01
      -24  2    1    2    0    0 -.78489031E+01 -.30436892E+02 -.10811834E+03 0.13587691E+03 0.76058846E+02 0.0000E+00 0.0000E+00
  9900012  1    3    3    0    0 -.40638812E+00 -.15980965E+02 -.40416203E+02 0.66249723E+02 0.50000000E+02 0.0000E+00 0.9000E+01
       13  1    3    3    0    0 -.74425150E+01 -.14455928E+02 -.67702142E+02 0.69627185E+02 0.00000000E+00 0.0000E+00 0.9000E+01
        2  1    1    2  501    0 0.78489031E+01 0.30436892E+02 -.34219944E+03 0.34364003E+03 0.00000000E+00 0.0000E+00 0.9000E+01
#aMCatNLO 1  0  0  5  2 0.47995857D+00 0.00000000D+00  -5  6  0 0.00000000D+00 0.00000000D+00 0.00000000D+00 0.00000000D+00 0.00000000D+00
  <mgrwgt>
 -.4562782138D-03    7    2    0
 0.823868646239794D+02 0.000000000000000D+00 0.000000000000000D+00 0.823868646239794D+02
 0.823868646239794D+02 -.000000000000000D+00 -.000000000000000D+00 -.823868646239794D+02
 0.823415805843593D+02 -.406388115666030D+00 -.159809645699882D+02 0.634395737158027D+02
 0.175995023954251D+02 -.744251502265049D+01 -.144559276919977D+02 -.673629046790069D+01
 0.648326462681744D+02 0.784890313831652D+01 0.304368922619860D+02 -.567032832479021D+02
 0.000000000000000D+00 0.000000000000000D+00 0.000000000000000D+00 -.000000000000000D+00
 0.823868646239794D+02 0.000000000000000D+00 0.000000000000000D+00 0.823868646239794D+02
 0.823868646239794D+02 -.000000000000000D+00 -.000000000000000D+00 -.823868646239794D+02
 0.823347407722918D+02 -.405306437115093D+00 -.159767699796185D+02 0.634317592831137D+02
 0.175993076098757D+02 -.744228381881081D+01 -.144550311175038D+02 -.673796076712315D+01
 0.575849171999091D+02 0.669396781179785D+01 0.273930519439207D+02 -.502079096263992D+02
 0.725476366588223D+01 0.115362244412806D+01 0.303874915320169D+01 -.648588888959139D+01
0.815594537275D-07 0.000000000000D+00 0.000000000000D+00 0.107677264446D-06 0.000000000000D+00  6 22 1 9900012 13 2 21 0 0.22460883D-02 0.71525748D-01 0.25092744D+04 0.25092744D+04 0.25092744D+04 0.12770400D+01  1  2  2  2  6  5        2 0.155118455299D-04 0.100000000000D+01
0.200306943681D-08 0.000000000000D+00 -.156604888705D-09 0.107677264446D-06 0.000000000000D+00  6 22 1 9900012 13 2 21 2 0.22460883D-02 0.71525748D-01 0.25092744D+04 0.25092744D+04 0.25092744D+04 0.12770400D+01  1  2  3  2  6  5        2 0.621289701478D-06 0.100000000000D+01
-.991555331137D-08 0.000000000000D+00 0.000000000000D+00 0.107677264446D-06 0.000000000000D+00  6 22 1 9900012 13 2 21 2 0.22460883D-02 0.71525748D-01 0.25092744D+04 0.25092744D+04 0.25092744D+04 0.12770400D+01  1  2 15  2  6  5        2 -.307549555877D-05 0.100000000000D+01
-.485061257712D-04 0.000000000000D+00 0.000000000000D+00 0.107677264446D-06 0.000000000000D+00  6 22 1 9900012 13 2 21 2 0.22460883D-02 0.71525748D-01 0.25092744D+04 0.25092744D+04 0.25092744D+04 0.12770400D+01  1  2  4  2  6  5        2 -.150450882263D-01 0.100000000000D+01
-.360269495896D-04 0.000000000000D+00 0.000000000000D+00 0.107677264446D-06 0.000000000000D+00  6 22 1 9900012 13 2 21 2 0.22460883D-02 0.71525748D-01 0.25092744D+04 0.25092744D+04 0.25092744D+04 0.12770400D+01  1  2  5  2  6  5        2 -.111744367641D-01 0.100000000000D+01
0.402823381491D-04 0.000000000000D+00 -.000000000000D+00 0.107677264446D-06 0.000000000000D+00  6 22 1 9900012 13 2 21 2 0.22460883D-02 0.71525748D-01 0.25092744D+04 0.25092744D+04 0.25092744D+04 0.12770400D+01  1  2  6  2  6  5        2 0.124943256502D-01 0.100000000000D+01
0.427374870871D-04 0.000000000000D+00 0.000000000000D+00 0.107677264446D-06 0.383927575463D-05  6 22 1 9900012 13 2 21 2 0.22460883D-02 0.71525748D-01 0.25100077D+04 0.25100077D+04 0.25100077D+04 0.12770244D+01  1  2 11  2  6  5        2 0.132558634868D-01 0.100000000000D+01
  </mgrwgt>
  </event>
  <event>
  6     66 0.10827799E-05 0.24565061E+02 0.78161638E-02 0.12424120E+00
       22 -1    0    0    0    0 0.00000000E+00 0.00000000E+00 0.12856473E+03 0.12856473E+03 0.00000000E+00 0.0000E+00 0.9000E+01
        1 -1    0    0  501    0 0.00000000E+00 0.00000000E+00 -.35681123E+02 0.35681123E+02 0.00000000E+00 0.0000E+00 0.9000E+01
      -24  2    1    2    0    0 0.20687472E+02 -.13246537E+02 0.10713858E+03 0.13584432E+03 0.79822064E+02 0.0000E+00 0.0000E+00
  9900012  1    3    3    0    0 0.34453237E+02 0.20389928E+01 0.65119489E+02 0.89060265E+02 0.50000000E+02 0.0000E+00 0.9000E+01
       13  1    3    3    0    0 -.13765766E+02 -.15285530E+02 0.42019096E+02 0.46784059E+02 0.00000000E+00 0.0000E+00 0.9000E+01
        2  1    1    2  501    0 -.20687472E+02 0.13246537E+02 -.14254980E+02 0.28401526E+02 0.00000000E+00 0.0000E+00 0.9000E+01
#aMCatNLO 1  0  0  2  2 0.86605037D+02 0.00000000D+00  -5  6  0 0.00000000D+00 0.00000000D+00 0.00000000D+00 0.00000000D+00 0.00000000D+00
  <mgrwgt>
 0.5894017232D-04    4    2    0
 0.677298589433017D+02 0.000000000000000D+00 0.000000000000000D+00 0.677298589433017D+02
 0.677298589433017D+02 0.000000000000000D+00 0.000000000000000D+00 -.677298589433017D+02
 0.633342979373125D+02 0.344532374540685D+02 0.203899284346658D+01 0.178899478012132D+02
 0.279138510752548D+02 -.137657659524648D+02 -.152855299377044D+02 0.188690048523235D+02
 0.442115688740360D+02 -.206874715016037D+02 0.132465370942378D+02 -.367589526535367D+02
 0.000000000000000D+00 -.000000000000000D+00 -.000000000000000D+00 0.000000000000000D+00
 0.123435677484444D+03 0.000000000000000D+00 0.000000000000000D+00 0.123435677484444D+03
 0.714860632041758D+02 0.000000000000000D+00 0.000000000000000D+00 -.714860632041758D+02
 0.689260613493411D+02 0.426965499555237D+02 0.103805742952148D+02 0.178899478012132D+02
 0.246833478413500D+02 -.104875717171757D+02 -.119682561811304D+02 0.188690048523235D+02
 0.439972465615450D+02 -.151897332908467D+02 0.188098141236264D+02 -.367589526535367D+02
 0.573150849363836D+02 -.170192449475012D+02 -.172221322377107D+02 0.519496142802680D+02
0.288536369002D-06 0.000000000000D+00 0.000000000000D+00 0.367452804457D-06 0.000000000000D+00  6 22 1 9900012 13 2 21 0 0.19779189D-01 0.54894035D-02 0.28032062D+04 0.28032062D+04 0.28032062D+04 0.12711762D+01  1  2  2  1  6  2        1 0.683745419297D-04 0.100000000000D+01
0.135123350501D-07 0.000000000000D+00 -.554027815169D-09 0.367452804457D-06 0.000000000000D+00  6 22 1 9900012 13 2 21 2 0.19779189D-01 0.54894035D-02 0.28032062D+04 0.28032062D+04 0.28032062D+04 0.12711762D+01  1  2  3  1  6  2        1 0.517411116027D-05 0.100000000000D+01
-.369152177199D-07 0.000000000000D+00 0.000000000000D+00 0.367452804457D-06 0.000000000000D+00  6 22 1 9900012 13 2 21 2 0.19779189D-01 0.54894035D-02 0.28032062D+04 0.28032062D+04 0.28032062D+04 0.12711762D+01  1  2 15  1  6  2        1 -.141354872626D-04 0.100000000000D+01
-.123523568204D-08 0.000000000000D+00 0.000000000000D+00 0.367452804457D-06 0.000000000000D+00  6 22 1 9900012 13 2 21 2 0.19779189D-01 0.54894035D-02 0.28032062D+04 0.28032062D+04 0.28032062D+04 0.12711762D+01  1  2  4  1  6  2        1 -.472993505884D-06 0.100000000000D+01
  </mgrwgt>
  </event>
  <event>
  6     66 -.10827799E-05 0.36629389E+02 0.78161638E-02 0.12772925E+00
       22 -1    0    0    0    0 0.00000000E+00 0.00000000E+00 0.30847109E+03 0.30847109E+03 0.00000000E+00 0.0000E+00 0.9000E+01
        1 -1    0    0  501    0 0.00000000E+00 0.00000000E+00 -.11953497E+03 0.11953497E+03 0.00000000E+00 0.0000E+00 0.9000E+01
      -24  2    1    2    0    0 -.12593495E+01 -.36607734E+02 0.30002888E+03 0.31103036E+03 0.73354213E+02 0.0000E+00 0.0000E+00
  9900012  1    3    3    0    0 0.45922543E+01 -.16715784E+02 0.14007486E+03 0.14973802E+03 0.50000000E+02 0.0000E+00 0.9000E+01
       13  1    3    3    0    0 -.58516039E+01 -.19891950E+02 0.15995402E+03 0.16129234E+03 0.00000000E+00 0.0000E+00 0.9000E+01
        2  1    1    2  501    0 0.12593495E+01 0.36607734E+02 -.11109277E+03 0.11697570E+03 0.00000000E+00 0.0000E+00 0.9000E+01
#aMCatNLO 1  0  0  2  2 0.86605037D+02 0.00000000D+00  -5  6  0 0.00000000D+00 0.00000000D+00 0.00000000D+00 0.00000000D+00 0.00000000D+00
  <mgrwgt>
 -.4636389902D-04    1    2    0
 0.192023652377902D+03 0.000000000000000D+00 0.000000000000000D+00 0.192023652377902D+03
 0.192023652377902D+03 0.000000000000000D+00 0.000000000000000D+00 -.192023652377902D+03
 0.979659999437253D+02 0.459225434037902D+01 -.167157841512693D+02 0.824428948136553D+02
 0.101063092304286D+03 -.585160388602320D+01 -.198919495338291D+02 0.989131826492775D+02
 0.185018212507792D+03 0.125934954564418D+01 0.366077336850984D+02 -.181356077462933D+03
 0.000000000000000D+00 -.000000000000000D+00 -.000000000000000D+00 0.000000000000000D+00
 0.680134053064760D+03 0.000000000000000D+00 0.000000000000000D+00 0.680134053064760D+03
 0.240252834465907D+03 0.000000000000000D+00 0.000000000000000D+00 -.240252834465907D+03
 0.111249852390344D+03 0.553394950829829D+02 -.415199176039727D+01 0.824428948136553D+02
 0.108948664060832D+03 0.450886907433730D+02 -.728036165854421D+01 0.989131826492775D+02
 0.215003722632157D+03 0.982883710963385D+02 0.606297783285806D+02 -.181356077462933D+03
 0.485184648447333D+03 -.198716556922694D+03 -.491974249096391D+02 0.439881218598854D+03
-.219186934792D-05 0.000000000000D+00 0.000000000000D+00 0.921661649598D-06 0.000000000000D+00  6 22 1 9900012 13 2 21 2 0.47457090D-01 0.18389996D-01 0.30406387D+04 0.30406387D+04 0.30406387D+04 0.12669227D+01  1  2 14  1  6  2        1 -.463638990248D-04 0.100000000000D+01
  </mgrwgt>
  </event>
  <event>
  7     66 -.10827799E-05 0.39627589E+02 0.78161638E-02 0.12261863E+00
       22 -1    0    0    0    0 0.00000000E+00 0.00000000E+00 0.17905310E+04 0.17905310E+04 0.00000000E+00 0.0000E+00 0.9000E+01
        1 -1    0    0  502    0 0.00000000E+00 0.00000000E+00 -.27699676E+03 0.27699676E+03 0.00000000E+00 0.0000E+00 0.9000E+01
      -24  2    1    2    0    0 0.32285650E+02 -.12193924E+02 0.17863368E+04 0.17884666E+04 0.80141154E+02 0.0000E+00 0.0000E+00
  9900012  1    3    3    0    0 0.77863456E+01 -.26861739E+02 0.10312998E+04 0.10328899E+04 0.50000000E+02 0.0000E+00 0.9000E+01
       13  1    3    3    0    0 0.24499305E+02 0.14667816E+02 0.75503701E+03 0.75557677E+03 0.00000000E+00 0.0000E+00 0.9000E+01
        2  1    1    2  501    0 -.43422619E+02 0.12546445E+02 -.24452825E+03 0.24867047E+03 0.00000000E+00 0.0000E+00 0.9000E+01
       21  1    1    2  502  501 0.11136968E+02 -.35252131E+00 -.28274315E+02 0.30390677E+02 0.00000000E+00 0.0000E+00 0.9000E+01
#aMCatNLO 2  0  0  2  5 0.11173596D+02 0.00000000D+00  -5  6  0 0.00000000D+00 0.00000000D+00 0.00000000D+00 0.00000000D+00 0.00000000D+00
  <mgrwgt>
 -.1517237093D-01    2    2    0
 0.665700709991909D+03 0.000000000000000D+00 0.000000000000000D+00 0.665700709991909D+03
 0.665700709991909D+03 0.000000000000000D+00 0.000000000000000D+00 -.665700709991909D+03
 0.386185231301337D+03 0.110163104757941D+02 -.269639782982415D+02 0.381825375863234D+03
 0.281927450219263D+03 0.268566612655184D+02 0.145931978158842D+02 0.280265669517889D+03
 0.663288738463219D+03 -.378729717413124D+02 0.123707804823574D+02 -.662091045381123D+03
 0.000000000000000D+00 0.000000000000000D+00 -.000000000000000D+00 -.000000000000000D+00
 0.666117689660647D+03 0.000000000000000D+00 0.000000000000000D+00 0.666117689660647D+03
 0.744570065780833D+03 0.000000000000000D+00 0.000000000000000D+00 -.744570065780833D+03
 0.386099466295960D+03 0.778634559147927D+01 -.268617393937085D+02 0.381825375863234D+03
 0.281716535314817D+03 0.244993048577139D+02 0.146678158211443D+02 0.280265669517889D+03
 0.663632043741020D+03 -.434226188392303D+02 0.125464448812464D+02 -.662091045381123D+03
 0.792397100896828D+02 0.111369683900371D+02 -.352521308682183D+00 -.784523761201866D+02
-.856136290115D-01 0.000000000000D+00 0.000000000000D+00 0.433542451575D-02 0.000000000000D+00  6 22 1 9900012 13 2 21 2 0.27529387D+00 0.42641580D-01 0.50542321D+04 0.50542321D+04 0.50542321D+04 0.12413183D+01  1  2 13  1  6  2        1 -.159836841600D-01 0.100000000000D+01
0.435044886932D-02 0.000000000000D+00 0.000000000000D+00 0.433542451575D-02 0.200260007568D-04  6 22 1 9900012 13 2 21 2 0.27546631D+00 0.42614887D-01 0.50542321D+04 0.50542321D+04 0.50542321D+04 0.12413183D+01  1  2  1  1  6  2        1 0.811313233322D-03 0.100000000000D+01
  </mgrwgt>
  </event>
  <event>
  7     66 -.10827799E-05 0.69340836E+02 0.78161638E-02 0.11467183E+00
       22 -1    0    0    0    0 0.00000000E+00 0.00000000E+00 0.24218464E+04 0.24218464E+04 0.00000000E+00 0.0000E+00 0.9000E+01
        1 -1    0    0  502    0 0.00000000E+00 0.00000000E+00 -.24741423E+03 0.24741423E+03 0.00000000E+00 0.0000E+00 0.9000E+01
      -24  2    1    2    0    0 -.85346591E+02 0.11997556E+02 0.24081874E+04 0.24110692E+04 0.80375051E+02 0.0000E+00 0.0000E+00
  9900012  1    3    3    0    0 -.77183360E+02 0.25900121E+02 0.22577060E+04 0.22597267E+04 0.50000000E+02 0.0000E+00 0.9000E+01
       13  1    3    3    0    0 -.81632316E+01 -.13902565E+02 0.15048135E+03 0.15134251E+03 0.00000000E+00 0.0000E+00 0.9000E+01
        2  1    1    2  501    0 0.74295741E+02 -.36307697E+02 -.18384220E+03 0.20158388E+03 0.00000000E+00 0.0000E+00 0.9000E+01
       21  1    1    2  502  501 0.11050850E+02 0.24310140E+02 -.49913031E+02 0.56607551E+02 0.00000000E+00 0.0000E+00 0.9000E+01
#aMCatNLO 2  0  0  2  5 0.26789600D+02 0.00000000D+00  -5  6  0 0.00000000D+00 0.00000000D+00 0.00000000D+00 0.00000000D+00 0.00000000D+00
  <mgrwgt>
 -.3124672019D-02    2    2    0
 0.685115218325188D+03 0.000000000000000D+00 0.000000000000000D+00 0.685115218325188D+03
 0.685115218325188D+03 0.000000000000000D+00 0.000000000000000D+00 -.685115218325188D+03
 0.643498308796015D+03 -.719939014625047D+02 0.373161168002379D+02 0.636407463031735D+03
 0.439742315622984D+02 -.780738887460437D+01 -.131197664762028D+02 0.412389312187555D+02
 0.682757896292062D+03 0.798012903371090D+02 -.241963503240351D+02 -.677646394250491D+03
 0.000000000000000D+00 0.000000000000000D+00 0.000000000000000D+00 -.000000000000000D+00
 0.686193708376621D+03 0.000000000000000D+00 0.000000000000000D+00 0.686193708376621D+03
 0.873221741942550D+03 0.000000000000000D+00 0.000000000000000D+00 -.873221741942550D+03
 0.643539079068722D+03 -.771833596423575D+02 0.259001212438919D+02 0.636407463031735D+03
 0.442783141664092D+02 -.816323160275114D+01 -.139025647689134D+02 0.412389312187555D+02
 0.682673231954853D+03 0.742957410777651D+02 -.363076967693969D+02 -.677646394250491D+03
 0.188924825129187D+03 0.110508501673436D+02 0.243101402944184D+02 -.187028033565929D+03
-.582671411043D-01 0.000000000000D+00 0.000000000000D+00 0.177186274718D-02 0.000000000000D+00  6 22 1 9900012 13 2 21 2 0.37200615D+00 0.38123647D-01 0.12216870D+05 0.12216870D+05 0.12216870D+05 0.12004202D+01  1  2 13  1  6  2        1 -.430696111773D-02 0.100000000000D+01
0.160613082587D-01 0.000000000000D+00 0.000000000000D+00 0.177186274718D-02 0.821579327240D-05  6 22 1 9900012 13 2 21 2 0.37259175D+00 0.38063728D-01 0.12216870D+05 0.12216870D+05 0.12216870D+05 0.12004202D+01  1  2  1  1  6  2        1 0.118228909882D-02 0.100000000000D+01
  </mgrwgt>
  </event>
  <event>
  7     66 -.10827799E-05 0.36070003E+02 0.78161638E-02 0.12515096E+00
       22 -1    0    0    0    0 0.00000000E+00 0.00000000E+00 0.45874031E+02 0.45874031E+02 0.00000000E+00 0.0000E+00 0.9000E+01
        1 -1    0    0  501    0 -.00000000E+00 -.00000000E+00 -.51496078E+03 0.51496078E+03 0.00000000E+00 0.0000E+00 0.9000E+01
      -24  2    1    2    0    0 -.24024397E+02 -.36876594E+02 -.50876991E+00 0.88857627E+02 0.77190441E+02 0.0000E+00 0.0000E+00
  9900012  1    3    3    0    0 -.28549661E+02 -.19758177E+02 0.17765752E+02 0.63412070E+02 0.50000000E+02 0.0000E+00 0.9000E+01
       13  1    3    3    0    0 0.45252641E+01 -.17118418E+02 -.18274522E+02 0.25445557E+02 0.00000000E+00 0.0000E+00 0.9000E+01
        2  1    1    2  502    0 0.17221335E+02 0.35584182E+02 -.45519862E+03 0.45691202E+03 0.00000000E+00 0.0000E+00 0.9000E+01
       21  1    1    2  501  502 0.68030616E+01 0.12924125E+01 -.13379356E+02 0.15065163E+02 0.00000000E+00 0.0000E+00 0.9000E+01
#aMCatNLO 2  0  0  5  2 0.76180717D+01 0.00000000D+00  -5  6  0 0.00000000D+00 0.00000000D+00 0.00000000D+00 0.00000000D+00 0.00000000D+00
  <mgrwgt>
 -.3165765507D-03    3    2    0
 0.153698818040445D+03 0.000000000000000D+00 0.000000000000000D+00 0.153698818040445D+03
 0.153698818040445D+03 -.000000000000000D+00 -.000000000000000D+00 -.153698818040445D+03
 0.144723133333892D+03 -.288994544538007D+02 -.202950973271226D+02 0.131140062066231D+03
 0.186673080199598D+02 0.448000198647496D+01 -.171878932505458D+02 0.574232501005308D+01
 0.144007194727039D+03 0.244194524673258D+02 0.374829905776684D+02 -.136882387076284D+03
 0.000000000000000D+00 0.000000000000000D+00 0.000000000000000D+00 0.000000000000000D+00
 0.153698818040445D+03 0.000000000000000D+00 0.000000000000000D+00 0.153698818040445D+03
 0.153698818040445D+03 -.000000000000000D+00 -.000000000000000D+00 -.153698818040445D+03
 0.142803227864074D+03 -.285496608809335D+02 -.197581766400821D+02 0.129179306422669D+03
 0.185376124233408D+02 0.452526406956146D+01 -.171184175636471D+02 0.548860998572092D+01
 0.138987810511465D+03 0.172213352369829D+02 0.355841816612753D+02 -.133247150434535D+03
 0.706898528201083D+01 0.680306157438916D+01 0.129241254245381D+01 -.142076597385477D+01
-.568251921001D-05 0.000000000000D+00 0.000000000000D+00 0.176138584546D-05 0.000000000000D+00  6 22 1 9900012 13 2 21 2 0.70575432D-02 0.79224735D-01 0.39085075D+04 0.39085075D+04 0.39085075D+04 0.12540707D+01  1  2 13  2  6  5        2 -.327933505208D-03 0.100000000000D+01
-.296830889444D-06 0.000000000000D+00 0.000000000000D+00 0.176138584546D-05 0.000000000000D+00  6 22 1 9900012 13 2 21 2 0.70575432D-02 0.79224735D-01 0.38261140D+04 0.38261140D+04 0.38261140D+04 0.12551453D+01  1  2  8  2  6  5        2 -.171353746626D-04 0.100000000000D+01
0.493722677123D-06 0.000000000000D+00 0.000000000000D+00 0.176138584546D-05 0.134502445130D-07  6 22 1 9900012 13 2 21 2 0.70575432D-02 0.79224735D-01 0.39085075D+04 0.39085075D+04 0.39085075D+04 0.12540707D+01  1  2  1  2  6  5        2 0.284923292163D-04 0.100000000000D+01
  </mgrwgt>
  </event>
  <event>
  7     66 0.10827799E-05 0.26647696E+02 0.78161638E-02 0.12355161E+00
       22 -1    0    0    0    0 0.00000000E+00 0.00000000E+00 0.11199214E+02 0.11199214E+02 0.00000000E+00 0.0000E+00 0.9000E+01
        1 -1    0    0  502    0 0.00000000E+00 0.00000000E+00 -.65913304E+03 0.65913304E+03 0.00000000E+00 0.0000E+00 0.9000E+01
      -24  2    1    2    0    0 0.65102112E+01 0.43457949E+02 -.20616669E+03 0.22545221E+03 0.79956333E+02 0.0000E+00 0.0000E+00
  9900012  1    3    3    0    0 -.16438403E+02 0.15499911E+02 -.13142559E+03 0.14241894E+03 0.50000000E+02 0.0000E+00 0.9000E+01
       13  1    3    3    0    0 0.22948614E+02 0.27958039E+02 -.74741100E+02 0.83033263E+02 0.00000000E+00 0.0000E+00 0.9000E+01
        2  1    1    2  501    0 0.13298234E+01 -.11819928E+02 -.38445383E+02 0.40243343E+02 0.00000000E+00 0.0000E+00 0.9000E+01
       21  1    1    2  502  501 -.78400346E+01 -.31638021E+02 -.40332175E+03 0.40463671E+03 0.00000000E+00 0.0000E+00 0.9000E+01
#aMCatNLO 2  0  0  2  5 0.34120344D+02 0.00000000D+00  -5  6  0 0.00000000D+00 0.00000000D+00 0.00000000D+00 0.00000000D+00 0.00000000D+00
  <mgrwgt>
 0.1339723057D-03    1    2    0
 0.492357227048222D+02 0.000000000000000D+00 0.000000000000000D+00 0.492357227048222D+02
 0.492357227048222D+02 0.000000000000000D+00 0.000000000000000D+00 -.492357227048222D+02
 0.541302354673582D+02 -.206649294222385D+02 -.155600009785310D+01 -.788636431463693D+00
 0.275667509259825D+02 0.204670958739333D+02 0.179440103268661D+02 0.436305357424122D+01
 0.167744590163037D+02 0.197833548305120D+00 -.163880102290130D+02 -.357441714277753D+01
 0.000000000000000D+00 -.000000000000000D+00 -.000000000000000D+00 -.000000000000000D+00
 0.550975787369342D+02 0.000000000000000D+00 0.000000000000000D+00 0.550975787369342D+02
 0.133976340399198D+03 0.000000000000000D+00 0.000000000000000D+00 -.133976340399198D+03
 0.548734021847538D+02 -.164384030000656D+02 0.154999105389723D+02 -.788636431463693D+00
 0.364324999059706D+02 0.229486142018245D+02 0.279580385421200D+02 0.436305357424122D+01
 0.124199676548225D+02 0.132982343748212D+01 -.118199284372359D+02 -.357441714277753D+01
 0.853480493905852D+02 -.784003463924103D+01 -.316380206438564D+02 -.788787616622636D+02
0.481915617964D-06 0.000000000000D+00 0.000000000000D+00 0.133827513007D-06 0.846227652154D-08  6 22 1 9900012 13 2 21 2 0.17229560D-02 0.10140508D+00 0.45919247D+04 0.45919247D+04 0.45919247D+04 0.12460318D+01  1  2  1  1  6  2        1 0.133972305729D-03 0.100000000000D+01
  </mgrwgt>
  </event>
  <event>
  6     66 0.10827799E-05 0.41401681E+02 0.78161638E-02 0.11910663E+00
       22 -1    0    0    0    0 0.00000000E+00 0.00000000E+00 0.21251959E+03 0.21251959E+03 0.00000000E+00 0.0000E+00 0.9000E+01
        1 -1    0    0  501    0 -.00000000E+00 -.00000000E+00 -.70082500E+03 0.70082500E+03 0.00000000E+00 0.0000E+00 0.9000E+01
      -24  2    1    2    0    0 -.15780800E+01 -.57456524E+02 0.20029202E+03 0.22235242E+03 0.77588409E+02 0.0000E+00 0.0000E+00
  9900012  1    3    3    0    0 0.15174862E+02 -.25952783E+02 0.14763641E+03 0.15874613E+03 0.50000000E+02 0.0000E+00 0.9000E+01
       13  1    3    3    0    0 -.16752942E+02 -.31503741E+02 0.52655613E+02 0.63606292E+02 0.00000000E+00 0.0000E+00 0.9000E+01
        2  1    1    2  501    0 0.15780800E+01 0.57456524E+02 -.68859744E+03 0.69099217E+03 0.00000000E+00 0.0000E+00 0.9000E+01
#aMCatNLO 1  0  0  5  2 0.15754586D+02 0.00000000D+00  -5  6  0 0.00000000D+00 0.00000000D+00 0.00000000D+00 0.00000000D+00 0.00000000D+00
  <mgrwgt>
 0.1142270542D-02    7    2    0
 0.385926208906668D+03 0.000000000000000D+00 0.000000000000000D+00 0.385926208906668D+03
 0.385926208906668D+03 -.000000000000000D+00 -.000000000000000D+00 -.385926208906668D+03
 0.281247515274669D+03 0.151748618090700D+02 -.259527832396025D+02 0.275129681167571D+03
 0.108578377732866D+03 -.167529417946579D+02 -.315037407733573D+02 0.102548122213968D+03
 0.382026524805800D+03 0.157807998558789D+01 0.574565240129596D+02 -.377677803381539D+03
 0.000000000000000D+00 0.000000000000000D+00 0.000000000000000D+00 -.000000000000000D+00
 0.385926208906668D+03 0.000000000000000D+00 0.000000000000000D+00 0.385926208906668D+03
 0.385926208906668D+03 -.000000000000000D+00 -.000000000000000D+00 -.385926208906668D+03
 0.279515205739402D+03 0.151821588751023D+02 -.256871033922327D+02 0.273383293218054D+03
 0.107911505285298D+03 -.167501246655719D+02 -.314011715459070D+02 0.101873905992512D+03
 0.356656656050118D+03 -.953103687772910D+01 0.639545889360582D+02 -.350746261840247D+03
 0.277690507385177D+02 0.110990026681987D+02 -.686631399791875D+01 -.245109373703184D+02
0.283034844411D-04 0.000000000000D+00 0.000000000000D+00 0.556457315676D-04 0.000000000000D+00  6 22 1 9900012 13 2 21 0 0.32695321D-01 0.10781923D+00 0.57381889D+04 0.57381889D+04 0.57381889D+04 0.12351696D+01  1  2  2  2  6  5        2 0.746659154217D-04 0.100000000000D+01
0.978591395130D-06 0.000000000000D+00 -.543464163662D-07 0.556457315676D-04 0.000000000000D+00  6 22 1 9900012 13 2 21 2 0.32695321D-01 0.10781923D+00 0.57381889D+04 0.57381889D+04 0.57381889D+04 0.12351696D+01  1  2  3  2  6  5        2 0.393855621394D-05 0.100000000000D+01
-.364077720131D-05 0.000000000000D+00 0.000000000000D+00 0.556457315676D-04 0.000000000000D+00  6 22 1 9900012 13 2 21 2 0.32695321D-01 0.10781923D+00 0.57381889D+04 0.57381889D+04 0.57381889D+04 0.12351696D+01  1  2 15  2  6  5        2 -.146531082750D-04 0.100000000000D+01
0.257300219337D-03 0.000000000000D+00 0.000000000000D+00 0.556457315676D-04 0.000000000000D+00  6 22 1 9900012 13 2 21 2 0.32695321D-01 0.10781923D+00 0.73554572D+04 0.73554572D+04 0.73554572D+04 0.12234125D+01  1  2 12  2  6  5        2 0.102434713779D-02 0.100000000000D+01
-.895856459646D-05 0.000000000000D+00 0.000000000000D+00 0.556457315676D-04 0.000000000000D+00  6 22 1 9900012 13 2 21 2 0.32695321D-01 0.10781923D+00 0.57381889D+04 0.57381889D+04 0.57381889D+04 0.12351696D+01  1  2  4  2  6  5        2 -.360557127673D-04 0.100000000000D+01
-.296969882812D-03 0.000000000000D+00 0.000000000000D+00 0.556457315676D-04 0.000000000000D+00  6 22 1 9900012 13 2 21 2 0.32695321D-01 0.10781923D+00 0.57381889D+04 0.57381889D+04 0.57381889D+04 0.12351696D+01  1  2  5  2  6  5        2 -.119522058249D-02 0.100000000000D+01
0.319338583571D-03 0.000000000000D+00 -.000000000000D+00 0.556457315676D-04 0.000000000000D+00  6 22 1 9900012 13 2 21 2 0.32695321D-01 0.10781923D+00 0.57381889D+04 0.57381889D+04 0.57381889D+04 0.12351696D+01  1  2  6  2  6  5        2 0.128524833647D-02 0.100000000000D+01
  </mgrwgt>
  </event>
  <event>
  6     66 0.10827799E-05 0.48232866E+02 0.78161638E-02 0.12117771E+00
       22 -1    0    0    0    0 0.00000000E+00 0.00000000E+00 0.38866177E+02 0.38866177E+02 0.00000000E+00 0.0000E+00 0.9000E+01
        1 -1    0    0  501    0 0.00000000E+00 0.00000000E+00 -.93686834E+03 0.93686834E+03 0.00000000E+00 0.0000E+00 0.9000E+01
      -24  2    1    2    0    0 -.53285073E+02 -.16346650E+02 -.24386476E+02 0.10034267E+03 0.79796241E+02 0.0000E+00 0.0000E+00
  9900012  1    3    3    0    0 -.28578501E+02 -.25345861E+02 -.34983663E+02 0.71993055E+02 0.50000000E+02 0.0000E+00 0.9000E+01
       13  1    3    3    0    0 -.24706572E+02 0.89992107E+01 0.10597187E+02 0.28349618E+02 0.00000000E+00 0.0000E+00 0.9000E+01
        2  1    1    2  501    0 0.53285073E+02 0.16346650E+02 -.87361569E+03 0.87539185E+03 0.00000000E+00 0.0000E+00 0.9000E+01
#aMCatNLO 1  0  0  2  5 0.87269576D+01 0.00000000D+00  -5  6  0 0.00000000D+00 0.00000000D+00 0.00000000D+00 0.00000000D+00 0.00000000D+00
  <mgrwgt>
 0.7269951632D-03   11    2    0
 0.190820573257560D+03 0.000000000000000D+00 0.000000000000000D+00 0.190820573257560D+03
 0.190820573257560D+03 0.000000000000000D+00 0.000000000000000D+00 -.190820573257560D+03
 0.101746639801491D+03 -.285785006006760D+02 -.253458606174507D+02 0.799577098463450D+02
 0.974161157518602D+02 -.247065721703278D+02 0.899921065917689D+01 0.938003150702809D+02
 0.182478390961769D+03 0.532850727710038D+02 0.163466499582738D+02 -.173758024916626D+03
 0.000000000000000D+00 -.000000000000000D+00 0.000000000000000D+00 -.000000000000000D+00
 0.191240303675696D+03 0.000000000000000D+00 0.000000000000000D+00 0.191240303675696D+03
 0.241819184550794D+03 0.000000000000000D+00 0.000000000000000D+00 -.241819184550794D+03
 0.101971920518566D+03 -.274778627055749D+02 -.273862058618203D+02 0.799577098463450D+02
 0.969940622605292D+02 -.236562250209193D+02 0.705209360935367D+01 0.938003150702809D+02
 0.182774021602090D+03 0.552584356590651D+02 0.126884608281408D+02 -.173758024916626D+03
 0.513194838453050D+02 -.412434793257084D+01 0.764565142432585D+01 -.505788808750976D+02
0.190997306474D-05 0.000000000000D+00 0.000000000000D+00 0.210420870245D-04 0.000000000000D+00  6 22 1 9900012 13 2 21 0 0.59794119D-02 0.14413359D+00 0.52527932D+04 0.52527932D+04 0.52527932D+04 0.12394410D+01  1  2  2  1  6  2        1 0.379024799253D-04 0.100000000000D+01
0.505545272652D-07 0.000000000000D+00 -.366739973803D-08 0.210420870245D-04 0.000000000000D+00  6 22 1 9900012 13 2 21 2 0.59794119D-02 0.14413359D+00 0.52527932D+04 0.52527932D+04 0.52527932D+04 0.12394410D+01  1  2  3  1  6  2        1 0.154117566461D-05 0.100000000000D+01
-.273337981359D-06 0.000000000000D+00 0.000000000000D+00 0.210420870245D-04 0.000000000000D+00  6 22 1 9900012 13 2 21 2 0.59794119D-02 0.14413359D+00 0.52527932D+04 0.52527932D+04 0.52527932D+04 0.12394410D+01  1  2 15  1  6  2        1 -.833282136879D-05 0.100000000000D+01
0.526647816556D-04 0.000000000000D+00 0.000000000000D+00 0.210420870245D-04 0.000000000000D+00  6 22 1 9900012 13 2 21 2 0.59794119D-02 0.18305643D+00 0.58793606D+04 0.58793606D+04 0.58793606D+04 0.12340032D+01  1  2 12  1  6  2        1 0.105737915580D-02 0.100000000000D+01
-.284660081763D-04 0.000000000000D+00 0.000000000000D+00 0.210420870245D-04 0.000000000000D+00  6 22 1 9900012 13 2 21 2 0.59794119D-02 0.14413359D+00 0.52527932D+04 0.52527932D+04 0.52527932D+04 0.12394410D+01  1  2  4  1  6  2        1 -.867798028055D-03 0.100000000000D+01
-.528814372054D-04 0.000000000000D+00 -.959432750401D-06 0.210420870245D-04 0.000000000000D+00  6 22 1 9900012 13 2 21 2 0.59794119D-02 0.18280226D+00 0.52527932D+04 0.52527932D+04 0.52527932D+04 0.12394410D+01  1  2  5  1  6  2        1 -.106904593627D-02 0.100000000000D+01
0.516697835263D-04 0.000000000000D+00 0.932959664062D-06 0.210420870245D-04 0.000000000000D+00  6 22 1 9900012 13 2 21 2 0.59794119D-02 0.14413359D+00 0.52527932D+04 0.52527932D+04 0.52527932D+04 0.12394410D+01  1  2  6  1  6  2        1 0.157517471282D-02 0.100000000000D+01
0.164713991097D-07 0.000000000000D+00 0.000000000000D+00 0.210420870245D-04 0.141463467755D-05  6 22 1 9900012 13 2 21 2 0.59925643D-02 0.18265466D+00 0.58793606D+04 0.58793606D+04 0.58793606D+04 0.12340032D+01  1  2 11  1  6  2        1 0.331055825508D-06 0.100000000000D+01
0.172424105628D-05 0.000000000000D+00 0.000000000000D+00 0.210420870245D-04 0.000000000000D+00  6 22 21 9900012 13 2 -1 2 0.59794119D-02 0.18305643D+00 0.58793606D+04 0.58793606D+04 0.58793606D+04 0.12340032D+01  1  2 12  3  6  2        1 0.444691197031D-04 0.100000000000D+01
-.170905723736D-05 0.000000000000D+00 -.312759523537D-07 0.210420870245D-04 0.000000000000D+00  6 22 21 9900012 13 2 -1 2 0.59794119D-02 0.18280226D+00 0.52527932D+04 0.52527932D+04 0.52527932D+04 0.12394410D+01  1  2  5  3  6  2        1 -.446495584006D-04 0.100000000000D+01
0.919839741669D-09 0.000000000000D+00 0.000000000000D+00 0.210420870245D-04 0.719731735335D-07  6 22 21 9900012 13 2 -1 2 0.59925643D-02 0.18265466D+00 0.58793606D+04 0.58793606D+04 0.58793606D+04 0.12340032D+01  1  2 11  3  6  2        1 0.238075420712D-07 0.100000000000D+01
  </mgrwgt>
  </event>
  <event>
  7     66 -.10827799E-05 0.20134283E+03 0.78161638E-02 0.10392833E+00
       22 -1    0    0    0    0 0.00000000E+00 0.00000000E+00 0.35530352E+03 0.35530352E+03 0.00000000E+00 0.0000E+00 0.9000E+01
        1 -1    0    0  501    0 0.00000000E+00 0.00000000E+00 -.27654593E+03 0.27654593E+03 0.00000000E+00 0.0000E+00 0.9000E+01
      -24  2    1    2    0    0 -.16436967E+03 0.12063381E+03 0.25630687E+03 0.33710208E+03 0.79841686E+02 0.0000E+00 0.0000E+00
  9900012  1    3    3    0    0 -.94449002E+02 0.66071169E+02 0.11534043E+03 0.17055623E+03 0.50000000E+02 0.0000E+00 0.9000E+01
       13  1    3    3    0    0 -.69920668E+02 0.54562637E+02 0.14096644E+03 0.16654585E+03 0.00000000E+00 0.0000E+00 0.9000E+01
        2  1    1    2  502    0 0.15820455E+03 -.14133828E+03 -.15038396E+03 0.26003947E+03 0.00000000E+00 0.0000E+00 0.9000E+01
       21  1    1    2  501  502 0.61651222E+01 0.20704478E+02 -.27165322E+02 0.34707908E+02 0.00000000E+00 0.0000E+00 0.9000E+01
#aMCatNLO 2  0  0  5  2 0.38179626D+02 0.00000000D+00  -5  6  0 0.00000000D+00 0.00000000D+00 0.00000000D+00 0.00000000D+00 0.00000000D+00
  <mgrwgt>
 -.6650713980D-04    2    2    0
 0.313460913020097D+03 0.000000000000000D+00 0.000000000000000D+00 0.313460913020097D+03
 0.313460913020097D+03 -.000000000000000D+00 -.000000000000000D+00 -.313460913020097D+03
 0.162889195180877D+03 -.976674977943000D+02 0.684332802524897D+02 0.990496639830671D+02
 0.155655840453461D+03 -.729935146430685D+02 0.568178538142221D+02 0.125189532211248D+03
 0.308376790405857D+03 0.170661012437368D+03 -.125251134066712D+03 -.224239196194315D+03
 0.000000000000000D+00 0.000000000000000D+00 0.000000000000000D+00 -.000000000000000D+00
 0.313460913020097D+03 0.000000000000000D+00 0.000000000000000D+00 0.313460913020097D+03
 0.313460913020097D+03 -.000000000000000D+00 -.000000000000000D+00 -.313460913020097D+03
 0.157407070170904D+03 -.944490022394401D+02 0.660711694664493D+02 0.948207376110193D+02
 0.150145873505275D+03 -.699206675214707D+02 0.545626369882057D+02 0.121151979880261D+03
 0.280975502010546D+03 0.158204547530384D+03 -.141338284933301D+03 -.184233664358331D+03
 0.383933803534699D+02 0.616512223052708D+01 0.207044784786457D+02 -.317390531329491D+02
-.154871132424D-04 0.000000000000D+00 0.000000000000D+00 0.430792282708D-05 0.000000000000D+00  6 22 1 9900012 13 2 21 2 0.54662080D-01 0.42545528D-01 0.50193901D+05 0.50193901D+05 0.50193901D+05 0.11428044D+01  1  2 13  2  6  5        2 -.863195268765D-04 0.100000000000D+01
0.355466130799D-05 0.000000000000D+00 0.000000000000D+00 0.430792282708D-05 0.247274325739D-07  6 22 1 9900012 13 2 21 2 0.54662080D-01 0.42545528D-01 0.50193901D+05 0.50193901D+05 0.50193901D+05 0.11428044D+01  1  2  1  2  6  5        2 0.198123870801D-04 0.100000000000D+01
  </mgrwgt>
  </event>
  <event>
  7     66 -.10827799E-05 0.28099313E+02 0.78161638E-02 0.12546975E+00
       22 -1    0    0    0    0 0.00000000E+00 0.00000000E+00 0.21784776E+02 0.21784776E+02 0.00000000E+00 0.0000E+00 0.9000E+01
        1 -1    0    0  501    0 -.00000000E+00 -.00000000E+00 -.33239127E+03 0.33239127E+03 0.00000000E+00 0.0000E+00 0.9000E+01
      -24  2    1    2    0    0 -.30913227E+02 0.12349476E+02 -.71976877E+02 0.11280058E+03 0.80219460E+02 0.0000E+00 0.0000E+00
  9900012  1    3    3    0    0 -.18068052E+02 -.16148690E+02 -.47477971E+02 0.73084831E+02 0.50000000E+02 0.0000E+00 0.9000E+01
       13  1    3    3    0    0 -.12845175E+02 0.28498166E+02 -.24498906E+02 0.39715745E+02 0.00000000E+00 0.0000E+00 0.9000E+01
        2  1    1    2  502    0 0.19401231E+02 -.14898151E+02 -.16697069E+03 0.16875300E+03 0.00000000E+00 0.0000E+00 0.9000E+01
       21  1    1    2  501  502 0.11511997E+02 0.25486755E+01 -.71658923E+02 0.72622469E+02 0.00000000E+00 0.0000E+00 0.9000E+01
#aMCatNLO 2  0  0  5  2 0.66678168D+01 0.00000000D+00  -5  6  0 0.00000000D+00 0.00000000D+00 0.00000000D+00 0.00000000D+00 0.00000000D+00
  <mgrwgt>
 -.4364216938D-04    2    2    0
 0.850944727187209D+02 0.000000000000000D+00 0.000000000000000D+00 0.850944727187209D+02
 0.850944727187209D+02 -.000000000000000D+00 -.000000000000000D+00 -.850944727187209D+02
 0.657781414839646D+02 -.183599413384002D+02 -.160320839729375D+02 0.351090976047471D+02
 0.382222648329973D+02 -.130145870704697D+02 0.285658444690158D+02 0.218072139926435D+02
 0.661885391204799D+02 0.313745284088700D+02 -.125337604960783D+02 -.569163115973905D+02
 0.000000000000000D+00 0.000000000000000D+00 0.000000000000000D+00 -.000000000000000D+00
 0.850944727187209D+02 0.000000000000000D+00 0.000000000000000D+00 0.850944727187209D+02
 0.850944727187209D+02 -.000000000000000D+00 -.000000000000000D+00 -.850944727187209D+02
 0.654444980123009D+02 -.180680522775265D+02 -.161486902700183D+02 0.345795837097793D+02
 0.379392807754711D+02 -.128451748249328D+02 0.284981662402631D+02 0.214998844280446D+02
 0.464547721538852D+02 0.194012305379821D+02 -.148981514402418D+02 -.394928245779544D+02
 0.203503944957846D+02 0.115119965644772D+02 0.254867546999700D+01 -.165866435598695D+02
-.420053032296D-06 0.000000000000D+00 0.000000000000D+00 0.944228951605D-06 0.000000000000D+00  6 22 1 9900012 13 2 21 2 0.33515040D-02 0.51137118D-01 0.37868267D+04 0.37868267D+04 0.37868267D+04 0.12556669D+01  1  2 13  2  6  5        2 -.116693142522D-03 0.100000000000D+01
0.262957035140D-06 0.000000000000D+00 0.000000000000D+00 0.944228951605D-06 0.678515938837D-07  6 22 1 9900012 13 2 21 2 0.33515040D-02 0.51137118D-01 0.37868267D+04 0.37868267D+04 0.37868267D+04 0.12556669D+01  1  2  1  2  6  5        2 0.730509731378D-04 0.100000000000D+01
  </mgrwgt>
  </event>
  <event>
  6     66 0.10827799E-05 0.50457090E+02 0.78161638E-02 0.11856904E+00
       22 -1    0    0    0    0 0.00000000E+00 0.00000000E+00 0.93697904E+03 0.93697904E+03 0.00000000E+00 0.0000E+00 0.9000E+01
        1 -1    0    0  501    0 0.00000000E+00 0.00000000E+00 -.16880671E+02 0.16880671E+02 0.00000000E+00 0.0000E+00 0.9000E+01
      -24  2    1    2    0    0 -.59334604E+02 0.31936699E+02 0.85066823E+03 0.85710698E+03 0.80345385E+02 0.0000E+00 0.0000E+00
  9900012  1    3    3    0    0 -.47619412E+02 0.47014406E+02 0.75054875E+03 0.75518301E+03 0.50000000E+02 0.0000E+00 0.9000E+01
       13  1    3    3    0    0 -.11715193E+02 -.15077707E+02 0.10011948E+03 0.10192396E+03 0.00000000E+00 0.0000E+00 0.9000E+01
        2  1    1    2  501    0 0.59334604E+02 -.31936699E+02 0.69430142E+02 0.96752740E+02 0.00000000E+00 0.0000E+00 0.9000E+01
#aMCatNLO 1  0  0  5  2 0.17848721D+02 0.00000000D+00  -5  6  0 0.00000000D+00 0.00000000D+00 0.00000000D+00 0.00000000D+00 0.00000000D+00
  <mgrwgt>
 0.1100003234D-03    7    2    0
 0.125765000808436D+03 0.000000000000000D+00 0.000000000000000D+00 0.125765000808436D+03
 0.125765000808436D+03 -.000000000000000D+00 -.000000000000000D+00 -.125765000808436D+03
 0.118315802876236D+03 -.476194116482638D+02 0.470144061742195D+02 0.837894173306328D+02
 0.202814265141064D+02 -.117151927678064D+02 -.150777066974203D+02 0.683763706310884D+01
 0.112932772226529D+03 0.593346044160703D+02 -.319366994767992D+02 -.906270543937416D+02
 0.000000000000000D+00 0.000000000000000D+00 0.000000000000000D+00 -.000000000000000D+00
 0.125765000808436D+03 0.000000000000000D+00 0.000000000000000D+00 0.125765000808436D+03
 0.125765000808436D+03 -.000000000000000D+00 -.000000000000000D+00 -.125765000808436D+03
 0.115474656342617D+03 -.459408990718843D+02 0.461109510615173D+02 0.812256747716797D+02
 0.200873139333432D+02 -.114253629827928D+02 -.152337068399088D+02 0.639495407988421D+01
 0.815684702359961D+02 0.396104913000878D+02 -.394143174184375D+02 -.594216786875371D+02
 0.343995611049154D+02 0.177557707545893D+02 0.853707319682898D+01 -.281989501640268D+02
0.185270640786D-05 0.000000000000D+00 0.000000000000D+00 0.207832917814D-05 0.000000000000D+00  6 22 1 9900012 13 2 21 0 0.14415062D+00 0.25970264D-02 0.72260070D+04 0.72260070D+04 0.72260070D+04 0.12242420D+01  1  2  2  2  6  5        2 0.434364163196D-04 0.100000000000D+01
0.150722367853D-07 0.000000000000D+00 -.355744021749D-08 0.207832917814D-05 0.000000000000D+00  6 22 1 9900012 13 2 21 2 0.14415062D+00 0.25970264D-02 0.72260070D+04 0.72260070D+04 0.72260070D+04 0.12242420D+01  1  2  3  2  6  5        2 0.529614185671D-06 0.100000000000D+01
-.245450713015D-06 0.000000000000D+00 0.000000000000D+00 0.207832917814D-05 0.000000000000D+00  6 22 1 9900012 13 2 21 2 0.14415062D+00 0.25970264D-02 0.72260070D+04 0.72260070D+04 0.72260070D+04 0.12242420D+01  1  2 15  2  6  5        2 -.862474371572D-05 0.100000000000D+01
0.262505438333D-05 0.000000000000D+00 0.000000000000D+00 0.207832917814D-05 0.000000000000D+00  6 22 1 9900012 13 2 21 2 0.14415062D+00 0.25970264D-02 0.78057895D+04 0.78057895D+04 0.78057895D+04 0.12206484D+01  1  2 12  2  6  5        2 0.924017871163D-04 0.100000000000D+01
-.139006086968D-05 0.000000000000D+00 0.000000000000D+00 0.207832917814D-05 0.000000000000D+00  6 22 1 9900012 13 2 21 2 0.14415062D+00 0.25970264D-02 0.72260070D+04 0.72260070D+04 0.72260070D+04 0.12242420D+01  1  2  4  2  6  5        2 -.488445056970D-04 0.100000000000D+01
-.254278064500D-05 0.000000000000D+00 0.000000000000D+00 0.207832917814D-05 0.000000000000D+00  6 22 1 9900012 13 2 21 2 0.14415062D+00 0.25970264D-02 0.72260070D+04 0.72260070D+04 0.72260070D+04 0.12242420D+01  1  2  5  2  6  5        2 -.893492266492D-04 0.100000000000D+01
0.342790236444D-05 0.000000000000D+00 -.000000000000D+00 0.207832917814D-05 0.000000000000D+00  6 22 1 9900012 13 2 21 2 0.14415062D+00 0.25970264D-02 0.72260070D+04 0.72260070D+04 0.72260070D+04 0.12242420D+01  1  2  6  2  6  5        2 0.120450981839D-03 0.100000000000D+01
  </mgrwgt>
  </event>
  <event>
  6     66 0.10827799E-05 0.69393332E+02 0.78161638E-02 0.11834887E+00
       22 -1    0    0    0    0 0.00000000E+00 0.00000000E+00 0.55178458E+02 0.55178458E+02 0.00000000E+00 0.0000E+00 0.9000E+01
        1 -1    0    0  501    0 -.00000000E+00 -.00000000E+00 -.43692222E+03 0.43692222E+03 0.00000000E+00 0.0000E+00 0.9000E+01
      -24  2    1    2    0    0 -.56811893E+02 -.44000588E+02 -.51929200E+01 0.10875465E+03 0.81467562E+02 0.0000E+00 0.0000E+00
  9900012  1    3    3    0    0 -.27402589E+02 -.51196911E+02 -.12414788E+02 0.77628297E+02 0.50000000E+02 0.0000E+00 0.9000E+01
       13  1    3    3    0    0 -.29409304E+02 0.71963228E+01 0.72218677E+01 0.31126349E+02 0.00000000E+00 0.0000E+00 0.9000E+01
        2  1    1    2  501    0 0.56811893E+02 0.44000588E+02 -.37655084E+03 0.38334603E+03 0.00000000E+00 0.0000E+00 0.9000E+01
#aMCatNLO 1  0  0  5  2 0.30246743D+01 0.00000000D+00  -5  6  0 0.00000000D+00 0.00000000D+00 0.00000000D+00 0.00000000D+00 0.00000000D+00
  <mgrwgt>
 0.4888330320D-04    6    2    0
 0.155269746493372D+03 0.000000000000000D+00 0.000000000000000D+00 0.155269746493372D+03
 0.155269746493372D+03 -.000000000000000D+00 -.000000000000000D+00 -.155269746493372D+03
 0.107753347148725D+03 -.274025885961399D+02 -.511969109126331D+02 0.757545924217680D+02
 0.582025823836891D+02 -.294093042711210D+02 0.719632279356886D+01 0.497076086396187D+02
 0.144583563454331D+03 0.568118928672609D+02 0.440005881190643D+02 -.125462201061387D+03
 0.000000000000000D+00 0.000000000000000D+00 0.000000000000000D+00 -.000000000000000D+00
 0.155269746493372D+03 0.000000000000000D+00 0.000000000000000D+00 0.155269746493372D+03
 0.155269746493372D+03 -.000000000000000D+00 -.000000000000000D+00 -.155269746493372D+03
 0.107446142109919D+03 -.272612616502909D+02 -.510874537475822D+02 0.754424889377858D+02
 0.580274182016445D+02 -.293329730908968D+02 0.725544099316015D+01 0.495390404508609D+02
 0.457415382671386D+01 0.403020486543311D+01 0.555838610266242D+00 -.209078344464929D+01
 0.140491778848467D+03 0.525640298757547D+02 0.432761741441558D+02 -.122890745943997D+03
0.141640693105D-05 0.000000000000D+00 0.000000000000D+00 0.156047073252D-05 0.000000000000D+00  6 22 1 9900012 13 2 21 0 0.84889935D-02 0.67218803D-01 0.79891950D+04 0.79891950D+04 0.79891950D+04 0.12195730D+01  1  2  2  2  6  5        2 0.521024469300D-04 0.100000000000D+01
0.194735404055D-07 0.000000000000D+00 -.271968778187D-08 0.156047073252D-05 0.000000000000D+00  6 22 1 9900012 13 2 21 2 0.84889935D-02 0.67218803D-01 0.79891950D+04 0.79891950D+04 0.79891950D+04 0.12195730D+01  1  2  3  2  6  5        2 0.106544395555D-05 0.100000000000D+01
-.190157907096D-06 0.000000000000D+00 0.000000000000D+00 0.156047073252D-05 0.000000000000D+00  6 22 1 9900012 13 2 21 2 0.84889935D-02 0.67218803D-01 0.79891950D+04 0.79891950D+04 0.79891950D+04 0.12195730D+01  1  2 15  2  6  5        2 -.104039937524D-04 0.100000000000D+01
0.905230973047D-08 0.000000000000D+00 0.000000000000D+00 0.156047073252D-05 0.000000000000D+00  6 22 1 9900012 13 2 21 2 0.84889935D-02 0.67218803D-01 0.79993026D+04 0.79993026D+04 0.79993026D+04 0.12195146D+01  1  2 12  2  6  5        2 0.495265470825D-06 0.100000000000D+01
-.479848457588D-06 0.000000000000D+00 0.000000000000D+00 0.156047073252D-05 0.000000000000D+00  6 22 1 9900012 13 2 21 2 0.84889935D-02 0.67218803D-01 0.79891950D+04 0.79891950D+04 0.79891950D+04 0.12195730D+01  1  2  5  2  6  5        2 -.262536564009D-04 0.100000000000D+01
0.582652554866D-06 0.000000000000D+00 0.000000000000D+00 0.156047073252D-05 0.238079936838D-07  6 22 1 9900012 13 2 21 2 0.84889935D-02 0.67218803D-01 0.79993026D+04 0.79993026D+04 0.79993026D+04 0.12195146D+01  1  2 11  2  6  5        2 0.318777969938D-04 0.100000000000D+01
  </mgrwgt>
  </event>
  <event>
  6     66 0.10827799E-05 0.39237467E+02 0.78161638E-02 0.12553602E+00
       22 -1    0    0    0    0 0.00000000E+00 0.00000000E+00 0.14155328E+04 0.14155328E+04 0.00000000E+00 0.0000E+00 0.9000E+01
        1 -1    0    0  501    0 0.00000000E+00 0.00000000E+00 -.42183344E+01 0.42183344E+01 0.00000000E+00 0.0000E+00 0.9000E+01
      -24  2    1    2    0    0 0.39217250E+02 0.12593994E+01 0.12706481E+04 0.12737148E+04 0.79140870E+02 0.0000E+00 0.0000E+00
  9900012  1    3    3    0    0 0.67827574E+01 0.38704868E+01 0.96813239E+03 0.96945413E+03 0.50000000E+02 0.0000E+00 0.9000E+01
       13  1    3    3    0    0 0.32434493E+02 -.26110875E+01 0.30251566E+03 0.30426065E+03 0.00000000E+00 0.0000E+00 0.9000E+01
        2  1    1    2  501    0 -.39217250E+02 -.12593994E+01 0.14066646E+03 0.14603640E+03 0.00000000E+00 0.0000E+00 0.9000E+01
#aMCatNLO 1  0  0  5  2 0.83866173D+01 0.00000000D+00  -5  6  0 0.00000000D+00 0.00000000D+00 0.00000000D+00 0.00000000D+00 0.00000000D+00
  <mgrwgt>
 0.1626290202D-03    6    2    0
 0.772734806720089D+02 0.000000000000000D+00 0.000000000000000D+00 0.772734806720089D+02
 0.772734806720089D+02 -.000000000000000D+00 -.000000000000000D+00 -.772734806720089D+02
 0.649922501765212D+02 0.678275738489090D+01 0.387048684577538D+01 0.407799720063894D+02
 0.325445770550222D+02 0.324344925681683D+02 -.261108749097466D+01 0.579145620885015D+00
 0.570101341124744D+02 -.392172499530592D+02 -.125939935480072D+01 -.413591176272745D+02
 0.000000000000000D+00 0.000000000000000D+00 0.000000000000000D+00 0.000000000000000D+00
 0.772734806720089D+02 0.000000000000000D+00 0.000000000000000D+00 0.772734806720089D+02
 0.772734806720089D+02 -.000000000000000D+00 -.000000000000000D+00 -.772734806720089D+02
 0.633135989150552D+02 0.451653095195242D+01 0.379771060290034D+01 0.383899746016217D+02
 0.314223739702634D+02 0.313046641443330D+02 -.264737012654235D+01 -.612388888443739D+00
 0.544757831902683D+02 -.362020371108016D+02 0.338235216207141D+01 -.405657880124741D+02
 0.533520526843096D+01 0.380842014516142D+00 -.453269263842941D+01 0.278820229929619D+01
0.146502233580D-05 0.000000000000D+00 0.000000000000D+00 0.427617937329D-06 0.000000000000D+00  6 22 1 9900012 13 2 21 0 0.21777428D+00 0.64897452D-03 0.37444046D+04 0.37444046D+04 0.37444046D+04 0.12562370D+01  1  2  2  2  6  5        2 0.786166702163D-04 0.100000000000D+01
0.162345346524D-07 0.000000000000D+00 -.281303575935D-08 0.427617937329D-06 0.000000000000D+00  6 22 1 9900012 13 2 21 2 0.21777428D+00 0.64897452D-03 0.37444046D+04 0.37444046D+04 0.37444046D+04 0.12562370D+01  1  2  3  2  6  5        2 0.137484402678D-05 0.100000000000D+01
-.168657513390D-06 0.000000000000D+00 0.000000000000D+00 0.427617937329D-06 0.000000000000D+00  6 22 1 9900012 13 2 21 2 0.21777428D+00 0.64897452D-03 0.37444046D+04 0.37444046D+04 0.37444046D+04 0.12562370D+01  1  2 15  2  6  5        2 -.142829948514D-04 0.100000000000D+01
0.129192474255D-05 0.000000000000D+00 0.000000000000D+00 0.427617937329D-06 0.000000000000D+00  6 22 1 9900012 13 2 21 2 0.21777428D+00 0.64897452D-03 0.37620916D+04 0.37620916D+04 0.37620916D+04 0.12559985D+01  1  2 12  2  6  5        2 0.109433207346D-03 0.100000000000D+01
-.148033592526D-06 0.000000000000D+00 0.000000000000D+00 0.427617937329D-06 0.000000000000D+00  6 22 1 9900012 13 2 21 2 0.21777428D+00 0.64897452D-03 0.37444046D+04 0.37444046D+04 0.37444046D+04 0.12562370D+01  1  2  4  2  6  5        2 -.125364295808D-04 0.100000000000D+01
0.280064816661D-09 0.000000000000D+00 0.000000000000D+00 0.427617937329D-06 0.658375353130D-08  6 22 1 9900012 13 2 21 2 0.21777428D+00 0.64897452D-03 0.37620916D+04 0.37620916D+04 0.37620916D+04 0.12559985D+01  1  2 11  2  6  5        2 0.237230468173D-07 0.100000000000D+01
  </mgrwgt>
  </event>
  <event>
  6     66 -.10827799E-05 0.69712942E+02 0.78161638E-02 0.11703524E+00
       22 -1    0    0    0    0 0.00000000E+00 0.00000000E+00 0.55835567E+01 0.55835567E+01 0.00000000E+00 0.0000E+00 0.9000E+01
        1 -1    0    0  501    0 -.00000000E+00 -.00000000E+00 -.20871839E+04 0.20871839E+04 0.00000000E+00 0.0000E+00 0.9000E+01
      -24  2    1    2    0    0 0.28824492E+02 0.75066020E+02 -.74001734E+03 0.74877686E+03 0.81088651E+02 0.0000E+00 0.0000E+00
  9900012  1    3    3    0    0 -.91227410E+00 0.30252930E+02 -.45402462E+03 0.45777116E+03 0.50000000E+02 0.0000E+00 0.9000E+01
       13  1    3    3    0    0 0.29736766E+02 0.44813091E+02 -.28599271E+03 0.29100570E+03 0.00000000E+00 0.0000E+00 0.9000E+01
        2  1    1    2  501    0 -.28824492E+02 -.75066020E+02 -.13415830E+04 0.13439906E+04 0.00000000E+00 0.0000E+00 0.9000E+01
#aMCatNLO 1  0  0  5  2 0.68484797D+00 0.00000000D+00  -5  6  0 0.00000000D+00 0.00000000D+00 0.00000000D+00 0.00000000D+00 0.00000000D+00
  <mgrwgt>
 -.3631629821D-03    8    2    0
 0.107953273798839D+03 0.000000000000000D+00 0.000000000000000D+00 0.107953273798839D+03
 0.107953273798839D+03 -.000000000000000D+00 -.000000000000000D+00 -.107953273798839D+03
 0.597979288261768D+02 -.912274099234040D+00 0.302529298363074D+02 0.126380490657311D+02
 0.633826955556119D+02 0.297367660465619D+02 0.448130905699785D+02 0.335391972854797D+02
 0.927259232158889D+02 -.288244919473278D+02 -.750660204062859D+02 -.461772463512108D+02
 0.000000000000000D+00 0.000000000000000D+00 0.000000000000000D+00 -.000000000000000D+00
 0.107953273798839D+03 0.000000000000000D+00 0.000000000000000D+00 0.107953273798839D+03
 0.107953273798839D+03 -.000000000000000D+00 -.000000000000000D+00 -.107953273798839D+03
 0.597954875423195D+02 -.913761992336316D+00 0.302490549990967D+02 0.126356654398045D+02
 0.633777149918350D+02 0.297351889870027D+02 0.448089835215259D+02 0.335366708136201D+02
 0.762225068590232D+02 -.239269191198402D+02 -.619730432081813D+02 -.373726505458652D+02
 0.165108382044998D+02 -.489450787482622D+01 -.130849953124413D+02 -.879968570755934D+01
0.274319798511D-06 0.000000000000D+00 0.000000000000D+00 0.388002787609D-06 0.000000000000D+00  6 22 1 9900012 13 2 21 0 0.85900872D-03 0.32110521D+00 0.92774435D+04 0.92774435D+04 0.92774435D+04 0.12127209D+01  1  2  2  2  6  5        2 0.132480904416D-04 0.100000000000D+01
-.429652005618D-08 0.000000000000D+00 -.526730128173D-09 0.388002787609D-06 0.000000000000D+00  6 22 1 9900012 13 2 21 2 0.85900872D-03 0.32110521D+00 0.92774435D+04 0.92774435D+04 0.92774435D+04 0.12127209D+01  1  2  3  2  6  5        2 -.305164982357D-06 0.100000000000D+01
-.322008630876D-07 0.000000000000D+00 0.000000000000D+00 0.388002787609D-06 0.000000000000D+00  6 22 1 9900012 13 2 21 2 0.85900872D-03 0.32110521D+00 0.92774435D+04 0.92774435D+04 0.92774435D+04 0.12127209D+01  1  2 15  2  6  5        2 -.228710111614D-05 0.100000000000D+01
0.241052864008D-10 0.000000000000D+00 0.000000000000D+00 0.388002787609D-06 0.000000000000D+00  6 22 1 9900012 13 2 21 2 0.85900872D-03 0.32110521D+00 0.92760769D+04 0.92760769D+04 0.92760769D+04 0.12127276D+01  1  2 12  2  6  5        2 0.171211114394D-08 0.100000000000D+01
-.202638177497D-03 0.000000000000D+00 0.000000000000D+00 0.388002787609D-06 0.000000000000D+00  6 22 1 9900012 13 2 21 2 0.85900872D-03 0.32110521D+00 0.92774435D+04 0.92774435D+04 0.92774435D+04 0.12127209D+01  1  2  4  2  6  5        2 -.143925956477D-01 0.100000000000D+01
-.155440821945D-03 0.000000000000D+00 0.000000000000D+00 0.388002787609D-06 0.000000000000D+00  6 22 1 9900012 13 2 21 2 0.85900872D-03 0.32110521D+00 0.92774435D+04 0.92774435D+04 0.92774435D+04 0.12127209D+01  1  2  5  2  6  5        2 -.110403524401D-01 0.100000000000D+01
0.185536260366D-03 0.000000000000D+00 -.000000000000D+00 0.388002787609D-06 0.000000000000D+00  6 22 1 9900012 13 2 21 2 0.85900872D-03 0.32110521D+00 0.92774435D+04 0.92774435D+04 0.92774435D+04 0.12127209D+01  1  2  6  2  6  5        2 0.131779134930D-01 0.100000000000D+01
0.167278899569D-03 0.000000000000D+00 0.000000000000D+00 0.388002787609D-06 0.480829504482D-05  6 22 1 9900012 13 2 21 2 0.85900872D-03 0.32110521D+00 0.92760769D+04 0.92760769D+04 0.92760769D+04 0.12127276D+01  1  2 11  2  6  5        2 0.118812140763D-01 0.100000000000D+01
  </mgrwgt>
  </event>
  <event>
  6     66 0.10827799E-05 0.63760207E+02 0.78161638E-02 0.11009235E+00
       22 -1    0    0    0    0 0.00000000E+00 0.00000000E+00 0.38055245E+02 0.38055245E+02 0.00000000E+00 0.0000E+00 0.9000E+01
        1 -1    0    0  501    0 0.00000000E+00 0.00000000E+00 -.34708140E+03 0.34708140E+03 0.00000000E+00 0.0000E+00 0.9000E+01
      -24  2    1    2    0    0 0.73639264E+02 0.63823308E+02 -.12854850E+03 0.18003096E+03 0.79939200E+02 0.0000E+00 0.0000E+00
  9900012  1    3    3    0    0 0.48081944E+02 0.58383548E+02 -.65705174E+02 0.11197179E+03 0.50000000E+02 0.0000E+00 0.9000E+01
       13  1    3    3    0    0 0.25557320E+02 0.54397597E+01 -.62843325E+02 0.68059174E+02 0.00000000E+00 0.0000E+00 0.9000E+01
        2  1    1    2  501    0 -.73639264E+02 -.63823308E+02 -.18047765E+03 0.20510568E+03 0.00000000E+00 0.0000E+00 0.9000E+01
#aMCatNLO 1  0  0  2  5 0.96615986D+02 0.00000000D+00  -5  6  0 0.00000000D+00 0.00000000D+00 0.00000000D+00 0.00000000D+00 0.00000000D+00
  <mgrwgt>
 0.1253014265D-03    9    2    0
 0.114927227409409D+03 0.000000000000000D+00 0.000000000000000D+00 0.114927227409409D+03
 0.114927227409409D+03 0.000000000000000D+00 0.000000000000000D+00 -.114927227409409D+03
 0.992794434168249D+02 0.480819436918383D+02 0.583835480756618D+02 0.404462098356116D+02
 0.295484839984531D+02 0.255573204667152D+02 0.543975965828912D+01 -.137965681250270D+02
 0.101026527403541D+03 -.736392641585534D+02 -.638233077339509D+02 -.266496417105846D+02
 0.000000000000000D+00 -.000000000000000D+00 0.000000000000000D+00 -.000000000000000D+00
 0.153821672834284D+03 0.000000000000000D+00 0.000000000000000D+00 0.153821672834284D+03
 0.154760262830867D+03 0.000000000000000D+00 0.000000000000000D+00 -.154760262830867D+03
 0.988607153932447D+02 0.660674975053966D+02 0.356739531223023D+02 0.404462098356116D+02
 0.343062626392259D+02 0.313535355742441D+02 -.187887499255473D+01 -.137965681250270D+02
 0.106728789275800D+03 -.547809244326278D+02 -.876349323916120D+02 -.266496417105846D+02
 0.686861683568792D+02 -.426401086470129D+02 0.538398542618644D+02 -.938589996582995D+00
0.132029103707D-05 0.000000000000D+00 0.000000000000D+00 0.414351714997D-06 0.000000000000D+00  6 22 1 9900012 13 2 21 0 0.58546531D-02 0.53397138D-01 0.11475239D+05 0.11475239D+05 0.11475239D+05 0.12031852D+01  1  2  2  1  6  2        1 0.112331420755D-03 0.100000000000D+01
-.429991200019D-07 0.000000000000D+00 -.253513261149D-08 0.414351714997D-06 0.000000000000D+00  6 22 1 9900012 13 2 21 2 0.58546531D-02 0.53397138D-01 0.11475239D+05 0.11475239D+05 0.11475239D+05 0.12031852D+01  1  2  3  1  6  2        1 -.529609887683D-05 0.100000000000D+01
-.157183301194D-06 0.000000000000D+00 0.000000000000D+00 0.414351714997D-06 0.000000000000D+00  6 22 1 9900012 13 2 21 2 0.58546531D-02 0.53397138D-01 0.11475239D+05 0.11475239D+05 0.11475239D+05 0.12031852D+01  1  2 15  1  6  2        1 -.193598916646D-04 0.100000000000D+01
0.626817516083D-08 0.000000000000D+00 0.000000000000D+00 0.414351714997D-06 0.000000000000D+00  6 22 1 9900012 13 2 21 2 0.58546531D-02 0.96238558D-01 0.21556991D+05 0.21556991D+05 0.21556991D+05 0.11762063D+01  1  2 12  1  6  2        1 0.350676196696D-06 0.100000000000D+01
-.120166603692D-06 0.000000000000D+00 0.000000000000D+00 0.414351714997D-06 0.000000000000D+00  6 22 1 9900012 13 2 21 2 0.58546531D-02 0.53397138D-01 0.11475239D+05 0.11475239D+05 0.11475239D+05 0.12031852D+01  1  2  4  1  6  2        1 -.148006334738D-04 0.100000000000D+01
-.501412415575D-06 0.000000000000D+00 -.412243223987D-06 0.414351714997D-06 0.000000000000D+00  6 22 1 9900012 13 2 21 2 0.58546531D-02 0.92481651D-01 0.11475239D+05 0.11475239D+05 0.11475239D+05 0.12031852D+01  1  2  5  1  6  2        1 -.299405575629D-04 0.100000000000D+01
0.678166918095D-06 0.000000000000D+00 0.357022570963D-06 0.414351714997D-06 0.000000000000D+00  6 22 1 9900012 13 2 21 2 0.58546531D-02 0.53397138D-01 0.11475239D+05 0.11475239D+05 0.11475239D+05 0.12031852D+01  1  2  6  1  6  2        1 0.835281990205D-04 0.100000000000D+01
0.404849000803D-09 0.000000000000D+00 0.000000000000D+00 0.414351714997D-06 0.000000000000D+00  6 22 21 9900012 13 2 -1 2 0.58546531D-02 0.96238558D-01 0.21556991D+05 0.21556991D+05 0.21556991D+05 0.11762063D+01  1  2 12  3  6  2        1 0.562294703032D-07 0.100000000000D+01
-.996007867937D-08 0.000000000000D+00 -.250860879270D-07 0.414351714997D-06 0.000000000000D+00  6 22 21 9900012 13 2 -1 2 0.58546531D-02 0.92481651D-01 0.11475239D+05 0.11475239D+05 0.11475239D+05 0.12031852D+01  1  2  5  3  6  2        1 -.156791736325D-05 0.100000000000D+01
  </mgrwgt>
  </event>
  <event>
  7     66 -.10827799E-05 0.21386424E+02 0.78161638E-02 0.12621592E+00
       22 -1    0    0    0    0 0.00000000E+00 0.00000000E+00 0.42576006E+02 0.42576006E+02 0.00000000E+00 0.0000E+00 0.9000E+01
        1 -1    0    0  502    0 0.00000000E+00 0.00000000E+00 -.11323896E+03 0.11323896E+03 0.00000000E+00 0.0000E+00 0.9000E+01
      -24  2    1    2    0    0 0.11973699E+02 0.91092288E+01 -.13479348E+02 0.80239791E+02 0.77655546E+02 0.0000E+00 0.0000E+00
  9900012  1    3    3    0    0 -.12920462E+02 0.18614000E+01 -.16234417E+02 0.54166036E+02 0.50000000E+02 0.0000E+00 0.9000E+01
       13  1    3    3    0    0 0.24894162E+02 0.72478288E+01 0.27550691E+01 0.26073755E+02 0.00000000E+00 0.0000E+00 0.9000E+01
        2  1    1    2  501    0 -.20172744E+02 -.19326381E+02 -.55799376E+02 0.62402075E+02 0.00000000E+00 0.0000E+00 0.9000E+01
       21  1    1    2  502  501 0.81990444E+01 0.10217152E+02 -.13842327E+01 0.13173102E+02 0.00000000E+00 0.0000E+00 0.9000E+01
#aMCatNLO 2  0  0  2  5 0.23264810D+02 0.00000000D+00  -5  6  0 0.00000000D+00 0.00000000D+00 0.00000000D+00 0.00000000D+00 0.00000000D+00
  <mgrwgt>
 -.6083190241D-04    2    2    0
 0.619990845378815D+02 0.000000000000000D+00 0.000000000000000D+00 0.619990845378815D+02
 0.619990845378815D+02 0.000000000000000D+00 0.000000000000000D+00 -.619990845378815D+02
 0.525389010686427D+02 -.944271375032036D+01 0.619515940688540D+01 0.115235099884289D+02
 0.337766060724829D+02 0.270416383858016D+02 0.992388397411134D+01 0.176387481997903D+02
 0.376826619346373D+02 -.175989246354813D+02 -.161190433809967D+02 -.291622581882192D+02
 0.000000000000000D+00 0.000000000000000D+00 0.000000000000000D+00 0.000000000000000D+00
 0.723623285581196D+02 0.000000000000000D+00 0.000000000000000D+00 0.723623285581196D+02
 0.666266945456920D+02 0.000000000000000D+00 0.000000000000000D+00 -.666266945456920D+02
 0.529452022222459D+02 -.129204622984797D+02 0.186139998244867D+01 0.115235099884289D+02
 0.313588225590960D+02 0.248941617965327D+02 0.724782882560808D+01 0.176387481997903D+02
 0.403842283121440D+02 -.201727438721710D+02 -.193263808924176D+02 -.291622581882192D+02
 0.143007700103257D+02 0.819904437411793D+01 0.102171520843608D+02 0.573563401242765D+01
-.150454928502D-06 0.000000000000D+00 0.000000000000D+00 0.517892705869D-07 0.000000000000D+00  6 22 1 9900012 13 2 21 2 0.56120859D-02 0.20333390D-01 0.35188871D+04 0.35188871D+04 0.35188871D+04 0.12593951D+01  1  2 13  1  6  2        1 -.643859618423D-04 0.100000000000D+01
0.847415390867D-08 0.000000000000D+00 0.000000000000D+00 0.517892705869D-07 0.895148450510D-10  6 22 1 9900012 13 2 21 2 0.65501548D-02 0.17421379D-01 0.35188871D+04 0.35188871D+04 0.35188871D+04 0.12593951D+01  1  2  1  1  6  2        1 0.355405942940D-05 0.100000000000D+01
  </mgrwgt>
  </event>
  <event>
  6     66 -.10827799E-05 0.36030322E+02 0.78161638E-02 0.12556220E+00
       22 -1    0    0    0    0 0.00000000E+00 0.00000000E+00 0.19257326E+02 0.19257326E+02 0.00000000E+00 0.0000E+00 0.9000E+01
        1 -1    0    0  501    0 -.00000000E+00 -.00000000E+00 -.67819311E+03 0.67819311E+03 0.00000000E+00 0.0000E+00 0.9000E+01
      -24  2    1    2    0    0 0.35931081E+02 -.26723626E+01 -.81762383E+02 0.11915352E+03 0.78830773E+02 0.0000E+00 0.0000E+00
  9900012  1    3    3    0    0 0.12106064E+02 0.18439810E+02 -.55439075E+02 0.77846480E+02 0.50000000E+02 0.0000E+00 0.9000E+01
       13  1    3    3    0    0 0.23825017E+02 -.21112173E+02 -.26323308E+02 0.41307043E+02 0.00000000E+00 0.0000E+00 0.9000E+01
        2  1    1    2  501    0 -.35931081E+02 0.26723626E+01 -.57717340E+03 0.57829691E+03 0.00000000E+00 0.0000E+00 0.9000E+01
#aMCatNLO 1  0  0  5  2 0.13637514D+02 0.00000000D+00  -5  6  0 0.00000000D+00 0.00000000D+00 0.00000000D+00 0.00000000D+00 0.00000000D+00
  <mgrwgt>
 -.1370210506D-04    1    2    0
 0.114281169457025D+03 0.000000000000000D+00 0.000000000000000D+00 0.114281169457025D+03
 0.114281169457025D+03 -.000000000000000D+00 -.000000000000000D+00 -.114281169457025D+03
 0.777174007622504D+02 0.121060643411553D+02 0.184398103867970D+02 0.552576780213123D+02
 0.501580702390647D+02 0.238250171286288D+02 -.211121729825399D+02 0.387617946034856D+02
 0.100686867912735D+03 -.359310814697841D+02 0.267236259574288D+01 -.940194726247979D+02
 0.000000000000000D+00 0.000000000000000D+00 0.000000000000000D+00 -.000000000000000D+00
 0.114281169457025D+03 0.000000000000000D+00 0.000000000000000D+00 0.114281169457025D+03
 0.114281169457025D+03 -.000000000000000D+00 -.000000000000000D+00 -.114281169457025D+03
 0.751614408903019D+02 0.108054538003604D+02 0.185365428762928D+02 0.518544206704691D+02
 0.480560275606002D+02 0.229894646776021D+02 -.210500290384790D+02 0.365754367878450D+02
 0.372470220385805D+02 -.101226325842876D+02 0.226019240683411D+02 -.278213225551008D+02
 0.680978484245674D+02 -.236722858936750D+02 -.200884379061549D+02 -.606085349032133D+02
-.105836206695D-06 0.000000000000D+00 0.000000000000D+00 0.169707026771D-05 0.000000000000D+00  6 22 1 9900012 13 2 21 2 0.29626655D-02 0.10433740D+00 0.37523715D+04 0.37523715D+04 0.37523715D+04 0.12561294D+01  1  2 14  2  6  5        2 -.137021050635D-04 0.100000000000D+01
  </mgrwgt>
  </event>
  <event>
  6     66 0.10827799E-05 0.21454739E+02 0.78161638E-02 0.11893480E+00
       22 -1    0    0    0    0 0.00000000E+00 0.00000000E+00 0.11602800E+04 0.11602800E+04 0.00000000E+00 0.0000E+00 0.9000E+01
        1 -1    0    0  501    0 0.00000000E+00 0.00000000E+00 -.10640404E+02 0.10640404E+02 0.00000000E+00 0.0000E+00 0.9000E+01
      -24  2    1    2    0    0 0.80128464E+01 -.19902264E+02 0.11464398E+04 0.11492283E+04 0.77079901E+02 0.0000E+00 0.0000E+00
  9900012  1    3    3    0    0 -.10063675E+01 -.34728408E+02 0.77733667E+03 0.77971750E+03 0.50000000E+02 0.0000E+00 0.9000E+01
       13  1    3    3    0    0 0.90192139E+01 0.14826145E+02 0.36910308E+03 0.36951082E+03 0.00000000E+00 0.0000E+00 0.9000E+01
        2  1    1    2  501    0 -.80128464E+01 0.19902264E+02 0.31997927E+01 0.21692037E+02 0.00000000E+00 0.0000E+00 0.9000E+01
#aMCatNLO 1  0  0  5  2 0.54557650D+01 0.00000000D+00  -5  6  0 0.00000000D+00 0.00000000D+00 0.00000000D+00 0.00000000D+00 0.00000000D+00
  <mgrwgt>
 0.2178610596D-03    3    2    0
 0.111111869890558D+03 0.000000000000000D+00 0.000000000000000D+00 0.111111869890558D+03
 0.111111869890558D+03 -.000000000000000D+00 -.000000000000000D+00 -.111111869890558D+03
 0.869849027114383D+02 -.100636747021152D+01 -.347284083309660D+02 0.621232499071883D+02
 0.374948259085668D+02 0.901921387473653D+01 0.148261447073216D+02 0.332370453577488D+02
 0.977440111611118D+02 -.801284640452500D+01 0.199022636236444D+02 -.953602952649372D+02
 0.000000000000000D+00 0.000000000000000D+00 0.000000000000000D+00 0.000000000000000D+00
 0.111111869890558D+03 0.000000000000000D+00 0.000000000000000D+00 0.111111869890558D+03
 0.111111869890558D+03 -.000000000000000D+00 -.000000000000000D+00 -.111111869890558D+03
 0.727027555279613D+02 -.262599921297636D+01 -.307055759577503D+02 0.428481317515103D+02
 0.310848699356041D+02 0.832364445175797D+01 0.165537961966660D+02 0.249591248531151D+02
 0.466702456229450D+02 0.382219212599323D+02 -.172214850445219D+02 -.205089496212475D+02
 0.717658686946064D+02 -.439195664987139D+02 0.313732648056061D+02 -.472983069833779D+02
0.927168057429D-05 0.000000000000D+00 0.000000000000D+00 0.537473649367D-06 0.000000000000D+00  6 22 1 9900012 13 2 21 0 0.17850461D+00 0.16369853D-02 0.24847472D+04 0.24847472D+04 0.24847472D+04 0.12775639D+01  1  2  2  2  6  5        2 0.222735909389D-03 0.100000000000D+01
0.979351321792D-06 0.000000000000D+00 -.178028473474D-07 0.537473649367D-06 0.000000000000D+00  6 22 1 9900012 13 2 21 2 0.17850461D+00 0.16369853D-02 0.24847472D+04 0.24847472D+04 0.24847472D+04 0.12775639D+01  1  2  3  2  6  5        2 0.384003799544D-04 0.100000000000D+01
-.110367797061D-05 0.000000000000D+00 0.000000000000D+00 0.537473649367D-06 0.000000000000D+00  6 22 1 9900012 13 2 21 2 0.17850461D+00 0.16369853D-02 0.24847472D+04 0.24847472D+04 0.24847472D+04 0.12775639D+01  1  2 15  2  6  5        2 -.432752297114D-04 0.100000000000D+01
  </mgrwgt>
  </event>
  <event>
  6     66 0.10827799E-05 0.76320419E+02 0.78161638E-02 0.10107449E+00
       22 -1    0    0    0    0 0.00000000E+00 0.00000000E+00 0.50652295E+02 0.50652295E+02 0.00000000E+00 0.0000E+00 0.9000E+01
        3 -1    0    0  501    0 0.00000000E+00 0.00000000E+00 -.27151877E+03 0.27151877E+03 0.00000000E+00 0.0000E+00 0.9000E+01
      -24  2    1    2    0    0 0.64056116E+02 -.41492414E+02 -.25141748E+02 0.11209257E+03 0.78152605E+02 0.0000E+00 0.0000E+00
  9900012  1    3    3    0    0 0.62545485E+02 -.15924532E+02 -.97796818E+01 0.82226337E+02 0.50000000E+02 0.0000E+00 0.9000E+01
       13  1    3    3    0    0 0.15106310E+01 -.25567882E+02 -.15362066E+02 0.29866230E+02 0.00000000E+00 0.0000E+00 0.9000E+01
        4  1    1    2  501    0 -.64056116E+02 0.41492414E+02 -.19572473E+03 0.21007850E+03 0.00000000E+00 0.0000E+00 0.9000E+01
#aMCatNLO 1  0  0  2  5 0.35260795D+02 0.00000000D+00  -5  6  0 0.00000000D+00 0.00000000D+00 0.00000000D+00 0.00000000D+00 0.00000000D+00
  <mgrwgt>
 0.2909565837D-04    5    2    0
 0.117273393221184D+03 0.000000000000000D+00 0.000000000000000D+00 0.117273393221184D+03
 0.117273393221184D+03 0.000000000000000D+00 0.000000000000000D+00 -.117273393221184D+03
 0.103735988622429D+03 0.625454845163196D+02 -.159245321776880D+02 0.639970856915630D+02
 0.265578978049673D+02 0.151063099530847D+01 -.255678819505180D+02 0.702305790802559D+01
 0.104252900014972D+03 -.640561155116281D+02 0.414924141282059D+02 -.710201435995886D+02
 0.000000000000000D+00 0.000000000000000D+00 -.000000000000000D+00 -.000000000000000D+00
 0.206220725551573D+03 0.000000000000000D+00 0.000000000000000D+00 0.206220725551573D+03
 0.626207440537642D+03 0.000000000000000D+00 0.000000000000000D+00 -.626207440537642D+03
 0.895214475622349D+02 -.198060104686380D+01 0.376103684655959D+02 0.639970856915630D+02
 0.201808643525372D+02 -.140948195665558D+02 -.126206182503973D+02 0.702305790802559D+01
 0.233606594035348D+03 -.176862903451180D+03 0.135084023343652D+03 -.710201435995886D+02
 0.489119260139095D+03 0.192938324064599D+03 -.160073773558851D+03 -.419986714986069D+03
0.137933625788D-05 0.000000000000D+00 0.000000000000D+00 0.323741336498D-06 0.000000000000D+00  6 22 3 9900012 13 4 21 0 0.77926607D-02 0.41772118D-01 0.84249980D+04 0.84249980D+04 0.84249980D+04 0.12171242D+01  1  2  2  1  6  2        3 0.354464266467D-04 0.100000000000D+01
-.536526726604D-08 0.000000000000D+00 -.264850720892D-08 0.323741336498D-06 0.000000000000D+00  6 22 3 9900012 13 4 21 2 0.77926607D-02 0.41772118D-01 0.84249980D+04 0.84249980D+04 0.84249980D+04 0.12171242D+01  1  2  3  1  6  2        3 -.204250649538D-06 0.100000000000D+01
-.171852514126D-06 0.000000000000D+00 0.000000000000D+00 0.323741336498D-06 0.000000000000D+00  6 22 3 9900012 13 4 21 2 0.77926607D-02 0.41772118D-01 0.84249980D+04 0.84249980D+04 0.84249980D+04 0.12171242D+01  1  2 15  1  6  2        3 -.654226264871D-05 0.100000000000D+01
0.641862696005D-06 0.000000000000D+00 -.685487980411D-06 0.323741336498D-06 0.000000000000D+00  6 22 3 9900012 13 4 21 2 0.77926607D-02 0.30380693D+00 0.84249980D+04 0.84249980D+04 0.84249980D+04 0.12171242D+01  1  2  5  1  6  2        3 0.137131117893D-06 0.100000000000D+01
0.858455165863D-07 0.000000000000D+00 -.165989317918D-06 0.323741336498D-06 0.000000000000D+00  6 22 21 9900012 13 4 -3 2 0.77926607D-02 0.30380693D+00 0.84249980D+04 0.84249980D+04 0.84249980D+04 0.12171242D+01  1  2  5  3  6  2        3 0.258613901977D-06 0.100000000000D+01
  </mgrwgt>
  </event>
  <event>
  6     66 0.10827799E-05 0.66645554E+02 0.78161638E-02 0.11481230E+00
       22 -1    0    0    0    0 0.00000000E+00 0.00000000E+00 0.12478554E+03 0.12478554E+03 0.00000000E+00 0.0000E+00 0.9000E+01
        1 -1    0    0  501    0 0.00000000E+00 0.00000000E+00 -.99129938E+02 0.99129938E+02 0.00000000E+00 0.0000E+00 0.9000E+01
      -24  2    1    2    0    0 0.12614793E+02 -.94992737E+02 0.29203671E+02 0.12802313E+03 0.79713952E+02 0.0000E+00 0.0000E+00
  9900012  1    3    3    0    0 -.40096073E+01 -.35078384E+02 0.23569804E+02 0.65590439E+02 0.50000000E+02 0.0000E+00 0.9000E+01
       13  1    3    3    0    0 0.16624401E+02 -.59914353E+02 0.56338666E+01 0.62432691E+02 0.00000000E+00 0.0000E+00 0.9000E+01
        2  1    1    2  501    0 -.12614793E+02 0.94992737E+02 -.35480715E+01 0.95892346E+02 0.00000000E+00 0.0000E+00 0.9000E+01
#aMCatNLO 1  0  0  5  2 0.48610232D+01 0.00000000D+00  -5  6  0 0.00000000D+00 0.00000000D+00 0.00000000D+00 0.00000000D+00 0.00000000D+00
  <mgrwgt>
 0.3208912749D-04    6    2    0
 0.111220423199430D+03 0.000000000000000D+00 0.000000000000000D+00 0.111220423199430D+03
 0.111220423199430D+03 -.000000000000000D+00 -.000000000000000D+00 -.111220423199430D+03
 0.633067935378032D+02 -.400960727298919D+01 -.350783836677367D+02 0.161610691729692D+02
 0.621967846393027D+02 0.166244006002190D+02 -.599143534462142D+02 -.152956702153059D+01
 0.969372682217550D+02 -.126147933272298D+02 0.949927371139510D+02 -.146315021514386D+02
 0.000000000000000D+00 0.000000000000000D+00 0.000000000000000D+00 0.000000000000000D+00
 0.111220423199430D+03 0.000000000000000D+00 0.000000000000000D+00 0.111220423199430D+03
 0.111220423199430D+03 -.000000000000000D+00 -.000000000000000D+00 -.111220423199430D+03
 0.632167125030322D+02 -.403008551041149D+01 -.349241771125001D+02 0.161373171092509D+02
 0.620461227426998D+02 0.166042914850433D+02 -.597629264793250D+02 -.155289095196085D+01
 0.319339052557737D+02 -.889583639813942D+01 0.302291452999833D+02 -.518046079946227D+01
 0.652441058973553D+02 -.367836957649242D+01 0.644579582918418D+02 -.940396535782773D+01
0.518143402994D-06 0.000000000000D+00 0.000000000000D+00 0.468706876344D-06 0.000000000000D+00  6 22 1 9900012 13 2 21 0 0.19197775D-01 0.15250760D-01 0.12013682D+05 0.12013682D+05 0.12013682D+05 0.12011588D+01  1  2  2  2  6  5        2 0.392481047582D-04 0.100000000000D+01
-.183314503361D-07 0.000000000000D+00 -.994903548893D-09 0.468706876344D-06 0.000000000000D+00  6 22 1 9900012 13 2 21 2 0.19197775D-01 0.15250760D-01 0.12013682D+05 0.12013682D+05 0.12013682D+05 0.12011588D+01  1  2  3  2  6  5        2 -.200339411479D-05 0.100000000000D+01
-.560402698248D-07 0.000000000000D+00 0.000000000000D+00 0.468706876344D-06 0.000000000000D+00  6 22 1 9900012 13 2 21 2 0.19197775D-01 0.15250760D-01 0.12013682D+05 0.12013682D+05 0.12013682D+05 0.12011588D+01  1  2 15  2  6  5        2 -.612448795376D-05 0.100000000000D+01
0.875546480941D-06 0.000000000000D+00 0.000000000000D+00 0.468706876344D-06 0.000000000000D+00  6 22 1 9900012 13 2 21 2 0.19197775D-01 0.15250760D-01 0.12014654D+05 0.12014654D+05 0.12014654D+05 0.12011552D+01  1  2 12  2  6  5        2 0.956861462696D-04 0.100000000000D+01
-.254194105295D-05 0.000000000000D+00 0.000000000000D+00 0.468706876344D-06 0.000000000000D+00  6 22 1 9900012 13 2 21 2 0.19197775D-01 0.15250760D-01 0.12013682D+05 0.12013682D+05 0.12013682D+05 0.12011588D+01  1  2  5  2  6  5        2 -.277801791580D-03 0.100000000000D+01
0.167525853858D-05 0.000000000000D+00 0.000000000000D+00 0.468706876344D-06 0.275265152086D-07  6 22 1 9900012 13 2 21 2 0.19197775D-01 0.15250760D-01 0.12014654D+05 0.12014654D+05 0.12014654D+05 0.12011552D+01  1  2 11  2  6  5        2 0.183084550109D-03 0.100000000000D+01
  </mgrwgt>
  </event>
  <event>
  6     66 0.10827799E-05 0.81512160E+02 0.78161638E-02 0.97430293E-01
       22 -1    0    0    0    0 0.00000000E+00 0.00000000E+00 0.32475467E+02 0.32475467E+02 0.00000000E+00 0.0000E+00 0.9000E+01
        1 -1    0    0  501    0 0.00000000E+00 0.00000000E+00 -.69391507E+03 0.69391507E+03 0.00000000E+00 0.0000E+00 0.9000E+01
      -24  2    1    2    0    0 -.80807695E+02 -.10693390E+02 -.79107532E+02 0.13838129E+03 0.79038901E+02 0.0000E+00 0.0000E+00
  9900012  1    3    3    0    0 -.60187404E+02 0.57953671E+00 -.83543653E+02 0.11446572E+03 0.50000000E+02 0.0000E+00 0.9000E+01
       13  1    3    3    0    0 -.20620291E+02 -.11272927E+02 0.44361213E+01 0.23915569E+02 0.00000000E+00 0.0000E+00 0.9000E+01
        2  1    1    2  501    0 0.80807695E+02 0.10693390E+02 -.58233207E+03 0.58800924E+03 0.00000000E+00 0.0000E+00 0.9000E+01
#aMCatNLO 1  0  0  2  5 0.61215364D-01 0.00000000D+00  -5  6  0 0.00000000D+00 0.00000000D+00 0.00000000D+00 0.00000000D+00 0.00000000D+00
  <mgrwgt>
 0.3109927412D-03    3    2    0
 0.150117340557501D+03 0.000000000000000D+00 0.000000000000000D+00 0.150117340557501D+03
 0.150117340557501D+03 0.000000000000000D+00 0.000000000000000D+00 -.150117340557501D+03
 0.928864586753970D+02 -.601874042052294D+02 0.579536712154132D+00 0.500503218520304D+02
 0.676346565417459D+02 -.206202911888346D+02 -.112729268255639D+02 0.634205919050988D+02
 0.139713565897859D+03 0.808076953940640D+02 0.106933901134098D+02 -.113470913757129D+03
 0.000000000000000D+00 -.000000000000000D+00 -.000000000000000D+00 0.000000000000000D+00
 0.477706581359176D+03 0.000000000000000D+00 0.000000000000000D+00 0.477706581359176D+03
 0.357742408038646D+03 0.000000000000000D+00 0.000000000000000D+00 -.357742408038646D+03
 0.730861964064313D+02 0.160101857856941D+02 0.895719480502528D+01 0.500503218520304D+02
 0.788004546799416D+02 0.466076660890934D+02 -.388144842810121D+01 0.634205919050988D+02
 0.311172425271646D+03 0.287808215273960D+03 0.334523721337980D+02 -.113470913757129D+03
 0.372389913039804D+03 -.350426067148747D+03 -.385281185107221D+02 0.119964173320530D+03
0.944017950467D-05 0.000000000000D+00 0.000000000000D+00 0.174803506236D-05 0.000000000000D+00  6 22 1 9900012 13 2 21 0 0.49962257D-02 0.10675616D+00 0.83961853D+04 0.83961853D+04 0.83961853D+04 0.12172816D+01  1  2  2  1  6  2        1 0.388451707560D-03 0.100000000000D+01
-.116123723202D-08 0.000000000000D+00 -.181263874771D-07 0.174803506236D-05 0.000000000000D+00  6 22 1 9900012 13 2 21 2 0.49962257D-02 0.10675616D+00 0.83961853D+04 0.83961853D+04 0.83961853D+04 0.12172816D+01  1  2  3  1  6  2        1 -.708043406525D-07 0.100000000000D+01
-.126921618430D-05 0.000000000000D+00 0.000000000000D+00 0.174803506236D-05 0.000000000000D+00  6 22 1 9900012 13 2 21 2 0.49962257D-02 0.10675616D+00 0.83961853D+04 0.83961853D+04 0.83961853D+04 0.12172816D+01  1  2 15  1  6  2        1 -.773881620365D-04 0.100000000000D+01
  </mgrwgt>
  </event>
  <event>
  6     66 0.10827799E-05 0.34448581E+02 0.78161638E-02 0.12586859E+00
       22 -1    0    0    0    0 0.00000000E+00 0.00000000E+00 0.28096436E+02 0.28096436E+02 0.00000000E+00 0.0000E+00 0.9000E+01
        1 -1    0    0  501    0 0.00000000E+00 0.00000000E+00 -.13315827E+03 0.13315827E+03 0.00000000E+00 0.0000E+00 0.9000E+01
      -24  2    1    2    0    0 -.97201908E+01 -.33048792E+02 -.83060214E+02 0.12037958E+03 0.80034611E+02 0.0000E+00 0.0000E+00
  9900012  1    3    3    0    0 -.77109502E+01 -.48834670E+02 -.73947956E+02 0.10204207E+03 0.50000000E+02 0.0000E+00 0.9000E+01
       13  1    3    3    0    0 -.20092405E+01 0.15785878E+02 -.91122583E+01 0.18337509E+02 0.00000000E+00 0.0000E+00 0.9000E+01
        2  1    1    2  501    0 0.97201908E+01 0.33048792E+02 -.22001621E+02 0.40875128E+02 0.00000000E+00 0.0000E+00 0.9000E+01
#aMCatNLO 1  0  0  2  2 0.13200910D+03 0.00000000D+00  -5  6  0 0.00000000D+00 0.00000000D+00 0.00000000D+00 0.00000000D+00 0.00000000D+00
  <mgrwgt>
 0.1275348994D-03    5    2    0
 0.611659444293833D+02 0.000000000000000D+00 0.000000000000000D+00 0.611659444293833D+02
 0.611659444293833D+02 0.000000000000000D+00 0.000000000000000D+00 -.611659444293833D+02
 0.710007506076221D+02 -.771095022100737D+01 -.488346696586693D+02 -.983986142501759D+01
 0.163461797525215D+02 -.200924053972844D+01 0.157858777872492D+02 0.373719245440859D+01
 0.349849584986229D+02 0.972019076073580D+01 0.330487918714201D+02 0.610266897060900D+01
 0.000000000000000D+00 -.000000000000000D+00 0.000000000000000D+00 -.000000000000000D+00
 0.115067176379040D+03 0.000000000000000D+00 0.000000000000000D+00 0.115067176379040D+03
 0.157538845543479D+03 0.000000000000000D+00 0.000000000000000D+00 -.157538845543479D+03
 0.118530154222997D+03 0.404054138145807D+02 -.990957976996829D+02 -.983986142501759D+01
 0.105829463040869D+02 0.482727846311168D+01 0.864462420660821D+01 0.373719245440859D+01
 0.313295979167223D+02 0.265555208098952D+02 0.154630350052595D+02 0.610266897060900D+01
 0.112163323478712D+03 -.717882130875875D+02 0.749881384878152D+02 -.424716691644393D+02
0.359202000096D-06 0.000000000000D+00 0.000000000000D+00 0.100661320682D-06 0.000000000000D+00  6 22 1 9900012 13 2 21 0 0.43225285D-02 0.20485888D-01 0.36407596D+04 0.36407596D+04 0.36407596D+04 0.12576611D+01  1  2  2  1  6  2        1 0.137516352488D-03 0.100000000000D+01
-.104972551798D-07 0.000000000000D+00 -.689715130214D-09 0.100661320682D-06 0.000000000000D+00  6 22 1 9900012 13 2 21 2 0.43225285D-02 0.20485888D-01 0.36407596D+04 0.36407596D+04 0.36407596D+04 0.12576611D+01  1  2  3  1  6  2        1 -.635650772624D-05 0.100000000000D+01
-.346376041707D-07 0.000000000000D+00 0.000000000000D+00 0.100661320682D-06 0.000000000000D+00  6 22 1 9900012 13 2 21 2 0.43225285D-02 0.20485888D-01 0.36407596D+04 0.36407596D+04 0.36407596D+04 0.12576611D+01  1  2 15  1  6  2        1 -.209744542509D-04 0.100000000000D+01
0.127557453884D-06 0.000000000000D+00 -.128987446095D-06 0.100661320682D-06 0.000000000000D+00  6 22 1 9900012 13 2 21 2 0.43225285D-02 0.92230919D-01 0.36407596D+04 0.36407596D+04 0.36407596D+04 0.12576611D+01  1  2  5  1  6  2        1 0.117672264236D-04 0.100000000000D+01
0.220652010686D-07 0.000000000000D+00 -.234665680039D-07 0.100661320682D-06 0.000000000000D+00  6 22 21 9900012 13 2 -1 2 0.43225285D-02 0.92230919D-01 0.36407596D+04 0.36407596D+04 0.36407596D+04 0.12576611D+01  1  2  5  3  6  2        1 0.558228249162D-05 0.100000000000D+01
  </mgrwgt>
  </event>
  <event>
  6     66 0.10827799E-05 0.42838840E+02 0.78161638E-02 0.11650666E+00
       22 -1    0    0    0    0 0.00000000E+00 0.00000000E+00 0.81913548E+03 0.81913548E+03 0.00000000E+00 0.0000E+00 0.9000E+01
        1 -1    0    0  501    0 -.00000000E+00 -.00000000E+00 -.15542421E+04 0.15542421E+04 0.00000000E+00 0.0000E+00 0.9000E+01
      -24  2    1    2    0    0 0.17945376E+02 -.38898968E+02 0.81649410E+03 0.82118560E+03 0.76472222E+02 0.0000E+00 0.0000E+00
  9900012  1    3    3    0    0 0.41696986E+01 -.10022294E+02 0.36630486E+03 0.36986090E+03 0.50000000E+02 0.0000E+00 0.9000E+01
       13  1    3    3    0    0 0.13775677E+02 -.28876674E+02 0.45018924E+03 0.45132470E+03 0.00000000E+00 0.0000E+00 0.9000E+01
        2  1    1    2  501    0 -.17945376E+02 0.38898968E+02 -.15516007E+04 0.15521920E+04 0.00000000E+00 0.0000E+00 0.9000E+01
#aMCatNLO 1  0  0  5  5 0.41320153D+02 0.00000000D+00  -5  6  0 0.00000000D+00 0.00000000D+00 0.00000000D+00 0.00000000D+00 0.00000000D+00
  <mgrwgt>
 0.1015286092D-01    6    2    0
 0.112833278048160D+04 0.000000000000000D+00 0.000000000000000D+00 0.112833278048160D+04
 0.112833278048160D+04 -.000000000000000D+00 -.000000000000000D+00 -.112833278048160D+04
 0.508313115717098D+03 0.416969862466394D+01 -.100222935378467D+02 0.505731540301418D+03
 0.621315381967572D+03 0.137756769949201D+02 -.288766744758396D+02 0.620491073476531D+03
 0.112703706327853D+04 -.179453756195828D+02 0.388989680136834D+02 -.112622261377795D+04
 0.000000000000000D+00 0.000000000000000D+00 0.000000000000000D+00 -.000000000000000D+00
 0.112833278048160D+04 0.000000000000000D+00 0.000000000000000D+00 0.112833278048160D+04
 0.112833278048160D+04 -.000000000000000D+00 -.000000000000000D+00 -.112833278048160D+04
 0.506567867146180D+03 0.414176995705094D+01 -.996175446799529D+01 0.503978782504355D+03
 0.619171636593097D+03 0.137415398397220D+02 -.288026776904682D+02 0.618348681087028D+03
 0.100743329525053D+04 -.350174803011055D+02 0.708952876201665D+02 -.100432538484595D+04
 0.123492761973392D+03 0.171341705043338D+02 -.321308554617058D+02 -.118002078745437D+03
0.428202701951D-01 0.000000000000D+00 0.000000000000D+00 0.354386698663D-02 0.000000000000D+00  6 22 1 9900012 13 2 21 0 0.12602084D+00 0.23911417D+00 0.39688642D+04 0.39688642D+04 0.39688642D+04 0.12532995D+01  1  2  2  2  6  5        2 0.258364165435D-02 0.100000000000D+01
0.206116620179D-02 0.000000000000D+00 -.822205561925D-04 0.354386698663D-02 0.000000000000D+00  6 22 1 9900012 13 2 21 2 0.12602084D+00 0.23911417D+00 0.39688642D+04 0.39688642D+04 0.39688642D+04 0.12532995D+01  1  2  3  2  6  5        2 0.195346493589D-03 0.100000000000D+01
-.564489675049D-02 0.000000000000D+00 0.000000000000D+00 0.354386698663D-02 0.000000000000D+00  6 22 1 9900012 13 2 21 2 0.12602084D+00 0.23911417D+00 0.39688642D+04 0.39688642D+04 0.39688642D+04 0.12532995D+01  1  2 15  2  6  5        2 -.534993629297D-03 0.100000000000D+01
-.453370265759D-02 0.000000000000D+00 0.000000000000D+00 0.354386698663D-02 0.000000000000D+00  6 22 1 9900012 13 2 21 2 0.12602084D+00 0.23911417D+00 0.39688642D+04 0.39688642D+04 0.39688642D+04 0.12532995D+01  1  2  4  2  6  5        2 -.429680496589D-03 0.100000000000D+01
-.761519450051D+00 0.000000000000D+00 0.000000000000D+00 0.354386698663D-02 0.000000000000D+00  6 22 1 9900012 13 2 21 2 0.12602084D+00 0.23911417D+00 0.39688642D+04 0.39688642D+04 0.39688642D+04 0.12532995D+01  1  2  5  2  6  5        2 -.721728088877D-01 0.100000000000D+01
0.849502247841D+00 0.000000000000D+00 -.000000000000D+00 0.354386698663D-02 0.000000000000D+00  6 22 1 9900012 13 2 21 2 0.12602084D+00 0.23911417D+00 0.39688642D+04 0.39688642D+04 0.39688642D+04 0.12532995D+01  1  2  6  2  6  5        2 0.805113557887D-01 0.100000000000D+01
  </mgrwgt>
  </event>
  <event>
  6     66 0.10827799E-05 0.20695881E+02 0.78161638E-02 0.12851482E+00
       22 -1    0    0    0    0 0.00000000E+00 0.00000000E+00 0.58354639E+02 0.58354639E+02 0.00000000E+00 0.0000E+00 0.9000E+01
        3 -1    0    0  501    0 0.00000000E+00 0.00000000E+00 -.86366883E+02 0.86366883E+02 0.00000000E+00 0.0000E+00 0.9000E+01
      -24  2    1    2    0    0 -.12890904E+02 0.20032561E+02 0.25627232E+02 0.86030190E+02 0.78593637E+02 0.0000E+00 0.0000E+00
  9900012  1    3    3    0    0 -.31571714E+02 0.21725675E+02 0.23116517E+02 0.67105525E+02 0.50000000E+02 0.0000E+00 0.9000E+01
       13  1    3    3    0    0 0.18680810E+02 -.16931137E+01 0.25107146E+01 0.18924666E+02 0.00000000E+00 0.0000E+00 0.9000E+01
        4  1    1    2  501    0 0.12890904E+02 -.20032561E+02 -.53639476E+02 0.58691331E+02 0.00000000E+00 0.0000E+00 0.9000E+01
#aMCatNLO 1  0  0  2  5 0.16898449D+01 0.00000000D+00  -5  6  0 0.00000000D+00 0.00000000D+00 0.00000000D+00 0.00000000D+00 0.00000000D+00
  <mgrwgt>
 0.5402839652D-04    8    2    0
 0.709923110027524D+02 0.000000000000000D+00 0.000000000000000D+00 0.709923110027524D+02
 0.709923110027524D+02 0.000000000000000D+00 0.000000000000000D+00 -.709923110027524D+02
 0.729597262111403D+02 -.315717139294575D+02 0.217256751688780D+02 0.368014071309434D+02
 0.197847986065794D+02 0.186808096154377D+02 -.169311369614566D+01 0.629277156955525D+01
 0.492400971877852D+02 0.128909043140199D+02 -.200325614727323D+02 -.430941787004986D+02
 0.000000000000000D+00 -.000000000000000D+00 0.000000000000000D+00 0.000000000000000D+00
 0.717876955119775D+02 0.000000000000000D+00 0.000000000000000D+00 0.717876955119775D+02
 0.711039867916382D+02 0.000000000000000D+00 0.000000000000000D+00 -.711039867916382D+02
 0.728313460903240D+02 -.314722772101084D+02 0.214372846629696D+02 0.368014071309434D+02
 0.198171527834641D+02 0.187078201042412D+02 -.177145063829200D+01 0.629277156955525D+01
 0.493373663838236D+02 0.129581390179327D+02 -.202275583552012D+02 -.430941787004986D+02
 0.905817046004019D+00 -.193681912065383D+00 0.561724330523557D+00 0.683708720339303D+00
0.313524081402D-06 0.000000000000D+00 0.000000000000D+00 0.261909111867D-06 0.000000000000D+00  6 22 3 9900012 13 4 21 0 0.89776367D-02 0.13287213D-01 0.27866487D+04 0.27866487D+04 0.27866487D+04 0.12714878D+01  1  2  2  1  6  2        3 0.439440533086D-04 0.100000000000D+01
0.185960586934D-07 0.000000000000D+00 -.602007512686D-09 0.261909111867D-06 0.000000000000D+00  6 22 3 9900012 13 4 21 2 0.89776367D-02 0.13287213D-01 0.27866487D+04 0.27866487D+04 0.27866487D+04 0.12714878D+01  1  2  3  1  6  2        3 0.421380560195D-05 0.100000000000D+01
-.393555174438D-07 0.000000000000D+00 0.000000000000D+00 0.261909111867D-06 0.000000000000D+00  6 22 3 9900012 13 4 21 2 0.89776367D-02 0.13287213D-01 0.27866487D+04 0.27866487D+04 0.27866487D+04 0.12714878D+01  1  2 15  1  6  2        3 -.891783052560D-05 0.100000000000D+01
0.146998404997D-10 0.000000000000D+00 0.000000000000D+00 0.261909111867D-06 0.000000000000D+00  6 22 3 9900012 13 4 21 2 0.89776367D-02 0.13457216D-01 0.28226600D+04 0.28226600D+04 0.28226600D+04 0.12708127D+01  1  2 12  1  6  2        3 0.326448889396D-08 0.100000000000D+01
-.441179688022D-07 0.000000000000D+00 0.000000000000D+00 0.261909111867D-06 0.000000000000D+00  6 22 3 9900012 13 4 21 2 0.89776367D-02 0.13287213D-01 0.27866487D+04 0.27866487D+04 0.27866487D+04 0.12714878D+01  1  2  4  1  6  2        3 -.999698630500D-05 0.100000000000D+01
0.435313265944D-07 0.000000000000D+00 0.000000000000D+00 0.261909111867D-06 0.494329657036D-07  6 22 3 9900012 13 4 21 2 0.90782205D-02 0.13308114D-01 0.28226600D+04 0.28226600D+04 0.28226600D+04 0.12708127D+01  1  2 11  1  6  2        3 0.969234755437D-05 0.100000000000D+01
0.167883885110D-11 0.000000000000D+00 0.000000000000D+00 0.261909111867D-06 0.000000000000D+00  6 22 21 9900012 13 4 -3 2 0.89776367D-02 0.13457216D-01 0.28226600D+04 0.28226600D+04 0.28226600D+04 0.12708127D+01  1  2 12  3  6  2        3 0.650653713965D-08 0.100000000000D+01
0.387977718003D-08 0.000000000000D+00 0.000000000000D+00 0.261909111867D-06 0.202527230590D-08  6 22 21 9900012 13 4 -3 2 0.90782205D-02 0.13308114D-01 0.28226600D+04 0.28226600D+04 0.28226600D+04 0.12708127D+01  1  2 11  3  6  2        3 0.150832358617D-04 0.100000000000D+01
  </mgrwgt>
  </event>
  <event>
  7     66 -.10827799E-05 0.81929251E+02 0.78161638E-02 0.11485448E+00
       22 -1    0    0    0    0 0.00000000E+00 0.00000000E+00 0.85694320E+02 0.85694320E+02 0.00000000E+00 0.0000E+00 0.9000E+01
        3 -1    0    0  502    0 0.00000000E+00 0.00000000E+00 -.40559302E+03 0.40559302E+03 0.00000000E+00 0.0000E+00 0.9000E+01
      -24  2    1    2    0    0 -.36828504E+02 -.64563152E+02 0.35413693E+02 0.11452237E+03 0.79602169E+02 0.0000E+00 0.0000E+00
  9900012  1    3    3    0    0 -.75551204E+01 -.47549964E+02 0.59984128E+01 0.69671084E+02 0.50000000E+02 0.0000E+00 0.9000E+01
       13  1    3    3    0    0 -.29273383E+02 -.17013187E+02 0.29415281E+02 0.44851291E+02 0.00000000E+00 0.0000E+00 0.9000E+01
        4  1    1    2  501    0 0.57356107E+02 0.73318348E+02 -.20943730E+03 0.22919268E+03 0.00000000E+00 0.0000E+00 0.9000E+01
       21  1    1    2  502  501 -.20527603E+02 -.87551965E+01 -.14587509E+03 0.14757228E+03 0.00000000E+00 0.0000E+00 0.9000E+01
#aMCatNLO 2  0  0  2  5 0.22620106D+02 0.00000000D+00  -5  6  0 0.00000000D+00 0.00000000D+00 0.00000000D+00 0.00000000D+00 0.00000000D+00
  <mgrwgt>
 -.2940365344D-04    2    2    0
 0.147781755848203D+03 0.000000000000000D+00 0.000000000000000D+00 0.147781755848203D+03
 0.147781755848203D+03 0.000000000000000D+00 0.000000000000000D+00 -.147781755848203D+03
 0.864865346484152D+02 -.134779217957427D+02 -.500760893564953D+02 0.478607519197063D+02
 0.720145844014231D+02 -.341730464631455D+02 -.191029352475192D+02 0.604432057957425D+02
 0.137062392646569D+03 0.476509682588882D+02 0.691790246040146D+02 -.108303957715449D+03
 0.000000000000000D+00 -.000000000000000D+00 -.000000000000000D+00 -.000000000000000D+00
 0.149684681583571D+03 0.000000000000000D+00 0.000000000000000D+00 0.149684681583571D+03
 0.232201572255506D+03 0.000000000000000D+00 0.000000000000000D+00 -.232201572255506D+03
 0.843132879891451D+02 -.755512036276026D+01 -.475499643903658D+02 0.478607519197063D+02
 0.692803049500651D+02 -.292733834529566D+02 -.170131874827648D+02 0.604432057957425D+02
 0.142811240693252D+03 0.573561068884323D+02 0.733183484137433D+02 -.108303957715449D+03
 0.854814202066140D+02 -.205276030727155D+02 -.875519654061274D+01 -.825168906719346D+02
-.682613289508D-05 0.000000000000D+00 0.000000000000D+00 0.270945158190D-05 0.000000000000D+00  6 22 3 9900012 13 4 21 2 0.13016138D-01 0.63202412D-01 0.11954682D+05 0.11954682D+05 0.11954682D+05 0.12013759D+01  1  2 13  1  6  2        3 -.553772381040D-04 0.100000000000D+01
0.317696487784D-05 0.000000000000D+00 0.000000000000D+00 0.270945158190D-05 0.214941256340D-07  6 22 3 9900012 13 4 21 2 0.13183742D-01 0.62398927D-01 0.11954682D+05 0.11954682D+05 0.11954682D+05 0.12013759D+01  1  2  1  1  6  2        3 0.259735846667D-04 0.100000000000D+01
  </mgrwgt>
  </event>
  <event>
  6     66 0.10827799E-05 0.36106334E+02 0.78161638E-02 0.98487617E-01
       22 -1    0    0    0    0 0.00000000E+00 0.00000000E+00 0.17959498E+03 0.17959498E+03 0.00000000E+00 0.0000E+00 0.9000E+01
        1 -1    0    0  501    0 0.00000000E+00 0.00000000E+00 -.14444041E+03 0.14444041E+03 0.00000000E+00 0.0000E+00 0.9000E+01
      -24  2    1    2    0    0 -.30824778E+02 -.18801606E+02 0.16620384E+03 0.18810314E+03 0.80345543E+02 0.0000E+00 0.0000E+00
  9900012  1    3    3    0    0 -.30231681E+02 -.35558970E+02 0.11074353E+03 0.13016345E+03 0.50000000E+02 0.0000E+00 0.9000E+01
       13  1    3    3    0    0 -.59309768E+00 0.16757364E+02 0.55460314E+02 0.57939688E+02 0.00000000E+00 0.0000E+00 0.9000E+01
        2  1    1    2  501    0 0.30824778E+02 0.18801606E+02 -.13104927E+03 0.13593226E+03 0.00000000E+00 0.0000E+00 0.9000E+01
#aMCatNLO 1  0  0  2  5 0.67464096D+02 0.00000000D+00  -5  6  0 0.00000000D+00 0.00000000D+00 0.00000000D+00 0.00000000D+00 0.00000000D+00
  <mgrwgt>
 0.1396067977D-03    5    2    0
 0.161061395139398D+03 0.000000000000000D+00 0.000000000000000D+00 0.161061395139398D+03
 0.161061395139398D+03 0.000000000000000D+00 0.000000000000000D+00 -.161061395139398D+03
 0.118850402448233D+03 -.302316807521942D+02 -.355589700240603D+02 0.971957987355030D+02
 0.522310944331170D+02 -.593097679971034D+00 0.167573638542832D+02 0.494664150457496D+02
 0.151041293397446D+03 0.308247784321653D+02 0.188016061697771D+02 -.146662213781253D+03
 0.000000000000000D+00 0.000000000000000D+00 -.000000000000000D+00 -.000000000000000D+00
 0.260460452863958D+03 0.000000000000000D+00 0.000000000000000D+00 0.260460452863958D+03
 0.118016206372129D+04 0.000000000000000D+00 0.000000000000000D+00 -.118016206372129D+04
 0.198743427244837D+03 -.164195945031489D+03 -.243232032513730D+02 0.971957987355030D+02
 0.770878867846371D+02 -.551411416168662D+02 0.213323831915557D+02 0.494664150457496D+02
 0.186921856542999D+03 -.111731469524665D+03 0.307579944099497D+02 -.146662213781253D+03
 0.977869346012773D+03 0.331068556173021D+03 -.277671743501324D+02 -.919701610857331D+03
0.583866747024D-05 0.000000000000D+00 0.000000000000D+00 0.123956821774D-04 0.000000000000D+00  6 22 1 9900012 13 2 21 0 0.27629997D-01 0.22221602D-01 0.36767841D+04 0.36767841D+04 0.36767841D+04 0.12571610D+01  1  2  2  1  6  2        1 0.145011443214D-03 0.100000000000D+01
0.351530766904D-06 0.000000000000D+00 -.112110102211D-07 0.123956821774D-04 0.000000000000D+00  6 22 1 9900012 13 2 21 2 0.27629997D-01 0.22221602D-01 0.36767841D+04 0.36767841D+04 0.36767841D+04 0.12571610D+01  1  2  3  1  6  2        1 0.137985566958D-04 0.100000000000D+01
-.749117847876D-06 0.000000000000D+00 0.000000000000D+00 0.123956821774D-04 0.000000000000D+00  6 22 1 9900012 13 2 21 2 0.27629997D-01 0.22221602D-01 0.36767841D+04 0.36767841D+04 0.36767841D+04 0.12571610D+01  1  2 15  1  6  2        1 -.294049513411D-04 0.100000000000D+01
0.540822611332D-05 0.000000000000D+00 -.381375466244D-05 0.123956821774D-04 0.000000000000D+00  6 22 1 9900012 13 2 21 2 0.27629997D-01 0.21867276D+00 0.36767841D+04 0.36767841D+04 0.36767841D+04 0.12571610D+01  1  2  5  1  6  2        1 0.869427245320D-05 0.100000000000D+01
0.875901451740D-06 0.000000000000D+00 -.103949756947D-05 0.123956821774D-04 0.000000000000D+00  6 22 21 9900012 13 2 -1 2 0.27629997D-01 0.21867276D+00 0.36767841D+04 0.36767841D+04 0.36767841D+04 0.12571610D+01  1  2  5  3  6  2        1 0.150747663143D-05 0.100000000000D+01
  </mgrwgt>
  </event>
  <event>
  7     66 0.10827799E-05 0.34785386E+02 0.78161638E-02 0.12025041E+00
       22 -1    0    0    0    0 0.00000000E+00 0.00000000E+00 0.39115403E+03 0.39115403E+03 0.00000000E+00 0.0000E+00 0.9000E+01
        1 -1    0    0  502    0 0.00000000E+00 0.00000000E+00 -.72344606E+03 0.72344606E+03 0.00000000E+00 0.0000E+00 0.9000E+01
      -24  2    1    2    0    0 0.59833443E+02 0.94417291E+01 0.38220220E+03 0.39598976E+03 0.84024904E+02 0.0000E+00 0.0000E+00
  9900012  1    3    3    0    0 0.22087354E+02 0.22195121E+02 0.16660190E+03 0.17673898E+03 0.50000000E+02 0.0000E+00 0.9000E+01
       13  1    3    3    0    0 0.37746089E+02 -.12753392E+02 0.21560030E+03 0.21925078E+03 0.00000000E+00 0.0000E+00 0.9000E+01
        2  1    1    2  501    0 -.17940718E+02 0.38965859E+01 -.62635328E+02 0.65270492E+02 0.00000000E+00 0.0000E+00 0.9000E+01
       21  1    1    2  502  501 -.41892725E+02 -.13338315E+02 -.65185890E+03 0.65333983E+03 0.00000000E+00 0.0000E+00 0.9000E+01
#aMCatNLO 2  0  0  2  5 0.44010991D+02 0.00000000D+00  -5  6  0 0.00000000D+00 0.00000000D+00 0.00000000D+00 0.00000000D+00 0.00000000D+00
  <mgrwgt>
 0.1722688955D-02    1    2    0
 0.164852302599624D+03 0.000000000000000D+00 0.000000000000000D+00 0.164852302599624D+03
 0.164852302599624D+03 0.000000000000000D+00 0.000000000000000D+00 -.164852302599624D+03
 0.820761209317599D+02 0.115178991935029D+02 0.188298892567684D+02 0.612312248444454D+02
 0.934830149287838D+02 0.257038772350291D+02 -.165875374680211D+02 0.883359404546573D+02
 0.154145469338704D+03 -.372217764285320D+02 -.224235178874727D+01 -.149567165299103D+03
 0.000000000000000D+00 -.000000000000000D+00 -.000000000000000D+00 -.000000000000000D+00
 0.166626912866618D+03 0.000000000000000D+00 0.000000000000000D+00 0.166626912866618D+03
 0.169827811570824D+04 0.000000000000000D+00 0.000000000000000D+00 -.169827811570824D+04
 0.850278629638472D+02 0.220873538514605D+02 0.221951207270456D+02 0.612312248444454D+02
 0.969053901075044D+02 0.377460893207028D+02 -.127533915831196D+02 0.883359404546573D+02
 0.150689713277575D+03 -.179407182173421D+02 0.389658593058836D+01 -.149567165299103D+03
 0.153228206222593D+04 -.418927249548212D+02 -.133383150745144D+02 -.153165120284162D+04
0.121981422349D-02 0.000000000000D+00 0.000000000000D+00 0.116786038488D-05 0.270826096985D-06  6 22 1 9900012 13 2 21 2 0.60177543D-01 0.11129939D+00 0.64932831D+04 0.64932831D+04 0.64932831D+04 0.12292727D+01  1  2  1  1  6  2        1 0.172268895543D-02 0.100000000000D+01
  </mgrwgt>
  </event>
  <event>
  6     66 0.10827799E-05 0.48653896E+02 0.78161638E-02 0.11683382E+00
       22 -1    0    0    0    0 0.00000000E+00 0.00000000E+00 0.32506906E+03 0.32506906E+03 0.00000000E+00 0.0000E+00 0.9000E+01
        1 -1    0    0  501    0 0.00000000E+00 0.00000000E+00 -.39007382E+03 0.39007382E+03 0.00000000E+00 0.0000E+00 0.9000E+01
      -24  2    1    2    0    0 0.61430683E+02 -.27765344E+02 0.31353803E+03 0.33064414E+03 0.80466221E+02 0.0000E+00 0.0000E+00
  9900012  1    3    3    0    0 0.27489292E+02 0.52172865E+01 0.15818183E+03 0.16823904E+03 0.50000000E+02 0.0000E+00 0.9000E+01
       13  1    3    3    0    0 0.33941391E+02 -.32982631E+02 0.15535619E+03 0.16240511E+03 0.00000000E+00 0.0000E+00 0.9000E+01
        2  1    1    2  501    0 -.61430683E+02 0.27765344E+02 -.37854279E+03 0.38449874E+03 0.00000000E+00 0.0000E+00 0.9000E+01
#aMCatNLO 1  0  0  2  5 0.22471789D+02 0.00000000D+00  -5  6  0 0.00000000D+00 0.00000000D+00 0.00000000D+00 0.00000000D+00 0.00000000D+00
  <mgrwgt>
 0.4450127895D-03    9    2    0
 0.356091186566335D+03 0.000000000000000D+00 0.000000000000000D+00 0.356091186566335D+03
 0.356091186566335D+03 0.000000000000000D+00 0.000000000000000D+00 -.356091186566335D+03
 0.183376515846204D+03 0.274892920962659D+02 0.521728651356119D+01 0.174195480151968D+03
 0.177260425446991D+03 0.339413905399583D+02 -.329826309038407D+02 0.170825602579131D+03
 0.351545431839475D+03 -.614306826362242D+02 0.277653443902795D+02 -.345021082731099D+03
 0.000000000000000D+00 0.000000000000000D+00 -.000000000000000D+00 -.000000000000000D+00
 0.361030901675698D+03 0.000000000000000D+00 0.000000000000000D+00 0.361030901675698D+03
 0.377540695687767D+03 0.000000000000000D+00 0.000000000000000D+00 -.377540695687767D+03
 0.183371321888795D+03 0.260146090501467D+02 0.102086483844539D+02 0.174195480151968D+03
 0.176160874294217D+03 0.325202931393994D+02 -.281726404461349D+02 0.170825602579131D+03
 0.352937094195525D+03 -.642633876464218D+02 0.373532051964339D+02 -.345021082731099D+03
 0.261023069849288D+02 0.572848545687569D+01 -.193892131347529D+02 -.165097940120691D+02
0.230321350007D-04 0.000000000000D+00 0.000000000000D+00 0.170218469323D-03 0.000000000000D+00  6 22 1 9900012 13 2 21 0 0.50010625D-01 0.60011358D-01 0.73992414D+04 0.73992414D+04 0.73992414D+04 0.12231356D+01  1  2  2  1  6  2        1 0.678631785970D-04 0.100000000000D+01
0.692509462896D-06 0.000000000000D+00 -.442247314516D-07 0.170218469323D-03 0.000000000000D+00  6 22 1 9900012 13 2 21 2 0.50010625D-01 0.60011358D-01 0.73992414D+04 0.73992414D+04 0.73992414D+04 0.12231356D+01  1  2  3  1  6  2        1 0.305263522735D-05 0.100000000000D+01
-.330955117146D-05 0.000000000000D+00 0.000000000000D+00 0.170218469323D-03 0.000000000000D+00  6 22 1 9900012 13 2 21 2 0.50010625D-01 0.60011358D-01 0.73992414D+04 0.73992414D+04 0.73992414D+04 0.12231356D+01  1  2 15  1  6  2        1 -.145887573153D-04 0.100000000000D+01
0.837708004270D-04 0.000000000000D+00 0.000000000000D+00 0.170218469323D-03 0.000000000000D+00  6 22 1 9900012 13 2 21 2 0.50010625D-01 0.64508828D-01 0.94920740D+04 0.94920740D+04 0.94920740D+04 0.12116836D+01  1  2 12  1  6  2        1 0.333696146216D-03 0.100000000000D+01
-.193261762179D-05 0.000000000000D+00 0.000000000000D+00 0.170218469323D-03 0.000000000000D+00  6 22 1 9900012 13 2 21 2 0.50010625D-01 0.60011358D-01 0.73992414D+04 0.73992414D+04 0.73992414D+04 0.12231356D+01  1  2  4  1  6  2        1 -.851912782334D-05 0.100000000000D+01
-.174920385929D-03 0.000000000000D+00 -.393997142008D-04 0.170218469323D-03 0.000000000000D+00  6 22 1 9900012 13 2 21 2 0.50010625D-01 0.64286158D-01 0.73992414D+04 0.73992414D+04 0.73992414D+04 0.12231356D+01  1  2  5  1  6  2        1 -.705999315710D-03 0.100000000000D+01
0.177304668725D-03 0.000000000000D+00 0.393066213020D-04 0.170218469323D-03 0.000000000000D+00  6 22 1 9900012 13 2 21 2 0.50010625D-01 0.60011358D-01 0.73992414D+04 0.73992414D+04 0.73992414D+04 0.12231356D+01  1  2  6  1  6  2        1 0.781572681277D-03 0.100000000000D+01
0.121453439612D-05 0.000000000000D+00 0.000000000000D+00 0.170218469323D-03 0.000000000000D+00  6 22 21 9900012 13 2 -1 2 0.50010625D-01 0.64508828D-01 0.94920740D+04 0.94920740D+04 0.94920740D+04 0.12116836D+01  1  2 12  3  6  2        1 0.181087035848D-04 0.100000000000D+01
-.197730353436D-05 0.000000000000D+00 -.459811132688D-06 0.170218469323D-03 0.000000000000D+00  6 22 21 9900012 13 2 -1 2 0.50010625D-01 0.64286158D-01 0.73992414D+04 0.73992414D+04 0.73992414D+04 0.12231356D+01  1  2  5  3  6  2        1 -.301733545369D-04 0.100000000000D+01
  </mgrwgt>
  </event>
  <event>
  6     66 0.10827799E-05 0.13814033E+03 0.78161638E-02 0.97135399E-01
       22 -1    0    0    0    0 0.00000000E+00 0.00000000E+00 0.27757454E+03 0.27757454E+03 0.00000000E+00 0.0000E+00 0.9000E+01
        3 -1    0    0  501    0 0.00000000E+00 0.00000000E+00 -.11195555E+03 0.11195555E+03 0.00000000E+00 0.0000E+00 0.9000E+01
      -24  2    1    2    0    0 0.85417909E+02 -.10856579E+03 0.19197145E+03 0.24889864E+03 0.77554801E+02 0.0000E+00 0.0000E+00
  9900012  1    3    3    0    0 0.41541923E+02 -.41140493E+02 0.79587603E+02 0.11069082E+03 0.50000000E+02 0.0000E+00 0.9000E+01
       13  1    3    3    0    0 0.43875985E+02 -.67425296E+02 0.11238385E+03 0.13820782E+03 0.00000000E+00 0.0000E+00 0.9000E+01
        4  1    1    2  501    0 -.85417909E+02 0.10856579E+03 -.26352463E+02 0.14063144E+03 0.00000000E+00 0.0000E+00 0.9000E+01
#aMCatNLO 1  0  0  2  5 0.50094454D+02 0.00000000D+00  -5  6  0 0.00000000D+00 0.00000000D+00 0.00000000D+00 0.00000000D+00 0.00000000D+00
  <mgrwgt>
 0.1048339603D-03    3    2    0
 0.176283887886794D+03 0.000000000000000D+00 0.000000000000000D+00 0.176283887886794D+03
 0.176283887886794D+03 0.000000000000000D+00 0.000000000000000D+00 -.176283887886794D+03
 0.849090269536997D+02 0.415419232017307D+02 -.411404925376427D+02 0.359342642708289D+02
 0.999047771445343D+02 0.438759853805756D+02 -.674252958921792D+02 0.592426525151825D+02
 0.167753971675354D+03 -.854179085823063D+02 0.108565788429822D+03 -.951769167860114D+02
 0.000000000000000D+00 -.000000000000000D+00 -.000000000000000D+00 0.000000000000000D+00
 0.521413086173865D+03 0.000000000000000D+00 0.000000000000000D+00 0.521413086173865D+03
 0.332544230539873D+03 0.000000000000000D+00 0.000000000000000D+00 -.332544230539873D+03
 0.136427984288415D+03 0.121438542910712D+03 -.860254869427866D+01 0.359342642708289D+02
 0.149670465103937D+03 0.133965835725988D+03 -.307361530714525D+02 0.592426525151825D+02
 0.192775420909373D+03 0.447233615631685D+02 0.161565894756241D+03 -.951769167860114D+02
 0.375083446412012D+03 -.300127740199869D+03 -.122227192990510D+03 0.188868855633991D+03
0.118900686644D-04 0.000000000000D+00 0.000000000000D+00 0.269946070968D-06 0.000000000000D+00  6 22 3 9900012 13 4 21 0 0.42703775D-01 0.17223930D-01 0.21832256D+05 0.21832256D+05 0.21832256D+05 0.11756825D+01  1  2  2  1  6  2        3 0.128758950850D-03 0.100000000000D+01
-.186144803935D-06 0.000000000000D+00 -.228304971991D-07 0.269946070968D-06 0.000000000000D+00  6 22 3 9900012 13 4 21 2 0.42703775D-01 0.17223930D-01 0.21832256D+05 0.21832256D+05 0.21832256D+05 0.11756825D+01  1  2  3  1  6  2        3 -.278627584221D-05 0.100000000000D+01
-.141222984471D-05 0.000000000000D+00 0.000000000000D+00 0.269946070968D-06 0.000000000000D+00  6 22 3 9900012 13 4 21 2 0.42703775D-01 0.17223930D-01 0.21832256D+05 0.21832256D+05 0.21832256D+05 0.11756825D+01  1  2 15  1  6  2        3 -.211387146823D-04 0.100000000000D+01
  </mgrwgt>
  </event>
  <event>
  6     66 0.10827799E-05 0.41015792E+02 0.78161638E-02 0.12134117E+00
       22 -1    0    0    0    0 0.00000000E+00 0.00000000E+00 0.92694432E+03 0.92694432E+03 0.00000000E+00 0.0000E+00 0.9000E+01
        3 -1    0    0  501    0 0.00000000E+00 0.00000000E+00 -.12583393E+02 0.12583393E+02 0.00000000E+00 0.0000E+00 0.9000E+01
      -24  2    1    2    0    0 -.26910079E+02 0.30953883E+02 0.88392371E+03 0.88845209E+03 0.79647330E+02 0.0000E+00 0.0000E+00
  9900012  1    3    3    0    0 -.17561791E+02 -.28321715E+01 0.60768352E+03 0.60999647E+03 0.50000000E+02 0.0000E+00 0.9000E+01
       13  1    3    3    0    0 -.93482884E+01 0.33786054E+02 0.27624019E+03 0.27845562E+03 0.00000000E+00 0.0000E+00 0.9000E+01
        4  1    1    2  501    0 0.26910079E+02 -.30953883E+02 0.30437220E+02 0.51075626E+02 0.00000000E+00 0.0000E+00 0.9000E+01
#aMCatNLO 1  0  0  5  2 0.44511574D+02 0.00000000D+00  -5  6  0 0.00000000D+00 0.00000000D+00 0.00000000D+00 0.00000000D+00 0.00000000D+00
  <mgrwgt>
 0.2881846435D-04    4    2    0
 0.108000486107770D+03 0.000000000000000D+00 0.000000000000000D+00 0.108000486107770D+03
 0.108000486107770D+03 -.000000000000000D+00 -.000000000000000D+00 -.108000486107770D+03
 0.808631811155630D+02 -.175617908926961D+02 -.283217146601742D+01 0.610116084491848D+02
 0.418217229579202D+02 -.934828835538975D+01 0.337860540950753D+02 0.228072042275717D+02
 0.933160681420566D+02 0.269100792480859D+02 -.309538826290579D+02 -.838188126767565D+02
 0.000000000000000D+00 -.000000000000000D+00 0.000000000000000D+00 0.000000000000000D+00
 0.108000486107770D+03 0.000000000000000D+00 0.000000000000000D+00 0.108000486107770D+03
 0.108000486107770D+03 -.000000000000000D+00 -.000000000000000D+00 -.108000486107770D+03
 0.662313764265569D+02 -.110464267213666D+02 -.103266056512772D+02 0.407177221338419D+02
 0.330233660334465D+02 -.603312143580682D+01 0.299727138674799D+02 0.124812088091648D+02
 0.855671169356359D+02 0.412643178393077D+02 -.178754290756540D+02 -.727973667744558D+02
 0.311791128199006D+02 -.241847696821344D+02 -.177067914054868D+01 0.195984358314492D+02
0.114095419624D-05 0.000000000000D+00 0.000000000000D+00 0.238242288077D-05 0.000000000000D+00  6 22 3 9900012 13 4 21 0 0.14260682D+00 0.19359067D-02 0.41693760D+04 0.41693760D+04 0.41693760D+04 0.12508289D+01  1  2  2  2  6  5        4 0.334763449827D-04 0.100000000000D+01
0.409879703203D-07 0.000000000000D+00 -.219078226684D-08 0.238242288077D-05 0.000000000000D+00  6 22 3 9900012 13 4 21 2 0.14260682D+00 0.19359067D-02 0.41693760D+04 0.41693760D+04 0.41693760D+04 0.12508289D+01  1  2  3  2  6  5        4 0.188157733004D-05 0.100000000000D+01
-.134050846301D-06 0.000000000000D+00 0.000000000000D+00 0.238242288077D-05 0.000000000000D+00  6 22 3 9900012 13 4 21 2 0.14260682D+00 0.19359067D-02 0.41693760D+04 0.41693760D+04 0.41693760D+04 0.12508289D+01  1  2 15  2  6  5        4 -.615368439817D-05 0.100000000000D+01
-.840362772007D-08 0.000000000000D+00 0.000000000000D+00 0.238242288077D-05 0.000000000000D+00  6 22 3 9900012 13 4 21 2 0.14260682D+00 0.19359067D-02 0.41693760D+04 0.41693760D+04 0.41693760D+04 0.12508289D+01  1  2  4  2  6  5        4 -.385773564404D-06 0.100000000000D+01
  </mgrwgt>
  </event>
  <event>
  6     66 0.10827799E-05 0.17297086E+03 0.78161638E-02 0.10171458E+00
       22 -1    0    0    0    0 0.00000000E+00 0.00000000E+00 0.75925538E+03 0.75925538E+03 0.00000000E+00 0.0000E+00 0.9000E+01
        1 -1    0    0  501    0 0.00000000E+00 0.00000000E+00 -.26016537E+03 0.26016537E+03 0.00000000E+00 0.0000E+00 0.9000E+01
      -24  2    1    2    0    0 0.20189658E+03 0.16154403E+03 0.66108561E+03 0.71429574E+03 0.79533163E+02 0.0000E+00 0.0000E+00
  9900012  1    3    3    0    0 0.14652276E+03 0.88254218E+02 0.45564535E+03 0.48925495E+03 0.50000000E+02 0.0000E+00 0.9000E+01
       13  1    3    3    0    0 0.55373815E+02 0.73289807E+02 0.20544026E+03 0.22504079E+03 0.00000000E+00 0.0000E+00 0.9000E+01
        2  1    1    2  501    0 -.20189658E+03 -.16154403E+03 -.16199559E+03 0.30512501E+03 0.00000000E+00 0.0000E+00 0.9000E+01
#aMCatNLO 1  0  0  5  2 0.13322534D+02 0.00000000D+00  -5  6  0 0.00000000D+00 0.00000000D+00 0.00000000D+00 0.00000000D+00 0.00000000D+00
  <mgrwgt>
 0.2749845129D-04    7    2    0
 0.444445674879404D+03 0.000000000000000D+00 0.000000000000000D+00 0.444445674879404D+03
 0.444445674879404D+03 -.000000000000000D+00 -.000000000000000D+00 -.444445674879404D+03
 0.305266341529455D+03 0.146522764381856D+03 0.882542180702140D+02 0.247850381846572D+03
 0.142737430764354D+03 0.553738145122858D+02 0.732898073709661D+02 0.109253461927275D+03
 0.440887577464999D+03 -.201896578894142D+03 -.161544025441180D+03 -.357103843773847D+03
 0.000000000000000D+00 -.000000000000000D+00 0.000000000000000D+00 0.000000000000000D+00
 0.444445674879404D+03 0.000000000000000D+00 0.000000000000000D+00 0.444445674879404D+03
 0.444445674879404D+03 -.000000000000000D+00 -.000000000000000D+00 -.444445674879404D+03
 0.304978855817414D+03 0.146388884690279D+03 0.881470965705791D+02 0.247613582626261D+03
 0.142602680027135D+03 0.553112146816052D+02 0.732397192085244D+02 0.109142738703146D+03
 0.272025374963121D+03 -.114005586235915D+03 -.959851636200766D+02 -.227568405750137D+03
 0.169284438951138D+03 -.876945131359691D+02 -.654016521590269D+02 -.129187915579270D+03
0.123909538643D-05 0.000000000000D+00 0.000000000000D+00 0.667464801880D-05 0.000000000000D+00  6 22 1 9900012 13 2 21 0 0.11680852D+00 0.40025442D-01 0.69863525D+05 0.69863525D+05 0.69863525D+05 0.11305147D+01  1  2  2  2  6  5        2 0.141544541303D-05 0.100000000000D+01
-.373470495996D-08 0.000000000000D+00 -.237922627260D-08 0.667464801880D-05 0.000000000000D+00  6 22 1 9900012 13 2 21 2 0.11680852D+00 0.40025442D-01 0.69863525D+05 0.69863525D+05 0.69863525D+05 0.11305147D+01  1  2  3  2  6  5        2 -.545251783769D-08 0.100000000000D+01
-.160404879343D-06 0.000000000000D+00 0.000000000000D+00 0.667464801880D-05 0.000000000000D+00  6 22 1 9900012 13 2 21 2 0.11680852D+00 0.40025442D-01 0.69863525D+05 0.69863525D+05 0.69863525D+05 0.11305147D+01  1  2 15  2  6  5        2 -.234184621074D-06 0.100000000000D+01
0.419577453371D-04 0.000000000000D+00 0.000000000000D+00 0.667464801880D-05 0.000000000000D+00  6 22 1 9900012 13 2 21 2 0.11680852D+00 0.40025442D-01 0.69762411D+05 0.69762411D+05 0.69762411D+05 0.11305676D+01  1  2 12  2  6  5        2 0.612593876349D-04 0.100000000000D+01
-.427670070220D-04 0.000000000000D+00 0.000000000000D+00 0.667464801880D-05 0.000000000000D+00  6 22 1 9900012 13 2 21 2 0.11680852D+00 0.40025442D-01 0.69863525D+05 0.69863525D+05 0.69863525D+05 0.11305147D+01  1  2  4  2  6  5        2 -.624380964901D-04 0.100000000000D+01
-.418788738678D-04 0.000000000000D+00 0.000000000000D+00 0.667464801880D-05 0.000000000000D+00  6 22 1 9900012 13 2 21 2 0.11680852D+00 0.40025442D-01 0.69863525D+05 0.69863525D+05 0.69863525D+05 0.11305147D+01  1  2  5  2  6  5        2 -.611414580896D-04 0.100000000000D+01
0.607159392907D-04 0.000000000000D+00 -.000000000000D+00 0.667464801880D-05 0.000000000000D+00  6 22 1 9900012 13 2 21 2 0.11680852D+00 0.40025442D-01 0.69863525D+05 0.69863525D+05 0.69863525D+05 0.11305147D+01  1  2  6  2  6  5        2 0.886428099579D-04 0.100000000000D+01
  </mgrwgt>
  </event>
  <event>
  7     66 -.10827799E-05 0.11050933E+03 0.78161638E-02 0.11124432E+00
       22 -1    0    0    0    0 0.00000000E+00 0.00000000E+00 0.58309537E+02 0.58309537E+02 0.00000000E+00 0.0000E+00 0.9000E+01
        1 -1    0    0  502    0 0.00000000E+00 0.00000000E+00 -.63192012E+03 0.63192012E+03 0.00000000E+00 0.0000E+00 0.9000E+01
      -24  2    1    2    0    0 -.85587035E+02 0.79777588E+02 -.55071295E+02 0.15295068E+03 0.81679004E+02 0.0000E+00 0.0000E+00
  9900012  1    3    3    0    0 -.45766813E+02 0.62765611E+02 -.58771898E+02 0.10949091E+03 0.50000000E+02 0.0000E+00 0.9000E+01
       13  1    3    3    0    0 -.39820223E+02 0.17011977E+02 0.37006030E+01 0.43459774E+02 0.00000000E+00 0.0000E+00 0.9000E+01
        2  1    1    2  501    0 0.98421363E+02 -.67550290E+02 -.48340818E+03 0.49792898E+03 0.00000000E+00 0.0000E+00 0.9000E+01
       21  1    1    2  502  501 -.12834328E+02 -.12227298E+02 -.35131109E+02 0.39349988E+02 0.00000000E+00 0.0000E+00 0.9000E+01
#aMCatNLO 2  0  0  2  5 0.22519325D+02 0.00000000D+00  -5  6  0 0.00000000D+00 0.00000000D+00 0.00000000D+00 0.00000000D+00 0.00000000D+00
  <mgrwgt>
 -.1003569873D-03    3    2    0
 0.182599268074111D+03 0.000000000000000D+00 0.000000000000000D+00 0.182599268074111D+03
 0.182599268074111D+03 0.000000000000000D+00 0.000000000000000D+00 -.182599268074111D+03
 0.107990241207654D+03 -.495661456314418D+02 0.591459768254872D+02 0.566289928277810D+02
 0.837430443337843D+02 -.427452232810904D+02 0.142253208934777D+02 0.705930846926062D+02
 0.173465250606783D+03 0.923113689125322D+02 -.733712977189649D+02 -.127222077520387D+03
 0.000000000000000D+00 -.000000000000000D+00 -.000000000000000D+00 -.000000000000000D+00
 0.189676081197978D+03 0.000000000000000D+00 0.000000000000000D+00 0.189676081197978D+03
 0.194262603447069D+03 0.000000000000000D+00 0.000000000000000D+00 -.194262603447069D+03
 0.108355737985482D+03 -.457668126905093D+02 0.627656114591532D+02 0.566289928277810D+02
 0.828157055683222D+02 -.398202225601911D+02 0.170119768874288D+02 0.705930846926062D+02
 0.174457053148726D+03 0.984213630731509D+02 -.675502899738934D+02 -.127222077520387D+03
 0.183101879425168D+02 -.128343278224505D+02 -.122272983726887D+02 -.458652224909085D+01
-.391932621667D-05 0.000000000000D+00 0.000000000000D+00 0.781282554375D-06 0.000000000000D+00  6 22 1 9900012 13 2 21 2 0.86360013D-02 0.10098628D+00 0.18602402D+05 0.18602402D+05 0.18602402D+05 0.11823440D+01  1  2 13  1  6  2        1 -.118735435308D-03 0.100000000000D+01
-.166626969898D-08 0.000000000000D+00 0.000000000000D+00 0.781282554375D-06 0.000000000000D+00  6 22 1 9900012 13 2 21 2 0.86360013D-02 0.91381578D-01 0.16246028D+05 0.16246028D+05 0.16246028D+05 0.11880724D+01  1  2  8  1  6  2        1 -.583134535442D-07 0.100000000000D+01
0.608340718561D-06 0.000000000000D+00 0.000000000000D+00 0.781282554375D-06 0.322093590135D-08  6 22 1 9900012 13 2 21 2 0.89706979D-02 0.97218480D-01 0.18602402D+05 0.18602402D+05 0.18602402D+05 0.11823440D+01  1  2  1  1  6  2        1 0.184367614943D-04 0.100000000000D+01
  </mgrwgt>
  </event>
</LesHouchesEvents>
