<LesHouchesEvents version="3.0">
  <!--
  <scalesfunctionalform>
    muR  H_T/2 := sum_i mT(i)/2, i=final state
    muF1 H_T/2 := sum_i mT(i)/2, i=final state
    muF2 H_T/2 := sum_i mT(i)/2, i=final state
    QES  H_T/2 := sum_i mT(i)/2, i=final state
  </scalesfunctionalform>
PYTHIA8   
  -->
  <header>
        5
  </header>
  <init>
   2212   2212 0.65000000D+04 0.65000000D+04 -1 -1  82200  82200 -4   1
 0.29333907D-05 0.10647207D-06 0.11466821D-05     66
  </init>
  <event>
  5     66 0.11466821E-05 0.15701293E+02 0.78161638E-02 0.13615230E+00
       22 -1    0    0    0    0 0.00000000E+00 0.00000000E+00 0.13197126E+02 0.13197126E+02 0.00000000E+00 0.0000E+00 0.9000E+01
       -2 -1    0    0    0  501 -.00000000E+00 -.00000000E+00 -.14470111E+03 0.14470111E+03 0.00000000E+00 0.0000E+00 0.9000E+01
  9900012  1    1    2    0    0 -.20826740E+01 -.13501437E+02 -.11584492E+03 0.12691207E+03 0.50000000E+02 0.0000E+00 0.9000E+01
       13  1    1    2    0    0 -.86517126E+01 0.20426607E+01 -.11244129E+00 0.88902889E+01 0.00000000E+00 0.0000E+00 0.9000E+01
       -1  1    1    2    0  501 0.10734387E+02 0.11458777E+02 -.15546620E+02 0.22095882E+02 0.00000000E+00 0.0000E+00 0.9000E+01
#aMCatNLO 1  0  0  5  2 0.25735410D+01 0.00000000D+00  -5  6  0 0.00000000D+00 0.00000000D+00 0.00000000D+00 0.00000000D+00 0.00000000D+00
  <mgrwgt>
 0.1962101247D-04    8    2    0
 0.436994147592829D+02 0.000000000000000D+00 0.000000000000000D+00 0.436994147592829D+02
 0.436994147592829D+02 -.000000000000000D+00 -.000000000000000D+00 -.436994147592829D+02
 0.549792554378079D+02 -.208267398726421D+01 -.135014372064611D+02 -.183328173208181D+02
 0.158923691301435D+02 -.865171256215493D+01 0.204266065530755D+01 0.131735645805472D+02
 0.165272049506143D+02 0.107343865494191D+02 0.114587765511536D+02 0.515925274027098D+01
 0.000000000000000D+00 0.000000000000000D+00 0.000000000000000D+00 0.000000000000000D+00
 0.436994147592829D+02 0.000000000000000D+00 0.000000000000000D+00 0.436994147592829D+02
 0.436994147592829D+02 -.000000000000000D+00 -.000000000000000D+00 -.436994147592829D+02
 0.547947439488082D+02 -.167469325456991D+01 -.130659246569924D+02 -.181367301291151D+02
 0.158923720971060D+02 -.853358293139673D+01 0.216876204328130D+01 0.132303410547677D+02
 0.482486897285366D+01 0.409382524969065D+01 0.243316166667177D+01 -.774389910859076D+00
 0.118868444997978D+02 0.611445093627599D+01 0.846400094703936D+01 0.568077898520644D+01
0.378343863030D-07 0.000000000000D+00 0.000000000000D+00 0.895500880245D-09 0.000000000000D+00  6 22 -2 9900012 13 -1 21 0 0.20303271D-02 0.22261709D-01 0.14601397D+04 0.14601397D+04 0.14601397D+04 0.13069607D+01  1  2  2  2  6  5       -1 0.200014645044D-04 0.100000000000D+01
-.460112955218D-09 0.000000000000D+00 -.726470027131D-10 0.895500880245D-09 0.000000000000D+00  6 22 -2 9900012 13 -1 21 2 0.20303271D-02 0.22261709D-01 0.14601397D+04 0.14601397D+04 0.14601397D+04 0.13069607D+01  1  2  3  2  6  5       -1 -.415493855149D-06 0.100000000000D+01
-.463313014866D-08 0.000000000000D+00 0.000000000000D+00 0.895500880245D-09 0.000000000000D+00  6 22 -2 9900012 13 -1 21 2 0.20303271D-02 0.22261709D-01 0.14601397D+04 0.14601397D+04 0.14601397D+04 0.13069607D+01  1  2 15  2  6  5       -1 -.418383591473D-05 0.100000000000D+01
0.108383165227D-09 0.000000000000D+00 0.000000000000D+00 0.895500880245D-09 0.000000000000D+00  6 22 -2 9900012 13 -1 21 2 0.20303271D-02 0.22261709D-01 0.14331844D+04 0.14331844D+04 0.14331844D+04 0.13080291D+01  1  2 12  2  6  5       -1 0.977924108879D-07 0.100000000000D+01
-.276757435616D-07 0.000000000000D+00 0.000000000000D+00 0.895500880245D-09 0.000000000000D+00  6 22 -2 9900012 13 -1 21 2 0.20303271D-02 0.22261709D-01 0.14601397D+04 0.14601397D+04 0.14601397D+04 0.13069607D+01  1  2  4  2  6  5       -1 -.249919096086D-04 0.100000000000D+01
-.171838099477D-07 0.000000000000D+00 0.000000000000D+00 0.895500880245D-09 0.000000000000D+00  6 22 -2 9900012 13 -1 21 2 0.20303271D-02 0.22261709D-01 0.14601397D+04 0.14601397D+04 0.14601397D+04 0.13069607D+01  1  2  5  2  6  5       -1 -.155174231900D-04 0.100000000000D+01
0.382528719119D-07 0.000000000000D+00 -.000000000000D+00 0.895500880245D-09 0.000000000000D+00  6 22 -2 9900012 13 -1 21 2 0.20303271D-02 0.22261709D-01 0.14601397D+04 0.14601397D+04 0.14601397D+04 0.13069607D+01  1  2  6  2  6  5       -1 0.345433290695D-04 0.100000000000D+01
0.111795039025D-07 0.000000000000D+00 0.000000000000D+00 0.895500880245D-09 0.119984511035D-09  6 22 -2 9900012 13 -1 21 2 0.20303271D-02 0.22261709D-01 0.14331844D+04 0.14331844D+04 0.14331844D+04 0.13080291D+01  1  2 11  2  6  5       -1 0.100870890500D-04 0.100000000000D+01
  </mgrwgt>
  </event>
  <event>
  5     66 0.11466821E-05 0.26190510E+02 0.78161638E-02 0.12187771E+00
       22 -1    0    0    0    0 0.00000000E+00 0.00000000E+00 0.18254791E+04 0.18254791E+04 0.00000000E+00 0.0000E+00 0.9000E+01
       -4 -1    0    0    0  501 0.00000000E+00 0.00000000E+00 -.67125855E+01 0.67125855E+01 0.00000000E+00 0.0000E+00 0.9000E+01
  9900012  1    1    2    0    0 -.51454002E+02 0.22081964E+02 0.89016555E+03 0.89332515E+03 0.50000000E+02 0.0000E+00 0.9000E+01
       13  1    1    2    0    0 0.26593316E+02 -.13842478E+02 0.89836276E+03 0.89886287E+03 0.00000000E+00 0.0000E+00 0.9000E+01
       -3  1    1    2    0  501 0.24860686E+02 -.82394863E+01 0.30238174E+02 0.40003625E+02 0.00000000E+00 0.0000E+00 0.9000E+01
#aMCatNLO 1  0  0  2  5 0.20291966D+02 0.00000000D+00  -5  6  0 0.00000000D+00 0.00000000D+00 0.00000000D+00 0.00000000D+00 0.00000000D+00
  <mgrwgt>
 0.5181897572D-06    9    4    0
 0.110696361092561D+03 0.000000000000000D+00 0.000000000000000D+00 0.110696361092561D+03
 0.110696361092561D+03 0.000000000000000D+00 0.000000000000000D+00 -.110696361092561D+03
 0.801274214716541D+02 -.514540015198557D+02 0.220819641859396D+02 0.280227810358226D+02
 0.586152030587360D+02 0.265933158639205D+02 -.138424779001959D+02 0.503678805049527D+02
 0.826500976547310D+02 0.248606856559352D+02 -.823948628574362D+01 -.783906615407753D+02
 0.000000000000000D+00 0.000000000000000D+00 0.000000000000000D+00 -.000000000000000D+00
 0.114581725972607D+03 0.000000000000000D+00 0.000000000000000D+00 0.114581725972607D+03
 0.136468278873056D+03 0.000000000000000D+00 0.000000000000000D+00 -.136468278873056D+03
 0.828253770349033D+02 -.570198140225806D+02 0.179863179339895D+02 0.280227810358226D+02
 0.577035750331815D+02 0.226203340229268D+02 -.167660273690588D+02 0.503678805049527D+02
 0.816614861282138D+02 0.192484625106860D+02 -.123692841685674D+02 -.783906615407753D+02
 0.288595666493640D+02 0.151510174889678D+02 0.111489936036367D+02 -.218865529004488D+02
 0.110696361092561D+03 0.000000000000000D+00 0.000000000000000D+00 0.110696361092561D+03
 0.110696361092561D+03 0.000000000000000D+00 0.000000000000000D+00 -.110696361092561D+03
 0.801274214716541D+02 -.514540015198557D+02 0.220819641859396D+02 0.280227810358226D+02
 0.586152030587360D+02 0.265933158639205D+02 -.138424779001959D+02 0.503678805049527D+02
 0.000000000000000D+00 0.000000000000000D+00 0.000000000000000D+00 -.000000000000000D+00
 0.826500976547310D+02 0.248606856559352D+02 -.823948628574362D+01 -.783906615407753D+02
 0.114581725972607D+03 0.000000000000000D+00 0.000000000000000D+00 0.114581725972607D+03
 0.136468278873056D+03 0.000000000000000D+00 0.000000000000000D+00 -.136468278873056D+03
 0.828253770349033D+02 -.570198140225806D+02 0.179863179339895D+02 0.280227810358226D+02
 0.577035750331815D+02 0.226203340229268D+02 -.167660273690588D+02 0.503678805049527D+02
 0.288595666493640D+02 0.151510174889678D+02 0.111489936036367D+02 -.218865529004488D+02
 0.816614861282138D+02 0.192484625106860D+02 -.123692841685674D+02 -.783906615407753D+02
0.138973694656D-07 0.000000000000D+00 0.000000000000D+00 0.204494816874D-08 0.000000000000D+00  6 22 -4 9900012 13 -3 21 0 0.28084293D+00 0.10327055D-02 0.43058729D+04 0.43058729D+04 0.43058729D+04 0.12492221D+01  1  2  2  1  6  2       -4 0.146284673884D-06 0.100000000000D+01
0.126175533436D-08 0.000000000000D+00 -.266847790047D-10 0.204494816874D-08 0.000000000000D+00  6 22 -4 9900012 13 -3 21 2 0.28084293D+00 0.10327055D-02 0.43058729D+04 0.43058729D+04 0.43058729D+04 0.12492221D+01  1  2  3  1  6  2       -4 0.207262465694D-07 0.100000000000D+01
-.243577364517D-08 0.000000000000D+00 0.000000000000D+00 0.204494816874D-08 0.000000000000D+00  6 22 -4 9900012 13 -3 21 2 0.28084293D+00 0.10327055D-02 0.43058729D+04 0.43058729D+04 0.43058729D+04 0.12492221D+01  1  2 15  1  6  2       -4 -.400112793520D-07 0.100000000000D+01
0.246909899972D-07 0.000000000000D+00 0.000000000000D+00 0.204494816874D-08 0.000000000000D+00  6 22 -4 9900012 13 -3 21 2 0.28084293D+00 0.13178223D-02 0.54603449D+04 0.54603449D+04 0.54603449D+04 0.12375623D+01  1  2 12  1  6  2       -4 0.289961393087D-06 0.100000000000D+01
-.180427475517D-08 0.000000000000D+00 0.000000000000D+00 0.204494816874D-08 0.000000000000D+00  6 22 -4 9900012 13 -3 21 2 0.28084293D+00 0.10327055D-02 0.43058729D+04 0.43058729D+04 0.43058729D+04 0.12492221D+01  1  2  4  1  6  2       -4 -.296379515394D-07 0.100000000000D+01
-.334373740378D-07 0.000000000000D+00 -.730953571386D-08 0.204494816874D-08 0.000000000000D+00  6 22 -4 9900012 13 -3 21 2 0.28084293D+00 0.13226166D-02 0.43058729D+04 0.43058729D+04 0.43058729D+04 0.12492221D+01  1  2  5  1  6  2       -4 -.385150286344D-06 0.100000000000D+01
0.344055874917D-07 0.000000000000D+00 0.709135386593D-08 0.204494816874D-08 0.000000000000D+00  6 22 -4 9900012 13 -3 21 2 0.28084293D+00 0.10327055D-02 0.43058729D+04 0.43058729D+04 0.43058729D+04 0.12492221D+01  1  2  6  1  6  2       -4 0.565163998358D-06 0.100000000000D+01
0.820252007941D-09 0.000000000000D+00 0.000000000000D+00 0.204494816874D-08 0.000000000000D+00  6 22 21 9900012 13 4 -3 2 0.28084293D+00 0.13178223D-02 0.54603449D+04 0.54603449D+04 0.54603449D+04 0.12375623D+01  3  4 12  3  5  2       -4 0.239417153208D-06 0.100000000000D+01
-.100258862835D-08 0.000000000000D+00 -.245498329159D-09 0.204494816874D-08 0.000000000000D+00  6 22 21 9900012 13 4 -3 2 0.28084293D+00 0.13226166D-02 0.43058729D+04 0.43058729D+04 0.43058729D+04 0.12492221D+01  3  4  5  3  5  2       -4 -.288564190651D-06 0.100000000000D+01
  </mgrwgt>
  </event>
  <event>
  5     66 0.11466821E-05 0.28189302E+02 0.78161638E-02 0.11925253E+00
       22 -1    0    0    0    0 0.00000000E+00 0.00000000E+00 0.30921833E+02 0.30921833E+02 0.00000000E+00 0.0000E+00 0.9000E+01
       -2 -1    0    0    0  501 -.00000000E+00 -.00000000E+00 -.10571147E+04 0.10571147E+04 0.00000000E+00 0.0000E+00 0.9000E+01
  9900012  1    1    2    0    0 0.36540662E+02 -.97386494E+01 -.18836362E+03 0.19852182E+03 0.50000000E+02 0.0000E+00 0.9000E+01
       13  1    1    2    0    0 -.97848210E+01 0.86386921E+00 0.24670646E+02 0.26554280E+02 0.00000000E+00 0.0000E+00 0.9000E+01
       -1  1    1    2    0  501 -.26755841E+02 0.88747802E+01 -.86249985E+03 0.86296038E+03 0.00000000E+00 0.0000E+00 0.9000E+01
#aMCatNLO 1  0  0  5  2 0.23662846D+02 0.00000000D+00  -5  6  0 0.00000000D+00 0.00000000D+00 0.00000000D+00 0.00000000D+00 0.00000000D+00
  <mgrwgt>
 0.8867387981D-05    4    2    0
 0.180798016088781D+03 0.000000000000000D+00 0.000000000000000D+00 0.180798016088781D+03
 0.180798016088781D+03 -.000000000000000D+00 -.000000000000000D+00 -.180798016088781D+03
 0.627816438497866D+02 0.365406617491880D+02 -.973864943094501D+01 -.338726300632719D+01
 0.149915541460994D+03 -.978482097209596D+01 0.863869206738512D+00 0.149593384145425D+03
 0.148898846866782D+03 -.267558407770920D+02 0.887478022420649D+01 -.146206121139097D+03
 0.000000000000000D+00 0.000000000000000D+00 0.000000000000000D+00 0.000000000000000D+00
 0.180798016088781D+03 0.000000000000000D+00 0.000000000000000D+00 0.180798016088781D+03
 0.180798016088781D+03 -.000000000000000D+00 -.000000000000000D+00 -.180798016088781D+03
 0.626927527394115D+02 0.355207518552846D+02 -.940035035702331D+01 -.896051599214561D+01
 0.137378030950939D+03 -.121200667666394D+02 0.163845870174774D+01 0.136832535687285D+03
 0.610736376809950D+02 -.152747097993945D+02 -.423976196891829D+02 -.412203142252110D+02
 0.100451610806217D+03 -.812597528925068D+01 0.501595113444585D+02 -.866517054699285D+02
0.564574412170D-05 0.000000000000D+00 0.000000000000D+00 0.197718022958D-06 0.000000000000D+00  6 22 -2 9900012 13 -1 21 0 0.47572051D-02 0.16263302D+00 0.25352425D+04 0.25352425D+04 0.25352425D+04 0.12764916D+01  1  2  2  2  6  5       -1 0.183046500960D-04 0.100000000000D+01
0.238447580216D-06 0.000000000000D+00 -.108405719929D-07 0.197718022958D-06 0.000000000000D+00  6 22 -2 9900012 13 -1 21 2 0.47572051D-02 0.16263302D+00 0.25352425D+04 0.25352425D+04 0.25352425D+04 0.12764916D+01  1  2  3  2  6  5       -1 0.125970562010D-05 0.100000000000D+01
-.966090629846D-06 0.000000000000D+00 0.000000000000D+00 0.197718022958D-06 0.000000000000D+00  6 22 -2 9900012 13 -1 21 2 0.47572051D-02 0.16263302D+00 0.25352425D+04 0.25352425D+04 0.25352425D+04 0.12764916D+01  1  2 15  2  6  5       -1 -.510380434493D-05 0.100000000000D+01
-.105872058906D-05 0.000000000000D+00 0.000000000000D+00 0.197718022958D-06 0.000000000000D+00  6 22 -2 9900012 13 -1 21 2 0.47572051D-02 0.16263302D+00 0.25352425D+04 0.25352425D+04 0.25352425D+04 0.12764916D+01  1  2  5  2  6  5       -1 -.559316339026D-05 0.100000000000D+01
  </mgrwgt>
  </event>
  <event>
  5     66 0.11466821E-05 0.63368827E+02 0.78161638E-02 0.11606479E+00
       22 -1    0    0    0    0 0.00000000E+00 0.00000000E+00 0.19977657E+04 0.19977657E+04 0.00000000E+00 0.0000E+00 0.9000E+01
       -2 -1    0    0    0  501 0.00000000E+00 0.00000000E+00 -.56903344E+01 0.56903344E+01 0.00000000E+00 0.0000E+00 0.9000E+01
  9900012  1    1    2    0    0 -.68180252E+02 -.12703247E+02 0.68264403E+03 0.68797732E+03 0.50000000E+02 0.0000E+00 0.9000E+01
       13  1    1    2    0    0 -.10582126E+02 0.35082863E+02 0.64177514E+03 0.64282044E+03 0.00000000E+00 0.0000E+00 0.9000E+01
       -1  1    1    2    0  501 0.78762378E+02 -.22379616E+02 0.66765618E+03 0.67265826E+03 0.00000000E+00 0.0000E+00 0.9000E+01
#aMCatNLO 1  0  0  5  2 0.70895771D+01 0.00000000D+00  -5  6  0 0.00000000D+00 0.00000000D+00 0.00000000D+00 0.00000000D+00 0.00000000D+00
  <mgrwgt>
 0.2144176765D-05    8    2    0
 0.106620611477840D+03 0.000000000000000D+00 0.000000000000000D+00 0.106620611477840D+03
 0.106620611477840D+03 -.000000000000000D+00 -.000000000000000D+00 -.106620611477840D+03
 0.865402783517183D+02 -.681802519574225D+02 -.127032469042911D+02 -.133903150935251D+02
 0.440723615819253D+02 -.105821257226113D+02 0.350828631110757D+02 0.244864122837205D+02
 0.826285830220362D+02 0.787623776800338D+02 -.223796162067846D+02 -.110960971901954D+02
 0.000000000000000D+00 0.000000000000000D+00 0.000000000000000D+00 0.000000000000000D+00
 0.106620611477840D+03 0.000000000000000D+00 0.000000000000000D+00 0.106620611477840D+03
 0.106620611477840D+03 -.000000000000000D+00 -.000000000000000D+00 -.106620611477840D+03
 0.845089814622606D+02 -.653378857031310D+02 -.135108795299665D+02 -.137907495793386D+02
 0.433012787811521D+02 -.913021714871445D+01 0.346703164408475D+02 0.242818664190352D+02
 0.816728897529471D+02 0.780713736282371D+02 -.210220172852273D+02 -.115497328824899D+02
 0.375807295932005D+01 -.360327077639169D+01 -.137419625653738D+00 0.105861604279333D+01
0.128994639074D-06 0.000000000000D+00 0.000000000000D+00 0.941120098916D-09 0.000000000000D+00  6 22 -2 9900012 13 -1 21 0 0.30734857D+00 0.87543606D-03 0.10406275D+05 0.10406275D+05 0.10406275D+05 0.12075415D+01  1  2  2  2  6  5       -1 0.188813694010D-05 0.100000000000D+01
-.436892417679D-08 0.000000000000D+00 -.247686689556D-09 0.941120098916D-09 0.000000000000D+00  6 22 -2 9900012 13 -1 21 2 0.30734857D+00 0.87543606D-03 0.10406275D+05 0.10406275D+05 0.10406275D+05 0.12075415D+01  1  2  3  2  6  5       -1 -.932482089537D-07 0.100000000000D+01
-.179205433366D-07 0.000000000000D+00 0.000000000000D+00 0.941120098916D-09 0.000000000000D+00  6 22 -2 9900012 13 -1 21 2 0.30734857D+00 0.87543606D-03 0.10406275D+05 0.10406275D+05 0.10406275D+05 0.12075415D+01  1  2 15  2  6  5       -1 -.382487427568D-06 0.100000000000D+01
0.541250422042D-07 0.000000000000D+00 0.000000000000D+00 0.941120098916D-09 0.000000000000D+00  6 22 -2 9900012 13 -1 21 2 0.30734857D+00 0.87543606D-03 0.10372050D+05 0.10372050D+05 0.10372050D+05 0.12076892D+01  1  2 12  2  6  5       -1 0.115511084966D-05 0.100000000000D+01
-.189106192198D-07 0.000000000000D+00 0.000000000000D+00 0.941120098916D-09 0.000000000000D+00  6 22 -2 9900012 13 -1 21 2 0.30734857D+00 0.87543606D-03 0.10406275D+05 0.10406275D+05 0.10406275D+05 0.12075415D+01  1  2  4  2  6  5       -1 -.403619129354D-06 0.100000000000D+01
0.773685202489D-07 0.000000000000D+00 0.000000000000D+00 0.941120098916D-09 0.000000000000D+00  6 22 -2 9900012 13 -1 21 2 0.30734857D+00 0.87543606D-03 0.10406275D+05 0.10406275D+05 0.10406275D+05 0.12075415D+01  1  2  5  2  6  5       -1 0.165131635402D-05 0.100000000000D+01
-.809672920044D-07 0.000000000000D+00 0.000000000000D+00 0.941120098916D-09 0.000000000000D+00  6 22 -2 9900012 13 -1 21 2 0.30734857D+00 0.87543606D-03 0.10406275D+05 0.10406275D+05 0.10406275D+05 0.12075415D+01  1  2  6  2  6  5       -1 -.172812680141D-05 0.100000000000D+01
0.267526304962D-08 0.000000000000D+00 0.000000000000D+00 0.941120098916D-09 0.862932928425D-10  6 22 -2 9900012 13 -1 21 2 0.30734857D+00 0.87543606D-03 0.10372050D+05 0.10372050D+05 0.10372050D+05 0.12076892D+01  1  2 11  2  6  5       -1 0.570941887241D-07 0.100000000000D+01
  </mgrwgt>
  </event>
  <event>
  5     66 0.11466821E-05 0.16714592E+02 0.78161638E-02 0.13431211E+00
       22 -1    0    0    0    0 0.00000000E+00 0.00000000E+00 0.63192793E+02 0.63192793E+02 0.00000000E+00 0.0000E+00 0.9000E+01
       -4 -1    0    0    0  501 0.00000000E+00 0.00000000E+00 -.74889441E+02 0.74889441E+02 0.00000000E+00 0.0000E+00 0.9000E+01
  9900012  1    1    2    0    0 0.11782858E+02 0.59779004E+01 0.22214389E+02 0.56285434E+02 0.50000000E+02 0.0000E+00 0.9000E+01
       13  1    1    2    0    0 -.13562077E+00 0.60104043E+01 0.22329697E+02 0.23124850E+02 0.00000000E+00 0.0000E+00 0.9000E+01
       -3  1    1    2    0  501 -.11647238E+02 -.11988305E+02 -.56240734E+02 0.58671950E+02 0.00000000E+00 0.0000E+00 0.9000E+01
#aMCatNLO 1  0  0  2  5 0.67330151D+01 0.00000000D+00  -5  6  0 0.00000000D+00 0.00000000D+00 0.00000000D+00 0.00000000D+00 0.00000000D+00
  <mgrwgt>
 0.1688882477D-05   11    4    0
 0.687929719180205D+02 0.000000000000000D+00 0.000000000000000D+00 0.687929719180205D+02
 0.687929719180205D+02 0.000000000000000D+00 0.000000000000000D+00 -.687929719180205D+02
 0.583769840290245D+02 0.117828582775583D+02 0.597790036443545D+01 0.270795351209883D+02
 0.251065879776965D+02 -.135620771982282D+00 0.601040432505482D+01 0.243761647257599D+02
 0.541023718293200D+02 -.116472375055760D+02 -.119883046894903D+02 -.514556998467483D+02
 0.000000000000000D+00 0.000000000000000D+00 -.000000000000000D+00 -.000000000000000D+00
 0.699102449345575D+02 0.000000000000000D+00 0.000000000000000D+00 0.699102449345575D+02
 0.785509673092600D+02 0.000000000000000D+00 0.000000000000000D+00 -.785509673092600D+02
 0.581615314991982D+02 0.960645083854482D+01 0.756165499411397D+01 0.270795351209883D+02
 0.253019067984828D+02 -.107702132546523D+01 0.669545412695971D+01 0.243761647257599D+02
 0.542693768292695D+02 -.136711270230492D+02 -.105155361555301D+02 -.514556998467483D+02
 0.107283971168670D+02 0.514169750996963D+01 -.374157296554359D+01 -.864072237470253D+01
 0.687929719180205D+02 0.000000000000000D+00 0.000000000000000D+00 0.687929719180205D+02
 0.687929719180205D+02 0.000000000000000D+00 0.000000000000000D+00 -.687929719180205D+02
 0.583769840290245D+02 0.117828582775583D+02 0.597790036443545D+01 0.270795351209883D+02
 0.251065879776965D+02 -.135620771982282D+00 0.601040432505482D+01 0.243761647257599D+02
 0.000000000000000D+00 0.000000000000000D+00 -.000000000000000D+00 -.000000000000000D+00
 0.541023718293200D+02 -.116472375055760D+02 -.119883046894903D+02 -.514556998467483D+02
 0.699102449345575D+02 0.000000000000000D+00 0.000000000000000D+00 0.699102449345575D+02
 0.785509673092600D+02 0.000000000000000D+00 0.000000000000000D+00 -.785509673092600D+02
 0.581615314991982D+02 0.960645083854482D+01 0.756165499411397D+01 0.270795351209883D+02
 0.253019067984828D+02 -.107702132546523D+01 0.669545412695971D+01 0.243761647257599D+02
 0.107283971168670D+02 0.514169750996963D+01 -.374157296554359D+01 -.864072237470253D+01
 0.542693768292695D+02 -.136711270230492D+02 -.105155361555301D+02 -.514556998467483D+02
0.258844480498D-08 0.000000000000D+00 0.000000000000D+00 0.202945136964D-07 0.000000000000D+00  6 22 -4 9900012 13 -3 21 0 0.97219682D-02 0.11521453D-01 0.13854319D+04 0.13854319D+04 0.13854319D+04 0.13099792D+01  1  2  2  1  6  2       -4 0.274189070099D-06 0.100000000000D+01
0.200302944700D-09 0.000000000000D+00 -.497015480214D-11 0.202945136964D-07 0.000000000000D+00  6 22 -4 9900012 13 -3 21 2 0.97219682D-02 0.11521453D-01 0.13854319D+04 0.13854319D+04 0.13854319D+04 0.13099792D+01  1  2  3  1  6  2       -4 0.364105625517D-07 0.100000000000D+01
-.395927973973D-09 0.000000000000D+00 0.000000000000D+00 0.202945136964D-07 0.000000000000D+00  6 22 -4 9900012 13 -3 21 2 0.97219682D-02 0.11521453D-01 0.13854319D+04 0.13854319D+04 0.13854319D+04 0.13099792D+01  1  2 15  1  6  2       -4 -.719707854715D-07 0.100000000000D+01
0.911399464143D-08 0.000000000000D+00 0.000000000000D+00 0.202945136964D-07 0.000000000000D+00  6 22 -4 9900012 13 -3 21 2 0.97219682D-02 0.13369386D-01 0.16753025D+04 0.16753025D+04 0.16753025D+04 0.12991597D+01  1  2 12  1  6  2       -4 0.131870156295D-05 0.100000000000D+01
-.857763011216D-09 0.000000000000D+00 0.000000000000D+00 0.202945136964D-07 0.000000000000D+00  6 22 -4 9900012 13 -3 21 2 0.97219682D-02 0.11521453D-01 0.13854319D+04 0.13854319D+04 0.13854319D+04 0.13099792D+01  1  2  4  1  6  2       -4 -.155921990169D-06 0.100000000000D+01
-.138207768030D-07 0.000000000000D+00 -.211713724619D-08 0.202945136964D-07 0.000000000000D+00  6 22 -4 9900012 13 -3 21 2 0.97219682D-02 0.13347023D-01 0.13854319D+04 0.13854319D+04 0.13854319D+04 0.13099792D+01  1  2  5  1  6  2       -4 -.197853148968D-05 0.100000000000D+01
0.140031264504D-07 0.000000000000D+00 0.209444153677D-08 0.202945136964D-07 0.000000000000D+00  6 22 -4 9900012 13 -3 21 2 0.97219682D-02 0.11521453D-01 0.13854319D+04 0.13854319D+04 0.13854319D+04 0.13099792D+01  1  2  6  1  6  2       -4 0.254545290039D-05 0.100000000000D+01
0.474959624641D-10 0.000000000000D+00 0.000000000000D+00 0.202945136964D-07 0.551309522845D-09  6 22 -4 9900012 13 -3 21 2 0.98798636D-02 0.13155722D-01 0.16753025D+04 0.16753025D+04 0.16753025D+04 0.12991597D+01  1  2 11  1  6  2       -4 0.690004666824D-08 0.100000000000D+01
0.206501923276D-09 0.000000000000D+00 0.000000000000D+00 0.202945136964D-07 0.000000000000D+00  6 22 21 9900012 13 4 -3 2 0.97219682D-02 0.13369386D-01 0.16753025D+04 0.16753025D+04 0.16753025D+04 0.12991597D+01  3  4 12  3  5  2       -4 0.717582117714D-06 0.100000000000D+01
-.296099569111D-09 0.000000000000D+00 -.475308321631D-10 0.202945136964D-07 0.000000000000D+00  6 22 21 9900012 13 4 -3 2 0.97219682D-02 0.13347023D-01 0.13854319D+04 0.13854319D+04 0.13854319D+04 0.13099792D+01  3  4  5  3  5  2       -4 -.102798028715D-05 0.100000000000D+01
0.689233989463D-11 0.000000000000D+00 0.000000000000D+00 0.202945136964D-07 0.669181389745D-10  6 22 21 9900012 13 4 -3 2 0.98798636D-02 0.13155722D-01 0.16753025D+04 0.16753025D+04 0.16753025D+04 0.12991597D+01  3  4 11  3  5  2       -4 0.240507695013D-07 0.100000000000D+01
  </mgrwgt>
  </event>
</LesHouchesEvents>
