<LesHouchesEvents version="3.0">
  <!--
  <scalesfunctionalform>
    muR  H_T/2 := sum_i mT(i)/2, i=final state
    muF1 H_T/2 := sum_i mT(i)/2, i=final state
    muF2 H_T/2 := sum_i mT(i)/2, i=final state
    QES  H_T/2 := sum_i mT(i)/2, i=final state
  </scalesfunctionalform>
PYTHIA8   
  -->
  <header>
        4
  </header>
  <init>
   2212   2212 0.65000000D+04 0.65000000D+04 -1 -1  82200  82200 -4   1
 0.98534620D-06 0.27734528D-07 0.49072873D-06     66
  </init>
  <event>
  5     66 0.49072873E-06 0.27830449E+02 0.78161638E-02 0.12426362E+00
       22 -1    0    0    0    0 0.00000000E+00 0.00000000E+00 0.21572103E+03 0.21572103E+03 0.00000000E+00 0.0000E+00 0.9000E+01
       -2 -1    0    0    0  501 0.00000000E+00 0.00000000E+00 -.21069367E+02 0.21069367E+02 0.00000000E+00 0.0000E+00 0.9000E+01
  9900012  1    1    2    0    0 -.16509640E+02 0.22267345E+01 0.41119399E+02 0.66845580E+02 0.50000000E+02 0.0000E+00 0.9000E+01
       13  1    1    2    0    0 -.13557831E+02 0.19387957E+02 0.11125786E+03 0.11374541E+03 0.00000000E+00 0.0000E+00 0.9000E+01
       -1  1    1    2    0  501 0.30067472E+02 -.21614692E+02 0.42274400E+02 0.56199401E+02 0.00000000E+00 0.0000E+00 0.9000E+01
#aMCatNLO 1  0  0  2  5 0.16530504D+02 0.00000000D+00  -5  6  0 0.00000000D+00 0.00000000D+00 0.00000000D+00 0.00000000D+00 0.00000000D+00
  <mgrwgt>
 0.8201384465D-06    7    4    0
 0.674173983495241D+02 0.000000000000000D+00 0.000000000000000D+00 0.674173983495241D+02
 0.674173983495241D+02 0.000000000000000D+00 0.000000000000000D+00 -.674173983495241D+02
 0.580297679655225D+02 -.165096403070079D+02 0.222673445393775D+01 -.242884211248333D+02
 0.391389641246392D+02 -.135578313597925D+02 0.193879572606341D+02 0.311793334571002D+02
 0.376660646088865D+02 0.300674716668004D+02 -.216146917145719D+02 -.689091233226693D+01
 0.000000000000000D+00 0.000000000000000D+00 0.000000000000000D+00 -.000000000000000D+00
 0.687352429186313D+02 0.000000000000000D+00 0.000000000000000D+00 0.687352429186313D+02
 0.149038882930735D+03 0.000000000000000D+00 0.000000000000000D+00 -.149038882930735D+03
 0.596604051376797D+02 -.214768146779969D+02 -.286058940461713D+01 -.242884211248333D+02
 0.388920507911125D+02 -.168511705334200D+02 0.160149564958204D+02 0.311793334571002D+02
 0.372701939392979D+02 0.269047482795899D+02 -.248539172669782D+02 -.689091233226693D+01
 0.819514759812757D+02 0.114232369318270D+02 0.116995501757749D+02 -.803036400121033D+02
 0.674173983495241D+02 0.000000000000000D+00 0.000000000000000D+00 0.674173983495241D+02
 0.674173983495241D+02 0.000000000000000D+00 0.000000000000000D+00 -.674173983495241D+02
 0.580297679655225D+02 -.165096403070079D+02 0.222673445393775D+01 -.242884211248333D+02
 0.391389641246392D+02 -.135578313597925D+02 0.193879572606341D+02 0.311793334571002D+02
 0.000000000000000D+00 0.000000000000000D+00 0.000000000000000D+00 -.000000000000000D+00
 0.376660646088865D+02 0.300674716668004D+02 -.216146917145719D+02 -.689091233226693D+01
 0.687352429186313D+02 0.000000000000000D+00 0.000000000000000D+00 0.687352429186313D+02
 0.149038882930735D+03 0.000000000000000D+00 0.000000000000000D+00 -.149038882930735D+03
 0.596604051376797D+02 -.214768146779969D+02 -.286058940461713D+01 -.242884211248333D+02
 0.388920507911125D+02 -.168511705334200D+02 0.160149564958204D+02 0.311793334571002D+02
 0.819514759812757D+02 0.114232369318270D+02 0.116995501757749D+02 -.803036400121033D+02
 0.372701939392979D+02 0.269047482795899D+02 -.248539172669782D+02 -.689091233226693D+01
0.385654487447D-08 0.000000000000D+00 0.000000000000D+00 0.421876703398D-08 0.000000000000D+00  6 22 -2 9900012 13 -1 21 0 0.33187850D-01 0.32414411D-02 0.32143655D+04 0.32143655D+04 0.32143655D+04 0.12640424D+01  1  2  2  1  6  2       -2 0.787912889440D-06 0.100000000000D+01
-.979774176305D-10 0.000000000000D+00 -.740507388478D-11 0.421876703398D-08 0.000000000000D+00  6 22 -2 9900012 13 -1 21 2 0.33187850D-01 0.32414411D-02 0.32143655D+04 0.32143655D+04 0.32143655D+04 0.12640424D+01  1  2  3  1  6  2       -2 -.319837273262D-07 0.100000000000D+01
-.523738536732D-09 0.000000000000D+00 0.000000000000D+00 0.421876703398D-08 0.000000000000D+00  6 22 -2 9900012 13 -1 21 2 0.33187850D-01 0.32414411D-02 0.32143655D+04 0.32143655D+04 0.32143655D+04 0.12640424D+01  1  2 15  1  6  2       -2 -.170969096290D-06 0.100000000000D+01
0.258082618332D-07 0.000000000000D+00 0.000000000000D+00 0.421876703398D-08 0.000000000000D+00  6 22 -2 9900012 13 -1 21 2 0.33187850D-01 0.73058915D-02 0.42718634D+04 0.42718634D+04 0.42718634D+04 0.12496170D+01  1  2 12  1  6  2       -2 0.261387852327D-05 0.100000000000D+01
-.253728817001D-07 0.000000000000D+00 -.113890001107D-08 0.421876703398D-08 0.000000000000D+00  6 22 -2 9900012 13 -1 21 2 0.33187850D-01 0.72805536D-02 0.32143655D+04 0.32143655D+04 0.32143655D+04 0.12640424D+01  1  2  5  1  6  2       -2 -.256576564116D-05 0.100000000000D+01
0.227785653698D-08 0.000000000000D+00 0.000000000000D+00 0.421876703398D-08 0.000000000000D+00  6 22 21 9900012 13 2 -1 2 0.33187850D-01 0.73058915D-02 0.42718634D+04 0.42718634D+04 0.42718634D+04 0.12496170D+01  3  4 12  3  5  2       -2 0.356760273593D-05 0.100000000000D+01
-.215716114169D-08 0.000000000000D+00 -.100058501572D-09 0.421876703398D-08 0.000000000000D+00  6 22 21 9900012 13 2 -1 2 0.33187850D-01 0.72805536D-02 0.32143655D+04 0.32143655D+04 0.32143655D+04 0.12640424D+01  3  4  5  3  5  2       -2 -.338053723736D-05 0.100000000000D+01
  </mgrwgt>
  </event>
  <event>
  5     66 0.49072873E-06 0.30615054E+02 0.78161638E-02 0.12991776E+00
       22 -1    0    0    0    0 0.00000000E+00 0.00000000E+00 0.49472032E+02 0.49472032E+02 0.00000000E+00 0.0000E+00 0.9000E+01
       -4 -1    0    0    0  501 -.00000000E+00 -.00000000E+00 -.76040258E+03 0.76040258E+03 0.00000000E+00 0.0000E+00 0.9000E+01
  9900012  1    1    2    0    0 0.17561975E+02 0.76116982E+01 -.21369077E+01 0.53581035E+02 0.50000000E+02 0.0000E+00 0.9000E+01
       13  1    1    2    0    0 0.13048305E+02 -.81523924E+01 0.20903061E+02 0.25954917E+02 0.00000000E+00 0.0000E+00 0.9000E+01
       -3  1    1    2    0  501 -.30610279E+02 0.54069421E+00 -.72969670E+03 0.73033866E+03 0.00000000E+00 0.0000E+00 0.9000E+01
#aMCatNLO 1  0  0  5  2 0.84668365D+01 0.00000000D+00  -5  6  0 0.00000000D+00 0.00000000D+00 0.00000000D+00 0.00000000D+00 0.00000000D+00
  <mgrwgt>
 0.7510649934D-05    3    2    0
 0.193955305763035D+03 0.000000000000000D+00 0.000000000000000D+00 0.193955305763035D+03
 0.193955305763035D+03 -.000000000000000D+00 -.000000000000000D+00 -.193955305763035D+03
 0.107949422872698D+03 0.175619746131159D+02 0.761169815388906D+01 0.937374898183803D+02
 0.924977362086227D+02 0.130483046383279D+02 -.815239236273588D+01 0.912091631830341D+02
 0.187463452444748D+03 -.306102792514440D+02 0.540694208846808D+00 -.184946653001414D+03
 0.000000000000000D+00 0.000000000000000D+00 -.000000000000000D+00 0.000000000000000D+00
 0.193955305763035D+03 0.000000000000000D+00 0.000000000000000D+00 0.193955305763035D+03
 0.193955305763035D+03 -.000000000000000D+00 -.000000000000000D+00 -.193955305763035D+03
 0.773772896649711D+02 0.115471992847982D+02 0.771794201271902D+01 0.573963458389320D+02
 0.619730936930342D+02 0.803495646031828D+01 -.806383752452235D+01 0.609186206421689D+02
 0.124326459872726D+03 -.631610170167713D+02 0.946212426363310D+02 -.501455381449668D+02
 0.124233768295338D+03 0.435788612716547D+02 -.942753471245277D+02 -.681694283361342D+02
0.592176420549D-05 0.000000000000D+00 0.000000000000D+00 0.691131453658D-06 0.000000000000D+00  6 22 -4 9900012 13 -3 21 0 0.76110818D-02 0.11698501D+00 0.24770111D+04 0.24770111D+04 0.24770111D+04 0.12777303D+01  1  2  2  2  6  5       -3 0.891843991639D-05 0.100000000000D+01
0.357582492564D-06 0.000000000000D+00 -.113705668927D-07 0.691131453658D-06 0.000000000000D+00  6 22 -4 9900012 13 -3 21 2 0.76110818D-02 0.11698501D+00 0.24770111D+04 0.24770111D+04 0.24770111D+04 0.12777303D+01  1  2  3  2  6  5       -3 0.879209579286D-06 0.100000000000D+01
-.930143418674D-06 0.000000000000D+00 0.000000000000D+00 0.691131453658D-06 0.000000000000D+00  6 22 -4 9900012 13 -3 21 2 0.76110818D-02 0.11698501D+00 0.24770111D+04 0.24770111D+04 0.24770111D+04 0.12777303D+01  1  2 15  2  6  5       -3 -.228699956182D-05 0.100000000000D+01
  </mgrwgt>
  </event>
  <event>
  5     66 -.49072873E-06 0.29914366E+02 0.78161638E-02 0.12846282E+00
       22 -1    0    0    0    0 0.00000000E+00 0.00000000E+00 0.15169649E+03 0.15169649E+03 0.00000000E+00 0.0000E+00 0.9000E+01
       -2 -1    0    0    0  501 0.00000000E+00 0.00000000E+00 -.11512483E+03 0.11512483E+03 0.00000000E+00 0.0000E+00 0.9000E+01
  9900012  1    1    2    0    0 -.24181566E+02 -.30775595E+01 -.25728077E+02 0.61287465E+02 0.50000000E+02 0.0000E+00 0.9000E+01
       13  1    1    2    0    0 -.80290364E+01 -.12699817E+02 0.12896240E+03 0.12983471E+03 0.00000000E+00 0.0000E+00 0.9000E+01
       -1  1    1    2    0  501 0.32210602E+02 0.15777377E+02 -.66662670E+02 0.75699142E+02 0.00000000E+00 0.0000E+00 0.9000E+01
#aMCatNLO 1  0  0  2  5 0.76197460D+00 0.00000000D+00  -5  6  0 0.00000000D+00 0.00000000D+00 0.00000000D+00 0.00000000D+00 0.00000000D+00
  <mgrwgt>
 -.1758911478D-03    9    4    0
 0.132151550820739D+03 0.000000000000000D+00 0.000000000000000D+00 0.132151550820739D+03
 0.132151550820739D+03 0.000000000000000D+00 0.000000000000000D+00 -.132151550820739D+03
 0.654313949772963D+02 -.241815656467427D+02 -.307755949275727D+01 -.344535623574076D+02
 0.113227199108709D+03 -.802903635664844D+01 -.126998170498394D+02 0.112225878655894D+03
 0.856445075554736D+02 0.322106020033912D+02 0.157773765425967D+02 -.777723162984865D+02
 0.000000000000000D+00 -.000000000000000D+00 0.000000000000000D+00 -.000000000000000D+00
 0.132202483518648D+03 0.000000000000000D+00 0.000000000000000D+00 0.132202483518648D+03
 0.134981005799112D+03 0.000000000000000D+00 0.000000000000000D+00 -.134981005799112D+03
 0.653641674244592D+02 -.239961216305005D+02 -.310041459666149D+01 -.344535623574076D+02
 0.113209332126575D+03 -.770799106271670D+01 -.127393843742506D+02 0.112225878655894D+03
 0.857306808380571D+02 0.324535804549258D+02 0.157474305898028D+02 -.777723162984865D+02
 0.287930892866749D+01 -.749467761708583D+00 0.923683811093419D-01 -.277852228046404D+01
 0.132151550820739D+03 0.000000000000000D+00 0.000000000000000D+00 0.132151550820739D+03
 0.132151550820739D+03 0.000000000000000D+00 0.000000000000000D+00 -.132151550820739D+03
 0.654313949772963D+02 -.241815656467427D+02 -.307755949275727D+01 -.344535623574076D+02
 0.113227199108709D+03 -.802903635664844D+01 -.126998170498394D+02 0.112225878655894D+03
 0.000000000000000D+00 -.000000000000000D+00 0.000000000000000D+00 -.000000000000000D+00
 0.856445075554736D+02 0.322106020033912D+02 0.157773765425967D+02 -.777723162984865D+02
 0.132202483518648D+03 0.000000000000000D+00 0.000000000000000D+00 0.132202483518648D+03
 0.134981005799112D+03 0.000000000000000D+00 0.000000000000000D+00 -.134981005799112D+03
 0.653641674244592D+02 -.239961216305005D+02 -.310041459666149D+01 -.344535623574076D+02
 0.113209332126575D+03 -.770799106271670D+01 -.127393843742506D+02 0.112225878655894D+03
 0.287930892866749D+01 -.749467761708583D+00 0.923683811093419D-01 -.277852228046404D+01
 0.857306808380571D+02 0.324535804549258D+02 0.157474305898028D+02 -.777723162984865D+02
0.625610127353D-07 0.000000000000D+00 0.000000000000D+00 0.271164333137D-07 0.000000000000D+00  6 22 -2 9900012 13 -1 21 0 0.23337921D-01 0.17711512D-01 0.28365109D+04 0.28365109D+04 0.28365109D+04 0.12705556D+01  1  2  2  1  6  2       -2 0.174785599195D-05 0.100000000000D+01
-.650442784929D-09 0.000000000000D+00 -.120125380798D-09 0.271164333137D-07 0.000000000000D+00  6 22 -2 9900012 13 -1 21 2 0.23337921D-01 0.17711512D-01 0.28365109D+04 0.28365109D+04 0.28365109D+04 0.12705556D+01  1  2  3  1  6  2       -2 -.293358246128D-07 0.100000000000D+01
-.834058140004D-08 0.000000000000D+00 0.000000000000D+00 0.271164333137D-07 0.000000000000D+00  6 22 -2 9900012 13 -1 21 2 0.23337921D-01 0.17711512D-01 0.28365109D+04 0.28365109D+04 0.28365109D+04 0.12705556D+01  1  2 15  1  6  2       -2 -.376171184906D-06 0.100000000000D+01
0.439659744517D-12 0.000000000000D+00 0.000000000000D+00 0.271164333137D-07 0.000000000000D+00  6 22 -2 9900012 13 -1 21 2 0.23337921D-01 0.18097700D-01 0.28763857D+04 0.28763857D+04 0.28763857D+04 0.12698232D+01  1  2 12  1  6  2       -2 0.191749764590D-10 0.100000000000D+01
-.371929568459D-05 0.000000000000D+00 0.000000000000D+00 0.271164333137D-07 0.000000000000D+00  6 22 -2 9900012 13 -1 21 2 0.23337921D-01 0.17711512D-01 0.28365109D+04 0.28365109D+04 0.28365109D+04 0.12705556D+01  1  2  4  1  6  2       -2 -.167745124420D-03 0.100000000000D+01
-.117514594327D-04 0.000000000000D+00 -.354315790664D-06 0.271164333137D-07 0.000000000000D+00  6 22 -2 9900012 13 -1 21 2 0.23337921D-01 0.18094951D-01 0.28365109D+04 0.28365109D+04 0.28365109D+04 0.12705556D+01  1  2  5  1  6  2       -2 -.512587033484D-03 0.100000000000D+01
0.117564328073D-04 0.000000000000D+00 0.354234537853D-06 0.271164333137D-07 0.000000000000D+00  6 22 -2 9900012 13 -1 21 2 0.23337921D-01 0.17711512D-01 0.28365109D+04 0.28365109D+04 0.28365109D+04 0.12705556D+01  1  2  6  1  6  2       -2 0.530230573540D-03 0.100000000000D+01
0.251210587858D-13 0.000000000000D+00 0.000000000000D+00 0.271164333137D-07 0.000000000000D+00  6 22 21 9900012 13 2 -1 2 0.23337921D-01 0.18097700D-01 0.28763857D+04 0.28763857D+04 0.28763857D+04 0.12698232D+01  3  4 12  3  5  2       -2 0.149240845433D-10 0.100000000000D+01
-.456529868086D-07 0.000000000000D+00 -.137826201572D-08 0.271164333137D-07 0.000000000000D+00  6 22 21 9900012 13 2 -1 2 0.23337921D-01 0.18094951D-01 0.28365109D+04 0.28365109D+04 0.28365109D+04 0.12705556D+01  3  4  5  3  5  2       -2 -.271319464935D-04 0.100000000000D+01
  </mgrwgt>
  </event>
  <event>
  5     66 0.49072873E-06 0.38145500E+02 0.78161638E-02 0.12095898E+00
       22 -1    0    0    0    0 0.00000000E+00 0.00000000E+00 0.19970109E+03 0.19970109E+03 0.00000000E+00 0.0000E+00 0.9000E+01
       -4 -1    0    0    0  501 0.00000000E+00 0.00000000E+00 -.34354475E+02 0.34354475E+02 0.00000000E+00 0.0000E+00 0.9000E+01
  9900012  1    1    2    0    0 0.18556929E+02 0.34305714E+02 0.14274879E+03 0.15620006E+03 0.50000000E+02 0.0000E+00 0.9000E+01
       13  1    1    2    0    0 0.15930376E+02 -.63993011E+01 0.28327154E+02 0.33123339E+02 0.00000000E+00 0.0000E+00 0.9000E+01
       -3  1    1    2    0  501 -.34487304E+02 -.27906413E+02 -.57293235E+01 0.44732172E+02 0.00000000E+00 0.0000E+00 0.9000E+01
#aMCatNLO 1  0  0  2  5 0.34655728D+02 0.00000000D+00  -5  6  0 0.00000000D+00 0.00000000D+00 0.00000000D+00 0.00000000D+00 0.00000000D+00
  <mgrwgt>
 0.3403956575D-05    9    4    0
 0.828288973383905D+02 0.000000000000000D+00 0.000000000000000D+00 0.828288973383905D+02
 0.828288973383905D+02 0.000000000000000D+00 0.000000000000000D+00 -.828288973383905D+02
 0.782122204331412D+02 0.185569287792090D+02 0.343057138419662D+02 0.457811076445160D+02
 0.185255563004569D+02 0.159303757027980D+02 -.639930106489817D+01 0.696191870750418D+01
 0.689200179431830D+02 -.344873044820070D+02 -.279064127770680D+02 -.527430263520202D+02
 0.000000000000000D+00 0.000000000000000D+00 -.000000000000000D+00 -.000000000000000D+00
 0.940932838543160D+02 0.000000000000000D+00 0.000000000000000D+00 0.940932838543160D+02
 0.102537590334176D+03 0.000000000000000D+00 0.000000000000000D+00 -.102537590334176D+03
 0.829830739300301D+02 0.126169774648376D+02 0.461637587439526D+02 0.457811076445160D+02
 0.166481055707524D+02 0.146342470540768D+02 -.381181323850798D+01 0.696191870750418D+01
 0.682847176895990D+02 -.395432178880384D+02 -.178131906248559D+02 -.527430263520202D+02
 0.287149769981104D+02 0.122919933691240D+02 -.245387548805887D+02 -.844430647985998D+01
 0.828288973383905D+02 0.000000000000000D+00 0.000000000000000D+00 0.828288973383905D+02
 0.828288973383905D+02 0.000000000000000D+00 0.000000000000000D+00 -.828288973383905D+02
 0.782122204331412D+02 0.185569287792090D+02 0.343057138419662D+02 0.457811076445160D+02
 0.185255563004569D+02 0.159303757027980D+02 -.639930106489817D+01 0.696191870750418D+01
 0.000000000000000D+00 0.000000000000000D+00 -.000000000000000D+00 -.000000000000000D+00
 0.689200179431830D+02 -.344873044820070D+02 -.279064127770680D+02 -.527430263520202D+02
 0.940932838543160D+02 0.000000000000000D+00 0.000000000000000D+00 0.940932838543160D+02
 0.102537590334176D+03 0.000000000000000D+00 0.000000000000000D+00 -.102537590334176D+03
 0.829830739300301D+02 0.126169774648376D+02 0.461637587439526D+02 0.457811076445160D+02
 0.166481055707524D+02 0.146342470540768D+02 -.381181323850798D+01 0.696191870750418D+01
 0.287149769981104D+02 0.122919933691240D+02 -.245387548805887D+02 -.844430647985998D+01
 0.682847176895990D+02 -.395432178880384D+02 -.178131906248559D+02 -.527430263520202D+02
0.290958004152D-07 0.000000000000D+00 0.000000000000D+00 0.799848146764D-08 0.000000000000D+00  6 22 -4 9900012 13 -3 21 0 0.30723245D-01 0.52853038D-02 0.39027913D+04 0.39027913D+04 0.39027913D+04 0.12541444D+01  1  2  2  1  6  2       -4 0.229635289703D-05 0.100000000000D+01
0.337866224636D-09 0.000000000000D+00 -.558677673473D-10 0.799848146764D-08 0.000000000000D+00  6 22 -4 9900012 13 -3 21 2 0.30723245D-01 0.52853038D-02 0.39027913D+04 0.39027913D+04 0.39027913D+04 0.12541444D+01  1  2  3  1  6  2       -4 0.419419095829D-07 0.100000000000D+01
-.395798704676D-08 0.000000000000D+00 0.000000000000D+00 0.799848146764D-08 0.000000000000D+00  6 22 -4 9900012 13 -3 21 2 0.30723245D-01 0.52853038D-02 0.39027913D+04 0.39027913D+04 0.39027913D+04 0.12541444D+01  1  2 15  1  6  2       -4 -.491335098748D-06 0.100000000000D+01
0.977545885118D-08 0.000000000000D+00 0.000000000000D+00 0.799848146764D-08 0.000000000000D+00  6 22 -4 9900012 13 -3 21 2 0.30723245D-01 0.74327227D-02 0.60178723D+04 0.60178723D+04 0.60178723D+04 0.12328890D+01  1  2 12  1  6  2       -4 0.732031813564D-06 0.100000000000D+01
-.226735165208D-08 0.000000000000D+00 0.000000000000D+00 0.799848146764D-08 0.000000000000D+00  6 22 -4 9900012 13 -3 21 2 0.30723245D-01 0.52853038D-02 0.39027913D+04 0.39027913D+04 0.39027913D+04 0.12541444D+01  1  2  4  1  6  2       -4 -.281463641672D-06 0.100000000000D+01
-.283916321570D-07 0.000000000000D+00 -.130077041868D-07 0.799848146764D-08 0.000000000000D+00  6 22 -4 9900012 13 -3 21 2 0.30723245D-01 0.74184765D-02 0.39027913D+04 0.39027913D+04 0.39027913D+04 0.12541444D+01  1  2  5  1  6  2       -4 -.208356126862D-05 0.100000000000D+01
0.316770679830D-07 0.000000000000D+00 0.122942914827D-07 0.799848146764D-08 0.000000000000D+00  6 22 -4 9900012 13 -3 21 2 0.30723245D-01 0.52853038D-02 0.39027913D+04 0.39027913D+04 0.39027913D+04 0.12541444D+01  1  2  6  1  6  2       -4 0.393231588219D-05 0.100000000000D+01
0.414395385280D-09 0.000000000000D+00 0.000000000000D+00 0.799848146764D-08 0.000000000000D+00  6 22 21 9900012 13 4 -3 2 0.30723245D-01 0.74327227D-02 0.60178723D+04 0.60178723D+04 0.60178723D+04 0.12328890D+01  3  4 12  3  5  2       -4 0.715488515569D-06 0.100000000000D+01
-.847592769497D-09 0.000000000000D+00 -.549177081685D-09 0.799848146764D-08 0.000000000000D+00  6 22 21 9900012 13 4 -3 2 0.30723245D-01 0.74184765D-02 0.39027913D+04 0.39027913D+04 0.39027913D+04 0.12541444D+01  3  4  5  3  5  2       -4 -.145781443356D-05 0.100000000000D+01
  </mgrwgt>
  </event>
</LesHouchesEvents>
