<LesHouchesEvents version="3.0">
  <!--
  <scalesfunctionalform>
    muR  H_T/2 := sum_i mT(i)/2, i=final state
    muF1 H_T/2 := sum_i mT(i)/2, i=final state
    muF2 H_T/2 := sum_i mT(i)/2, i=final state
    QES  H_T/2 := sum_i mT(i)/2, i=final state
  </scalesfunctionalform>
PYTHIA8   
  -->
  <header>
        4
  </header>
  <init>
   2212   2212 0.65000000D+04 0.65000000D+04 -1 -1  82200  82200 -4   1
 0.32071173D-05 0.37872840D-07 0.12186155D-05     66
  </init>
  <event>
  6     66 0.12186155E-05 0.41976792E+02 0.78161638E-02 0.12411959E+00
       22 -1    0    0    0    0 0.00000000E+00 0.00000000E+00 0.26114390E+02 0.26114390E+02 0.00000000E+00 0.0000E+00 0.9000E+01
        2 -1    0    0  501    0 -.00000000E+00 -.00000000E+00 -.17233490E+03 0.17233490E+03 0.00000000E+00 0.0000E+00 0.9000E+01
       24  2    1    2    0    0 0.12311643E+02 0.41694103E+02 -.87953940E+02 0.12575150E+03 0.78661112E+02 0.0000E+00 0.0000E+00
  9900012  1    3    3    0    0 0.23902290E+01 0.53782994E+02 -.65777961E+02 0.98615739E+02 0.50000000E+02 0.0000E+00 0.9000E+01
      -13  1    3    3    0    0 0.99214136E+01 -.12088892E+02 -.22175978E+02 0.27135765E+02 0.00000000E+00 0.0000E+00 0.9000E+01
        1  1    1    2  501    0 -.12311643E+02 -.41694103E+02 -.58266566E+02 0.72697782E+02 0.00000000E+00 0.0000E+00 0.9000E+01
#aMCatNLO 1  0  0  5  2 0.57021386D+01 0.00000000D+00  -5  6  0 0.00000000D+00 0.00000000D+00 0.00000000D+00 0.00000000D+00 0.00000000D+00
  <mgrwgt>
 0.6618596054D-05    8    2    0
 0.670851747800605D+02 0.000000000000000D+00 0.000000000000000D+00 0.670851747800605D+02
 0.670851747800605D+02 -.000000000000000D+00 -.000000000000000D+00 -.670851747800605D+02
 0.741753757970989D+02 0.239022904529637D+01 0.537829944744777D+02 0.101814873721949D+02
 0.159684350892678D+02 0.992141362877889D+01 -.120888918898097D+02 -.322725327226322D+01
 0.440265386737543D+02 -.123116426740753D+02 -.416941025846680D+02 -.695423409993168D+01
 0.000000000000000D+00 -.000000000000000D+00 0.000000000000000D+00 0.000000000000000D+00
 0.670851747800605D+02 0.000000000000000D+00 0.000000000000000D+00 0.670851747800605D+02
 0.670851747800605D+02 -.000000000000000D+00 -.000000000000000D+00 -.670851747800605D+02
 0.735252748284190D+02 0.213574021413217D+01 0.529211530684113D+02 0.100377392993678D+02
 0.160828230786813D+02 0.986618917855501D+01 -.122759127410292D+02 -.325844681524230D+01
 0.291585453512877D+02 -.424480691640457D+01 -.274855897707366D+02 -.876040730790074D+01
 0.154037063017330D+02 -.775712247628261D+01 -.131596505566454D+02 0.198111482377521D+01
0.716401494378D-08 0.000000000000D+00 0.000000000000D+00 0.509120228247D-07 0.000000000000D+00  6 22 2 9900012 -13 1 21 0 0.40175985D-02 0.26513061D-01 0.43947647D+04 0.43947647D+04 0.43947647D+04 0.12482059D+01  1  2  2  2  6  5        1 0.281116253983D-05 0.100000000000D+01
-.157047343309D-09 0.000000000000D+00 -.137558518563D-10 0.509120228247D-07 0.000000000000D+00  6 22 2 9900012 -13 1 21 2 0.40175985D-02 0.26513061D-01 0.43947647D+04 0.43947647D+04 0.43947647D+04 0.12482059D+01  1  2  3  2  6  5        1 -.960135552078D-07 0.100000000000D+01
-.491708313442D-09 0.000000000000D+00 0.000000000000D+00 0.509120228247D-07 0.000000000000D+00  6 22 2 9900012 -13 1 21 2 0.40175985D-02 0.26513061D-01 0.43947647D+04 0.43947647D+04 0.43947647D+04 0.12482059D+01  1  2 15  2  6  5        1 -.300614211638D-06 0.100000000000D+01
0.111266579363D-07 0.000000000000D+00 0.000000000000D+00 0.509120228247D-07 0.000000000000D+00  6 22 2 9900012 -13 1 21 2 0.40175985D-02 0.26513061D-01 0.43344686D+04 0.43344686D+04 0.43344686D+04 0.12488926D+01  1  2 12  2  6  5        1 0.680025873112D-05 0.100000000000D+01
-.144905662985D-07 0.000000000000D+00 0.000000000000D+00 0.509120228247D-07 0.000000000000D+00  6 22 2 9900012 -13 1 21 2 0.40175985D-02 0.26513061D-01 0.43947647D+04 0.43947647D+04 0.43947647D+04 0.12482059D+01  1  2  4  2  6  5        1 -.885905331462D-05 0.100000000000D+01
-.159492669879D-07 0.000000000000D+00 0.000000000000D+00 0.509120228247D-07 0.000000000000D+00  6 22 2 9900012 -13 1 21 2 0.40175985D-02 0.26513061D-01 0.43947647D+04 0.43947647D+04 0.43947647D+04 0.12482059D+01  1  2  5  2  6  5        1 -.975085470534D-05 0.100000000000D+01
0.224216786257D-07 0.000000000000D+00 -.000000000000D+00 0.509120228247D-07 0.000000000000D+00  6 22 2 9900012 -13 1 21 2 0.40175985D-02 0.26513061D-01 0.43947647D+04 0.43947647D+04 0.43947647D+04 0.12482059D+01  1  2  6  2  6  5        1 0.137078732643D-04 0.100000000000D+01
0.377283629439D-08 0.000000000000D+00 0.000000000000D+00 0.509120228247D-07 0.444324041531D-08  6 22 2 9900012 -13 1 21 2 0.40175985D-02 0.26513061D-01 0.43344686D+04 0.43344686D+04 0.43344686D+04 0.12488926D+01  1  2 11  2  6  5        1 0.230583730523D-05 0.100000000000D+01
  </mgrwgt>
  </event>
  <event>
  6     66 -.12186155E-05 0.30319487E+02 0.78161638E-02 0.12833167E+00
       22 -1    0    0    0    0 0.00000000E+00 0.00000000E+00 0.51692566E+02 0.51692566E+02 0.00000000E+00 0.0000E+00 0.9000E+01
        2 -1    0    0  501    0 -.00000000E+00 -.00000000E+00 -.10551052E+03 0.10551052E+03 0.00000000E+00 0.0000E+00 0.9000E+01
       24  2    1    2    0    0 -.23231966E+02 0.19481967E+02 0.10026469E+02 0.86525073E+02 0.80416335E+02 0.0000E+00 0.0000E+00
  9900012  1    3    3    0    0 -.19898059E+02 -.32231061E+01 -.11429548E+02 0.55108581E+02 0.50000000E+02 0.0000E+00 0.9000E+01
      -13  1    3    3    0    0 -.33339065E+01 0.22705073E+02 0.21456017E+02 0.31416492E+02 0.00000000E+00 0.0000E+00 0.9000E+01
        1  1    1    2  501    0 0.23231966E+02 -.19481967E+02 -.63844426E+02 0.70678016E+02 0.00000000E+00 0.0000E+00 0.9000E+01
#aMCatNLO 1  0  0  5  2 0.57021386D+01 0.00000000D+00  -5  6  0 0.00000000D+00 0.00000000D+00 0.00000000D+00 0.00000000D+00 0.00000000D+00
  <mgrwgt>
 -.3699667892D-07    1    2    0
 0.738519447678345D+02 0.000000000000000D+00 0.000000000000000D+00 0.738519447678345D+02
 0.738519447678345D+02 -.000000000000000D+00 -.000000000000000D+00 -.738519447678345D+02
 0.544882357560325D+02 -.198980593677366D+02 -.322310610288458D+01 0.791496407146344D+01
 0.412547606853245D+02 -.333390647413347D+01 0.227050734207060D+02 0.342829401858340D+02
 0.519608930943120D+02 0.232319658418701D+02 -.194819673178214D+02 -.421979042572975D+02
 0.000000000000000D+00 0.000000000000000D+00 -.000000000000000D+00 0.000000000000000D+00
 0.738519447678345D+02 0.000000000000000D+00 0.000000000000000D+00 0.738519447678345D+02
 0.738519447678345D+02 -.000000000000000D+00 -.000000000000000D+00 -.738519447678345D+02
 0.544600045897461D+02 -.198491596548248D+02 -.326411264599348D+01 0.782614397687016D+01
 0.411788609312524D+02 -.329690743295080D+01 0.226740465968884D+02 0.342157361442964D+02
 0.510459743602831D+02 0.229184087602787D+02 -.184766162972878D+02 -.417019506556979D+02
 0.101904965438744D+01 0.227658327496958D+00 -.933317653607086D+00 -.339929465468666D+00
-.898795688073D-10 0.000000000000D+00 0.000000000000D+00 0.562093834539D-06 0.000000000000D+00  6 22 2 9900012 -13 1 21 2 0.79527025D-02 0.16232388D-01 0.28717986D+04 0.28717986D+04 0.28717986D+04 0.12699068D+01  1  2 14  2  6  5        1 -.369966789181D-07 0.100000000000D+01
  </mgrwgt>
  </event>
  <event>
  6     66 0.12186155E-05 0.53396075E+02 0.78161638E-02 0.12147777E+00
       22 -1    0    0    0    0 0.00000000E+00 0.00000000E+00 0.85380084E+01 0.85380084E+01 0.00000000E+00 0.0000E+00 0.9000E+01
        2 -1    0    0  501    0 -.00000000E+00 -.00000000E+00 -.67150560E+03 0.67150560E+03 0.00000000E+00 0.0000E+00 0.9000E+01
       24  2    1    2    0    0 -.48142014E+02 0.26119992E+02 -.44696298E+03 0.45720309E+03 0.79112871E+02 0.0000E+00 0.0000E+00
  9900012  1    3    3    0    0 -.40880428E+02 0.42988103E+02 -.34703357E+03 0.35560018E+03 0.50000000E+02 0.0000E+00 0.9000E+01
      -13  1    3    3    0    0 -.72615853E+01 -.16868111E+02 -.99929411E+02 0.10160291E+03 0.00000000E+00 0.0000E+00 0.9000E+01
        1  1    1    2  501    0 0.48142014E+02 -.26119992E+02 -.21600461E+03 0.22284052E+03 0.00000000E+00 0.0000E+00 0.9000E+01
#aMCatNLO 1  0  0  5  2 0.21528539D+02 0.00000000D+00  -5  6  0 0.00000000D+00 0.00000000D+00 0.00000000D+00 0.00000000D+00 0.00000000D+00
  <mgrwgt>
 0.1043192011D-04    4    2    0
 0.757186929627874D+02 0.000000000000000D+00 0.000000000000000D+00 0.757186929627874D+02
 0.757186929627874D+02 -.000000000000000D+00 -.000000000000000D+00 -.757186929627874D+02
 0.776004986829589D+02 -.408804284232408D+02 0.429881025261916D+02 -.162819193396959D+01
 0.187829932840834D+02 -.726158530661918D+01 -.168681106717546D+02 -.394170748661730D+01
 0.550538939585324D+02 0.481420137298600D+02 -.261199918544370D+02 0.556989942058689D+01
 0.000000000000000D+00 0.000000000000000D+00 0.000000000000000D+00 -.000000000000000D+00
 0.757186929627874D+02 0.000000000000000D+00 0.000000000000000D+00 0.757186929627874D+02
 0.757186929627874D+02 -.000000000000000D+00 -.000000000000000D+00 -.757186929627874D+02
 0.696927797475078D+02 -.308055248226452D+02 0.375218500869303D+02 -.462553121220464D+00
 0.192116833252976D+02 -.466273824275928D+01 -.182781444214821D+02 -.364102798375286D+01
 0.179434474622261D+02 0.827829166325060D+01 0.159119481794592D+02 0.497090637640419D+00
 0.445894753905433D+02 0.271899714021539D+02 -.351556538449074D+02 0.360649046733290D+01
0.235005795854D-07 0.000000000000D+00 0.000000000000D+00 0.710510154633D-07 0.000000000000D+00  6 22 2 9900012 -13 1 21 0 0.13135398D-02 0.10330855D+00 0.56790972D+04 0.56790972D+04 0.56790972D+04 0.12356674D+01  1  2  2  2  6  5        1 0.992632116700D-05 0.100000000000D+01
-.923421719092D-09 0.000000000000D+00 -.451242067262D-10 0.710510154633D-07 0.000000000000D+00  6 22 2 9900012 -13 1 21 2 0.13135398D-02 0.10330855D+00 0.56790972D+04 0.56790972D+04 0.56790972D+04 0.12356674D+01  1  2  3  2  6  5        1 -.595542835006D-06 0.100000000000D+01
-.147960910410D-08 0.000000000000D+00 0.000000000000D+00 0.710510154633D-07 0.000000000000D+00  6 22 2 9900012 -13 1 21 2 0.13135398D-02 0.10330855D+00 0.56790972D+04 0.56790972D+04 0.56790972D+04 0.12356674D+01  1  2 15  2  6  5        1 -.954245045726D-06 0.100000000000D+01
0.318685156960D-08 0.000000000000D+00 0.000000000000D+00 0.710510154633D-07 0.000000000000D+00  6 22 2 9900012 -13 1 21 2 0.13135398D-02 0.10330855D+00 0.56953204D+04 0.56953204D+04 0.56953204D+04 0.12355301D+01  1  2 12  2  6  5        1 0.205538682666D-05 0.100000000000D+01
  </mgrwgt>
  </event>
  <event>
  7     66 0.12186155E-05 0.12920665E+02 0.78161638E-02 0.12614450E+00
       22 -1    0    0    0    0 0.00000000E+00 0.00000000E+00 0.36662629E+03 0.36662629E+03 0.00000000E+00 0.0000E+00 0.9000E+01
       21 -1    0    0  501  502 0.00000000E+00 0.00000000E+00 -.10869313E+02 0.10869313E+02 0.00000000E+00 0.0000E+00 0.9000E+01
       24  2    1    2    0    0 0.16814471E+01 -.54667574E+01 0.26536809E+03 0.27895295E+03 0.85801004E+02 0.0000E+00 0.0000E+00
  9900012  1    3    3    0    0 -.23473782E+02 -.36881226E+01 0.22188263E+03 0.22868432E+03 0.50000000E+02 0.0000E+00 0.9000E+01
      -13  1    3    3    0    0 0.25155229E+02 -.17786347E+01 0.43485464E+02 0.50268625E+02 0.00000000E+00 0.0000E+00 0.9000E+01
        1  1    1    2  501    0 -.16805993E+02 0.13312742E+02 0.40507569E+02 0.45831579E+02 0.00000000E+00 0.0000E+00 0.9000E+01
       -2  1    1    2    0  502 0.15124545E+02 -.78459847E+01 0.49881315E+02 0.52711071E+02 0.00000000E+00 0.0000E+00 0.9000E+01
#aMCatNLO 2  0  0  2  2 0.24542825D+02 0.00000000D+00  -5  6  0 0.00000000D+00 0.00000000D+00 0.00000000D+00 0.00000000D+00 0.00000000D+00
  <mgrwgt>
 0.1700588994D-05    1    2    0
 0.539322722487344D+02 0.000000000000000D+00 0.000000000000000D+00 0.539322722487344D+02
 0.539322722487344D+02 0.000000000000000D+00 0.000000000000000D+00 -.539322722487344D+02
 0.563534838411053D+02 -.154607211839435D+02 -.784496494806378D+01 0.193684735192459D+02
 0.317040530960094D+02 0.292946010607178D+02 -.392596880640164D+01 -.114699651411475D+02
 0.198070075603541D+02 -.138338798767743D+02 0.117709337544654D+02 -.789850837809842D+01
 0.000000000000000D+00 0.000000000000000D+00 -.000000000000000D+00 0.000000000000000D+00
 0.634831805828126D+02 0.000000000000000D+00 0.000000000000000D+00 0.634831805828126D+02
 0.627721492541057D+02 0.000000000000000D+00 0.000000000000000D+00 -.627721492541057D+02
 0.586494538986408D+02 -.234737817060671D+02 -.368812263339692D+01 0.193684735192459D+02
 0.277039559818457D+02 0.251552287838372D+02 -.177863473982507D+01 -.114699651411475D+02
 0.228485649666061D+02 -.168059925113043D+02 0.133127420971155D+02 -.789850837809842D+01
 0.170533549898257D+02 0.151245454335342D+02 -.784598472389351D+01 0.711031328706887D+00
0.266656810631D-09 0.000000000000D+00 0.000000000000D+00 0.136307075427D-08 0.884891922379D-11  6 22 21 9900012 -13 1 -2 2 0.56404044D-01 0.16722019D-02 0.35435530D+04 0.35435530D+04 0.35435530D+04 0.12590388D+01  1  2  1  3  6  2        2 0.170058899393D-05 0.100000000000D+01
  </mgrwgt>
  </event>
</LesHouchesEvents>
