<LesHouchesEvents version="3.0">
  <!--
  <scalesfunctionalform>
    muR  H_T/2 := sum_i mT(i)/2, i=final state
    muF1 H_T/2 := sum_i mT(i)/2, i=final state
    muF2 H_T/2 := sum_i mT(i)/2, i=final state
    QES  H_T/2 := sum_i mT(i)/2, i=final state
  </scalesfunctionalform>
PYTHIA8   
  -->
  <header>
        5
  </header>
  <init>
   2212   2212 0.65000000D+04 0.65000000D+04 -1 -1  82200  82200 -4   1
 0.46805356D-05 0.75425699D-07 0.14027083D-05     66
  </init>
  <event>
  7     66 0.14027083E-05 0.51705353E+01 0.78161638E-02 0.13096868E+00
       22 -1    0    0    0    0 0.00000000E+00 0.00000000E+00 0.10124518E+03 0.10124518E+03 0.00000000E+00 0.0000E+00 0.9000E+01
        2 -1    0    0  502    0 0.00000000E+00 0.00000000E+00 -.14870992E+03 0.14870992E+03 0.00000000E+00 0.0000E+00 0.9000E+01
       24  2    1    2    0    0 -.50817187E+01 -.98409982E+01 -.11086090E+03 0.13950367E+03 0.83955142E+02 0.0000E+00 0.0000E+00
  9900012  1    3    3    0    0 -.91915356E+01 0.18966000E+02 -.59914353E+02 0.80832686E+02 0.50000000E+02 0.0000E+00 0.9000E+01
      -13  1    3    3    0    0 0.41098169E+01 -.28806998E+02 -.50946546E+02 0.58670984E+02 0.00000000E+00 0.0000E+00 0.9000E+01
        1  1    1    2  501    0 0.31565039E+01 0.28148159E+01 0.86306825E+02 0.86410385E+02 0.00000000E+00 0.0000E+00 0.9000E+01
       21  1    1    2  502  501 0.19252148E+01 0.70261823E+01 -.22910655E+02 0.24041044E+02 0.00000000E+00 0.0000E+00 0.9000E+01
#aMCatNLO 2  0  0  2  5 0.74128608D+01 0.00000000D+00  -5  6  0 0.00000000D+00 0.00000000D+00 0.00000000D+00 0.00000000D+00 0.00000000D+00
  <mgrwgt>
 0.3009713353D-04    1    2    0
 0.112228766603378D+03 0.000000000000000D+00 0.000000000000000D+00 0.112228766603378D+03
 0.112228766603378D+03 0.000000000000000D+00 0.000000000000000D+00 -.112228766603378D+03
 0.753178614518668D+02 -.854806626674146D+01 0.213143782045444D+02 -.514335308775865D+02
 0.526120172997986D+02 0.456455572119389D+01 -.271474024724167D+02 -.448353402398493D+02
 0.965276544550915D+02 0.398351054554757D+01 0.583302426787235D+01 0.962688711174358D+02
 0.000000000000000D+00 0.000000000000000D+00 0.000000000000000D+00 -.000000000000000D+00
 0.112918222842817D+03 0.000000000000000D+00 0.000000000000000D+00 0.112918222842817D+03
 0.133336873959584D+03 0.000000000000000D+00 0.000000000000000D+00 -.133336873959584D+03
 0.747636380635616D+02 -.919153557270992D+01 0.189659998887271D+02 -.514335308775865D+02
 0.534503645233029D+02 0.410981687968826D+01 -.288069980814791D+02 -.448353402398493D+02
 0.963617260725629D+02 0.315650391103525D+01 0.281481589412139D+01 0.962688711174358D+02
 0.216793681429742D+02 0.192521478198641D+01 0.702618229863060D+01 -.204186511167666D+02
0.277893141834D-06 0.000000000000D+00 0.000000000000D+00 0.117645676543D-06 0.591673317284D-07  6 22 2 9900012 -13 1 21 2 0.15576182D-01 0.22878448D-01 0.22502476D+04 0.22502476D+04 0.22502476D+04 0.12828878D+01  1  2  1  1  6  2        2 0.300971335281D-04 0.100000000000D+01
  </mgrwgt>
  </event>
  <event>
  6     66 0.14027083E-05 0.33147769E+02 0.78161638E-02 0.12299445E+00
       22 -1    0    0    0    0 0.00000000E+00 0.00000000E+00 0.26412539E+03 0.26412539E+03 0.00000000E+00 0.0000E+00 0.9000E+01
        4 -1    0    0  501    0 0.00000000E+00 0.00000000E+00 -.20000731E+02 0.20000731E+02 0.00000000E+00 0.0000E+00 0.9000E+01
       24  2    1    2    0    0 0.11867884E+02 0.48166542E+02 0.14018570E+03 0.16895595E+03 0.80207345E+02 0.0000E+00 0.0000E+00
  9900012  1    3    3    0    0 -.10146994E+02 0.20436141E+02 0.60374907E+02 0.81643902E+02 0.50000000E+02 0.0000E+00 0.9000E+01
      -13  1    3    3    0    0 0.22014878E+02 0.27730401E+02 0.79810796E+02 0.87312045E+02 0.00000000E+00 0.0000E+00 0.9000E+01
        3  1    1    2  501    0 -.11867884E+02 -.48166542E+02 0.10393896E+03 0.11517017E+03 0.00000000E+00 0.0000E+00 0.9000E+01
#aMCatNLO 1  0  0  5  2 0.36637087D+01 0.00000000D+00  -5  6  0 0.00000000D+00 0.00000000D+00 0.00000000D+00 0.00000000D+00 0.00000000D+00
  <mgrwgt>
 0.5855059775D-05    8    2    0
 0.726821910741951D+02 0.000000000000000D+00 0.000000000000000D+00 0.726821910741951D+02
 0.726821910741951D+02 -.000000000000000D+00 -.000000000000000D+00 -.726821910741951D+02
 0.581859289839059D+02 -.101469939154923D+02 0.204361410735100D+02 -.191051036171672D+02
 0.366241660621594D+02 0.220148780753447D+02 0.277304013059208D+02 0.936480253336520D+01
 0.505542871023248D+02 -.118678841598524D+02 -.481665423794307D+02 0.974030108380204D+01
 0.000000000000000D+00 0.000000000000000D+00 0.000000000000000D+00 0.000000000000000D+00
 0.726821910741951D+02 0.000000000000000D+00 0.000000000000000D+00 0.726821910741951D+02
 0.726821910741951D+02 -.000000000000000D+00 -.000000000000000D+00 -.726821910741951D+02
 0.580811244302547D+02 -.102163506900823D+02 0.201546523112679D+02 -.190481805921690D+02
 0.364732692175844D+02 0.219712732690567D+02 0.275534285008505D+02 0.940059020505338D+01
 0.387942043666974D+02 -.739713332463794D+01 -.378305597769816D+02 0.437280893509419D+01
 0.120157841338536D+02 -.435778925433647D+01 -.987752103513678D+01 0.527478145202140D+01
0.188754730156D-07 0.000000000000D+00 0.000000000000D+00 0.769322701294D-07 0.000000000000D+00  6 22 4 9900012 -13 3 21 0 0.40634675D-01 0.30770355D-02 0.48981578D+04 0.48981578D+04 0.48981578D+04 0.12428534D+01  1  2  2  2  6  5        3 0.224522967617D-05 0.100000000000D+01
-.803429578012D-09 0.000000000000D+00 -.362433932031D-10 0.769322701294D-07 0.000000000000D+00  6 22 4 9900012 -13 3 21 2 0.40634675D-01 0.30770355D-02 0.48981578D+04 0.48981578D+04 0.48981578D+04 0.12428534D+01  1  2  3  2  6  5        3 -.147621813263D-06 0.100000000000D+01
-.157694023376D-08 0.000000000000D+00 0.000000000000D+00 0.769322701294D-07 0.000000000000D+00  6 22 4 9900012 -13 3 21 2 0.40634675D-01 0.30770355D-02 0.48981578D+04 0.48981578D+04 0.48981578D+04 0.12428534D+01  1  2 15  2  6  5        3 -.289746336313D-06 0.100000000000D+01
0.143101968881D-07 0.000000000000D+00 0.000000000000D+00 0.769322701294D-07 0.000000000000D+00  6 22 4 9900012 -13 3 21 2 0.40634675D-01 0.30770355D-02 0.48617749D+04 0.48617749D+04 0.48617749D+04 0.12432192D+01  1  2 12  2  6  5        3 0.262801229793D-05 0.100000000000D+01
-.241236904261D-06 0.000000000000D+00 0.000000000000D+00 0.769322701294D-07 0.000000000000D+00  6 22 4 9900012 -13 3 21 2 0.40634675D-01 0.30770355D-02 0.48981578D+04 0.48981578D+04 0.48981578D+04 0.12428534D+01  1  2  4  2  6  5        3 -.443247674814D-04 0.100000000000D+01
-.242668412574D-06 0.000000000000D+00 0.000000000000D+00 0.769322701294D-07 0.000000000000D+00  6 22 4 9900012 -13 3 21 2 0.40634675D-01 0.30770355D-02 0.48981578D+04 0.48981578D+04 0.48981578D+04 0.12428534D+01  1  2  5  2  6  5        3 -.445877922176D-04 0.100000000000D+01
0.306955569247D-06 0.000000000000D+00 -.000000000000D+00 0.769322701294D-07 0.000000000000D+00  6 22 4 9900012 -13 3 21 2 0.40634675D-01 0.30770355D-02 0.48981578D+04 0.48981578D+04 0.48981578D+04 0.12428534D+01  1  2  6  2  6  5        3 0.563998873873D-04 0.100000000000D+01
0.184767618055D-06 0.000000000000D+00 0.000000000000D+00 0.769322701294D-07 0.229115976082D-07  6 22 4 9900012 -13 3 21 2 0.40634675D-01 0.30770355D-02 0.48617749D+04 0.48617749D+04 0.48617749D+04 0.12432192D+01  1  2 11  2  6  5        3 0.339318582619D-04 0.100000000000D+01
  </mgrwgt>
  </event>
  <event>
  6     66 0.14027083E-05 0.17314312E+02 0.78161638E-02 0.12848661E+00
       22 -1    0    0    0    0 0.00000000E+00 0.00000000E+00 0.89940409E+00 0.89940409E+00 0.00000000E+00 0.0000E+00 0.9000E+01
        2 -1    0    0  501    0 0.00000000E+00 0.00000000E+00 -.27082744E+04 0.27082744E+04 0.00000000E+00 0.0000E+00 0.9000E+01
       24  2    1    2    0    0 -.17172281E+02 0.22131769E+01 -.24909658E+04 0.24920731E+04 0.72234488E+02 0.0000E+00 0.0000E+00
  9900012  1    3    3    0    0 -.31077495E+02 0.53941532E+01 -.21424653E+04 0.21432807E+04 0.50000000E+02 0.0000E+00 0.9000E+01
      -13  1    3    3    0    0 0.13905214E+02 -.31809763E+01 -.34850056E+03 0.34879236E+03 0.00000000E+00 0.0000E+00 0.9000E+01
        1  1    1    2  501    0 0.17172281E+02 -.22131769E+01 -.21640916E+03 0.21710069E+03 0.00000000E+00 0.0000E+00 0.9000E+01
#aMCatNLO 1  0  0  2  5 0.14567411D+02 0.00000000D+00  -5  6  0 0.00000000D+00 0.00000000D+00 0.00000000D+00 0.00000000D+00 0.00000000D+00
  <mgrwgt>
 0.3544134362D-04    9    2    0
 0.493541594998403D+02 0.000000000000000D+00 0.000000000000000D+00 0.493541594998403D+02
 0.493541594998403D+02 0.000000000000000D+00 0.000000000000000D+00 -.493541594998403D+02
 0.614248177178043D+02 -.310774949865436D+02 0.539415320193978D+01 -.166763499681688D+02
 0.143598456156196D+02 0.139052140980036D+02 -.318097625413956D+01 0.165274833647228D+01
 0.229236556662568D+02 0.171722808885400D+02 -.221317694780022D+01 0.150236016316966D+02
 0.000000000000000D+00 -.000000000000000D+00 -.000000000000000D+00 -.000000000000000D+00
 0.511667027650228D+02 0.000000000000000D+00 0.000000000000000D+00 0.511667027650228D+02
 0.881809416134590D+02 0.000000000000000D+00 0.000000000000000D+00 -.881809416134590D+02
 0.583819764553062D+02 -.233885480049020D+02 0.912854582008951D+01 -.166763499681688D+02
 0.161014166412246D+02 0.158601535661972D+02 -.223149493551653D+01 0.165274833647228D+01
 0.252349928151904D+02 0.202630012223662D+02 -.712065907892699D+00 0.150236016316966D+02
 0.396292584667606D+02 -.127346067836614D+02 -.618498497668028D+01 -.370142388484362D+02
0.490569294532D-07 0.000000000000D+00 0.000000000000D+00 0.215076158300D-08 0.000000000000D+00  6 22 2 9900012 -13 1 21 0 0.13836986D-03 0.41665760D+00 0.20564625D+04 0.20564625D+04 0.20564625D+04 0.12877847D+01  1  2  2  1  6  2        2 0.292091624263D-04 0.100000000000D+01
-.158518544650D-08 0.000000000000D+00 -.941957630432D-10 0.215076158300D-08 0.000000000000D+00  6 22 2 9900012 -13 1 21 2 0.13836986D-03 0.41665760D+00 0.20564625D+04 0.20564625D+04 0.20564625D+04 0.12877847D+01  1  2  3  1  6  2        2 -.156525588202D-05 0.100000000000D+01
-.367959748760D-08 0.000000000000D+00 0.000000000000D+00 0.215076158300D-08 0.000000000000D+00  6 22 2 9900012 -13 1 21 2 0.13836986D-03 0.41665760D+00 0.20564625D+04 0.20564625D+04 0.20564625D+04 0.12877847D+01  1  2 15  1  6  2        2 -.363333616497D-05 0.100000000000D+01
0.589800939146D-07 0.000000000000D+00 0.000000000000D+00 0.215076158300D-08 0.000000000000D+00  6 22 2 9900012 -13 1 21 2 0.13836986D-03 0.77178076D+00 0.28301642D+04 0.28301642D+04 0.28301642D+04 0.12706732D+01  1  2 12  1  6  2        2 0.815815040457D-06 0.100000000000D+01
-.426207731572D-07 0.000000000000D+00 0.000000000000D+00 0.215076158300D-08 0.000000000000D+00  6 22 2 9900012 -13 1 21 2 0.13836986D-03 0.41665760D+00 0.20564625D+04 0.20564625D+04 0.20564625D+04 0.12877847D+01  1  2  4  1  6  2        2 -.420849283143D-04 0.100000000000D+01
-.594714663424D-07 0.000000000000D+00 -.657907140514D-08 0.215076158300D-08 0.000000000000D+00  6 22 2 9900012 -13 1 21 2 0.13836986D-03 0.74703467D+00 0.20564625D+04 0.20564625D+04 0.20564625D+04 0.12877847D+01  1  2  5  1  6  2        2 -.131345710549D-05 0.100000000000D+01
0.547027624450D-07 0.000000000000D+00 0.559761163971D-08 0.215076158300D-08 0.000000000000D+00  6 22 2 9900012 -13 1 21 2 0.13836986D-03 0.41665760D+00 0.20564625D+04 0.20564625D+04 0.20564625D+04 0.12877847D+01  1  2  6  1  6  2        2 0.540150181603D-04 0.100000000000D+01
0.396519668561D-08 0.000000000000D+00 0.000000000000D+00 0.215076158300D-08 0.000000000000D+00  6 22 21 9900012 -13 1 -2 2 0.13836986D-03 0.77178076D+00 0.28301642D+04 0.28301642D+04 0.28301642D+04 0.12706732D+01  1  2 12  3  6  2        2 0.348379276052D-08 0.100000000000D+01
-.346391486843D-08 0.000000000000D+00 -.421657338671D-09 0.215076158300D-08 0.000000000000D+00  6 22 21 9900012 -13 1 -2 2 0.13836986D-03 0.74703467D+00 0.20564625D+04 0.20564625D+04 0.20564625D+04 0.12877847D+01  1  2  5  3  6  2        2 -.515833297399D-08 0.100000000000D+01
  </mgrwgt>
  </event>
  <event>
  6     66 0.14027083E-05 0.13056249E+02 0.78161638E-02 0.13261278E+00
       22 -1    0    0    0    0 0.00000000E+00 0.00000000E+00 0.77251731E+01 0.77251731E+01 0.00000000E+00 0.0000E+00 0.9000E+01
        2 -1    0    0  501    0 0.00000000E+00 0.00000000E+00 -.27244820E+03 0.27244820E+03 0.00000000E+00 0.0000E+00 0.9000E+01
       24  2    1    2    0    0 0.55092404E+01 -.11836972E+02 -.23809207E+03 0.25051408E+03 0.76804988E+02 0.0000E+00 0.0000E+00
  9900012  1    3    3    0    0 -.15580403E+02 -.37504716E+01 -.13230580E+03 0.14234339E+03 0.50000000E+02 0.0000E+00 0.9000E+01
      -13  1    3    3    0    0 0.21089643E+02 -.80865004E+01 -.10578627E+03 0.10817070E+03 0.00000000E+00 0.0000E+00 0.9000E+01
        1  1    1    2  501    0 -.55092404E+01 0.11836972E+02 -.26630953E+02 0.29659287E+02 0.00000000E+00 0.0000E+00 0.9000E+01
#aMCatNLO 1  0  0  2  5 0.14567411D+02 0.00000000D+00  -5  6  0 0.00000000D+00 0.00000000D+00 0.00000000D+00 0.00000000D+00 0.00000000D+00
  <mgrwgt>
 0.5972927979D-06    1    2    0
 0.458771129359677D+02 0.000000000000000D+00 0.000000000000000D+00 0.458771129359677D+02
 0.458771129359677D+02 0.000000000000000D+00 0.000000000000000D+00 -.458771129359677D+02
 0.529287325438313D+02 -.155804025404014D+02 -.375047155635522D+01 0.668099906304840D+01
 0.250940721121206D+02 0.210896429181660D+02 -.808650036133350D+01 -.109337975405946D+02
 0.137314212159835D+02 -.550924037776455D+01 0.118369719176887D+02 0.425279847754622D+01
 0.000000000000000D+00 0.000000000000000D+00 -.000000000000000D+00 0.000000000000000D+00
 0.623011014225341D+02 0.000000000000000D+00 0.000000000000000D+00 0.623011014225341D+02
 0.601819209175150D+02 0.000000000000000D+00 0.000000000000000D+00 -.601819209175150D+02
 0.582671758678636D+02 -.286795654967887D+02 0.528304439234584D+01 0.668099906304840D+01
 0.197292163155163D+02 0.158093446793055D+02 -.444507239273300D+01 -.109337975405946D+02
 0.175941531572115D+02 -.919947331239430D+01 0.143818504095732D+02 0.425279847754622D+01
 0.268924769994577D+02 0.220696941298775D+02 -.152198224091860D+02 0.211918050501902D+01
0.323083858954D-09 0.000000000000D+00 0.000000000000D+00 0.297457159551D-08 0.000000000000D+00  6 22 2 9900012 -13 1 21 2 0.11884882D-02 0.41915107D-01 0.19425374D+04 0.19425374D+04 0.19425374D+04 0.12909149D+01  1  2 14  1  6  2        2 0.597292797909D-06 0.100000000000D+01
  </mgrwgt>
  </event>
  <event>
  7     66 0.14027083E-05 0.21658600E+03 0.78161638E-02 0.10368463E+00
       22 -1    0    0    0    0 0.00000000E+00 0.00000000E+00 0.32709626E+03 0.32709626E+03 0.00000000E+00 0.0000E+00 0.9000E+01
        2 -1    0    0  501    0 0.00000000E+00 0.00000000E+00 -.21913044E+03 0.21913044E+03 0.00000000E+00 0.0000E+00 0.9000E+01
       24  2    1    2    0    0 -.19657263E+03 0.10257790E+03 0.19546935E+03 0.30609334E+03 0.79510026E+02 0.0000E+00 0.0000E+00
  9900012  1    3    3    0    0 -.88626398E+02 0.38369515E+02 0.10618151E+03 0.15199136E+03 0.50000000E+02 0.0000E+00 0.9000E+01
      -13  1    3    3    0    0 -.10794623E+03 0.64208380E+02 0.89287841E+02 0.15410199E+03 0.00000000E+00 0.0000E+00 0.9000E+01
        1  1    1    2  502    0 0.17390303E+03 -.92072595E+02 -.67176735E+02 0.20792388E+03 0.00000000E+00 0.0000E+00 0.9000E+01
       21  1    1    2  501  502 0.22669598E+02 -.10505300E+02 -.20326791E+02 0.32209477E+02 0.00000000E+00 0.0000E+00 0.9000E+01
#aMCatNLO 2  0  0  5  2 0.10103261D+02 0.00000000D+00  -5  6  0 0.00000000D+00 0.00000000D+00 0.00000000D+00 0.00000000D+00 0.00000000D+00
  <mgrwgt>
 0.6859940850D-04    2    2    0
 0.267725133699637D+03 0.000000000000000D+00 0.000000000000000D+00 0.267725133699637D+03
 0.267725133699637D+03 -.000000000000000D+00 -.000000000000000D+00 -.267725133699637D+03
 0.134011260217817D+03 -.889303254494864D+02 0.385281136777823D+02 0.778845269424401D+02
 0.139617170741027D+03 -.108262833711664D+03 0.643735952961125D+02 0.602341550210689D+02
 0.261821836440431D+03 0.197193159161150D+03 -.102901708973895D+03 -.138118681963509D+03
 0.000000000000000D+00 0.000000000000000D+00 0.000000000000000D+00 -.000000000000000D+00
 0.267725133699637D+03 0.000000000000000D+00 0.000000000000000D+00 0.267725133699637D+03
 0.267725133699637D+03 -.000000000000000D+00 -.000000000000000D+00 -.267725133699637D+03
 0.133640350522632D+03 -.886263984434918D+02 0.383695148275321D+02 0.776716493879668D+02
 0.139199827770692D+03 -.107946228049013D+03 0.642083803165657D+02 0.600123970401453D+02
 0.225653761659732D+03 0.173903028906951D+03 -.920725949733734D+02 -.110453582753319D+03
 0.369563274462190D+02 0.226695975855531D+02 -.105053001707244D+02 -.272304636747930D+02
-.932686451156D-05 0.000000000000D+00 0.000000000000D+00 0.721281658612D-06 0.000000000000D+00  6 22 2 9900012 -13 1 21 2 0.50322502D-01 0.33712375D-01 0.52008811D+05 0.52008811D+05 0.52008811D+05 0.11414638D+01  1  2 13  2  6  5        1 -.105080451580D-03 0.100000000000D+01
0.154156981530D-04 0.000000000000D+00 0.000000000000D+00 0.721281658612D-06 0.643755546738D-07  6 22 2 9900012 -13 1 21 2 0.50322502D-01 0.33712375D-01 0.52008811D+05 0.52008811D+05 0.52008811D+05 0.11414638D+01  1  2  1  2  6  5        1 0.173679860079D-03 0.100000000000D+01
  </mgrwgt>
  </event>
</LesHouchesEvents>
