<LesHouchesEvents version="3.0">
  <!--
  <scalesfunctionalform>
    muR  H_T/2 := sum_i mT(i)/2, i=final state
    muF1 H_T/2 := sum_i mT(i)/2, i=final state
    muF2 H_T/2 := sum_i mT(i)/2, i=final state
    QES  H_T/2 := sum_i mT(i)/2, i=final state
  </scalesfunctionalform>
PYTHIA8   
  -->
  <header>
        7
  </header>
  <init>
   2212   2212 0.65000000D+04 0.65000000D+04 -1 -1  82200  82200 -4   1
 0.40958317D-05 0.58905681D-07 0.87244346D-06     66
  </init>
  <event>
  7     66 -.87244346E-06 0.47514358E+01 0.78161638E-02 0.13102594E+00
       22 -1    0    0    0    0 0.00000000E+00 0.00000000E+00 0.90375182E+02 0.90375182E+02 0.00000000E+00 0.0000E+00 0.9000E+01
        2 -1    0    0  502    0 0.00000000E+00 0.00000000E+00 -.16948775E+03 0.16948775E+03 0.00000000E+00 0.0000E+00 0.9000E+01
       24  2    1    2    0    0 -.80576723E+01 -.12589905E+02 -.13016552E+03 0.15542818E+03 0.83614728E+02 0.0000E+00 0.0000E+00
  9900012  1    3    3    0    0 -.14772820E+02 0.16353532E+02 -.75334719E+02 0.93064462E+02 0.50000000E+02 0.0000E+00 0.9000E+01
      -13  1    3    3    0    0 0.67151474E+01 -.28943437E+02 -.54830804E+02 0.62363714E+02 0.00000000E+00 0.0000E+00 0.9000E+01
        1  1    1    2  501    0 0.72296965E+01 0.47907423E+01 0.76918684E+02 0.77406096E+02 0.00000000E+00 0.0000E+00 0.9000E+01
       21  1    1    2  502  501 0.82797578E+00 0.77991627E+01 -.25865724E+02 0.27028655E+02 0.00000000E+00 0.0000E+00 0.9000E+01
#aMCatNLO 2  0  0  2  5 0.80030469D+01 0.00000000D+00  -5  6  0 0.00000000D+00 0.00000000D+00 0.00000000D+00 0.00000000D+00 0.00000000D+00
  <mgrwgt>
 -.2869583188D-04    1    2    0
 0.113264138148975D+03 0.000000000000000D+00 0.000000000000000D+00 0.113264138148975D+03
 0.113264138148975D+03 0.000000000000000D+00 0.000000000000000D+00 -.113264138148975D+03
 0.784563113386518D+02 -.144871579131705D+02 0.190443392885048D+02 -.555232220384466D+02
 0.502395047268882D+02 0.690044086646958D+01 -.271980559213868D+02 -.416732228793082D+02
 0.978324602324105D+02 0.758671704670092D+01 0.815371663288204D+01 0.971964449177548D+02
 0.000000000000000D+00 0.000000000000000D+00 0.000000000000000D+00 -.000000000000000D+00
 0.114065892874108D+03 0.000000000000000D+00 0.000000000000000D+00 0.114065892874108D+03
 0.134286291958155D+03 0.000000000000000D+00 0.000000000000000D+00 -.134286291958155D+03
 0.779005931233560D+02 -.147728197257986D+02 0.163535323642652D+02 -.555232220384466D+02
 0.511807900868240D+02 0.671514744848174D+01 -.289434373132873D+02 -.416732228793082D+02
 0.975826246188652D+02 0.722969650101048D+01 0.479074225558850D+01 0.971964449177548D+02
 0.216881770032184D+02 0.827975776306395D+00 0.779916269343353D+01 -.202203990840472D+02
-.258929452110D-06 0.000000000000D+00 0.000000000000D+00 0.681275039591D-07 0.000000000000D+00  6 22 2 9900012 -13 1 21 2 0.13806146D-01 0.26259613D-01 0.25436619D+04 0.25436619D+04 0.25436619D+04 0.12763151D+01  1  2 13  1  6  2        2 -.286958318844D-04 0.100000000000D+01
  </mgrwgt>
  </event>
  <event>
  7     66 0.87244346E-06 0.36578722E+02 0.78161638E-02 0.12588984E+00
       22 -1    0    0    0    0 0.00000000E+00 0.00000000E+00 0.22929269E+03 0.22929269E+03 0.00000000E+00 0.0000E+00 0.9000E+01
       21 -1    0    0  501  502 0.00000000E+00 0.00000000E+00 -.63395744E+02 0.63395744E+02 0.00000000E+00 0.0000E+00 0.9000E+01
       24  2    1    2    0    0 0.32295314E+02 0.16555123E+02 -.27758810E+02 0.91935785E+02 0.79778302E+02 0.0000E+00 0.0000E+00
  9900012  1    3    3    0    0 0.19576517E+02 -.84582368E+01 -.28803979E+01 0.54434166E+02 0.50000000E+02 0.0000E+00 0.9000E+01
      -13  1    3    3    0    0 0.12718797E+02 0.25013360E+02 -.24878412E+02 0.37501618E+02 0.00000000E+00 0.0000E+00 0.9000E+01
        1  1    1    2  501    0 0.41100620E+00 0.95063918E+00 0.10017357E+03 0.10017893E+03 0.00000000E+00 0.0000E+00 0.9000E+01
       -2  1    1    2    0  502 -.32706320E+02 -.17505762E+02 0.93482187E+02 0.10057373E+03 0.00000000E+00 0.0000E+00 0.9000E+01
#aMCatNLO 2  0  0  2  5 0.10857211D+03 0.00000000D+00  -5  6  0 0.00000000D+00 0.00000000D+00 0.00000000D+00 0.00000000D+00 0.00000000D+00
  <mgrwgt>
 0.1086288969D-03    1    2    0
 0.870172528352340D+02 0.000000000000000D+00 0.000000000000000D+00 0.870172528352340D+02
 0.870172528352340D+02 0.000000000000000D+00 0.000000000000000D+00 -.870172528352340D+02
 0.584595535128372D+02 0.857456961878234D+01 -.143469293971232D+02 -.252618639384923D+02
 0.468430890568986D+02 0.366311329291561D+01 0.201663865998734D+02 -.421209383193234D+02
 0.687318631007322D+02 -.122376829116980D+02 -.581945720275019D+01 0.673828022578156D+02
 0.000000000000000D+00 -.000000000000000D+00 -.000000000000000D+00 0.000000000000000D+00
 0.154241117427180D+03 0.000000000000000D+00 0.000000000000000D+00 0.154241117427180D+03
 0.942432279602741D+02 0.000000000000000D+00 0.000000000000000D+00 -.942432279602741D+02
 0.599411673698349D+02 0.195765167120666D+02 -.845823678043117D+01 -.252618639384923D+02
 0.506123444185259D+02 0.127187973720032D+02 0.250133595514312D+02 -.421209383193234D+02
 0.673907610957563D+02 0.411006204754505D+00 0.950639179221415D+00 0.673828022578156D+02
 0.705400725033369D+02 -.327063202888243D+02 -.175057619502214D+02 0.599978894669059D+02
0.122066675117D-06 0.000000000000D+00 0.000000000000D+00 0.881376989704D-07 0.534427994336D-08  6 22 21 9900012 -13 1 -2 2 0.35275799D-01 0.97531914D-02 0.36331625D+04 0.36331625D+04 0.36331625D+04 0.12577672D+01  1  2  1  3  6  2        2 0.108628896909D-03 0.100000000000D+01
  </mgrwgt>
  </event>
  <event>
  6     66 -.87244346E-06 0.48216143E+02 0.78161638E-02 0.12304645E+00
       22 -1    0    0    0    0 0.00000000E+00 0.00000000E+00 0.24964866E+03 0.24964866E+03 0.00000000E+00 0.0000E+00 0.9000E+01
        2 -1    0    0  501    0 0.00000000E+00 0.00000000E+00 -.19396446E+02 0.19396446E+02 0.00000000E+00 0.0000E+00 0.9000E+01
       24  2    1    2    0    0 -.46473840E+02 0.12844401E+02 0.15139466E+03 0.17661508E+03 0.77121631E+02 0.0000E+00 0.0000E+00
  9900012  1    3    3    0    0 -.73650173E+01 0.11157523E+02 0.89139741E+02 0.10307583E+03 0.50000000E+02 0.0000E+00 0.9000E+01
      -13  1    3    3    0    0 -.39108823E+02 0.16868780E+01 0.62254924E+02 0.73539249E+02 0.00000000E+00 0.0000E+00 0.9000E+01
        1  1    1    2  501    0 0.46473840E+02 -.12844401E+02 0.78857554E+02 0.92430029E+02 0.00000000E+00 0.0000E+00 0.9000E+01
#aMCatNLO 1  0  0  5  2 0.81890924D+00 0.00000000D+00  -5  6  0 0.00000000D+00 0.00000000D+00 0.00000000D+00 0.00000000D+00 0.00000000D+00
  <mgrwgt>
 -.1915440551D-06    6    2    0
 0.695866135553908D+02 0.000000000000000D+00 0.000000000000000D+00 0.695866135553908D+02
 0.695866135553908D+02 -.000000000000000D+00 -.000000000000000D+00 -.695866135553908D+02
 0.517874428543618D+02 -.736501728664416D+01 0.111575227382959D+02 0.179037540913251D+01
 0.391673104879943D+02 -.391088229560527D+02 0.168687795350862D+01 -.131629047897345D+01
 0.482184737684255D+02 0.464738402426968D+02 -.128444006918046D+02 -.474084930159056D+00
 0.000000000000000D+00 0.000000000000000D+00 0.000000000000000D+00 0.000000000000000D+00
 0.695866135553908D+02 0.000000000000000D+00 0.000000000000000D+00 0.695866135553908D+02
 0.695866135553908D+02 -.000000000000000D+00 -.000000000000000D+00 -.695866135553908D+02
 0.517825766589562D+02 -.734091209672661D+01 0.111508605662775D+02 0.179012950934848D+01
 0.391488996831742D+02 -.390905954117434D+02 0.168184024021628D+01 -.131647642022611D+01
 0.565646927827166D+01 0.524453651345085D+01 -.201132434724799D+01 -.667125044709919D+00
 0.425852814903796D+02 0.411869709950191D+02 -.108213764592458D+02 0.193471955587553D+00
0.298257252172D-08 0.000000000000D+00 0.000000000000D+00 0.747274343021D-08 0.000000000000D+00  6 22 2 9900012 -13 1 21 0 0.38407487D-01 0.29840686D-02 0.48384416D+04 0.48384416D+04 0.48384416D+04 0.12434554D+01  1  2  2  2  6  5        1 0.654690618300D-06 0.100000000000D+01
-.945700811068D-10 0.000000000000D+00 -.572693190639D-11 0.747274343021D-08 0.000000000000D+00  6 22 2 9900012 -13 1 21 2 0.38407487D-01 0.29840686D-02 0.48384416D+04 0.48384416D+04 0.48384416D+04 0.12434554D+01  1  2  3  2  6  5        1 -.320966186794D-07 0.100000000000D+01
-.252313458509D-09 0.000000000000D+00 0.000000000000D+00 0.747274343021D-08 0.000000000000D+00  6 22 2 9900012 -13 1 21 2 0.38407487D-01 0.29840686D-02 0.48384416D+04 0.48384416D+04 0.48384416D+04 0.12434554D+01  1  2 15  2  6  5        1 -.856339422643D-07 0.100000000000D+01
0.353742917334D-13 0.000000000000D+00 0.000000000000D+00 0.747274343021D-08 0.000000000000D+00  6 22 2 9900012 -13 1 21 2 0.38407487D-01 0.29840686D-02 0.48358267D+04 0.48358267D+04 0.48358267D+04 0.12434819D+01  1  2 12  2  6  5        1 0.120056353738D-10 0.100000000000D+01
-.241971118179D-07 0.000000000000D+00 0.000000000000D+00 0.747274343021D-08 0.000000000000D+00  6 22 2 9900012 -13 1 21 2 0.38407487D-01 0.29840686D-02 0.48384416D+04 0.48384416D+04 0.48384416D+04 0.12434554D+01  1  2  5  2  6  5        1 -.821238030117D-05 0.100000000000D+01
0.220510107678D-07 0.000000000000D+00 0.000000000000D+00 0.747274343021D-08 0.495389369244D-08  6 22 2 9900012 -13 1 21 2 0.38407487D-01 0.29840686D-02 0.48358267D+04 0.48358267D+04 0.48358267D+04 0.12434819D+01  1  2 11  2  6  5        1 0.748386418303D-05 0.100000000000D+01
  </mgrwgt>
  </event>
  <event>
  6     66 0.87244346E-06 0.63855449E+02 0.78161638E-02 0.11777910E+00
       22 -1    0    0    0    0 0.00000000E+00 0.00000000E+00 0.42737734E+03 0.42737734E+03 0.00000000E+00 0.0000E+00 0.9000E+01
        4 -1    0    0  501    0 0.00000000E+00 0.00000000E+00 -.19508857E+02 0.19508857E+02 0.00000000E+00 0.0000E+00 0.9000E+01
       24  2    1    2    0    0 -.35226934E+02 -.58835595E+02 0.31507966E+03 0.33150713E+03 0.76936464E+02 0.0000E+00 0.0000E+00
  9900012  1    3    3    0    0 -.14962518E+02 -.23721868E+02 0.23315870E+03 0.24010328E+03 0.50000000E+02 0.0000E+00 0.9000E+01
      -13  1    3    3    0    0 -.20264415E+02 -.35113727E+02 0.81920961E+02 0.91403852E+02 0.00000000E+00 0.0000E+00 0.9000E+01
        3  1    1    2  501    0 0.35226934E+02 0.58835595E+02 0.92788822E+02 0.11537907E+03 0.00000000E+00 0.0000E+00 0.9000E+01
#aMCatNLO 1  0  0  2  5 0.17514841D+02 0.00000000D+00  -5  6  0 0.00000000D+00 0.00000000D+00 0.00000000D+00 0.00000000D+00 0.00000000D+00
  <mgrwgt>
 0.7698500402D-06    9    2    0
 0.913106982126027D+02 0.000000000000000D+00 0.000000000000000D+00 0.913106982126027D+02
 0.913106982126027D+02 0.000000000000000D+00 0.000000000000000D+00 -.913106982126027D+02
 0.668090117998335D+02 -.149625183458813D+02 -.237218678187222D+02 0.343051029674964D+02
 0.407079461279394D+02 -.202644154202637D+02 -.351137272778629D+02 -.367647960501204D+01
 0.751044384974324D+02 0.352269337661450D+02 0.588355950965851D+02 -.306286233624844D+02
 0.000000000000000D+00 0.000000000000000D+00 -.000000000000000D+00 -.000000000000000D+00
 0.926423323072301D+02 0.000000000000000D+00 0.000000000000000D+00 0.926423323072301D+02
 0.173242392125295D+03 0.000000000000000D+00 0.000000000000000D+00 -.173242392125295D+03
 0.674101072409835D+02 -.206864651614577D+02 -.209607401528230D+02 0.343051029674964D+02
 0.411752198997202D+02 -.237564282630152D+02 -.334292438994432D+02 -.367647960501204D+01
 0.748567485264368D+02 0.288316462314064D+02 0.619205652950318D+02 -.306286233624844D+02
 0.824426487653844D+02 0.156112471930665D+02 -.753058124276562D+01 -.806000598180648D+02
0.992227326805D-08 0.000000000000D+00 0.000000000000D+00 0.184387008188D-07 0.000000000000D+00  6 22 4 9900012 -13 3 21 0 0.65750360D-01 0.30013627D-02 0.69260463D+04 0.69260463D+04 0.69260463D+04 0.12262294D+01  1  2  2  1  6  2        4 0.575589730599D-06 0.100000000000D+01
-.210256492317D-09 0.000000000000D+00 -.190520709719D-10 0.184387008188D-07 0.000000000000D+00  6 22 4 9900012 -13 3 21 2 0.65750360D-01 0.30013627D-02 0.69260463D+04 0.69260463D+04 0.69260463D+04 0.12262294D+01  1  2  3  1  6  2        4 -.183398047256D-07 0.100000000000D+01
-.983366306111D-09 0.000000000000D+00 0.000000000000D+00 0.184387008188D-07 0.000000000000D+00  6 22 4 9900012 -13 3 21 2 0.65750360D-01 0.30013627D-02 0.69260463D+04 0.69260463D+04 0.69260463D+04 0.12262294D+01  1  2 15  1  6  2        4 -.857749781186D-07 0.100000000000D+01
0.630311162769D-07 0.000000000000D+00 0.000000000000D+00 0.184387008188D-07 0.000000000000D+00  6 22 4 9900012 -13 3 21 2 0.65750360D-01 0.57774847D-02 0.85262672D+04 0.85262672D+04 0.85262672D+04 0.12165755D+01  1  2 12  1  6  2        4 0.204635010236D-05 0.100000000000D+01
-.515270199765D-07 0.000000000000D+00 0.000000000000D+00 0.184387008188D-07 0.000000000000D+00  6 22 4 9900012 -13 3 21 2 0.65750360D-01 0.30013627D-02 0.69260463D+04 0.69260463D+04 0.69260463D+04 0.12262294D+01  1  2  4  1  6  2        4 -.449448896463D-05 0.100000000000D+01
-.631323569557D-07 0.000000000000D+00 -.263950530092D-08 0.184387008188D-07 0.000000000000D+00  6 22 4 9900012 -13 3 21 2 0.65750360D-01 0.57637065D-02 0.69260463D+04 0.69260463D+04 0.69260463D+04 0.12262294D+01  1  2  5  1  6  2        4 -.203802935844D-05 0.100000000000D+01
0.535264215437D-07 0.000000000000D+00 0.216255574164D-08 0.184387008188D-07 0.000000000000D+00  6 22 4 9900012 -13 3 21 2 0.65750360D-01 0.30013627D-02 0.69260463D+04 0.69260463D+04 0.69260463D+04 0.12262294D+01  1  2  6  1  6  2        4 0.466888849876D-05 0.100000000000D+01
0.447873461687D-08 0.000000000000D+00 0.000000000000D+00 0.184387008188D-07 0.000000000000D+00  6 22 21 9900012 -13 3 -4 2 0.65750360D-01 0.57774847D-02 0.85262672D+04 0.85262672D+04 0.85262672D+04 0.12165755D+01  1  2 12  3  6  2        4 0.334907461045D-05 0.100000000000D+01
-.431818123808D-08 0.000000000000D+00 -.186914965296D-09 0.184387008188D-07 0.000000000000D+00  6 22 21 9900012 -13 3 -4 2 0.65750360D-01 0.57637065D-02 0.69260463D+04 0.69260463D+04 0.69260463D+04 0.12262294D+01  1  2  5  3  6  2        4 -.323341979608D-05 0.100000000000D+01
  </mgrwgt>
  </event>
  <event>
  6     66 -.87244346E-06 0.21177418E+03 0.78161638E-02 0.10093741E+00
       22 -1    0    0    0    0 0.00000000E+00 0.00000000E+00 0.46112205E+03 0.46112205E+03 0.00000000E+00 0.0000E+00 0.9000E+01
        2 -1    0    0  501    0 0.00000000E+00 0.00000000E+00 -.19455990E+03 0.19455990E+03 0.00000000E+00 0.0000E+00 0.9000E+01
       24  2    1    2    0    0 -.65961023E+02 0.26926919E+03 0.24355874E+03 0.37749871E+03 0.79546610E+02 0.0000E+00 0.0000E+00
  9900012  1    3    3    0    0 -.47973129E+02 0.23043230E+03 0.17841873E+03 0.29955585E+03 0.50000000E+02 0.0000E+00 0.9000E+01
      -13  1    3    3    0    0 -.17987894E+02 0.38836895E+02 0.65140007E+02 0.77942859E+02 0.00000000E+00 0.0000E+00 0.9000E+01
        1  1    1    2  501    0 0.65961023E+02 -.26926919E+03 0.23003410E+02 0.27818324E+03 0.00000000E+00 0.0000E+00 0.9000E+01
#aMCatNLO 1  0  0  2  5 0.17514841D+02 0.00000000D+00  -5  6  0 0.00000000D+00 0.00000000D+00 0.00000000D+00 0.00000000D+00 0.00000000D+00
  <mgrwgt>
 -.8037668970D-06    1    2    0
 0.299526058018776D+03 0.000000000000000D+00 0.000000000000000D+00 0.299526058018776D+03
 0.299526058018776D+03 0.000000000000000D+00 0.000000000000000D+00 -.299526058018776D+03
 0.248482029036268D+03 -.479731285406369D+02 0.230432299540873D+03 0.619907494736912D+02
 0.563254252671359D+02 -.179878940165732D+02 0.388368949136740D+02 0.366153628117555D+02
 0.294244661734148D+03 0.659610225572101D+02 -.269269194454547D+03 -.986061122854466D+02
 0.000000000000000D+00 0.000000000000000D+00 -.000000000000000D+00 0.000000000000000D+00
 0.416858857986919D+03 0.000000000000000D+00 0.000000000000000D+00 0.416858857986919D+03
 0.377500411044505D+03 0.000000000000000D+00 0.000000000000000D+00 -.377500411044505D+03
 0.323879545323850D+03 -.608584104518743D+02 0.307979481031034D+03 0.619907494736912D+02
 0.700427978120225D+02 -.208327568654069D+02 0.559580644133285D+02 0.366153628117555D+02
 0.228164562128395D+03 0.542002922356034D+02 -.198489874685756D+03 -.986061122854466D+02
 0.172272363767156D+03 0.274908750816778D+02 -.165447670758606D+03 0.393584469424144D+02
-.114277101593D-06 0.000000000000D+00 0.000000000000D+00 0.540550309158D-06 0.000000000000D+00  6 22 2 9900012 -13 1 21 2 0.70941854D-01 0.29932292D-01 0.78583788D+05 0.78583788D+05 0.78583788D+05 0.11262402D+01  1  2 14  1  6  2        2 -.803766896982D-06 0.100000000000D+01
  </mgrwgt>
  </event>
  <event>
  6     66 0.87244346E-06 0.56761395E+02 0.78161638E-02 0.11951600E+00
       22 -1    0    0    0    0 0.00000000E+00 0.00000000E+00 0.69439197E+03 0.69439197E+03 0.00000000E+00 0.0000E+00 0.9000E+01
        4 -1    0    0  501    0 0.00000000E+00 0.00000000E+00 -.10728923E+02 0.10728923E+02 0.00000000E+00 0.0000E+00 0.9000E+01
       24  2    1    2    0    0 0.34587577E+02 -.53788530E+02 0.33741662E+03 0.35301850E+03 0.81747049E+02 0.0000E+00 0.0000E+00
  9900012  1    3    3    0    0 0.51411907E+02 -.40741502E+02 0.27078065E+03 0.28306398E+03 0.50000000E+02 0.0000E+00 0.9000E+01
      -13  1    3    3    0    0 -.16824330E+02 -.13047028E+02 0.66635962E+02 0.69954517E+02 0.00000000E+00 0.0000E+00 0.9000E+01
        3  1    1    2  501    0 -.34587577E+02 0.53788530E+02 0.34624643E+03 0.35210240E+03 0.00000000E+00 0.0000E+00 0.9000E+01
#aMCatNLO 1  0  0  5  2 0.40606768D+01 0.00000000D+00  -5  6  0 0.00000000D+00 0.00000000D+00 0.00000000D+00 0.00000000D+00 0.00000000D+00
  <mgrwgt>
 0.1205107999D-06    1    2    0
 0.863138343411771D+02 0.000000000000000D+00 0.000000000000000D+00 0.863138343411771D+02
 0.863138343411771D+02 -.000000000000000D+00 -.000000000000000D+00 -.863138343411771D+02
 0.838312852310676D+02 0.514119067238341D+02 -.407415020032260D+02 -.149876697666290D+02
 0.218380210554353D+02 -.168243300460437D+02 -.130470276900159D+02 -.485964510796683D+01
 0.669583623958513D+02 -.345875766777904D+02 0.537885296932419D+02 0.198473148745958D+02
 0.000000000000000D+00 0.000000000000000D+00 0.000000000000000D+00 0.000000000000000D+00
 0.863138343411771D+02 0.000000000000000D+00 0.000000000000000D+00 0.863138343411771D+02
 0.863138343411771D+02 -.000000000000000D+00 -.000000000000000D+00 -.863138343411771D+02
 0.798824534429331D+02 0.486783537909119D+02 -.364904440447495D+02 -.134190809553487D+02
 0.216746297436215D+02 -.175508673249206D+02 -.119171603864412D+02 -.444273778091311D+01
 0.353938248145089D+02 -.200641532971519D+02 0.152212567905847D+02 0.248689752338855D+02
 0.356767606812907D+02 -.110633331688394D+02 0.331863476406060D+02 -.700715649762374D+01
0.139889831749D-08 0.000000000000D+00 0.000000000000D+00 0.237731100229D-07 0.000000000000D+00  6 22 4 9900012 -13 3 21 2 0.10682953D+00 0.16506035D-02 0.70325266D+04 0.70325266D+04 0.70325266D+04 0.12255131D+01  1  2 14  2  6  5        3 0.120510799932D-06 0.100000000000D+01
  </mgrwgt>
  </event>
  <event>
  6     66 0.87244346E-06 0.25976001E+02 0.78161638E-02 0.12269970E+00
       22 -1    0    0    0    0 0.00000000E+00 0.00000000E+00 0.10063797E+02 0.10063797E+02 0.00000000E+00 0.0000E+00 0.9000E+01
        2 -1    0    0  501    0 0.00000000E+00 0.00000000E+00 -.41756040E+03 0.41756040E+03 0.00000000E+00 0.0000E+00 0.9000E+01
       24  2    1    2    0    0 0.10368875E+02 0.23816781E+02 -.18067156E+03 0.19931662E+03 0.80063397E+02 0.0000E+00 0.0000E+00
  9900012  1    3    3    0    0 -.91500255E+01 0.37856083E-01 -.87444437E+02 0.10114472E+03 0.50000000E+02 0.0000E+00 0.9000E+01
      -13  1    3    3    0    0 0.19518900E+02 0.23778925E+02 -.93227125E+02 0.98171898E+02 0.00000000E+00 0.0000E+00 0.9000E+01
        1  1    1    2  501    0 -.10368875E+02 -.23816781E+02 -.22682504E+03 0.22830758E+03 0.00000000E+00 0.0000E+00 0.9000E+01
#aMCatNLO 1  0  0  2  5 0.38517653D+02 0.00000000D+00  -5  6  0 0.00000000D+00 0.00000000D+00 0.00000000D+00 0.00000000D+00 0.00000000D+00
  <mgrwgt>
 0.6306849913D-05    7    2    0
 0.648247116365545D+02 0.000000000000000D+00 0.000000000000000D+00 0.648247116365545D+02
 0.648247116365545D+02 0.000000000000000D+00 0.000000000000000D+00 -.648247116365545D+02
 0.587632214705326D+02 -.915002554323150D+01 0.378560834580064D-01 0.294854505997454D+02
 0.307825699860281D+02 0.195189001923776D+02 0.237789253743187D+02 0.106857768426412D+01
 0.401036318165481D+02 -.103688746491461D+02 -.238167814577767D+02 -.305540282840095D+02
 0.000000000000000D+00 0.000000000000000D+00 -.000000000000000D+00 -.000000000000000D+00
 0.778254614437899D+02 0.000000000000000D+00 0.000000000000000D+00 0.778254614437899D+02
 0.869499888158031D+02 0.000000000000000D+00 0.000000000000000D+00 -.869499888158031D+02
 0.620369427624740D+02 -.201305104534251D+02 0.859959412582886D+01 0.294854505997454D+02
 0.314313450924737D+02 0.138637840751024D+02 0.281883502031212D+02 0.106857768426412D+01
 0.396724952362649D+02 -.176203594865959D+02 -.181626310168582D+02 -.305540282840095D+02
 0.316346671683803D+02 0.238870858649187D+02 -.186253133120918D+02 -.912452737201329D+01
0.940715934421D-08 0.000000000000D+00 0.000000000000D+00 0.173462325238D-06 0.000000000000D+00  6 22 2 9900012 -13 1 21 0 0.15482765D-02 0.64240061D-01 0.28928460D+04 0.28928460D+04 0.28928460D+04 0.12695241D+01  1  2  2  1  6  2        2 0.495444780309D-05 0.100000000000D+01
0.319235611376D-09 0.000000000000D+00 -.180629844219D-10 0.173462325238D-06 0.000000000000D+00  6 22 2 9900012 -13 1 21 2 0.15482765D-02 0.64240061D-01 0.28928460D+04 0.28928460D+04 0.28928460D+04 0.12695241D+01  1  2  3  1  6  2        2 0.270975488913D-06 0.100000000000D+01
-.103037163162D-08 0.000000000000D+00 0.000000000000D+00 0.173462325238D-06 0.000000000000D+00  6 22 2 9900012 -13 1 21 2 0.15482765D-02 0.64240061D-01 0.28928460D+04 0.28928460D+04 0.28928460D+04 0.12695241D+01  1  2 15  1  6  2        2 -.874606236555D-06 0.100000000000D+01
-.343614344072D-09 0.000000000000D+00 0.000000000000D+00 0.173462325238D-06 0.000000000000D+00  6 22 2 9900012 -13 1 21 2 0.15482765D-02 0.64240061D-01 0.28928460D+04 0.28928460D+04 0.28928460D+04 0.12695241D+01  1  2  4  1  6  2        2 -.291668791214D-06 0.100000000000D+01
-.503079849561D-08 0.000000000000D+00 -.283926378153D-08 0.173462325238D-06 0.000000000000D+00  6 22 2 9900012 -13 1 21 2 0.15482765D-02 0.99911032D-01 0.28928460D+04 0.28928460D+04 0.28928460D+04 0.12695241D+01  1  2  5  1  6  2        2 -.268094848273D-05 0.100000000000D+01
0.595094318357D-08 0.000000000000D+00 0.258320517335D-08 0.173462325238D-06 0.000000000000D+00  6 22 2 9900012 -13 1 21 2 0.15482765D-02 0.64240061D-01 0.28928460D+04 0.28928460D+04 0.28928460D+04 0.12695241D+01  1  2  6  1  6  2        2 0.505131533325D-05 0.100000000000D+01
-.147392796651D-09 0.000000000000D+00 -.145469510272D-09 0.173462325238D-06 0.000000000000D+00  6 22 21 9900012 -13 1 -2 2 0.15482765D-02 0.99911032D-01 0.28928460D+04 0.28928460D+04 0.28928460D+04 0.12695241D+01  1  2  5  3  6  2        2 -.122665201880D-06 0.100000000000D+01
  </mgrwgt>
  </event>
</LesHouchesEvents>
