<LesHouchesEvents version="3.0">
  <!--
  <scalesfunctionalform>
    muR  H_T/2 := sum_i mT(i)/2, i=final state
    muF1 H_T/2 := sum_i mT(i)/2, i=final state
    muF2 H_T/2 := sum_i mT(i)/2, i=final state
    QES  H_T/2 := sum_i mT(i)/2, i=final state
  </scalesfunctionalform>
PYTHIA8   
  -->
  <header>
       59
  </header>
  <init>
   2212   2212 0.65000000D+04 0.65000000D+04 -1 -1  82200  82200 -4   1
 0.27734185D-04 0.14350490D-06 0.91196180D-06     66
  </init>
  <event>
  7     66 0.91196180E-06 0.97589762E+02 0.78161638E-02 0.11420440E+00
       22 -1    0    0    0    0 0.00000000E+00 0.00000000E+00 0.56511374E+02 0.56511374E+02 0.00000000E+00 0.0000E+00 0.9000E+01
       -2 -1    0    0    0  501 -.00000000E+00 -.00000000E+00 -.87549752E+03 0.87549752E+03 0.00000000E+00 0.0000E+00 0.9000E+01
      -24  2    1    2    0    0 -.96671643E+02 0.27848740E+02 -.24782155E+02 0.13127847E+03 0.80615891E+02 0.0000E+00 0.0000E+00
  9900012  1    3    3    0    0 -.40071872E+02 0.27015600E+02 -.13292637E+00 0.69538588E+02 0.50000000E+02 0.0000E+00 0.9000E+01
       13  1    3    3    0    0 -.56599771E+02 0.83314006E+00 -.24649228E+02 0.61739879E+02 0.00000000E+00 0.0000E+00 0.9000E+01
       -1  1    1    2    0  502 0.87168309E+02 -.21615219E+02 -.66684994E+03 0.67287025E+03 0.00000000E+00 0.0000E+00 0.9000E+01
       21  1    1    2  502  501 0.95033342E+01 -.62335204E+01 -.12735405E+03 0.12786018E+03 0.00000000E+00 0.0000E+00 0.9000E+01
#aMCatNLO 2  0  0  5  2 0.61462855D+01 0.00000000D+00  -5  6  0 0.00000000D+00 0.00000000D+00 0.00000000D+00 0.00000000D+00 0.00000000D+00
  <mgrwgt>
 0.6806577706D-04    2    2    0
 0.222431040020548D+03 0.000000000000000D+00 0.000000000000000D+00 0.222431040020548D+03
 0.222431040020548D+03 -.000000000000000D+00 -.000000000000000D+00 -.222431040020548D+03
 0.145644947161946D+03 -.401706147251953D+02 0.270440451367066D+02 0.127935108430211D+03
 0.840905161364242D+02 -.566567809569384D+02 0.849563129160471D+00 0.621329406850931D+02
 0.215126616742726D+03 0.968273956821337D+02 -.278936082658671D+02 -.190068049115304D+03
 0.000000000000000D+00 0.000000000000000D+00 0.000000000000000D+00 -.000000000000000D+00
 0.222431040020548D+03 0.000000000000000D+00 0.000000000000000D+00 0.222431040020548D+03
 0.222431040020548D+03 -.000000000000000D+00 -.000000000000000D+00 -.222431040020548D+03
 0.145442194994707D+03 -.400718715662804D+02 0.270155996438344D+02 0.127741279819555D+03
 0.839692611503871D+02 -.565997713852587D+02 0.833140063677436D+00 0.620210333267083D+02
 0.182034385865291D+03 0.871683087226687D+02 -.216152193210266D+02 -.158338200967067D+03
 0.334162380307106D+02 0.950333422887040D+01 -.623352038648526D+01 -.314241121791970D+02
-.296889409306D-04 0.000000000000D+00 0.000000000000D+00 0.661078375837D-05 0.000000000000D+00  6 22 -2 9900012 13 -1 21 2 0.86940575D-02 0.13469193D+00 0.12918365D+05 0.12918365D+05 0.12918365D+05 0.11979711D+01  1  2 13  2  6  5       -1 -.106813561976D-03 0.100000000000D+01
0.486078946394D-04 0.000000000000D+00 0.000000000000D+00 0.661078375837D-05 0.187948280560D-05  6 22 -2 9900012 13 -1 21 2 0.86940575D-02 0.13469193D+00 0.12918365D+05 0.12918365D+05 0.12918365D+05 0.11979711D+01  1  2  1  2  6  5       -1 0.174879339035D-03 0.100000000000D+01
  </mgrwgt>
  </event>
  <event>
  7     66 0.91196180E-06 0.54255176E+02 0.78161638E-02 0.12299361E+00
       22 -1    0    0    0    0 0.00000000E+00 0.00000000E+00 0.12117443E+03 0.12117443E+03 0.00000000E+00 0.0000E+00 0.9000E+01
       21 -1    0    0  502  501 0.00000000E+00 0.00000000E+00 -.74882916E+02 0.74882916E+02 0.00000000E+00 0.0000E+00 0.9000E+01
      -24  2    1    2    0    0 -.15182726E+01 -.55267704E+02 -.18376657E+02 0.99628989E+02 0.80817138E+02 0.0000E+00 0.0000E+00
  9900012  1    3    3    0    0 0.86149130E+01 -.35394866E+02 -.35664436E+02 0.71407040E+02 0.50000000E+02 0.0000E+00 0.9000E+01
       13  1    3    3    0    0 -.10133186E+02 -.19872838E+02 0.17287779E+02 0.28221950E+02 0.00000000E+00 0.0000E+00 0.9000E+01
        4  1    1    2  502    0 -.57506371E-03 0.68910484E+00 0.33602412E+02 0.33609477E+02 0.00000000E+00 0.0000E+00 0.9000E+01
       -3  1    1    2    0  501 0.15188476E+01 0.54578599E+02 0.31065760E+02 0.62818881E+02 0.00000000E+00 0.0000E+00 0.9000E+01
#aMCatNLO 2  0  0  2  5 0.52840742D+02 0.00000000D+00  -5  6  0 0.00000000D+00 0.00000000D+00 0.00000000D+00 0.00000000D+00 0.00000000D+00
  <mgrwgt>
 0.3280151789D-02    2    2    0
 0.809750307645837D+02 0.000000000000000D+00 0.000000000000000D+00 0.809750307645837D+02
 0.809750307645837D+02 0.000000000000000D+00 0.000000000000000D+00 -.809750307645837D+02
 0.742702742839615D+02 0.861464898066865D+01 -.350785250984894D+02 -.413685694950816D+02
 0.268696446518415D+02 -.101332811129232D+02 -.197583275445376D+02 0.151295376745450D+02
 0.000000000000000D+00 -.000000000000000D+00 0.000000000000000D+00 0.000000000000000D+00
 0.608101425933644D+02 0.151863213225454D+01 0.548368526430271D+02 0.262390318205366D+02
 0.112051634777006D+03 0.000000000000000D+00 0.000000000000000D+00 0.112051634777006D+03
 0.809795840180804D+02 0.000000000000000D+00 0.000000000000000D+00 -.809795840180804D+02
 0.744202379297791D+02 0.861491296985659D+01 -.353948660963330D+02 -.413685694950816D+02
 0.269539244899016D+02 -.101331855530916D+02 -.198728378876409D+02 0.151295376745450D+02
 0.310796911853881D+02 -.575063709304581D-03 0.689104841901547D+00 0.310720507589258D+02
 0.605773651900178D+02 0.151884764694428D+01 0.545785991420724D+02 0.262390318205366D+02
-.207578431021D-09 0.000000000000D+00 0.000000000000D+00 0.640040461555D-07 0.000000000000D+00  6 22 21 9900012 13 4 -3 2 0.13471953D-01 0.15941767D-01 0.48621956D+04 0.48621956D+04 0.48621956D+04 0.12432149D+01  1  2 13  3  5  2       -4 -.341969565060D-06 0.100000000000D+01
0.184181295896D-05 0.000000000000D+00 0.000000000000D+00 0.640040461555D-07 0.150463022217D-07  6 22 21 9900012 13 4 -3 2 0.18642220D-01 0.11520449D-01 0.48621956D+04 0.48621956D+04 0.48621956D+04 0.12432149D+01  1  2  1  3  5  2       -4 0.328049375828D-02 0.100000000000D+01
  </mgrwgt>
  </event>
  <event>
  6     66 0.91196180E-06 0.39383948E+02 0.78161638E-02 0.11584766E+00
       22 -1    0    0    0    0 0.00000000E+00 0.00000000E+00 0.39534924E+03 0.39534924E+03 0.00000000E+00 0.0000E+00 0.9000E+01
       -2 -1    0    0    0  501 0.00000000E+00 0.00000000E+00 -.33199535E+02 0.33199535E+02 0.00000000E+00 0.0000E+00 0.9000E+01
      -24  2    1    2    0    0 0.22706621E+02 0.32179259E+02 0.37629584E+03 0.38670133E+03 0.79926625E+02 0.0000E+00 0.0000E+00
  9900012  1    3    3    0    0 0.25432469E+02 0.46989902E+01 0.30676670E+03 0.31188892E+03 0.50000000E+02 0.0000E+00 0.9000E+01
       13  1    3    3    0    0 -.27258481E+01 0.27480269E+02 0.69529137E+02 0.74812408E+02 0.00000000E+00 0.0000E+00 0.9000E+01
       -1  1    1    2    0  501 -.22706621E+02 -.32179259E+02 -.14146135E+02 0.41847443E+02 0.00000000E+00 0.0000E+00 0.9000E+01
#aMCatNLO 1  0  0  2  5 0.94813158D+01 0.00000000D+00  -5  6  0 0.00000000D+00 0.00000000D+00 0.00000000D+00 0.00000000D+00 0.00000000D+00
  <mgrwgt>
 0.4745400636D-04    7    4    0
 0.114566184810659D+03 0.000000000000000D+00 0.000000000000000D+00 0.114566184810659D+03
 0.114566184810659D+03 0.000000000000000D+00 0.000000000000000D+00 -.114566184810659D+03
 0.984764616282155D+02 0.254324692258871D+02 0.469899016991770D+01 0.808005104889241D+02
 0.300298431405802D+02 -.272584814316988D+01 0.274802690790309D+02 0.117981372382377D+02
 0.100626064852523D+03 -.227066210827172D+02 -.321792592489486D+02 -.925986477271618D+02
 0.000000000000000D+00 -.000000000000000D+00 0.000000000000000D+00 -.000000000000000D+00
 0.150118671988910D+03 0.000000000000000D+00 0.000000000000000D+00 0.150118671988910D+03
 0.155732003610427D+03 0.000000000000000D+00 0.000000000000000D+00 -.155732003610427D+03
 0.109463906294496D+03 0.542898727417061D+02 -.249679868407239D+01 0.808005104889241D+02
 0.285701176171471D+02 0.540649638661107D+01 0.254524139363419D+02 0.117981372382377D+02
 0.100668684190655D+03 0.522852136597555D+01 -.391450760646138D+02 -.925986477271618D+02
 0.671479674970393D+02 -.649248904942927D+02 0.161894608123443D+02 -.561333162151652D+01
 0.114566184810659D+03 0.000000000000000D+00 0.000000000000000D+00 0.114566184810659D+03
 0.114566184810659D+03 0.000000000000000D+00 0.000000000000000D+00 -.114566184810659D+03
 0.984764616282155D+02 0.254324692258871D+02 0.469899016991770D+01 0.808005104889241D+02
 0.300298431405802D+02 -.272584814316988D+01 0.274802690790309D+02 0.117981372382377D+02
 0.000000000000000D+00 -.000000000000000D+00 0.000000000000000D+00 -.000000000000000D+00
 0.100626064852523D+03 -.227066210827172D+02 -.321792592489486D+02 -.925986477271618D+02
 0.150118671988910D+03 0.000000000000000D+00 0.000000000000000D+00 0.150118671988910D+03
 0.155732003610427D+03 0.000000000000000D+00 0.000000000000000D+00 -.155732003610427D+03
 0.109463906294496D+03 0.542898727417061D+02 -.249679868407239D+01 0.808005104889241D+02
 0.285701176171471D+02 0.540649638661107D+01 0.254524139363419D+02 0.117981372382377D+02
 0.671479674970393D+02 -.649248904942927D+02 0.161894608123443D+02 -.561333162151652D+01
 0.100668684190655D+03 0.522852136597555D+01 -.391450760646138D+02 -.925986477271618D+02
0.955989675354D-06 0.000000000000D+00 0.000000000000D+00 0.265774418389D-05 0.000000000000D+00  6 22 -2 9900012 13 -1 21 0 0.60822959D-01 0.51076207D-02 0.38002282D+04 0.38002282D+04 0.38002282D+04 0.12554883D+01  1  2  2  1  6  2       -2 0.385693134682D-04 0.100000000000D+01
0.362795464802D-07 0.000000000000D+00 -.183562603561D-08 0.265774418389D-05 0.000000000000D+00  6 22 -2 9900012 13 -1 21 2 0.60822959D-01 0.51076207D-02 0.38002282D+04 0.38002282D+04 0.38002282D+04 0.12554883D+01  1  2  3  1  6  2       -2 0.230715041472D-05 0.100000000000D+01
-.153775499686D-06 0.000000000000D+00 0.000000000000D+00 0.265774418389D-05 0.000000000000D+00  6 22 -2 9900012 13 -1 21 2 0.60822959D-01 0.51076207D-02 0.38002282D+04 0.38002282D+04 0.38002282D+04 0.12554883D+01  1  2 15  1  6  2       -2 -.977915223025D-05 0.100000000000D+01
-.100820318819D-07 0.000000000000D+00 0.000000000000D+00 0.265774418389D-05 0.000000000000D+00  6 22 -2 9900012 13 -1 21 2 0.60822959D-01 0.51076207D-02 0.38002282D+04 0.38002282D+04 0.38002282D+04 0.12554883D+01  1  2  4  1  6  2       -2 -.641153660788D-06 0.100000000000D+01
-.190875755574D-07 0.000000000000D+00 -.280233317104D-06 0.265774418389D-05 0.000000000000D+00  6 22 -2 9900012 13 -1 21 2 0.60822959D-01 0.90841853D-02 0.38002282D+04 0.38002282D+04 0.38002282D+04 0.12554883D+01  1  2  5  1  6  2       -2 -.519923876609D-06 0.100000000000D+01
0.189034421155D-06 0.000000000000D+00 0.239432845175D-06 0.265774418389D-05 0.000000000000D+00  6 22 -2 9900012 13 -1 21 2 0.60822959D-01 0.51076207D-02 0.38002282D+04 0.38002282D+04 0.38002282D+04 0.12554883D+01  1  2  6  1  6  2       -2 0.120213973293D-04 0.100000000000D+01
0.134124997807D-07 0.000000000000D+00 -.177470150464D-07 0.265774418389D-05 0.000000000000D+00  6 22 21 9900012 13 2 -1 2 0.60822959D-01 0.90841853D-02 0.38002282D+04 0.38002282D+04 0.38002282D+04 0.12554883D+01  3  4  5  3  5  2       -2 0.549637491079D-05 0.100000000000D+01
  </mgrwgt>
  </event>
  <event>
  6     66 0.91196180E-06 0.31572016E+02 0.78161638E-02 0.12114046E+00
       22 -1    0    0    0    0 0.00000000E+00 0.00000000E+00 0.11824647E+02 0.11824647E+02 0.00000000E+00 0.0000E+00 0.9000E+01
       -2 -1    0    0    0  501 0.00000000E+00 0.00000000E+00 -.56884322E+03 0.56884322E+03 0.00000000E+00 0.0000E+00 0.9000E+01
      -24  2    1    2    0    0 -.19173691E+02 -.25083098E+02 -.17619086E+03 0.19853367E+03 0.85881368E+02 0.0000E+00 0.0000E+00
  9900012  1    3    3    0    0 -.27173323E+02 -.41744719E+02 -.15564002E+03 0.17089420E+03 0.50000000E+02 0.0000E+00 0.9000E+01
       13  1    3    3    0    0 0.79996318E+01 0.16661622E+02 -.20550838E+02 0.27639477E+02 0.00000000E+00 0.0000E+00 0.9000E+01
       -1  1    1    2    0  501 0.19173691E+02 0.25083098E+02 -.38082772E+03 0.38213420E+03 0.00000000E+00 0.0000E+00 0.9000E+01
#aMCatNLO 1  0  0  2  2 0.45912131D+02 0.00000000D+00  -5  6  0 0.00000000D+00 0.00000000D+00 0.00000000D+00 0.00000000D+00 0.00000000D+00
  <mgrwgt>
 0.2343083452D-04    7    4    0
 0.820144518441504D+02 0.000000000000000D+00 0.000000000000000D+00 0.820144518441504D+02
 0.820144518441504D+02 0.000000000000000D+00 0.000000000000000D+00 -.820144518441504D+02
 0.764401113710616D+02 -.271733228164749D+02 -.417447194091245D+02 0.293611913073262D+02
 0.280569920204827D+02 0.799963181102119D+01 0.166616216008447D+02 0.211090278733009D+02
 0.595318002967564D+02 0.191736910054537D+02 0.250830978082798D+02 -.504702191806271D+02
 0.000000000000000D+00 0.000000000000000D+00 0.000000000000000D+00 -.000000000000000D+00
 0.996508583893014D+02 0.000000000000000D+00 0.000000000000000D+00 0.996508583893014D+02
 0.100404446166755D+03 0.000000000000000D+00 0.000000000000000D+00 -.100404446166755D+03
 0.836519226543005D+02 -.430025619984881D+02 -.422651661577456D+02 0.293611913073262D+02
 0.269046293651985D+02 0.256525366696330D+01 0.164829456453341D+02 0.211090278733009D+02
 0.567147892233191D+02 0.767970830475874D+01 0.247051891888889D+02 -.504702191806271D+02
 0.327839633132384D+02 0.327576000267661D+02 0.107703132352268D+01 -.753587777453556D+00
 0.820144518441504D+02 0.000000000000000D+00 0.000000000000000D+00 0.820144518441504D+02
 0.820144518441504D+02 0.000000000000000D+00 0.000000000000000D+00 -.820144518441504D+02
 0.764401113710616D+02 -.271733228164749D+02 -.417447194091245D+02 0.293611913073262D+02
 0.280569920204827D+02 0.799963181102119D+01 0.166616216008447D+02 0.211090278733009D+02
 0.000000000000000D+00 0.000000000000000D+00 0.000000000000000D+00 -.000000000000000D+00
 0.595318002967564D+02 0.191736910054537D+02 0.250830978082798D+02 -.504702191806271D+02
 0.996508583893014D+02 0.000000000000000D+00 0.000000000000000D+00 0.996508583893014D+02
 0.100404446166755D+03 0.000000000000000D+00 0.000000000000000D+00 -.100404446166755D+03
 0.836519226543005D+02 -.430025619984881D+02 -.422651661577456D+02 0.293611913073262D+02
 0.269046293651985D+02 0.256525366696330D+01 0.164829456453341D+02 0.211090278733009D+02
 0.327839633132384D+02 0.327576000267661D+02 0.107703132352268D+01 -.753587777453556D+00
 0.567147892233191D+02 0.767970830475874D+01 0.247051891888889D+02 -.504702191806271D+02
0.300740159560D-06 0.000000000000D+00 0.000000000000D+00 0.144729932270D-07 0.000000000000D+00  6 22 -2 9900012 13 -1 21 0 0.18191765D-02 0.87514342D-01 0.36379487D+04 0.36379487D+04 0.36379487D+04 0.12577003D+01  1  2  2  1  6  2       -2 0.166652931534D-04 0.100000000000D+01
0.122985729056D-07 0.000000000000D+00 -.577460699706D-09 0.144729932270D-07 0.000000000000D+00  6 22 -2 9900012 13 -1 21 2 0.18191765D-02 0.87514342D-01 0.36379487D+04 0.36379487D+04 0.36379487D+04 0.12577003D+01  1  2  3  1  6  2       -2 0.107802935759D-05 0.100000000000D+01
-.422305922984D-07 0.000000000000D+00 0.000000000000D+00 0.144729932270D-07 0.000000000000D+00  6 22 -2 9900012 13 -1 21 2 0.18191765D-02 0.87514342D-01 0.36379487D+04 0.36379487D+04 0.36379487D+04 0.12577003D+01  1  2 15  1  6  2       -2 -.370171552713D-05 0.100000000000D+01
-.599033540837D-08 0.000000000000D+00 0.000000000000D+00 0.144729932270D-07 0.000000000000D+00  6 22 -2 9900012 13 -1 21 2 0.18191765D-02 0.87514342D-01 0.36379487D+04 0.36379487D+04 0.36379487D+04 0.12577003D+01  1  2  4  1  6  2       -2 -.525081851497D-06 0.100000000000D+01
-.180609475849D-06 0.000000000000D+00 -.106845288516D-06 0.144729932270D-07 0.000000000000D+00  6 22 -2 9900012 13 -1 21 2 0.18191765D-02 0.12527862D+00 0.36379487D+04 0.36379487D+04 0.36379487D+04 0.12577003D+01  1  2  5  1  6  2       -2 -.681592010606D-05 0.100000000000D+01
0.211695156051D-06 0.000000000000D+00 0.100320507980D-06 0.144729932270D-07 0.000000000000D+00  6 22 -2 9900012 13 -1 21 2 0.18191765D-02 0.87514342D-01 0.36379487D+04 0.36379487D+04 0.36379487D+04 0.12577003D+01  1  2  6  1  6  2       -2 0.185561036093D-04 0.100000000000D+01
-.481073920030D-08 0.000000000000D+00 -.469849982767D-08 0.144729932270D-07 0.000000000000D+00  6 22 21 9900012 13 2 -1 2 0.18191765D-02 0.12527862D+00 0.36379487D+04 0.36379487D+04 0.36379487D+04 0.12577003D+01  3  4  5  3  5  2       -2 -.182587411482D-05 0.100000000000D+01
  </mgrwgt>
  </event>
  <event>
  6     66 0.91196180E-06 0.87337986E+02 0.78161638E-02 0.11006547E+00
       22 -1    0    0    0    0 0.00000000E+00 0.00000000E+00 0.15528158E+03 0.15528158E+03 0.00000000E+00 0.0000E+00 0.9000E+01
       -2 -1    0    0    0  501 -.00000000E+00 -.00000000E+00 -.50671306E+03 0.50671306E+03 0.00000000E+00 0.0000E+00 0.9000E+01
      -24  2    1    2    0    0 -.78094247E+02 -.39105145E+02 0.12789453E+03 0.17477668E+03 0.81005899E+02 0.0000E+00 0.0000E+00
  9900012  1    3    3    0    0 -.35584369E+02 -.20921130E+01 0.79732093E+02 0.10063713E+03 0.50000000E+02 0.0000E+00 0.9000E+01
       13  1    3    3    0    0 -.42509878E+02 -.37013032E+02 0.48162432E+02 0.74139558E+02 0.00000000E+00 0.0000E+00 0.9000E+01
       -1  1    1    2    0  501 0.78094247E+02 0.39105145E+02 -.47932600E+03 0.48721796E+03 0.00000000E+00 0.0000E+00 0.9000E+01
#aMCatNLO 1  0  0  5  5 0.95314911D+02 0.00000000D+00  -5  6  0 0.00000000D+00 0.00000000D+00 0.00000000D+00 0.00000000D+00 0.00000000D+00
  <mgrwgt>
 0.5103030230D-04    4    2    0
 0.280505268466708D+03 0.000000000000000D+00 0.000000000000000D+00 0.280505268466708D+03
 0.280505268466708D+03 -.000000000000000D+00 -.000000000000000D+00 -.280505268466708D+03
 0.168698444071215D+03 -.355843688900359D+02 -.209211296468171D+01 0.157125875609619D+03
 0.117655159951959D+03 -.425098779976849D+02 -.370130318943215D+02 0.103274790757150D+03
 0.274656932910242D+03 0.780942468877208D+02 0.391051448590032D+02 -.260400666366769D+03
 0.000000000000000D+00 0.000000000000000D+00 0.000000000000000D+00 -.000000000000000D+00
 0.280505268466708D+03 0.000000000000000D+00 0.000000000000000D+00 0.280505268466708D+03
 0.280505268466708D+03 -.000000000000000D+00 -.000000000000000D+00 -.280505268466708D+03
 0.148244558672297D+03 -.293768677917475D+02 0.101624955029322D+01 0.136427328829461D+03
 0.102821009931920D+03 -.381917322905586D+02 -.348507508028317D+02 0.888761882426629D+02
 0.110543963822355D+03 0.172631577996056D+02 0.999198704210431D+02 -.440223899326922D+02
 0.199401004506844D+03 0.503054422827005D+02 -.660853691685046D+02 -.181281127139431D+03
0.430366552743D-04 0.000000000000D+00 0.000000000000D+00 0.195897352948D-04 0.000000000000D+00  6 22 -2 9900012 13 -1 21 0 0.23889474D-01 0.77955855D-01 0.10517401D+05 0.10517401D+05 0.10517401D+05 0.12070659D+01  1  2  2  2  6  5       -1 0.896367137622D-04 0.100000000000D+01
0.758799078765D-06 0.000000000000D+00 -.826360440324D-07 0.195897352948D-04 0.000000000000D+00  6 22 -2 9900012 13 -1 21 2 0.23889474D-01 0.77955855D-01 0.10517401D+05 0.10517401D+05 0.10517401D+05 0.12070659D+01  1  2  3  2  6  5       -1 0.230269384828D-05 0.100000000000D+01
-.728867719271D-05 0.000000000000D+00 0.000000000000D+00 0.195897352948D-04 0.000000000000D+00  6 22 -2 9900012 13 -1 21 2 0.23889474D-01 0.77955855D-01 0.10517401D+05 0.10517401D+05 0.10517401D+05 0.12070659D+01  1  2 15  2  6  5       -1 -.221186248157D-04 0.100000000000D+01
-.619196481547D-05 0.000000000000D+00 0.000000000000D+00 0.195897352948D-04 0.000000000000D+00  6 22 -2 9900012 13 -1 21 2 0.23889474D-01 0.77955855D-01 0.10517401D+05 0.10517401D+05 0.10517401D+05 0.12070659D+01  1  2  5  2  6  5       -1 -.187904804952D-04 0.100000000000D+01
  </mgrwgt>
  </event>
  <event>
  6     66 0.91196180E-06 0.34807428E+02 0.78161638E-02 0.11562133E+00
       22 -1    0    0    0    0 0.00000000E+00 0.00000000E+00 0.90522055E+03 0.90522055E+03 0.00000000E+00 0.0000E+00 0.9000E+01
       -4 -1    0    0    0  501 0.00000000E+00 0.00000000E+00 -.51425950E+03 0.51425950E+03 0.00000000E+00 0.0000E+00 0.9000E+01
      -24  2    1    2    0    0 0.38595385E+01 0.88059724E+02 0.89738627E+03 0.90544122E+03 0.82172279E+02 0.0000E+00 0.0000E+00
  9900012  1    3    3    0    0 0.63754323E+01 0.52544954E+02 0.76132027E+03 0.76479421E+03 0.50000000E+02 0.0000E+00 0.9000E+01
       13  1    3    3    0    0 -.25158938E+01 0.35514770E+02 0.13606599E+03 0.14064701E+03 0.00000000E+00 0.0000E+00 0.9000E+01
       -3  1    1    2    0  501 -.38595385E+01 -.88059724E+02 -.50642522E+03 0.51403882E+03 0.00000000E+00 0.0000E+00 0.9000E+01
#aMCatNLO 1  0  0  5  2 0.24771564D+02 0.00000000D+00  -5  6  0 0.00000000D+00 0.00000000D+00 0.00000000D+00 0.00000000D+00 0.00000000D+00
  <mgrwgt>
 0.6511553653D-03    7    2    0
 0.682288989242773D+03 0.000000000000000D+00 0.000000000000000D+00 0.682288989242773D+03
 0.682288989242773D+03 -.000000000000000D+00 -.000000000000000D+00 -.682288989242773D+03
 0.577441198383420D+03 0.637543230158852D+01 0.525449539649393D+02 0.572832191192386D+03
 0.107321919713530D+03 -.251589383483708D+01 0.355147700778131D+02 0.101244090373361D+03
 0.679814860388596D+03 -.385953846675146D+01 -.880597240427528D+02 -.674076281565747D+03
 0.000000000000000D+00 -.000000000000000D+00 0.000000000000000D+00 0.000000000000000D+00
 0.682288989242773D+03 0.000000000000000D+00 0.000000000000000D+00 0.682288989242773D+03
 0.682288989242773D+03 -.000000000000000D+00 -.000000000000000D+00 -.682288989242773D+03
 0.576149362651921D+03 0.636806484221454D+01 0.523768570681321D+02 0.571545449354681D+03
 0.107086012968654D+03 -.251726316099738D+01 0.354835273567368D+02 0.101004934760757D+03
 0.559154972468821D+03 0.199922478058116D+02 -.638944268907468D+02 -.555132502630302D+03
 0.122187630396148D+03 -.238430494870287D+02 -.239659575341225D+02 -.117417881485136D+03
0.396977080019D-03 0.000000000000D+00 0.000000000000D+00 0.278620703251D-03 0.000000000000D+00  6 22 -4 9900012 13 -3 21 0 0.13926470D+00 0.79116846D-01 0.96589828D+04 0.96589828D+04 0.96589828D+04 0.12108949D+01  1  2  2  2  6  5       -3 0.160190105167D-04 0.100000000000D+01
0.602640350958D-05 0.000000000000D+00 -.762248256870D-06 0.278620703251D-03 0.000000000000D+00  6 22 -4 9900012 13 -3 21 2 0.13926470D+00 0.79116846D-01 0.96589828D+04 0.96589828D+04 0.96589828D+04 0.12108949D+01  1  2  3  2  6  5       -3 0.356567182860D-06 0.100000000000D+01
-.636130618218D-04 0.000000000000D+00 0.000000000000D+00 0.278620703251D-03 0.000000000000D+00  6 22 -4 9900012 13 -3 21 2 0.13926470D+00 0.79116846D-01 0.96589828D+04 0.96589828D+04 0.96589828D+04 0.12108949D+01  1  2 15  2  6  5       -3 -.376382534140D-05 0.100000000000D+01
0.101878680589D-01 0.000000000000D+00 0.000000000000D+00 0.278620703251D-03 0.000000000000D+00  6 22 -4 9900012 13 -3 21 2 0.13926470D+00 0.79116846D-01 0.10922171D+05 0.10922171D+05 0.10922171D+05 0.12053798D+01  1  2 12  2  6  5       -3 0.601001362753D-03 0.100000000000D+01
-.143198687725D-02 0.000000000000D+00 0.000000000000D+00 0.278620703251D-03 0.000000000000D+00  6 22 -4 9900012 13 -3 21 2 0.13926470D+00 0.79116846D-01 0.96589828D+04 0.96589828D+04 0.96589828D+04 0.12108949D+01  1  2  4  2  6  5       -3 -.847270724405D-04 0.100000000000D+01
-.105661276362D-01 0.000000000000D+00 0.000000000000D+00 0.278620703251D-03 0.000000000000D+00  6 22 -4 9900012 13 -3 21 2 0.13926470D+00 0.79116846D-01 0.96589828D+04 0.96589828D+04 0.96589828D+04 0.12108949D+01  1  2  5  2  6  5       -3 -.625171274872D-03 0.100000000000D+01
0.126326225652D-01 0.000000000000D+00 -.000000000000D+00 0.278620703251D-03 0.000000000000D+00  6 22 -4 9900012 13 -3 21 2 0.13926470D+00 0.79116846D-01 0.96589828D+04 0.96589828D+04 0.96589828D+04 0.12108949D+01  1  2  6  2  6  5       -3 0.747440597540D-03 0.100000000000D+01
  </mgrwgt>
  </event>
  <event>
  7     66 -.91196180E-06 0.54278264E+02 0.78161638E-02 0.11650139E+00
       22 -1    0    0    0    0 0.00000000E+00 0.00000000E+00 0.49798780E+02 0.49798780E+02 0.00000000E+00 0.0000E+00 0.9000E+01
       -2 -1    0    0    0  501 -.00000000E+00 -.00000000E+00 -.38140163E+03 0.38140163E+03 0.00000000E+00 0.0000E+00 0.9000E+01
      -24  2    1    2    0    0 -.22230988E+02 -.84192278E+02 -.50187869E+02 0.12828139E+03 0.79716595E+02 0.0000E+00 0.0000E+00
  9900012  1    3    3    0    0 -.26268119E+02 -.59915481E+02 -.59901352E+02 0.10182363E+03 0.50000000E+02 0.0000E+00 0.9000E+01
       13  1    3    3    0    0 0.40371310E+01 -.24276798E+02 0.97134833E+01 0.26457761E+02 0.00000000E+00 0.0000E+00 0.9000E+01
       -1  1    1    2    0  502 0.17630791E+02 0.17612396E+02 -.17868180E+03 0.18041127E+03 0.00000000E+00 0.0000E+00 0.9000E+01
       21  1    1    2  502  501 0.46001965E+01 0.66579882E+02 -.10273318E+03 0.12250775E+03 0.00000000E+00 0.0000E+00 0.9000E+01
#aMCatNLO 2  0  0  5  2 0.35294539D+02 0.00000000D+00  -5  6  0 0.00000000D+00 0.00000000D+00 0.00000000D+00 0.00000000D+00 0.00000000D+00
  <mgrwgt>
 -.1921228284D-04    2    2    0
 0.137816312140120D+03 0.000000000000000D+00 0.000000000000000D+00 0.137816312140120D+03
 0.137816312140120D+03 -.000000000000000D+00 -.000000000000000D+00 -.137816312140120D+03
 0.925387601239086D+02 -.275623446048143D+02 -.648169198283773D+02 0.332040086302462D+02
 0.568050979188984D+02 0.324604210991980D+01 -.272727769991597D+02 0.497240182904637D+02
 0.126288766237433D+03 0.243163024948945D+02 0.920896968275370D+02 -.829280269207099D+02
 0.000000000000000D+00 0.000000000000000D+00 0.000000000000000D+00 0.000000000000000D+00
 0.137816312140120D+03 0.000000000000000D+00 0.000000000000000D+00 0.137816312140120D+03
 0.137816312140120D+03 -.000000000000000D+00 -.000000000000000D+00 -.137816312140120D+03
 0.872281734583439D+02 -.262681186143209D+02 -.599154805936958D+02 0.287901958063739D+02
 0.530765037441079D+02 0.403713100438683D+01 -.242767978008258D+02 0.470260981954653D+02
 0.672707756239561D+02 0.176307911541767D+02 0.176123960350309D+02 -.624845257822421D+02
 0.680571714538316D+02 0.460019645575734D+01 0.665798823594907D+02 -.133317682195970D+02
-.106619429158D-05 0.000000000000D+00 0.000000000000D+00 0.115914135235D-05 0.000000000000D+00  6 22 -2 9900012 13 -1 21 2 0.76613507D-02 0.58677174D-01 0.98614355D+04 0.98614355D+04 0.98614355D+04 0.12099585D+01  1  2 13  2  6  5       -1 -.301987926171D-04 0.100000000000D+01
0.387888156908D-06 0.000000000000D+00 0.000000000000D+00 0.115914135235D-05 0.806031680622D-09  6 22 -2 9900012 13 -1 21 2 0.76613507D-02 0.58677174D-01 0.98614355D+04 0.98614355D+04 0.98614355D+04 0.12099585D+01  1  2  1  2  6  5       -1 0.109865097774D-04 0.100000000000D+01
  </mgrwgt>
  </event>
  <event>
  7     66 -.91196180E-06 0.26681428E+02 0.78161638E-02 0.12330360E+00
       22 -1    0    0    0    0 0.00000000E+00 0.00000000E+00 0.14279756E+02 0.14279756E+02 0.00000000E+00 0.0000E+00 0.9000E+01
       -4 -1    0    0    0  501 -.00000000E+00 -.00000000E+00 -.46143897E+03 0.46143897E+03 0.00000000E+00 0.0000E+00 0.9000E+01
      -24  2    1    2    0    0 0.45578986E+02 -.48299525E+01 -.19904200E+03 0.21940900E+03 0.80136256E+02 0.0000E+00 0.0000E+00
  9900012  1    3    3    0    0 0.31953479E+02 -.25200842E+02 -.11467001E+03 0.13154968E+03 0.50000000E+02 0.0000E+00 0.9000E+01
       13  1    3    3    0    0 0.13625507E+02 0.20370890E+02 -.84371982E+02 0.87859314E+02 0.00000000E+00 0.0000E+00 0.9000E+01
       -3  1    1    2    0  502 -.32269390E+02 0.10326235E+02 -.23292958E+03 0.23538083E+03 0.00000000E+00 0.0000E+00 0.9000E+01
       21  1    1    2  502  501 -.13309596E+02 -.54962829E+01 -.15187634E+02 0.20928896E+02 0.00000000E+00 0.0000E+00 0.9000E+01
#aMCatNLO 2  0  0  5  2 0.20414690D+02 0.00000000D+00  -5  6  0 0.00000000D+00 0.00000000D+00 0.00000000D+00 0.00000000D+00 0.00000000D+00
  <mgrwgt>
 -.9185853668D-05    2    2    0
 0.811741072396579D+02 0.000000000000000D+00 0.000000000000000D+00 0.811741072396579D+02
 0.811741072396579D+02 -.000000000000000D+00 -.000000000000000D+00 -.811741072396579D+02
 0.748164881953878D+02 0.392545470391500D+02 -.259745281103814D+02 0.296969919703120D+02
 0.261355377813981D+02 0.162131794019691D+02 0.200966771771193D+02 -.404013802253209D+01
 0.613961885025299D+02 -.554677264411191D+02 0.587785093326210D+01 -.256568539477799D+02
 0.000000000000000D+00 0.000000000000000D+00 0.000000000000000D+00 0.000000000000000D+00
 0.811741072396579D+02 0.000000000000000D+00 0.000000000000000D+00 0.811741072396579D+02
 0.811741072396579D+02 -.000000000000000D+00 -.000000000000000D+00 -.811741072396579D+02
 0.696336249042266D+02 0.319534788324466D+02 -.252008423416283D+02 0.263198490322286D+02
 0.250610171849790D+02 0.136255072171783D+02 0.203708898110641D+02 -.523707778497913D+01
 0.481585790056415D+02 -.322693900572582D+02 0.103262354622259D+02 -.342243196916141D+02
 0.194949933844688D+02 -.133095959923667D+02 -.549628293166164D+01 0.131415484443647D+02
-.271468370005D-06 0.000000000000D+00 0.000000000000D+00 0.180670942468D-06 0.000000000000D+00  6 22 -4 9900012 13 -3 21 2 0.21968855D-02 0.70990610D-01 0.47098520D+04 0.47098520D+04 0.47098520D+04 0.12447806D+01  1  2 13  2  6  5       -3 -.126734565914D-04 0.100000000000D+01
0.747052608790D-07 0.000000000000D+00 0.000000000000D+00 0.180670942468D-06 0.572966917829D-09  6 22 -4 9900012 13 -3 21 2 0.21968855D-02 0.70990610D-01 0.47098520D+04 0.47098520D+04 0.47098520D+04 0.12447806D+01  1  2  1  2  6  5       -3 0.348760292362D-05 0.100000000000D+01
  </mgrwgt>
  </event>
  <event>
  6     66 0.91196180E-06 0.17572377E+02 0.78161638E-02 0.13110407E+00
       22 -1    0    0    0    0 0.00000000E+00 0.00000000E+00 0.40084993E+03 0.40084993E+03 0.00000000E+00 0.0000E+00 0.9000E+01
       -2 -1    0    0    0  501 0.00000000E+00 0.00000000E+00 -.19404127E+02 0.19404127E+02 0.00000000E+00 0.0000E+00 0.9000E+01
      -24  2    1    2    0    0 -.10013076E+02 0.14440456E+02 0.39165017E+03 0.39993368E+03 0.79046215E+02 0.0000E+00 0.0000E+00
  9900012  1    3    3    0    0 -.16727139E+02 -.79738855E+01 0.32382555E+03 0.32818649E+03 0.50000000E+02 0.0000E+00 0.9000E+01
       13  1    3    3    0    0 0.67140636E+01 0.22414341E+02 0.67824621E+02 0.71747199E+02 0.00000000E+00 0.0000E+00 0.9000E+01
       -1  1    1    2    0  501 0.10013076E+02 -.14440456E+02 -.10204370E+02 0.20320374E+02 0.00000000E+00 0.0000E+00 0.9000E+01
#aMCatNLO 1  0  0  5  5 0.18483992D+02 0.00000000D+00  -5  6  0 0.00000000D+00 0.00000000D+00 0.00000000D+00 0.00000000D+00 0.00000000D+00
  <mgrwgt>
 0.8530256107D-05    4    2    0
 0.881937804207187D+02 0.000000000000000D+00 0.000000000000000D+00 0.881937804207187D+02
 0.881937804207187D+02 -.000000000000000D+00 -.000000000000000D+00 -.881937804207187D+02
 0.816372959453856D+02 -.167271392139163D+02 -.797388547083660D+01 0.618164060221128D+02
 0.242683462106040D+02 0.671406362972321D+01 0.224143412430615D+02 0.643982018486215D+01
 0.704819186854479D+02 0.100130755841931D+02 -.144404557722249D+02 -.682562262069750D+02
 0.000000000000000D+00 0.000000000000000D+00 0.000000000000000D+00 0.000000000000000D+00
 0.881937804207187D+02 0.000000000000000D+00 0.000000000000000D+00 0.881937804207187D+02
 0.881937804207187D+02 -.000000000000000D+00 -.000000000000000D+00 -.881937804207187D+02
 0.752569017578753D+02 -.154607578082129D+02 -.980020991291867D+01 0.531838520215770D+02
 0.232997982380874D+02 0.709801290583070D+01 0.218606250053492D+02 0.382254955491020D+01
 0.656754589989068D+02 0.125182394769555D+02 -.334005044653018D+01 -.643848092187072D+02
 0.121554018465679D+02 -.415549457457329D+01 -.872036464590035D+01 0.737840764221996D+01
0.116808408460D-06 0.000000000000D+00 0.000000000000D+00 0.744995427742D-06 0.000000000000D+00  6 22 -2 9900012 13 -1 21 0 0.61669220D-01 0.29852503D-02 0.22228420D+04 0.22228420D+04 0.22228420D+04 0.12835506D+01  1  2  2  2  6  5       -1 0.935504432659D-05 0.100000000000D+01
0.135341524190D-07 0.000000000000D+00 -.224287522423D-09 0.744995427742D-06 0.000000000000D+00  6 22 -2 9900012 13 -1 21 2 0.61669220D-01 0.29852503D-02 0.22228420D+04 0.22228420D+04 0.22228420D+04 0.12835506D+01  1  2  3  2  6  5       -1 0.178578359045D-05 0.100000000000D+01
-.189783003692D-07 0.000000000000D+00 0.000000000000D+00 0.744995427742D-06 0.000000000000D+00  6 22 -2 9900012 13 -1 21 2 0.61669220D-01 0.29852503D-02 0.22228420D+04 0.22228420D+04 0.22228420D+04 0.12835506D+01  1  2 15  2  6  5       -1 -.250411967627D-05 0.100000000000D+01
-.806782751246D-09 0.000000000000D+00 0.000000000000D+00 0.744995427742D-06 0.000000000000D+00  6 22 -2 9900012 13 -1 21 2 0.61669220D-01 0.29852503D-02 0.22228420D+04 0.22228420D+04 0.22228420D+04 0.12835506D+01  1  2  4  2  6  5       -1 -.106452133361D-06 0.100000000000D+01
  </mgrwgt>
  </event>
  <event>
  7     66 0.91196180E-06 0.43865815E+02 0.78161638E-02 0.11914301E+00
       22 -1    0    0    0    0 0.00000000E+00 0.00000000E+00 0.15128210E+04 0.15128210E+04 0.00000000E+00 0.0000E+00 0.9000E+01
       21 -1    0    0  502  501 0.00000000E+00 0.00000000E+00 -.14273220E+02 0.14273220E+02 0.00000000E+00 0.0000E+00 0.9000E+01
      -24  2    1    2    0    0 0.19114612E+02 -.60232176E+02 0.13571911E+04 0.13609419E+04 0.78753373E+02 0.0000E+00 0.0000E+00
  9900012  1    3    3    0    0 0.13419367E+02 -.33032595E+02 0.57753119E+03 0.58078697E+03 0.50000000E+02 0.0000E+00 0.9000E+01
       13  1    3    3    0    0 0.56952445E+01 -.27199581E+02 0.77965987E+03 0.78015496E+03 0.00000000E+00 0.0000E+00 0.9000E+01
        4  1    1    2  502    0 -.36131492E+02 0.51355402E+02 0.79037453E+02 0.10094444E+03 0.00000000E+00 0.0000E+00 0.9000E+01
       -3  1    1    2    0  501 0.17016881E+02 0.88767735E+01 0.62319287E+02 0.65207859E+02 0.00000000E+00 0.0000E+00 0.9000E+01
#aMCatNLO 2  0  0  2  5 0.97725070D+01 0.00000000D+00  -5  6  0 0.00000000D+00 0.00000000D+00 0.00000000D+00 0.00000000D+00 0.00000000D+00
  <mgrwgt>
 0.5537881802D-04    1    2    0
 0.611366247520498D+02 0.000000000000000D+00 0.000000000000000D+00 0.611366247520498D+02
 0.611366247520498D+02 0.000000000000000D+00 0.000000000000000D+00 -.611366247520498D+02
 0.514949672246512D+02 -.232431576718455D+01 -.106553522504035D+02 -.572648881096778D+01
 0.350032711253418D+02 -.512776648272063D+01 -.118163224947902D+02 0.325470355496778D+02
 0.000000000000000D+00 -.000000000000000D+00 0.000000000000000D+00 -.000000000000000D+00
 0.357750111541067D+02 0.745208224990517D+01 0.224716747451937D+02 -.268205467387100D+02
 0.730738497660568D+02 0.000000000000000D+00 0.000000000000000D+00 0.730738497660568D+02
 0.295493213820008D+03 0.000000000000000D+00 0.000000000000000D+00 -.295493213820008D+03
 0.616767736279946D+02 0.134193671029505D+02 -.330325947756607D+02 -.572648881096778D+01
 0.427967584298236D+02 0.569524448605535D+01 -.271995808657549D+02 0.325470355496778D+02
 0.231113036342361D+03 -.361314922526937D+02 0.513554021385748D+02 -.222419364053952D+03
 0.329804951858861D+02 0.170168806636878D+02 0.887677350284079D+01 -.268205467387100D+02
0.236594678412D-06 0.000000000000D+00 0.000000000000D+00 0.152166649092D-06 0.664723377847D-09  6 22 21 9900012 13 4 -3 2 0.23274169D+00 0.21958800D-02 0.73260770D+04 0.73260770D+04 0.73260770D+04 0.12235993D+01  1  2  1  3  5  2       -4 0.553788180157D-04 0.100000000000D+01
  </mgrwgt>
  </event>
  <event>
  6     66 -.91196180E-06 0.27757869E+02 0.78161638E-02 0.12798310E+00
       22 -1    0    0    0    0 0.00000000E+00 0.00000000E+00 0.19675839E+03 0.19675839E+03 0.00000000E+00 0.0000E+00 0.9000E+01
       -4 -1    0    0    0  501 0.00000000E+00 0.00000000E+00 -.83949171E+02 0.83949171E+02 0.00000000E+00 0.0000E+00 0.9000E+01
      -24  2    1    2    0    0 -.25748030E+02 -.10370067E+02 0.18502976E+03 0.20333635E+03 0.79618847E+02 0.0000E+00 0.0000E+00
  9900012  1    3    3    0    0 -.10260166E+02 0.13455598E+02 0.92049221E+02 0.10611024E+03 0.50000000E+02 0.0000E+00 0.9000E+01
       13  1    3    3    0    0 -.15487864E+02 -.23825664E+02 0.92980534E+02 0.97226108E+02 0.00000000E+00 0.0000E+00 0.9000E+01
       -3  1    1    2    0  501 0.25748030E+02 0.10370067E+02 -.72220534E+02 0.77371214E+02 0.00000000E+00 0.0000E+00 0.9000E+01
#aMCatNLO 1  0  0  5  2 0.30276535D+02 0.00000000D+00  -5  6  0 0.00000000D+00 0.00000000D+00 0.00000000D+00 0.00000000D+00 0.00000000D+00
  <mgrwgt>
 -.1567169652D-05    1    2    0
 0.128521219474646D+03 0.000000000000000D+00 0.000000000000000D+00 0.128521219474646D+03
 0.128521219474646D+03 -.000000000000000D+00 -.000000000000000D+00 -.128521219474646D+03
 0.754814894342906D+02 -.102601655078350D+02 0.134555978586229D+02 0.539548991032119D+02
 0.653706915959789D+02 -.154878640690437D+02 -.238256643753744D+02 0.588709699545321D+02
 0.116190257919022D+03 0.257480295768787D+02 0.103700665167516D+02 -.112825869057744D+03
 0.000000000000000D+00 0.000000000000000D+00 0.000000000000000D+00 0.000000000000000D+00
 0.128521219474646D+03 0.000000000000000D+00 0.000000000000000D+00 0.128521219474646D+03
 0.128521219474646D+03 -.000000000000000D+00 -.000000000000000D+00 -.128521219474646D+03
 0.702610323828884D+02 -.856165372986895D+01 0.141396766175198D+02 0.465121521977975D+02
 0.591175173891260D+02 -.140370541987141D+02 -.232413480177457D+02 0.525136336011326D+02
 0.113006923672489D+03 0.155771905029379D+02 0.135214261366690D+02 -.111108446884949D+03
 0.146569655047880D+02 0.702151742564520D+01 -.441975473644311D+01 0.120826610860189D+02
-.516303641416D-07 0.000000000000D+00 0.000000000000D+00 0.691231879507D-05 0.000000000000D+00  6 22 -4 9900012 13 -3 21 2 0.30270522D-01 0.12915257D-01 0.29681082D+04 0.29681082D+04 0.29681082D+04 0.12681810D+01  1  2 14  2  6  5       -3 -.156716965241D-05 0.100000000000D+01
  </mgrwgt>
  </event>
  <event>
  5     66 0.91196180E-06 0.19642044E+02 0.78161638E-02 0.11117441E+00
       22 -1    0    0    0    0 0.00000000E+00 0.00000000E+00 0.71135196E+02 0.71135196E+02 0.00000000E+00 0.0000E+00 0.9000E+01
       -2 -1    0    0    0  501 0.00000000E+00 0.00000000E+00 -.16493135E+03 0.16493135E+03 0.00000000E+00 0.0000E+00 0.9000E+01
  9900012  1    1    2    0    0 0.65988629E+02 -.17618576E+02 -.52823164E+02 0.99775749E+02 0.50000000E+02 0.0000E+00 0.9000E+01
       13  1    1    2    0    0 -.85014673E+02 0.22499104E+02 0.31451781E+01 0.87997707E+02 0.00000000E+00 0.0000E+00 0.9000E+01
       -1  1    1    2    0  501 0.19026044E+02 -.48805275E+01 -.44118171E+02 0.48293093E+02 0.00000000E+00 0.0000E+00 0.9000E+01
#aMCatNLO 1  0  0  2  5 0.31836695D+03 0.00000000D+00  -5  6  0 0.00000000D+00 0.00000000D+00 0.00000000D+00 0.00000000D+00 0.00000000D+00
  <mgrwgt>
 0.6778372582D-04    6    4    0
 0.108316315350780D+03 0.000000000000000D+00 0.000000000000000D+00 0.108316315350780D+03
 0.108316315350780D+03 0.000000000000000D+00 0.000000000000000D+00 -.108316315350780D+03
 0.858555190867797D+02 0.659886290758419D+02 -.176185761027839D+02 -.143616421923730D+02
 0.972536804894655D+02 -.850146729807058D+02 0.224991035732038D+02 0.415279915855914D+02
 0.335234311253151D+02 0.190260439048639D+02 -.488052747041984D+01 -.271663493932184D+02
 0.000000000000000D+00 -.000000000000000D+00 0.000000000000000D+00 -.000000000000000D+00
 0.133617679754185D+03 0.000000000000000D+00 0.000000000000000D+00 0.133617679754185D+03
 0.175825670880418D+03 0.000000000000000D+00 0.000000000000000D+00 -.175825670880418D+03
 0.111667427938349D+03 0.932667647322619D+02 -.326292551597723D+02 -.143616421923730D+02
 0.746234677332490D+02 -.612782502709872D+02 0.943736695951626D+01 0.415279915855914D+02
 0.413814216245618D+02 0.293704862362926D+02 -.105728924405331D+02 -.271663493932184D+02
 0.817710333384436D+02 -.613590006975673D+02 0.337647806407891D+02 -.422079911262332D+02
 0.108316315350780D+03 0.000000000000000D+00 0.000000000000000D+00 0.108316315350780D+03
 0.108316315350780D+03 0.000000000000000D+00 0.000000000000000D+00 -.108316315350780D+03
 0.858555190867797D+02 0.659886290758419D+02 -.176185761027839D+02 -.143616421923730D+02
 0.972536804894655D+02 -.850146729807058D+02 0.224991035732038D+02 0.415279915855914D+02
 0.000000000000000D+00 -.000000000000000D+00 0.000000000000000D+00 -.000000000000000D+00
 0.335234311253151D+02 0.190260439048639D+02 -.488052747041984D+01 -.271663493932184D+02
 0.133617679754185D+03 0.000000000000000D+00 0.000000000000000D+00 0.133617679754185D+03
 0.175825670880418D+03 0.000000000000000D+00 0.000000000000000D+00 -.175825670880418D+03
 0.111667427938349D+03 0.932667647322619D+02 -.326292551597723D+02 -.143616421923730D+02
 0.746234677332490D+02 -.612782502709872D+02 0.943736695951626D+01 0.415279915855914D+02
 0.817710333384436D+02 -.613590006975673D+02 0.337647806407891D+02 -.422079911262332D+02
 0.413814216245618D+02 0.293704862362926D+02 -.105728924405331D+02 -.271663493932184D+02
0.908797419047D-06 0.000000000000D+00 0.000000000000D+00 0.185668296197D-09 0.000000000000D+00  6 22 -2 9900012 13 -1 21 0 0.10943876D-01 0.25374054D-01 0.92380296D+04 0.92380296D+04 0.92380296D+04 0.12129143D+01  1  2  2  1  6  2       -2 0.474907266273D-04 0.100000000000D+01
0.103642288366D-06 0.000000000000D+00 -.174501069050D-08 0.185668296197D-09 0.000000000000D+00  6 22 -2 9900012 13 -1 21 2 0.10943876D-01 0.25374054D-01 0.92380296D+04 0.92380296D+04 0.92380296D+04 0.12129143D+01  1  2  3  1  6  2       -2 0.796780983111D-05 0.100000000000D+01
-.144523884304D-06 0.000000000000D+00 0.000000000000D+00 0.185668296197D-09 0.000000000000D+00  6 22 -2 9900012 13 -1 21 2 0.10943876D-01 0.25374054D-01 0.92380296D+04 0.92380296D+04 0.92380296D+04 0.12129143D+01  1  2 15  1  6  2       -2 -.111107043693D-04 0.100000000000D+01
-.327879423873D-06 0.000000000000D+00 -.246385033156D-06 0.185668296197D-09 0.000000000000D+00  6 22 -2 9900012 13 -1 21 2 0.10943876D-01 0.49621947D-01 0.92380296D+04 0.92380296D+04 0.92380296D+04 0.12129143D+01  1  2  5  1  6  2       -2 -.775434088172D-05 0.100000000000D+01
0.437597532047D-06 0.000000000000D+00 0.199747489642D-06 0.185668296197D-09 0.000000000000D+00  6 22 -2 9900012 13 -1 21 2 0.10943876D-01 0.25374054D-01 0.92380296D+04 0.92380296D+04 0.92380296D+04 0.12129143D+01  1  2  6  1  6  2       -2 0.336416145656D-04 0.100000000000D+01
-.932958628480D-08 0.000000000000D+00 -.179044245800D-07 0.185668296197D-09 0.000000000000D+00  6 22 21 9900012 13 2 -1 2 0.10943876D-01 0.49621947D-01 0.92380296D+04 0.92380296D+04 0.92380296D+04 0.12129143D+01  3  4  5  3  5  2       -2 -.245137995710D-05 0.100000000000D+01
  </mgrwgt>
  </event>
  <event>
  6     66 0.91196180E-06 0.49599122E+02 0.78161638E-02 0.12073752E+00
       22 -1    0    0    0    0 0.00000000E+00 0.00000000E+00 0.31835060E+03 0.31835060E+03 0.00000000E+00 0.0000E+00 0.9000E+01
       -4 -1    0    0    0  501 0.00000000E+00 0.00000000E+00 -.79735436E+02 0.79735436E+02 0.00000000E+00 0.0000E+00 0.9000E+01
      -24  2    1    2    0    0 0.57212514E+02 0.17828878E+02 0.29764061E+03 0.31397217E+03 0.79984070E+02 0.0000E+00 0.0000E+00
  9900012  1    3    3    0    0 0.27835782E+02 0.20512628E+02 0.25484043E+03 0.26199092E+03 0.50000000E+02 0.0000E+00 0.9000E+01
       13  1    3    3    0    0 0.29376733E+02 -.26837502E+01 0.42800180E+02 0.51981250E+02 0.00000000E+00 0.0000E+00 0.9000E+01
       -3  1    1    2    0  501 -.57212514E+02 -.17828878E+02 -.59025439E+02 0.84113870E+02 0.00000000E+00 0.0000E+00 0.9000E+01
#aMCatNLO 1  0  0  2  5 0.63823400D+01 0.00000000D+00  -5  6  0 0.00000000D+00 0.00000000D+00 0.00000000D+00 0.00000000D+00 0.00000000D+00
  <mgrwgt>
 0.4703167673D-04   11    4    0
 0.159323018056040D+03 0.000000000000000D+00 0.000000000000000D+00 0.159323018056040D+03
 0.159323018056040D+03 0.000000000000000D+00 0.000000000000000D+00 -.159323018056040D+03
 0.136471605669597D+03 0.278357819103932D+02 0.205126281880080D+02 0.122183879805380D+03
 0.328899046340171D+02 0.293767325791501D+02 -.268375024142306D+01 0.145447892542141D+02
 0.149284525808466D+03 -.572125144895433D+02 -.178288779465850D+02 -.136728669059594D+03
 0.000000000000000D+00 0.000000000000000D+00 -.000000000000000D+00 -.000000000000000D+00
 0.160422656770474D+03 0.000000000000000D+00 0.000000000000000D+00 0.160422656770474D+03
 0.167735394309242D+03 0.000000000000000D+00 0.000000000000000D+00 -.167735394309242D+03
 0.136327474462618D+03 0.258311644608238D+02 0.221140396955925D+02 0.122183879805380D+03
 0.324324343145797D+02 0.288967225276515D+02 -.230028873838604D+01 0.145447892542141D+02
 0.149942506110767D+03 -.594113332292453D+02 -.160723265239645D+02 -.136728669059594D+03
 0.945563619175116D+01 0.468344624076998D+01 -.374142443324196D+01 -.731273753876836D+01
 0.159323018056040D+03 0.000000000000000D+00 0.000000000000000D+00 0.159323018056040D+03
 0.159323018056040D+03 0.000000000000000D+00 0.000000000000000D+00 -.159323018056040D+03
 0.136471605669597D+03 0.278357819103932D+02 0.205126281880080D+02 0.122183879805380D+03
 0.328899046340171D+02 0.293767325791501D+02 -.268375024142306D+01 0.145447892542141D+02
 0.000000000000000D+00 0.000000000000000D+00 -.000000000000000D+00 -.000000000000000D+00
 0.149284525808466D+03 -.572125144895433D+02 -.178288779465850D+02 -.136728669059594D+03
 0.160422656770474D+03 0.000000000000000D+00 0.000000000000000D+00 0.160422656770474D+03
 0.167735394309242D+03 0.000000000000000D+00 0.000000000000000D+00 -.167735394309242D+03
 0.136327474462618D+03 0.258311644608238D+02 0.221140396955925D+02 0.122183879805380D+03
 0.324324343145797D+02 0.288967225276515D+02 -.230028873838604D+01 0.145447892542141D+02
 0.945563619175116D+01 0.468344624076998D+01 -.374142443324196D+01 -.731273753876836D+01
 0.149942506110767D+03 -.594113332292453D+02 -.160723265239645D+02 -.136728669059594D+03
0.722353376516D-06 0.000000000000D+00 0.000000000000D+00 0.735781240830D-05 0.000000000000D+00  6 22 -4 9900012 13 -3 21 0 0.48977016D-01 0.12266990D-01 0.56412589D+04 0.56412589D+04 0.56412589D+04 0.12359892D+01  1  2  2  1  6  2       -4 0.745848486570D-05 0.100000000000D+01
0.127051839653D-07 0.000000000000D+00 -.138701358292D-08 0.735781240830D-05 0.000000000000D+00  6 22 -4 9900012 13 -3 21 2 0.48977016D-01 0.12266990D-01 0.56412589D+04 0.56412589D+04 0.56412589D+04 0.12359892D+01  1  2  3  1  6  2       -4 0.200406236647D-06 0.100000000000D+01
-.116419292345D-06 0.000000000000D+00 0.000000000000D+00 0.735781240830D-05 0.000000000000D+00  6 22 -4 9900012 13 -3 21 2 0.48977016D-01 0.12266990D-01 0.56412589D+04 0.56412589D+04 0.56412589D+04 0.12359892D+01  1  2 15  1  6  2       -4 -.183634903010D-05 0.100000000000D+01
0.329129278159D-05 0.000000000000D+00 0.000000000000D+00 0.735781240830D-05 0.000000000000D+00  6 22 -4 9900012 13 -3 21 2 0.48977016D-01 0.13003833D-01 0.61619881D+04 0.61619881D+04 0.61619881D+04 0.12317599D+01  1  2 12  1  6  2       -4 0.472593622771D-04 0.100000000000D+01
-.534531854508D-06 0.000000000000D+00 0.000000000000D+00 0.735781240830D-05 0.000000000000D+00  6 22 -4 9900012 13 -3 21 2 0.48977016D-01 0.12266990D-01 0.56412589D+04 0.56412589D+04 0.56412589D+04 0.12359892D+01  1  2  4  1  6  2       -4 -.843148100982D-05 0.100000000000D+01
-.108921973676D-04 0.000000000000D+00 -.140559068293D-05 0.735781240830D-05 0.000000000000D+00  6 22 -4 9900012 13 -3 21 2 0.48977016D-01 0.12995120D-01 0.56412589D+04 0.56412589D+04 0.56412589D+04 0.12359892D+01  1  2  5  1  6  2       -4 -.156109575898D-03 0.100000000000D+01
0.109573588612D-04 0.000000000000D+00 0.140325718992D-05 0.735781240830D-05 0.000000000000D+00  6 22 -4 9900012 13 -3 21 2 0.48977016D-01 0.12266990D-01 0.56412589D+04 0.56412589D+04 0.56412589D+04 0.12359892D+01  1  2  6  1  6  2       -4 0.172836777410D-03 0.100000000000D+01
0.963152813535D-07 0.000000000000D+00 0.000000000000D+00 0.735781240830D-05 0.269243123618D-06  6 22 -4 9900012 13 -3 21 2 0.49315052D-01 0.12914697D-01 0.61619881D+04 0.61619881D+04 0.61619881D+04 0.12317599D+01  1  2 11  1  6  2       -4 0.138311328059D-05 0.100000000000D+01
0.523808304553D-07 0.000000000000D+00 0.000000000000D+00 0.735781240830D-05 0.000000000000D+00  6 22 21 9900012 13 4 -3 2 0.48977016D-01 0.13003833D-01 0.61619881D+04 0.61619881D+04 0.61619881D+04 0.12317599D+01  3  4 12  3  5  2       -4 0.170275329389D-04 0.100000000000D+01
-.106591445818D-06 0.000000000000D+00 -.139653614724D-07 0.735781240830D-05 0.000000000000D+00  6 22 21 9900012 13 4 -3 2 0.48977016D-01 0.12995120D-01 0.56412589D+04 0.56412589D+04 0.56412589D+04 0.12359892D+01  3  4  5  3  5  2       -4 -.347138550084D-04 0.100000000000D+01
0.601950557433D-08 0.000000000000D+00 0.000000000000D+00 0.735781240830D-05 0.125813690534D-07  6 22 21 9900012 13 4 -3 2 0.49315052D-01 0.12914697D-01 0.61619881D+04 0.61619881D+04 0.61619881D+04 0.12317599D+01  3  4 11  3  5  2       -4 0.195726066356D-05 0.100000000000D+01
  </mgrwgt>
  </event>
  <event>
  6     66 0.91196180E-06 0.29138566E+02 0.78161638E-02 0.12684389E+00
       22 -1    0    0    0    0 0.00000000E+00 0.00000000E+00 0.12426290E+03 0.12426290E+03 0.00000000E+00 0.0000E+00 0.9000E+01
       -2 -1    0    0    0  501 0.00000000E+00 0.00000000E+00 -.27012659E+02 0.27012659E+02 0.00000000E+00 0.0000E+00 0.9000E+01
      -24  2    1    2    0    0 -.29013004E+02 -.27021577E+01 0.76252578E+02 0.11535957E+03 0.81512696E+02 0.0000E+00 0.0000E+00
  9900012  1    3    3    0    0 -.43133494E+02 0.10187718E+02 0.64777112E+02 0.93061067E+02 0.50000000E+02 0.0000E+00 0.9000E+01
       13  1    3    3    0    0 0.14120490E+02 -.12889875E+02 0.11475466E+02 0.22298507E+02 0.00000000E+00 0.0000E+00 0.9000E+01
       -1  1    1    2    0  501 0.29013004E+02 0.27021577E+01 0.20997660E+02 0.35915982E+02 0.00000000E+00 0.0000E+00 0.9000E+01
#aMCatNLO 1  0  0  5  2 0.14338086D+02 0.00000000D+00  -5  6  0 0.00000000D+00 0.00000000D+00 0.00000000D+00 0.00000000D+00 0.00000000D+00
  <mgrwgt>
 0.5208488976D-04    5    2    0
 0.579367870014321D+02 0.000000000000000D+00 0.000000000000000D+00 0.579367870014321D+02
 0.579367870014321D+02 -.000000000000000D+00 -.000000000000000D+00 -.579367870014321D+02
 0.671272559371880D+02 -.431334936490617D+02 0.101877177133385D+02 0.646379324208532D+01
 0.194800874171451D+02 0.141204898638211D+02 -.128898754093155D+02 -.373318680454983D+01
 0.292662306485311D+02 0.290130037852406D+02 0.270215769597700D+01 -.273060643753549D+01
 0.000000000000000D+00 0.000000000000000D+00 -.000000000000000D+00 0.000000000000000D+00
 0.579367870014321D+02 0.000000000000000D+00 0.000000000000000D+00 0.579367870014321D+02
 0.579367870014321D+02 -.000000000000000D+00 -.000000000000000D+00 -.579367870014321D+02
 0.611603317553411D+02 -.329586398894774D+02 0.111353637962956D+02 0.550617019200193D+01
 0.218498067006013D+02 0.173984814147656D+02 -.125845760972450D+02 -.404170035583367D+01
 0.145170224565347D+02 0.491434952012652D+01 0.240316714796154D+01 0.134468545562344D+02
 0.183464130903871D+02 0.106458089545852D+02 -.953954847012076D+00 -.149113243924027D+02
0.187003582262D-06 0.000000000000D+00 0.000000000000D+00 0.209477627276D-07 0.000000000000D+00  6 22 -2 9900012 13 -1 21 0 0.19117369D-01 0.41557937D-02 0.33104441D+04 0.33104441D+04 0.33104441D+04 0.12625242D+01  1  2  2  2  6  5       -1 0.617336287246D-04 0.100000000000D+01
-.156117918414D-08 0.000000000000D+00 -.359071497530D-09 0.209477627276D-07 0.000000000000D+00  6 22 -2 9900012 13 -1 21 2 0.19117369D-01 0.41557937D-02 0.33104441D+04 0.33104441D+04 0.33104441D+04 0.12625242D+01  1  2  3  2  6  5       -1 -.821493332027D-06 0.100000000000D+01
-.245953721644D-07 0.000000000000D+00 0.000000000000D+00 0.209477627276D-07 0.000000000000D+00  6 22 -2 9900012 13 -1 21 2 0.19117369D-01 0.41557937D-02 0.33104441D+04 0.33104441D+04 0.33104441D+04 0.12625242D+01  1  2 15  2  6  5       -1 -.129420981506D-04 0.100000000000D+01
0.261630769637D-07 0.000000000000D+00 0.000000000000D+00 0.209477627276D-07 0.000000000000D+00  6 22 -2 9900012 13 -1 21 2 0.19117369D-01 0.41557937D-02 0.24277127D+04 0.24277127D+04 0.24277127D+04 0.12788049D+01  1  2 12  2  6  5       -1 0.135816569514D-04 0.100000000000D+01
-.179908679084D-07 0.000000000000D+00 0.000000000000D+00 0.209477627276D-07 0.000000000000D+00  6 22 -2 9900012 13 -1 21 2 0.19117369D-01 0.41557937D-02 0.33104441D+04 0.33104441D+04 0.33104441D+04 0.12625242D+01  1  2  4  2  6  5       -1 -.946680443493D-05 0.100000000000D+01
  </mgrwgt>
  </event>
  <event>
  7     66 0.91196180E-06 0.22335359E+02 0.78161638E-02 0.12163856E+00
       22 -1    0    0    0    0 0.00000000E+00 0.00000000E+00 0.25810954E+02 0.25810954E+02 0.00000000E+00 0.0000E+00 0.9000E+01
       -2 -1    0    0    0  502 0.00000000E+00 0.00000000E+00 -.41177623E+03 0.41177623E+03 0.00000000E+00 0.0000E+00 0.9000E+01
      -24  2    1    2    0    0 0.51666855E+02 -.78492434E+01 -.86756966E+02 0.13035888E+03 0.82070652E+02 0.0000E+00 0.0000E+00
  9900012  1    3    3    0    0 0.49761384E+02 -.28367326E+02 -.61701693E+02 0.97918331E+02 0.50000000E+02 0.0000E+00 0.9000E+01
       13  1    3    3    0    0 0.19054704E+01 0.20518083E+02 -.25055273E+02 0.32440549E+02 0.00000000E+00 0.0000E+00 0.9000E+01
       -1  1    1    2    0  501 -.31251534E+02 0.91509138E+01 -.71074702E+02 0.78179350E+02 0.00000000E+00 0.0000E+00 0.9000E+01
       21  1    1    2  501  502 -.20415321E+02 -.13016705E+01 -.22813361E+03 0.22904896E+03 0.00000000E+00 0.0000E+00 0.9000E+01
#aMCatNLO 2  0  0  2  5 0.20780915D+02 0.00000000D+00  -5  6  0 0.00000000D+00 0.00000000D+00 0.00000000D+00 0.00000000D+00 0.00000000D+00
  <mgrwgt>
 0.3984468631D-04    2    2    0
 0.673774415643918D+02 0.000000000000000D+00 0.000000000000000D+00 0.673774415643918D+02
 0.673774415643918D+02 0.000000000000000D+00 0.000000000000000D+00 -.673774415643918D+02
 0.719993543027692D+02 0.384360864374181D+02 -.290894213242646D+02 0.189836731538033D+02
 0.203701015773878D+02 -.118189156866175D+01 0.203212341040982D+02 -.769165183466610D+00
 0.423854272486266D+02 -.372541948687564D+02 0.876818722016641D+01 -.182145079703367D+02
 0.000000000000000D+00 -.000000000000000D+00 -.000000000000000D+00 -.000000000000000D+00
 0.693796105982741D+02 0.000000000000000D+00 0.000000000000000D+00 0.693796105982741D+02
 0.153191077224701D+03 0.000000000000000D+00 0.000000000000000D+00 -.153191077224701D+03
 0.783663218315755D+02 0.497613842342129D+02 -.283673261005451D+02 0.189836731538033D+02
 0.206207214190044D+02 0.190547044974912D+01 0.205180827351354D+02 -.769165183466610D+00
 0.373117395325965D+02 -.312515340849765D+02 0.915091381679532D+01 -.182145079703367D+02
 0.862719050397986D+02 -.204153205989855D+02 -.130167045138569D+01 -.838114666264268D+02
-.488345714411D-06 0.000000000000D+00 0.000000000000D+00 0.262985591304D-07 0.000000000000D+00  6 22 -2 9900012 13 -1 21 2 0.38563226D-02 0.65232686D-01 0.55994636D+04 0.55994636D+04 0.55994636D+04 0.12363476D+01  1  2 13  1  6  2       -2 -.289659297235D-04 0.100000000000D+01
0.113838707166D-05 0.000000000000D+00 0.000000000000D+00 0.262985591304D-07 0.182518870893D-08  6 22 -2 9900012 13 -1 21 2 0.39709160D-02 0.63350190D-01 0.55994636D+04 0.55994636D+04 0.55994636D+04 0.12363476D+01  1  2  1  1  6  2       -2 0.688106160344D-04 0.100000000000D+01
  </mgrwgt>
  </event>
  <event>
  6     66 0.91196180E-06 0.26091273E+02 0.78161638E-02 0.12070553E+00
       22 -1    0    0    0    0 0.00000000E+00 0.00000000E+00 0.14503710E+02 0.14503710E+02 0.00000000E+00 0.0000E+00 0.9000E+01
       -2 -1    0    0    0  501 0.00000000E+00 0.00000000E+00 -.13303151E+04 0.13303151E+04 0.00000000E+00 0.0000E+00 0.9000E+01
      -24  2    1    2    0    0 0.25621907E+02 -.49267051E+01 -.10814028E+03 0.13686588E+03 0.79732026E+02 0.0000E+00 0.0000E+00
  9900012  1    3    3    0    0 0.35928259E+02 0.10655945E+02 -.66630633E+02 0.91345663E+02 0.50000000E+02 0.0000E+00 0.9000E+01
       13  1    3    3    0    0 -.10306352E+02 -.15582650E+02 -.41509646E+02 0.45520221E+02 0.00000000E+00 0.0000E+00 0.9000E+01
       -1  1    1    2    0  501 -.25621907E+02 0.49267051E+01 -.12076712E+04 0.12079530E+04 0.00000000E+00 0.0000E+00 0.9000E+01
#aMCatNLO 1  0  0  2  2 0.18417447D+03 0.00000000D+00  -5  6  0 0.00000000D+00 0.00000000D+00 0.00000000D+00 0.00000000D+00 0.00000000D+00
  <mgrwgt>
 0.1038627836D-03    7    4    0
 0.138904659329270D+03 0.000000000000000D+00 0.000000000000000D+00 0.138904659329270D+03
 0.138904659329270D+03 0.000000000000000D+00 0.000000000000000D+00 -.138904659329270D+03
 0.126597702228333D+03 0.359282589866871D+02 0.106559446042848D+02 0.110102630578336D+03
 0.237486106275227D+02 -.103063518564678D+02 -.155826496856442D+02 0.146613998964240D+02
 0.127463005802684D+03 -.256219071302193D+02 0.492670508135941D+01 -.124764030474760D+03
 0.000000000000000D+00 0.000000000000000D+00 0.000000000000000D+00 -.000000000000000D+00
 0.146256536040347D+03 0.000000000000000D+00 0.000000000000000D+00 0.146256536040347D+03
 0.219784680427169D+03 0.000000000000000D+00 0.000000000000000D+00 -.219784680427169D+03
 0.125680611396273D+03 0.332070235094119D+02 -.838572658252869D+01 0.110102630578336D+03
 0.266160629335820D+02 -.108496174845225D+02 -.193841161676534D+02 0.146613998964240D+02
 0.128761567765446D+03 -.283857094948603D+02 -.144128251769797D+02 -.124764030474760D+03
 0.849829743722151D+02 0.602830346997086D+01 0.421826679271618D+02 -.735281443868217D+02
 0.138904659329270D+03 0.000000000000000D+00 0.000000000000000D+00 0.138904659329270D+03
 0.138904659329270D+03 0.000000000000000D+00 0.000000000000000D+00 -.138904659329270D+03
 0.126597702228333D+03 0.359282589866871D+02 0.106559446042848D+02 0.110102630578336D+03
 0.237486106275227D+02 -.103063518564678D+02 -.155826496856442D+02 0.146613998964240D+02
 0.000000000000000D+00 0.000000000000000D+00 0.000000000000000D+00 -.000000000000000D+00
 0.127463005802684D+03 -.256219071302193D+02 0.492670508135941D+01 -.124764030474760D+03
 0.146256536040347D+03 0.000000000000000D+00 0.000000000000000D+00 0.146256536040347D+03
 0.219784680427169D+03 0.000000000000000D+00 0.000000000000000D+00 -.219784680427169D+03
 0.125680611396273D+03 0.332070235094119D+02 -.838572658252869D+01 0.110102630578336D+03
 0.266160629335820D+02 -.108496174845225D+02 -.193841161676534D+02 0.146613998964240D+02
 0.849829743722151D+02 0.602830346997086D+01 0.421826679271618D+02 -.735281443868217D+02
 0.128761567765446D+03 -.283857094948603D+02 -.144128251769797D+02 -.124764030474760D+03
0.110191557301D-04 0.000000000000D+00 0.000000000000D+00 0.957470679436D-05 0.000000000000D+00  6 22 -2 9900012 13 -1 21 0 0.22313399D-02 0.20466387D+00 0.28761228D+04 0.28761228D+04 0.28761228D+04 0.12698280D+01  1  2  2  1  6  2       -2 0.505217586223D-04 0.100000000000D+01
0.998666479966D-06 0.000000000000D+00 -.211582297070D-07 0.957470679436D-05 0.000000000000D+00  6 22 -2 9900012 13 -1 21 2 0.22313399D-02 0.20466387D+00 0.28761228D+04 0.28761228D+04 0.28761228D+04 0.12698280D+01  1  2  3  1  6  2       -2 0.738312765898D-05 0.100000000000D+01
-.183251448547D-05 0.000000000000D+00 0.000000000000D+00 0.957470679436D-05 0.000000000000D+00  6 22 -2 9900012 13 -1 21 2 0.22313399D-02 0.20466387D+00 0.28761228D+04 0.28761228D+04 0.28761228D+04 0.12698280D+01  1  2 15  1  6  2       -2 -.135477545853D-04 0.100000000000D+01
-.651248215139D-06 0.000000000000D+00 0.000000000000D+00 0.957470679436D-05 0.000000000000D+00  6 22 -2 9900012 13 -1 21 2 0.22313399D-02 0.20466387D+00 0.28761228D+04 0.28761228D+04 0.28761228D+04 0.12698280D+01  1  2  4  1  6  2       -2 -.481466916785D-05 0.100000000000D+01
-.110339338767D-04 0.000000000000D+00 -.284772000699D-05 0.957470679436D-05 0.000000000000D+00  6 22 -2 9900012 13 -1 21 2 0.22313399D-02 0.32910847D+00 0.28761228D+04 0.28761228D+04 0.28761228D+04 0.12698280D+01  1  2  5  1  6  2       -2 -.133657712579D-04 0.100000000000D+01
0.113728604015D-04 0.000000000000D+00 0.255410353877D-05 0.957470679436D-05 0.000000000000D+00  6 22 -2 9900012 13 -1 21 2 0.22313399D-02 0.20466387D+00 0.28761228D+04 0.28761228D+04 0.28761228D+04 0.12698280D+01  1  2  6  1  6  2       -2 0.840794017591D-04 0.100000000000D+01
-.476603771241D-06 0.000000000000D+00 -.154244555041D-06 0.957470679436D-05 0.000000000000D+00  6 22 21 9900012 13 2 -1 2 0.22313399D-02 0.32910847D+00 0.28761228D+04 0.28761228D+04 0.28761228D+04 0.12698280D+01  3  4  5  3  5  2       -2 -.639330939546D-05 0.100000000000D+01
  </mgrwgt>
  </event>
  <event>
  7     66 -.91196180E-06 0.34312019E+02 0.78161638E-02 0.12088572E+00
       22 -1    0    0    0    0 0.00000000E+00 0.00000000E+00 0.76107348E+03 0.76107348E+03 0.00000000E+00 0.0000E+00 0.9000E+01
       -2 -1    0    0    0  502 0.00000000E+00 0.00000000E+00 -.29625877E+03 0.29625877E+03 0.00000000E+00 0.0000E+00 0.9000E+01
      -24  2    1    2    0    0 -.35658851E+02 -.80551153E+01 0.75303163E+03 0.75822051E+03 0.80655237E+02 0.0000E+00 0.0000E+00
  9900012  1    3    3    0    0 -.28614550E+02 -.23114106E+02 0.69742233E+03 0.70017923E+03 0.50000000E+02 0.0000E+00 0.9000E+01
       13  1    3    3    0    0 -.70443008E+01 0.15058991E+02 0.55609299E+02 0.58041274E+02 0.00000000E+00 0.0000E+00 0.9000E+01
       -1  1    1    2    0  501 0.32207547E+02 0.36343644E+02 -.14008063E+03 0.14825912E+03 0.00000000E+00 0.0000E+00 0.9000E+01
       21  1    1    2  501  502 0.34513039E+01 -.28288529E+02 -.14813629E+03 0.15085262E+03 0.00000000E+00 0.0000E+00 0.9000E+01
#aMCatNLO 2  0  0  2  5 0.28548634D+02 0.00000000D+00  -5  6  0 0.00000000D+00 0.00000000D+00 0.00000000D+00 0.00000000D+00 0.00000000D+00
  <mgrwgt>
 -.2764798590D-03    2    2    0
 0.333610640743593D+03 0.000000000000000D+00 0.000000000000000D+00 0.333610640743593D+03
 0.333610640743593D+03 0.000000000000000D+00 0.000000000000000D+00 -.333610640743593D+03
 0.311392352323217D+03 -.270074416284542D+02 -.362867313132544D+02 0.304005046525008D+03
 0.270931833879046D+02 -.690254168083448D+01 0.138970656533427D+02 0.222096166257244D+02
 0.328735745776063D+03 0.339099833092887D+02 0.223896656599117D+02 -.326214663150732D+03
 0.000000000000000D+00 0.000000000000000D+00 -.000000000000000D+00 -.000000000000000D+00
 0.334511755040514D+03 0.000000000000000D+00 0.000000000000000D+00 0.334511755040514D+03
 0.674041170567865D+03 0.000000000000000D+00 0.000000000000000D+00 -.674041170567865D+03
 0.310277493034148D+03 -.286145500575929D+02 -.231141059936328D+02 0.304005046525008D+03
 0.277427908470962D+02 -.704430077864377D+01 0.150589906655151D+02 0.222096166257244D+02
 0.329809328234397D+03 0.322075469641551D+02 0.363436439344017D+02 -.326214663150732D+03
 0.340723313492738D+03 0.345130387208162D+01 -.282885286062840D+02 -.339529415527351D+03
-.694756969201D-03 0.000000000000D+00 0.000000000000D+00 0.215208376171D-03 0.000000000000D+00  6 22 -2 9900012 13 -1 21 2 0.11677281D+00 0.45701384D-01 0.60651050D+04 0.60651050D+04 0.60651050D+04 0.12325156D+01  1  2 13  1  6  2       -2 -.412673314717D-03 0.100000000000D+01
0.229400521091D-03 0.000000000000D+00 0.000000000000D+00 0.215208376171D-03 0.800196575926D-06  6 22 -2 9900012 13 -1 21 2 0.11708823D+00 0.45578273D-01 0.60651050D+04 0.60651050D+04 0.60651050D+04 0.12325156D+01  1  2  1  1  6  2       -2 0.136193455722D-03 0.100000000000D+01
  </mgrwgt>
  </event>
  <event>
  6     66 0.91196180E-06 0.29619826E+02 0.78161638E-02 0.12461747E+00
       22 -1    0    0    0    0 0.00000000E+00 0.00000000E+00 0.44936287E+03 0.44936287E+03 0.00000000E+00 0.0000E+00 0.9000E+01
       -2 -1    0    0    0  501 0.00000000E+00 0.00000000E+00 -.15580425E+03 0.15580425E+03 0.00000000E+00 0.0000E+00 0.9000E+01
      -24  2    1    2    0    0 0.51212581E+01 0.42291840E+02 0.44191085E+03 0.45081942E+03 0.78346193E+02 0.0000E+00 0.0000E+00
  9900012  1    3    3    0    0 0.15721514E+02 0.24933374E+02 0.40049326E+03 0.40467727E+03 0.50000000E+02 0.0000E+00 0.9000E+01
       13  1    3    3    0    0 -.10600256E+02 0.17358466E+02 0.41417586E+02 0.46142153E+02 0.00000000E+00 0.0000E+00 0.9000E+01
       -1  1    1    2    0  501 -.51212581E+01 -.42291840E+02 -.14835223E+03 0.15434769E+03 0.00000000E+00 0.0000E+00 0.9000E+01
#aMCatNLO 1  0  0  2  5 0.83129143D+01 0.00000000D+00  -5  6  0 0.00000000D+00 0.00000000D+00 0.00000000D+00 0.00000000D+00 0.00000000D+00
  <mgrwgt>
 0.2689651980D-03   11    4    0
 0.264599025172095D+03 0.000000000000000D+00 0.000000000000000D+00 0.264599025172095D+03
 0.264599025172095D+03 0.000000000000000D+00 0.000000000000000D+00 -.264599025172095D+03
 0.240607702904799D+03 0.157215144688097D+02 0.249333740944465D+02 0.233502093215880D+03
 0.297907823528874D+02 -.106002563405243D+02 0.173584661454960D+02 0.217671525879696D+02
 0.258799565086504D+03 -.512125812828533D+01 -.422918402399425D+02 -.255269245803849D+03
 0.000000000000000D+00 -.000000000000000D+00 -.000000000000000D+00 -.000000000000000D+00
 0.265298225377626D+03 0.000000000000000D+00 0.000000000000000D+00 0.265298225377626D+03
 0.289784457101185D+03 0.000000000000000D+00 0.000000000000000D+00 -.289784457101185D+03
 0.241063564303465D+03 0.186969068750617D+02 0.271816145914653D+02 0.233502093215880D+03
 0.298254398050336D+02 -.102319934467748D+02 0.176367297955400D+02 0.217671525879696D+02
 0.258372495014538D+03 -.192656929150025D+01 -.398778968544777D+02 -.255269245803849D+03
 0.258211833557739D+02 -.653834413678665D+01 -.494044753252762D+01 -.244862317235581D+02
 0.264599025172095D+03 0.000000000000000D+00 0.000000000000000D+00 0.264599025172095D+03
 0.264599025172095D+03 0.000000000000000D+00 0.000000000000000D+00 -.264599025172095D+03
 0.240607702904799D+03 0.157215144688097D+02 0.249333740944465D+02 0.233502093215880D+03
 0.297907823528874D+02 -.106002563405243D+02 0.173584661454960D+02 0.217671525879696D+02
 0.000000000000000D+00 -.000000000000000D+00 -.000000000000000D+00 -.000000000000000D+00
 0.258799565086504D+03 -.512125812828533D+01 -.422918402399425D+02 -.255269245803849D+03
 0.265298225377626D+03 0.000000000000000D+00 0.000000000000000D+00 0.265298225377626D+03
 0.289784457101185D+03 0.000000000000000D+00 0.000000000000000D+00 -.289784457101185D+03
 0.241063564303465D+03 0.186969068750617D+02 0.271816145914653D+02 0.233502093215880D+03
 0.298254398050336D+02 -.102319934467748D+02 0.176367297955400D+02 0.217671525879696D+02
 0.258211833557739D+02 -.653834413678665D+01 -.494044753252762D+01 -.244862317235581D+02
 0.258372495014538D+03 -.192656929150025D+01 -.398778968544777D+02 -.255269245803849D+03
0.287451886300D-05 0.000000000000D+00 0.000000000000D+00 0.349903999085D-04 0.000000000000D+00  6 22 -2 9900012 13 -1 21 0 0.69132749D-01 0.23969884D-01 0.36591404D+04 0.36591404D+04 0.36591404D+04 0.12574052D+01  1  2  2  1  6  2       -2 0.885562718419D-05 0.100000000000D+01
0.122117063690D-06 0.000000000000D+00 -.551945465606D-08 0.349903999085D-04 0.000000000000D+00  6 22 -2 9900012 13 -1 21 2 0.69132749D-01 0.23969884D-01 0.36591404D+04 0.36591404D+04 0.36591404D+04 0.12574052D+01  1  2  3  1  6  2       -2 0.594813787864D-06 0.100000000000D+01
-.471577078465D-06 0.000000000000D+00 0.000000000000D+00 0.349903999085D-04 0.000000000000D+00  6 22 -2 9900012 13 -1 21 2 0.69132749D-01 0.23969884D-01 0.36591404D+04 0.36591404D+04 0.36591404D+04 0.12574052D+01  1  2 15  1  6  2       -2 -.229698078087D-05 0.100000000000D+01
0.613598378241D-04 0.000000000000D+00 0.000000000000D+00 0.349903999085D-04 0.000000000000D+00  6 22 -2 9900012 13 -1 21 2 0.69132749D-01 0.26320788D-01 0.41224540D+04 0.41224540D+04 0.41224540D+04 0.12513950D+01  1  2 12  1  6  2       -2 0.256109858961D-03 0.100000000000D+01
-.763328694552D-05 0.000000000000D+00 0.000000000000D+00 0.349903999085D-04 0.000000000000D+00  6 22 -2 9900012 13 -1 21 2 0.69132749D-01 0.23969884D-01 0.36591404D+04 0.36591404D+04 0.36591404D+04 0.12574052D+01  1  2  4  1  6  2       -2 -.371805887296D-04 0.100000000000D+01
-.659412308659D-04 0.000000000000D+00 -.351357542958D-05 0.349903999085D-04 0.000000000000D+00  6 22 -2 9900012 13 -1 21 2 0.69132749D-01 0.26293476D-01 0.36591404D+04 0.36591404D+04 0.36591404D+04 0.12574052D+01  1  2  5  1  6  2       -2 -.276225721874D-03 0.100000000000D+01
0.659986114780D-04 0.000000000000D+00 0.349859001610D-05 0.349903999085D-04 0.000000000000D+00  6 22 -2 9900012 13 -1 21 2 0.69132749D-01 0.23969884D-01 0.36591404D+04 0.36591404D+04 0.36591404D+04 0.12574052D+01  1  2  6  1  6  2       -2 0.321469276290D-03 0.100000000000D+01
0.180987273106D-07 0.000000000000D+00 0.000000000000D+00 0.349903999085D-04 0.197550429682D-05  6 22 -2 9900012 13 -1 21 2 0.69315432D-01 0.26251419D-01 0.41224540D+04 0.41224540D+04 0.41224540D+04 0.12513950D+01  1  2 11  1  6  2       -2 0.755189984740D-07 0.100000000000D+01
0.954149760791D-06 0.000000000000D+00 0.000000000000D+00 0.349903999085D-04 0.000000000000D+00  6 22 21 9900012 13 2 -1 2 0.69132749D-01 0.26320788D-01 0.41224540D+04 0.41224540D+04 0.41224540D+04 0.12513950D+01  3  4 12  3  5  2       -2 0.505644653153D-04 0.100000000000D+01
-.996119675662D-06 0.000000000000D+00 -.533440591296D-07 0.349903999085D-04 0.000000000000D+00  6 22 21 9900012 13 2 -1 2 0.69132749D-01 0.26293476D-01 0.36591404D+04 0.36591404D+04 0.36591404D+04 0.12574052D+01  3  4  5  3  5  2       -2 -.531107828550D-04 0.100000000000D+01
0.206992339532D-08 0.000000000000D+00 0.000000000000D+00 0.349903999085D-04 0.833048811893D-07  6 22 21 9900012 13 2 -1 2 0.69315432D-01 0.26251419D-01 0.41224540D+04 0.41224540D+04 0.41224540D+04 0.12513950D+01  3  4 11  3  5  2       -2 0.109711728614D-06 0.100000000000D+01
  </mgrwgt>
  </event>
  <event>
  6     66 0.91196180E-06 0.74909070E+02 0.78161638E-02 0.11107899E+00
       22 -1    0    0    0    0 0.00000000E+00 0.00000000E+00 0.26366107E+03 0.26366107E+03 0.00000000E+00 0.0000E+00 0.9000E+01
       -2 -1    0    0    0  501 0.00000000E+00 0.00000000E+00 -.11197383E+03 0.11197383E+03 0.00000000E+00 0.0000E+00 0.9000E+01
      -24  2    1    2    0    0 -.87981399E+02 0.90647686E+02 0.19209191E+03 0.24300659E+03 0.78709399E+02 0.0000E+00 0.0000E+00
  9900012  1    3    3    0    0 -.86162265E+02 0.67394183E+02 0.13215948E+03 0.17869538E+03 0.50000000E+02 0.0000E+00 0.9000E+01
       13  1    3    3    0    0 -.18191336E+01 0.23253504E+02 0.59932431E+02 0.64311204E+02 0.00000000E+00 0.0000E+00 0.9000E+01
       -1  1    1    2    0  501 0.87981399E+02 -.90647686E+02 -.40404672E+02 0.13262830E+03 0.00000000E+00 0.0000E+00 0.9000E+01
#aMCatNLO 1  0  0  5  2 0.15594212D+02 0.00000000D+00  -5  6  0 0.00000000D+00 0.00000000D+00 0.00000000D+00 0.00000000D+00 0.00000000D+00
  <mgrwgt>
 0.2204895945D-04    4    2    0
 0.171822985254780D+03 0.000000000000000D+00 0.000000000000000D+00 0.171822985254780D+03
 0.171822985254780D+03 -.000000000000000D+00 -.000000000000000D+00 -.171822985254780D+03
 0.136993645413898D+03 -.861622650313444D+02 0.673941826198330D+02 0.655846561130108D+02
 0.438432233766964D+02 -.181913361503127D+01 0.232535035408405D+02 0.371240294422046D+02
 0.162809101718966D+03 0.879813986463757D+02 -.906476861606736D+02 -.102708685555215D+03
 0.000000000000000D+00 0.000000000000000D+00 0.000000000000000D+00 0.000000000000000D+00
 0.171822985254780D+03 0.000000000000000D+00 0.000000000000000D+00 0.171822985254780D+03
 0.171822985254780D+03 -.000000000000000D+00 -.000000000000000D+00 -.171822985254780D+03
 0.132799489293725D+03 -.836798213018530D+02 0.648365081163061D+02 0.626866738537648D+02
 0.425963789981106D+02 -.102377813229219D+01 0.224340447086926D+02 0.361955386766781D+02
 0.117636118378662D+02 0.247458697905999D+01 0.910618913769617D+01 -.702398050563611D+01
 0.156486490379859D+03 0.822290124550852D+02 -.963767419626949D+02 -.918582320248068D+02
0.151292953878D-05 0.000000000000D+00 0.000000000000D+00 0.583743460606D-06 0.000000000000D+00  6 22 -2 9900012 13 -1 21 0 0.40563241D-01 0.17226742D-01 0.18214576D+05 0.18214576D+05 0.18214576D+05 0.11832294D+01  1  2  2  2  6  5       -1 0.216886664374D-04 0.100000000000D+01
-.192811911015D-07 0.000000000000D+00 -.290502389620D-08 0.583743460606D-06 0.000000000000D+00  6 22 -2 9900012 13 -1 21 2 0.40563241D-01 0.17226742D-01 0.18214576D+05 0.18214576D+05 0.18214576D+05 0.11832294D+01  1  2  3  2  6  5       -1 -.386977648150D-06 0.100000000000D+01
-.215497935915D-06 0.000000000000D+00 0.000000000000D+00 0.583743460606D-06 0.000000000000D+00  6 22 -2 9900012 13 -1 21 2 0.40563241D-01 0.17226742D-01 0.18214576D+05 0.18214576D+05 0.18214576D+05 0.11832294D+01  1  2 15  2  6  5       -1 -.432508987555D-05 0.100000000000D+01
0.252754972323D-06 0.000000000000D+00 0.000000000000D+00 0.583743460606D-06 0.000000000000D+00  6 22 -2 9900012 13 -1 21 2 0.40563241D-01 0.17226742D-01 0.18996524D+05 0.18996524D+05 0.18996524D+05 0.11814651D+01  1  2 12  2  6  5       -1 0.507236053228D-05 0.100000000000D+01
  </mgrwgt>
  </event>
  <event>
  6     66 0.91196180E-06 0.28921302E+02 0.78161638E-02 0.12683377E+00
       22 -1    0    0    0    0 0.00000000E+00 0.00000000E+00 0.21081579E+03 0.21081579E+03 0.00000000E+00 0.0000E+00 0.9000E+01
       -4 -1    0    0    0  501 0.00000000E+00 0.00000000E+00 -.17682335E+02 0.17682335E+02 0.00000000E+00 0.0000E+00 0.9000E+01
      -24  2    1    2    0    0 -.22535347E+02 -.19117010E+02 0.10706451E+03 0.13749722E+03 0.81051671E+02 0.0000E+00 0.0000E+00
  9900012  1    3    3    0    0 -.36723807E+02 -.28791819E+02 0.92112338E+02 0.11472702E+03 0.50000000E+02 0.0000E+00 0.9000E+01
       13  1    3    3    0    0 0.14188460E+02 0.96748092E+01 0.14952174E+02 0.22770196E+02 0.00000000E+00 0.0000E+00 0.9000E+01
       -3  1    1    2    0  501 0.22535347E+02 0.19117010E+02 0.86068941E+02 0.91000904E+02 0.00000000E+00 0.0000E+00 0.9000E+01
#aMCatNLO 1  0  0  2  2 0.22013839D+00 0.00000000D+00  -5  6  0 0.00000000D+00 0.00000000D+00 0.00000000D+00 0.00000000D+00 0.00000000D+00
  <mgrwgt>
 0.5940181148D-02    6    4    0
 0.610550188817344D+02 0.000000000000000D+00 0.000000000000000D+00 0.610550188817344D+02
 0.610550188817344D+02 0.000000000000000D+00 0.000000000000000D+00 -.610550188817344D+02
 0.689946171027378D+02 -.367238066828508D+02 -.287918192951927D+02 -.909122398508414D+01
 0.189598014131985D+02 0.141884597777130D+02 0.967480924866964D+01 -.803490788783553D+01
 0.341556192475324D+02 0.225353469051379D+02 0.191170100465231D+02 0.171261318729197D+02
 0.000000000000000D+00 -.000000000000000D+00 0.000000000000000D+00 0.000000000000000D+00
 0.611650357822008D+02 0.000000000000000D+00 0.000000000000000D+00 0.611650357822008D+02
 0.610553216562620D+02 0.000000000000000D+00 0.000000000000000D+00 -.610553216562620D+02
 0.689950949520326D+02 -.367203637458362D+02 -.287973550915098D+02 -.909122398508414D+01
 0.189597332637596D+02 0.141894058958516D+02 0.967328801337401D+01 -.803490788783553D+01
 0.341552100927626D+02 0.225370513067149D+02 0.191142695897756D+02 0.171261318729197D+02
 0.110319129907774D+00 -.609345673019539D-02 0.979748836018421D-02 0.109714125938813D+00
 0.610550188817344D+02 0.000000000000000D+00 0.000000000000000D+00 0.610550188817344D+02
 0.610550188817344D+02 0.000000000000000D+00 0.000000000000000D+00 -.610550188817344D+02
 0.689946171027378D+02 -.367238066828508D+02 -.287918192951927D+02 -.909122398508414D+01
 0.189598014131985D+02 0.141884597777130D+02 0.967480924866964D+01 -.803490788783553D+01
 0.000000000000000D+00 -.000000000000000D+00 0.000000000000000D+00 0.000000000000000D+00
 0.341556192475324D+02 0.225353469051379D+02 0.191170100465231D+02 0.171261318729197D+02
 0.611650357822008D+02 0.000000000000000D+00 0.000000000000000D+00 0.611650357822008D+02
 0.610553216562620D+02 0.000000000000000D+00 0.000000000000000D+00 -.610553216562620D+02
 0.689950949520326D+02 -.367203637458362D+02 -.287973550915098D+02 -.909122398508414D+01
 0.189597332637596D+02 0.141894058958516D+02 0.967328801337401D+01 -.803490788783553D+01
 0.110319129907774D+00 -.609345673019539D-02 0.979748836018421D-02 0.109714125938813D+00
 0.341552100927626D+02 0.225370513067149D+02 0.191142695897756D+02 0.171261318729197D+02
0.223547098411D-06 0.000000000000D+00 0.000000000000D+00 0.305394202875D-07 0.000000000000D+00  6 22 -4 9900012 13 -3 21 0 0.32433198D-01 0.27203592D-02 0.33130261D+04 0.33130261D+04 0.33130261D+04 0.12624841D+01  1  2  2  1  6  2       -4 0.429096254827D-04 0.100000000000D+01
-.900519902516D-08 0.000000000000D+00 -.429239859601D-09 0.305394202875D-07 0.000000000000D+00  6 22 -4 9900012 13 -3 21 2 0.32433198D-01 0.27203592D-02 0.33130261D+04 0.33130261D+04 0.33130261D+04 0.12624841D+01  1  2  3  1  6  2       -4 -.275505846409D-05 0.100000000000D+01
-.271778657130D-07 0.000000000000D+00 0.000000000000D+00 0.305394202875D-07 0.000000000000D+00  6 22 -4 9900012 13 -3 21 2 0.32433198D-01 0.27203592D-02 0.33130261D+04 0.33130261D+04 0.33130261D+04 0.12624841D+01  1  2 15  1  6  2       -4 -.831482000113D-05 0.100000000000D+01
-.983976581682D-06 0.000000000000D+00 0.000000000000D+00 0.305394202875D-07 0.000000000000D+00  6 22 -4 9900012 13 -3 21 2 0.32433198D-01 0.27203592D-02 0.33130261D+04 0.33130261D+04 0.33130261D+04 0.12624841D+01  1  2  4  1  6  2       -4 -.301038655810D-03 0.100000000000D+01
0.983232751002D-06 0.000000000000D+00 0.000000000000D+00 0.305394202875D-07 0.164667703536D-04  6 22 -4 9900012 13 -3 21 2 0.32491641D-01 0.27203727D-02 0.33136864D+04 0.33136864D+04 0.33136864D+04 0.12624738D+01  1  2 11  1  6  2       -4 0.299974390477D-03 0.100000000000D+01
0.791168416288D-06 0.000000000000D+00 0.000000000000D+00 0.305394202875D-07 0.638937353325D-06  6 22 21 9900012 13 4 -3 2 0.32491641D-01 0.27203727D-02 0.33136864D+04 0.33136864D+04 0.33136864D+04 0.12624738D+01  3  4 11  3  5  2       -4 0.590940566628D-02 0.100000000000D+01
  </mgrwgt>
  </event>
  <event>
  6     66 0.91196180E-06 0.38444290E+02 0.78161638E-02 0.11199435E+00
       22 -1    0    0    0    0 0.00000000E+00 0.00000000E+00 0.21701606E+03 0.21701606E+03 0.00000000E+00 0.0000E+00 0.9000E+01
       -2 -1    0    0    0  501 0.00000000E+00 0.00000000E+00 -.71302021E+02 0.71302021E+02 0.00000000E+00 0.0000E+00 0.9000E+01
      -24  2    1    2    0    0 0.31611915E+02 0.21878077E+02 0.20377071E+03 0.21868662E+03 0.69450526E+02 0.0000E+00 0.0000E+00
  9900012  1    3    3    0    0 0.87451276E+01 0.63060487E+01 0.14426546E+03 0.15306459E+03 0.50000000E+02 0.0000E+00 0.9000E+01
       13  1    3    3    0    0 0.22866787E+02 0.15572029E+02 0.59505241E+02 0.65622037E+02 0.00000000E+00 0.0000E+00 0.9000E+01
       -1  1    1    2    0  501 -.31611915E+02 -.21878077E+02 -.58056666E+02 0.69631457E+02 0.00000000E+00 0.0000E+00 0.9000E+01
#aMCatNLO 1  0  0  2  5 0.67734752D+01 0.00000000D+00  -5  6  0 0.00000000D+00 0.00000000D+00 0.00000000D+00 0.00000000D+00 0.00000000D+00
  <mgrwgt>
 0.7743025773D-04    3    2    0
 0.124393261974868D+03 0.000000000000000D+00 0.000000000000000D+00 0.124393261974868D+03
 0.124393261974868D+03 0.000000000000000D+00 0.000000000000000D+00 -.124393261974868D+03
 0.928900163608499D+02 0.874512757075992D+01 0.630604872107375D+01 0.775390974464982D+02
 0.411970496323375D+02 0.228667872185550D+02 0.155720286763685D+02 0.305257082409722D+02
 0.114699457956549D+03 -.316119147893150D+02 -.218780773974422D+02 -.108064805687470D+03
 0.000000000000000D+00 0.000000000000000D+00 -.000000000000000D+00 0.000000000000000D+00
 0.314423859240332D+03 0.000000000000000D+00 0.000000000000000D+00 0.314423859240332D+03
 0.148478612117266D+03 0.000000000000000D+00 0.000000000000000D+00 -.148478612117266D+03
 0.984713569491757D+02 -.236784125516794D+02 0.249725706651697D+02 0.775390974464982D+02
 0.395734613096036D+02 0.918134037556487D+01 0.234508627840802D+02 0.305257082409722D+02
 0.130516728535335D+03 -.731604087401295D+02 0.204176205094274D+01 -.108064805687470D+03
 0.194340924563485D+03 0.876574809162440D+02 -.504651955001927D+02 0.165945247123067D+03
0.281090198221D-05 0.000000000000D+00 0.000000000000D+00 0.558524379604D-07 0.000000000000D+00  6 22 -2 9900012 13 -1 21 0 0.33387086D-01 0.10969542D-01 0.34374173D+04 0.34374173D+04 0.34374173D+04 0.12605925D+01  1  2  2  1  6  2       -2 0.963841400403D-04 0.100000000000D+01
0.118652185786D-06 0.000000000000D+00 -.539730186958D-08 0.558524379604D-07 0.000000000000D+00  6 22 -2 9900012 13 -1 21 2 0.33387086D-01 0.10969542D-01 0.34374173D+04 0.34374173D+04 0.34374173D+04 0.12605925D+01  1  2  3  1  6  2       -2 0.646524647776D-05 0.100000000000D+01
-.466499645653D-06 0.000000000000D+00 0.000000000000D+00 0.558524379604D-07 0.000000000000D+00  6 22 -2 9900012 13 -1 21 2 0.33387086D-01 0.10969542D-01 0.34374173D+04 0.34374173D+04 0.34374173D+04 0.12605925D+01  1  2 15  1  6  2       -2 -.254191287834D-04 0.100000000000D+01
  </mgrwgt>
  </event>
  <event>
  6     66 0.91196180E-06 0.18302354E+02 0.78161638E-02 0.12626564E+00
       22 -1    0    0    0    0 0.00000000E+00 0.00000000E+00 0.49104398E+03 0.49104398E+03 0.00000000E+00 0.0000E+00 0.9000E+01
       -4 -1    0    0    0  501 0.00000000E+00 0.00000000E+00 -.11913646E+02 0.11913646E+02 0.00000000E+00 0.0000E+00 0.9000E+01
      -24  2    1    2    0    0 -.21866162E+02 0.16513368E+02 0.46451996E+03 0.47190471E+03 0.78513979E+02 0.0000E+00 0.0000E+00
  9900012  1    3    3    0    0 -.73472054E+01 0.28171134E+02 0.41474050E+03 0.41875682E+03 0.50000000E+02 0.0000E+00 0.9000E+01
       13  1    3    3    0    0 -.14518957E+02 -.11657767E+02 0.49779458E+02 0.53147889E+02 0.00000000E+00 0.0000E+00 0.9000E+01
       -3  1    1    2    0  501 0.21866162E+02 -.16513368E+02 0.14610372E+02 0.31052912E+02 0.00000000E+00 0.0000E+00 0.9000E+01
#aMCatNLO 1  0  0  5  2 0.16328049D+02 0.00000000D+00  -5  6  0 0.00000000D+00 0.00000000D+00 0.00000000D+00 0.00000000D+00 0.00000000D+00
  <mgrwgt>
 0.1390695130D-04    5    2    0
 0.764861055225496D+02 0.000000000000000D+00 0.000000000000000D+00 0.764861055225496D+02
 0.764861055225496D+02 -.000000000000000D+00 -.000000000000000D+00 -.764861055225496D+02
 0.778061807684381D+02 -.734720544123485D+01 0.281711343811259D+02 0.520212218777655D+02
 0.188288291302468D+02 -.145189568188114D+02 -.116577668286378D+02 -.279663581444432D+01
 0.563372011464143D+02 0.218661622600462D+02 -.165133675524881D+02 -.492245860633211D+02
 0.000000000000000D+00 0.000000000000000D+00 0.000000000000000D+00 0.000000000000000D+00
 0.764861055225496D+02 0.000000000000000D+00 0.000000000000000D+00 0.764861055225496D+02
 0.764861055225496D+02 -.000000000000000D+00 -.000000000000000D+00 -.764861055225496D+02
 0.729367378934112D+02 -.466488659005030D+01 0.261454420554308D+02 0.459828492740526D+02
 0.189288554682710D+02 -.138470967402436D+02 -.121651568447407D+02 -.430911129444192D+01
 0.464046342384231D+02 0.140707784830378D+02 -.265092824949877D+02 -.353929542887289D+02
 0.147019834449939D+02 0.444120484725610D+01 0.125289972842975D+02 -.628078369088183D+01
0.106957695670D-06 0.000000000000D+00 0.000000000000D+00 0.187289983549D-06 0.000000000000D+00  6 22 -4 9900012 13 -3 21 0 0.75545227D-01 0.18328687D-02 0.26977365D+04 0.26977365D+04 0.26977365D+04 0.12731974D+01  1  2  2  2  6  5       -3 0.871664863026D-05 0.100000000000D+01
0.445302703436D-08 0.000000000000D+00 -.205372856991D-09 0.187289983549D-06 0.000000000000D+00  6 22 -4 9900012 13 -3 21 2 0.75545227D-01 0.18328687D-02 0.26977365D+04 0.26977365D+04 0.26977365D+04 0.12731974D+01  1  2  3  2  6  5       -3 0.588280280821D-06 0.100000000000D+01
-.180381156288D-07 0.000000000000D+00 0.000000000000D+00 0.187289983549D-06 0.000000000000D+00  6 22 -4 9900012 13 -3 21 2 0.75545227D-01 0.18328687D-02 0.26977365D+04 0.26977365D+04 0.26977365D+04 0.12731974D+01  1  2 15  2  6  5       -3 -.238297851005D-05 0.100000000000D+01
0.569720291144D-07 0.000000000000D+00 0.000000000000D+00 0.187289983549D-06 0.000000000000D+00  6 22 -4 9900012 13 -3 21 2 0.75545227D-01 0.18328687D-02 0.35018359D+04 0.35018359D+04 0.35018359D+04 0.12596431D+01  1  2 12  2  6  5       -3 0.768158385809D-05 0.100000000000D+01
-.527283140815D-08 0.000000000000D+00 0.000000000000D+00 0.187289983549D-06 0.000000000000D+00  6 22 -4 9900012 13 -3 21 2 0.75545227D-01 0.18328687D-02 0.26977365D+04 0.26977365D+04 0.26977365D+04 0.12731974D+01  1  2  4  2  6  5       -3 -.696582957520D-06 0.100000000000D+01
  </mgrwgt>
  </event>
  <event>
  7     66 -.91196180E-06 0.29051288E+02 0.78161638E-02 0.12485253E+00
       22 -1    0    0    0    0 0.00000000E+00 0.00000000E+00 0.27778147E+03 0.27778147E+03 0.00000000E+00 0.0000E+00 0.9000E+01
       -2 -1    0    0    0  502 0.00000000E+00 0.00000000E+00 -.42768501E+02 0.42768501E+02 0.00000000E+00 0.0000E+00 0.9000E+01
      -24  2    1    2    0    0 -.15455239E+01 -.37001168E+02 0.25520384E+03 0.26983221E+03 0.79428874E+02 0.0000E+00 0.0000E+00
  9900012  1    3    3    0    0 0.11682045E+02 -.47963450E+01 0.12934003E+03 0.13924195E+03 0.50000000E+02 0.0000E+00 0.9000E+01
       13  1    3    3    0    0 -.13227568E+02 -.32204823E+02 0.12586381E+03 0.13059026E+03 0.00000000E+00 0.0000E+00 0.9000E+01
       -1  1    1    2    0  501 0.73669644E+01 0.32039687E+02 -.25330588E+02 0.41502439E+02 0.00000000E+00 0.0000E+00 0.9000E+01
       21  1    1    2  501  502 -.58214405E+01 0.49614807E+01 0.51397120E+01 0.92153187E+01 0.00000000E+00 0.0000E+00 0.9000E+01
#aMCatNLO 2  0  0  2  5 0.94990768D+01 0.00000000D+00  -5  6  0 0.00000000D+00 0.00000000D+00 0.00000000D+00 0.00000000D+00 0.00000000D+00
  <mgrwgt>
 -.3433189793D-04    3    2    0
 0.104915496509419D+03 0.000000000000000D+00 0.000000000000000D+00 0.104915496509419D+03
 0.104915496509419D+03 0.000000000000000D+00 0.000000000000000D+00 -.104915496509419D+03
 0.644672382565597D+02 0.988862358044676D+01 -.326785328524434D+01 0.393390526959963D+02
 0.554816571803627D+02 -.147712676935643D+02 -.308891633383753D+02 0.436564259011148D+02
 0.898820975819163D+02 0.488264411311754D+01 0.341570166236197D+02 -.829954785971112D+02
 0.000000000000000D+00 -.000000000000000D+00 0.000000000000000D+00 -.000000000000000D+00
 0.107769811982116D+03 0.000000000000000D+00 0.000000000000000D+00 0.107769811982116D+03
 0.110237707333464D+03 0.000000000000000D+00 0.000000000000000D+00 -.110237707333464D+03
 0.648616693964693D+02 0.116820445457354D+02 -.479634497403619D+01 0.393390526959963D+02
 0.558390786942742D+02 -.132275684138599D+02 -.322048229435045D+02 0.436564259011148D+02
 0.892696095587438D+02 0.736696438910182D+01 0.320396872471741D+02 -.829954785971112D+02
 0.803716166609225D+01 -.582144052097737D+01 0.496148067036660D+01 -.246789535134780D+01
-.456316497745D-06 0.000000000000D+00 0.000000000000D+00 0.211406456646D-05 0.000000000000D+00  6 22 -2 9900012 13 -1 21 2 0.41603745D-01 0.67587777D-02 0.40265509D+04 0.40265509D+04 0.40265509D+04 0.12525746D+01  1  2 13  1  6  2       -2 -.362027020463D-04 0.100000000000D+01
-.292490840049D-08 0.000000000000D+00 0.000000000000D+00 0.211406456646D-05 0.000000000000D+00  6 22 -2 9900012 13 -1 21 2 0.41603745D-01 0.62621021D-02 0.35890086D+04 0.35890086D+04 0.35890086D+04 0.12583893D+01  1  2  8  1  6  2       -2 -.258900828646D-06 0.100000000000D+01
0.269442978923D-07 0.000000000000D+00 0.000000000000D+00 0.211406456646D-05 0.300599042992D-07  6 22 -2 9900012 13 -1 21 2 0.42735610D-01 0.65797694D-02 0.40265509D+04 0.40265509D+04 0.40265509D+04 0.12525746D+01  1  2  1  1  6  2       -2 0.212970494343D-05 0.100000000000D+01
  </mgrwgt>
  </event>
  <event>
  7     66 -.91196180E-06 0.28484442E+03 0.78161638E-02 0.98273544E-01
       22 -1    0    0    0    0 0.00000000E+00 0.00000000E+00 0.17892786E+03 0.17892786E+03 0.00000000E+00 0.0000E+00 0.9000E+01
       -4 -1    0    0    0  501 -.00000000E+00 -.00000000E+00 -.17276609E+04 0.17276609E+04 0.00000000E+00 0.0000E+00 0.9000E+01
      -24  2    1    2    0    0 0.32463167E+03 0.11867878E+02 -.24390614E+02 0.33968898E+03 0.96265961E+02 0.0000E+00 0.0000E+00
  9900012  1    3    3    0    0 0.16392326E+03 -.19262984E+02 -.33734010E+02 0.17572672E+03 0.50000000E+02 0.0000E+00 0.9000E+01
       13  1    3    3    0    0 0.16070841E+03 0.31130861E+02 0.93433962E+01 0.16396226E+03 0.00000000E+00 0.0000E+00 0.9000E+01
       -3  1    1    2    0  502 -.30379719E+03 -.54783409E+02 -.14020559E+04 0.14356374E+04 0.00000000E+00 0.0000E+00 0.9000E+01
       21  1    1    2  502  501 -.20834478E+02 0.42915531E+02 -.12228653E+03 0.13126239E+03 0.00000000E+00 0.0000E+00 0.9000E+01
#aMCatNLO 2  0  0  5  2 0.47779666D+02 0.00000000D+00  -5  6  0 0.00000000D+00 0.00000000D+00 0.00000000D+00 0.00000000D+00 0.00000000D+00
  <mgrwgt>
 -.3200660062D-05    3    2    0
 0.555991604335910D+03 0.000000000000000D+00 0.000000000000000D+00 0.555991604335910D+03
 0.555991604335910D+03 -.000000000000000D+00 -.000000000000000D+00 -.555991604335910D+03
 0.259678537193997D+03 0.167236047856267D+03 -.191418748768800D+02 0.191307698754725D+03
 0.300480007436720D+03 0.164540859024620D+03 0.312709679749240D+02 0.249472778359729D+03
 0.551824664041103D+03 -.331776906880887D+03 -.121290930980440D+02 -.440780477114454D+03
 0.000000000000000D+00 0.000000000000000D+00 0.000000000000000D+00 -.000000000000000D+00
 0.555991604335910D+03 0.000000000000000D+00 0.000000000000000D+00 0.555991604335910D+03
 0.555991604335910D+03 -.000000000000000D+00 -.000000000000000D+00 -.555991604335910D+03
 0.254314649433571D+03 0.163923258873317D+03 -.192629837459877D+02 0.186906510250642D+03
 0.294140265664527D+03 0.160708412328793D+03 0.311308614702128D+02 0.244381201314830D+03
 0.508784482853691D+03 -.303797193182714D+03 -.547834090732150D+02 -.404435030007689D+03
 0.547438107200310D+02 -.208344780193962D+02 0.429155313489898D+02 -.268526815577838D+02
-.168704398400D-03 0.000000000000D+00 0.000000000000D+00 0.414403644634D-07 0.000000000000D+00  6 22 -4 9900012 13 -3 21 2 0.27527362D-01 0.26579399D+00 0.11990878D+06 0.11990878D+06 0.11990878D+06 0.11112793D+01  1  2 13  2  6  5       -3 -.414002118947D-05 0.100000000000D+01
-.907521240670D-08 0.000000000000D+00 0.000000000000D+00 0.414403644634D-07 0.000000000000D+00  6 22 -4 9900012 13 -3 21 2 0.27527362D-01 0.26579399D+00 0.11393378D+06 0.11393378D+06 0.11393378D+06 0.11130556D+01  1  2  8  2  6  5       -3 -.223231093160D-09 0.100000000000D+01
0.382877300921D-04 0.000000000000D+00 0.000000000000D+00 0.414403644634D-07 0.384116895397D-10  6 22 -4 9900012 13 -3 21 2 0.27527362D-01 0.26579399D+00 0.11990878D+06 0.11990878D+06 0.11990878D+06 0.11112793D+01  1  2  1  2  6  5       -3 0.939584358091D-06 0.100000000000D+01
  </mgrwgt>
  </event>
  <event>
  6     66 0.91196180E-06 0.26610615E+02 0.78161638E-02 0.12474645E+00
       22 -1    0    0    0    0 0.00000000E+00 0.00000000E+00 0.11813369E+03 0.11813369E+03 0.00000000E+00 0.0000E+00 0.9000E+01
       -2 -1    0    0    0  501 0.00000000E+00 0.00000000E+00 -.32199995E+03 0.32199995E+03 0.00000000E+00 0.0000E+00 0.9000E+01
      -24  2    1    2    0    0 -.23546780E+02 -.12396531E+02 0.10105730E+03 0.13405114E+03 0.83958364E+02 0.0000E+00 0.0000E+00
  9900012  1    3    3    0    0 -.34394716E+02 0.72875397E+01 0.52619703E+02 0.80653195E+02 0.50000000E+02 0.0000E+00 0.9000E+01
       13  1    3    3    0    0 0.10847936E+02 -.19684071E+02 0.48437594E+02 0.53397948E+02 0.00000000E+00 0.0000E+00 0.9000E+01
       -1  1    1    2    0  501 0.23546780E+02 0.12396531E+02 -.30492355E+03 0.30608250E+03 0.00000000E+00 0.0000E+00 0.9000E+01
#aMCatNLO 1  0  0  2  5 0.12993477D+02 0.00000000D+00  -5  6  0 0.00000000D+00 0.00000000D+00 0.00000000D+00 0.00000000D+00 0.00000000D+00
  <mgrwgt>
 0.2042413897D-03    9    4    0
 0.195036005500553D+03 0.000000000000000D+00 0.000000000000000D+00 0.195036005500553D+03
 0.195036005500553D+03 0.000000000000000D+00 0.000000000000000D+00 -.195036005500553D+03
 0.118505211742891D+03 -.343947162281848D+02 0.728753967335575D+01 0.101525270112024D+03
 0.855663137379184D+02 0.108479358931553D+02 -.196840710908452D+02 0.825618173179614D+02
 0.186000485520296D+03 0.235467803350295D+02 0.123965314174895D+02 -.184087087429985D+03
 0.000000000000000D+00 -.000000000000000D+00 0.000000000000000D+00 -.000000000000000D+00
 0.195808764291236D+03 0.000000000000000D+00 0.000000000000000D+00 0.195808764291236D+03
 0.257633494643477D+03 0.000000000000000D+00 0.000000000000000D+00 -.257633494643477D+03
 0.117426164993776D+03 -.307872338866579D+02 0.580258420311640D+01 0.101525270112024D+03
 0.861927964512008D+02 0.134741993667721D+02 -.207651253947136D+02 0.825618173179614D+02
 0.186666407526441D+03 0.292450018032080D+02 0.100509606457624D+02 -.184087087429985D+03
 0.631568899632955D+02 -.119319672833222D+02 0.491158054583485D+01 -.618247303522411D+02
 0.195036005500553D+03 0.000000000000000D+00 0.000000000000000D+00 0.195036005500553D+03
 0.195036005500553D+03 0.000000000000000D+00 0.000000000000000D+00 -.195036005500553D+03
 0.118505211742891D+03 -.343947162281848D+02 0.728753967335575D+01 0.101525270112024D+03
 0.855663137379184D+02 0.108479358931553D+02 -.196840710908452D+02 0.825618173179614D+02
 0.000000000000000D+00 -.000000000000000D+00 0.000000000000000D+00 -.000000000000000D+00
 0.186000485520296D+03 0.235467803350295D+02 0.123965314174895D+02 -.184087087429985D+03
 0.195808764291236D+03 0.000000000000000D+00 0.000000000000000D+00 0.195808764291236D+03
 0.257633494643477D+03 0.000000000000000D+00 0.000000000000000D+00 -.257633494643477D+03
 0.117426164993776D+03 -.307872338866579D+02 0.580258420311640D+01 0.101525270112024D+03
 0.861927964512008D+02 0.134741993667721D+02 -.207651253947136D+02 0.825618173179614D+02
 0.631568899632955D+02 -.119319672833222D+02 0.491158054583485D+01 -.618247303522411D+02
 0.186666407526441D+03 0.292450018032080D+02 0.100509606457624D+02 -.184087087429985D+03
0.125855689593D-05 0.000000000000D+00 0.000000000000D+00 0.225202971265D-05 0.000000000000D+00  6 22 -2 9900012 13 -1 21 0 0.18174414D-01 0.49538454D-01 0.30365405D+04 0.30365405D+04 0.30365405D+04 0.12669929D+01  1  2  2  1  6  2       -2 0.909877726423D-05 0.100000000000D+01
0.125157457787D-06 0.000000000000D+00 -.241659493300D-08 0.225202971265D-05 0.000000000000D+00  6 22 -2 9900012 13 -1 21 2 0.18174414D-01 0.49538454D-01 0.30365405D+04 0.30365405D+04 0.30365405D+04 0.12669929D+01  1  2  3  1  6  2       -2 0.145249709563D-05 0.100000000000D+01
-.191386929756D-06 0.000000000000D+00 0.000000000000D+00 0.225202971265D-05 0.000000000000D+00  6 22 -2 9900012 13 -1 21 2 0.18174414D-01 0.49538454D-01 0.30365405D+04 0.30365405D+04 0.30365405D+04 0.12669929D+01  1  2 15  1  6  2       -2 -.222111382356D-05 0.100000000000D+01
0.201889325517D-04 0.000000000000D+00 0.000000000000D+00 0.225202971265D-05 0.000000000000D+00  6 22 -2 9900012 13 -1 21 2 0.18174414D-01 0.65697268D-01 0.40695084D+04 0.40695084D+04 0.40695084D+04 0.12520424D+01  1  2 12  1  6  2       -2 0.135143727962D-03 0.100000000000D+01
-.252740825877D-05 0.000000000000D+00 0.000000000000D+00 0.225202971265D-05 0.000000000000D+00  6 22 -2 9900012 13 -1 21 2 0.18174414D-01 0.49538454D-01 0.30365405D+04 0.30365405D+04 0.30365405D+04 0.12669929D+01  1  2  4  1  6  2       -2 -.293314774865D-04 0.100000000000D+01
-.198746113689D-04 0.000000000000D+00 -.560919822372D-06 0.225202971265D-05 0.000000000000D+00  6 22 -2 9900012 13 -1 21 2 0.18174414D-01 0.65551955D-01 0.30365405D+04 0.30365405D+04 0.30365405D+04 0.12669929D+01  1  2  5  1  6  2       -2 -.134667772962D-03 0.100000000000D+01
0.192913397264D-04 0.000000000000D+00 0.539614027787D-06 0.225202971265D-05 0.000000000000D+00  6 22 -2 9900012 13 -1 21 2 0.18174414D-01 0.49538454D-01 0.30365405D+04 0.30365405D+04 0.30365405D+04 0.12669929D+01  1  2  6  1  6  2       -2 0.223882902538D-03 0.100000000000D+01
0.746796580299D-06 0.000000000000D+00 0.000000000000D+00 0.225202971265D-05 0.000000000000D+00  6 22 21 9900012 13 2 -1 2 0.18174414D-01 0.65697268D-01 0.40695084D+04 0.40695084D+04 0.40695084D+04 0.12520424D+01  3  4 12  3  5  2       -2 0.540853623089D-04 0.100000000000D+01
-.719683320901D-06 0.000000000000D+00 -.206302725811D-07 0.225202971265D-05 0.000000000000D+00  6 22 21 9900012 13 2 -1 2 0.18174414D-01 0.65551955D-01 0.30365405D+04 0.30365405D+04 0.30365405D+04 0.12669929D+01  3  4  5  3  5  2       -2 -.532015132007D-04 0.100000000000D+01
  </mgrwgt>
  </event>
  <event>
  6     66 0.91196180E-06 0.24123677E+02 0.78161638E-02 0.12881824E+00
       22 -1    0    0    0    0 0.00000000E+00 0.00000000E+00 0.62131627E+03 0.62131627E+03 0.00000000E+00 0.0000E+00 0.9000E+01
       -4 -1    0    0    0  501 0.00000000E+00 0.00000000E+00 -.13268268E+02 0.13268268E+02 0.00000000E+00 0.0000E+00 0.9000E+01
      -24  2    1    2    0    0 -.11679875E+02 -.21107636E+02 0.11740233E+03 0.14334618E+03 0.78631213E+02 0.0000E+00 0.0000E+00
  9900012  1    3    3    0    0 0.76775561E+01 0.18271511E+01 0.59425596E+02 0.78062057E+02 0.50000000E+02 0.0000E+00 0.9000E+01
       13  1    3    3    0    0 -.19357431E+02 -.22934787E+02 0.57976734E+02 0.65284119E+02 0.00000000E+00 0.0000E+00 0.9000E+01
       -3  1    1    2    0  501 0.11679875E+02 0.21107636E+02 0.49064567E+03 0.49123836E+03 0.00000000E+00 0.0000E+00 0.9000E+01
#aMCatNLO 1  0  0  2  5 0.12993477D+02 0.00000000D+00  -5  6  0 0.00000000D+00 0.00000000D+00 0.00000000D+00 0.00000000D+00 0.00000000D+00
  <mgrwgt>
 0.4767931567D-05    1    2    0
 0.907953235613053D+02 0.000000000000000D+00 0.000000000000000D+00 0.907953235613053D+02
 0.907953235613053D+02 0.000000000000000D+00 0.000000000000000D+00 -.907953235613053D+02
 0.738108483764173D+02 0.767755610522396D+01 0.182715109533782D+01 -.537192515693620D+02
 0.340086659000496D+02 -.193574314963229D+02 -.229347866636775D+02 -.159960858605460D+02
 0.737711328461436D+02 0.116798753910990D+02 0.211076355683397D+02 0.697153374299080D+02
 0.000000000000000D+00 0.000000000000000D+00 -.000000000000000D+00 0.000000000000000D+00
 0.102431108560820D+03 0.000000000000000D+00 0.000000000000000D+00 0.102431108560820D+03
 0.934352392680623D+02 0.000000000000000D+00 0.000000000000000D+00 -.934352392680623D+02
 0.736234837156828D+02 0.408234400463394D+01 0.424191380026076D+01 -.537192515693620D+02
 0.342603658265446D+02 -.210221838336937D+02 -.218166379301003D+02 -.159960858605460D+02
 0.740204552548245D+02 0.807595153994270D+01 0.235282496138160D+02 0.697153374299080D+02
 0.139620430318302D+02 0.886388828911702D+01 -.595352548397640D+01 0.899586929275740D+01
0.649859627709D-07 0.000000000000D+00 0.000000000000D+00 0.593678059694D-07 0.000000000000D+00  6 22 -4 9900012 13 -3 21 2 0.95587119D-01 0.20412720D-02 0.27433808D+04 0.27433808D+04 0.27433808D+04 0.12723120D+01  1  2 14  1  6  2       -4 0.476793156672D-05 0.100000000000D+01
  </mgrwgt>
  </event>
  <event>
  6     66 0.91196180E-06 0.87091407E+02 0.78161638E-02 0.11062820E+00
       22 -1    0    0    0    0 0.00000000E+00 0.00000000E+00 0.95906590E+03 0.95906590E+03 0.00000000E+00 0.0000E+00 0.9000E+01
       -2 -1    0    0    0  501 0.00000000E+00 0.00000000E+00 -.48171828E+02 0.48171828E+02 0.00000000E+00 0.0000E+00 0.9000E+01
      -24  2    1    2    0    0 -.13082475E+03 0.70299427E+00 0.84861325E+03 0.86234290E+03 0.79845035E+02 0.0000E+00 0.0000E+00
  9900012  1    3    3    0    0 -.78621972E+02 -.22207925E+02 0.49854094E+03 0.50765901E+03 0.50000000E+02 0.0000E+00 0.9000E+01
       13  1    3    3    0    0 -.52202777E+02 0.22910920E+02 0.35007231E+03 0.35468389E+03 0.00000000E+00 0.0000E+00 0.9000E+01
       -1  1    1    2    0  501 0.13082475E+03 -.70299427E+00 0.62280822E+02 0.14489482E+03 0.00000000E+00 0.0000E+00 0.9000E+01
#aMCatNLO 1  0  0  5  2 0.23068576D+02 0.00000000D+00  -5  6  0 0.00000000D+00 0.00000000D+00 0.00000000D+00 0.00000000D+00 0.00000000D+00
  <mgrwgt>
 0.2865119124D-04    7    2    0
 0.214941754496015D+03 0.000000000000000D+00 0.000000000000000D+00 0.214941754496015D+03
 0.214941754496015D+03 -.000000000000000D+00 -.000000000000000D+00 -.214941754496015D+03
 0.133094954449222D+03 -.786219715038748D+02 -.222079254650998D+02 0.924102837525177D+02
 0.892618665097671D+02 -.522027767859086D+02 0.229109197374543D+02 0.686850832818306D+02
 0.207526688033042D+03 0.130824748289783D+03 -.702994272354501D+00 -.161095367034348D+03
 0.000000000000000D+00 0.000000000000000D+00 0.000000000000000D+00 -.000000000000000D+00
 0.214941754496015D+03 0.000000000000000D+00 0.000000000000000D+00 0.214941754496015D+03
 0.214941754496015D+03 -.000000000000000D+00 -.000000000000000D+00 -.214941754496015D+03
 0.130432722355644D+03 -.767754563655278D+02 -.222178478198763D+02 0.901365164582165D+02
 0.873651458108750D+02 -.509651669225144D+02 0.229042693700219D+02 0.671611115731505D+02
 0.177724171105274D+03 0.127739813832443D+03 -.633196381649901D+01 -.123403108515693D+03
 0.343614697202374D+02 0.809455599103615D-03 0.564554226635336D+01 -.338945195156738D+02
0.129535116023D-05 0.000000000000D+00 0.000000000000D+00 0.356965142284D-05 0.000000000000D+00  6 22 -2 9900012 13 -1 21 0 0.14754860D+00 0.74110505D-02 0.20110066D+05 0.20110066D+05 0.20110066D+05 0.11790871D+01  1  2  2  2  6  5       -1 0.634373456389D-05 0.100000000000D+01
-.256742866082D-08 0.000000000000D+00 -.248724476454D-08 0.356965142284D-05 0.000000000000D+00  6 22 -2 9900012 13 -1 21 2 0.14754860D+00 0.74110505D-02 0.20110066D+05 0.20110066D+05 0.20110066D+05 0.11790871D+01  1  2  3  2  6  5       -1 -.174802500417D-07 0.100000000000D+01
-.203109238629D-06 0.000000000000D+00 0.000000000000D+00 0.356965142284D-05 0.000000000000D+00  6 22 -2 9900012 13 -1 21 2 0.14754860D+00 0.74110505D-02 0.20110066D+05 0.20110066D+05 0.20110066D+05 0.11790871D+01  1  2 15  2  6  5       -1 -.138286228989D-05 0.100000000000D+01
0.369564295345D-05 0.000000000000D+00 0.000000000000D+00 0.356965142284D-05 0.000000000000D+00  6 22 -2 9900012 13 -1 21 2 0.14754860D+00 0.74110505D-02 0.20120610D+05 0.20120610D+05 0.20120610D+05 0.11790653D+01  1  2 12  2  6  5       -1 0.251616610063D-04 0.100000000000D+01
-.859657551420D-06 0.000000000000D+00 0.000000000000D+00 0.356965142284D-05 0.000000000000D+00  6 22 -2 9900012 13 -1 21 2 0.14754860D+00 0.74110505D-02 0.20110066D+05 0.20110066D+05 0.20110066D+05 0.11790871D+01  1  2  4  2  6  5       -1 -.585294897513D-05 0.100000000000D+01
-.360835352424D-05 0.000000000000D+00 0.000000000000D+00 0.356965142284D-05 0.000000000000D+00  6 22 -2 9900012 13 -1 21 2 0.14754860D+00 0.74110505D-02 0.20110066D+05 0.20110066D+05 0.20110066D+05 0.11790871D+01  1  2  5  2  6  5       -1 -.245673512979D-04 0.100000000000D+01
0.425447371729D-05 0.000000000000D+00 -.000000000000D+00 0.356965142284D-05 0.000000000000D+00  6 22 -2 9900012 13 -1 21 2 0.14754860D+00 0.74110505D-02 0.20110066D+05 0.20110066D+05 0.20110066D+05 0.11790871D+01  1  2  6  2  6  5       -1 0.289664384873D-04 0.100000000000D+01
  </mgrwgt>
  </event>
  <event>
  6     66 0.91196180E-06 0.30554181E+02 0.78161638E-02 0.12750498E+00
       22 -1    0    0    0    0 0.00000000E+00 0.00000000E+00 0.57762081E+03 0.57762081E+03 0.00000000E+00 0.0000E+00 0.9000E+01
       -4 -1    0    0    0  501 0.00000000E+00 0.00000000E+00 -.20244719E+02 0.20244719E+02 0.00000000E+00 0.0000E+00 0.9000E+01
      -24  2    1    2    0    0 -.16234785E+02 0.26808443E+02 0.55990509E+03 0.56642261E+03 0.79740865E+02 0.0000E+00 0.0000E+00
  9900012  1    3    3    0    0 -.43186090E+01 0.36057663E+02 0.52170313E+03 0.52535032E+03 0.50000000E+02 0.0000E+00 0.9000E+01
       13  1    3    3    0    0 -.11916176E+02 -.92492199E+01 0.38201966E+02 0.41072296E+02 0.00000000E+00 0.0000E+00 0.9000E+01
       -3  1    1    2    0  501 0.16234785E+02 -.26808443E+02 -.25290039E+01 0.31442912E+02 0.00000000E+00 0.0000E+00 0.9000E+01
#aMCatNLO 1  0  0  2  5 0.39214023D+01 0.00000000D+00  -5  6  0 0.00000000D+00 0.00000000D+00 0.00000000D+00 0.00000000D+00 0.00000000D+00
  <mgrwgt>
 0.1821444309D-03    9    4    0
 0.108137741749419D+03 0.000000000000000D+00 0.000000000000000D+00 0.108137741749419D+03
 0.108137741749419D+03 0.000000000000000D+00 0.000000000000000D+00 -.108137741749419D+03
 0.107751452590683D+03 -.431860900963865D+01 0.360576633605127D+02 0.882698706502052D+02
 0.150865349894510D+02 -.119161756032696D+02 -.924921988039087D+01 -.245415126167089D+00
 0.934374959187037D+02 0.162347846129083D+02 -.268084434801218D+02 -.880244555240381D+02
 0.000000000000000D+00 0.000000000000000D+00 -.000000000000000D+00 -.000000000000000D+00
 0.108158779750522D+03 0.000000000000000D+00 0.000000000000000D+00 0.108158779750522D+03
 0.128562915536053D+04 0.000000000000000D+00 0.000000000000000D+00 -.128562915536053D+04
 0.108280801903367D+03 -.572346226488843D+01 0.374219718338669D+02 0.882698706502052D+02
 0.151271757922933D+02 -.121126547357229D+02 -.905841123597087D+01 -.245415126167089D+00
 0.929030521944663D+02 0.150230159063561D+02 -.256316470368515D+02 -.880244555240381D+02
 0.117747690522093D+04 0.281310109425523D+01 -.273191356104452D+01 -.117747037561001D+04
 0.108137741749419D+03 0.000000000000000D+00 0.000000000000000D+00 0.108137741749419D+03
 0.108137741749419D+03 0.000000000000000D+00 0.000000000000000D+00 -.108137741749419D+03
 0.107751452590683D+03 -.431860900963865D+01 0.360576633605127D+02 0.882698706502052D+02
 0.150865349894510D+02 -.119161756032696D+02 -.924921988039087D+01 -.245415126167089D+00
 0.000000000000000D+00 0.000000000000000D+00 -.000000000000000D+00 -.000000000000000D+00
 0.934374959187037D+02 0.162347846129083D+02 -.268084434801218D+02 -.880244555240381D+02
 0.108158779750522D+03 0.000000000000000D+00 0.000000000000000D+00 0.108158779750522D+03
 0.128562915536053D+04 0.000000000000000D+00 0.000000000000000D+00 -.128562915536053D+04
 0.108280801903367D+03 -.572346226488843D+01 0.374219718338669D+02 0.882698706502052D+02
 0.151271757922933D+02 -.121126547357229D+02 -.905841123597087D+01 -.245415126167089D+00
 0.117747690522093D+04 0.281310109425523D+01 -.273191356104452D+01 -.117747037561001D+04
 0.929030521944663D+02 0.150230159063561D+02 -.256316470368515D+02 -.880244555240381D+02
0.125635901591D-07 0.000000000000D+00 0.000000000000D+00 0.290424408502D-05 0.000000000000D+00  6 22 -4 9900012 13 -3 21 0 0.88864740D-01 0.31145722D-02 0.29280038D+04 0.29280038D+04 0.29280038D+04 0.12688918D+01  1  2  2  1  6  2       -4 0.354817169367D-06 0.100000000000D+01
0.632775524002D-09 0.000000000000D+00 -.241237471401D-10 0.290424408502D-05 0.000000000000D+00  6 22 -4 9900012 13 -3 21 2 0.88864740D-01 0.31145722D-02 0.29280038D+04 0.29280038D+04 0.29280038D+04 0.12688918D+01  1  2  3  1  6  2       -4 0.287733037550D-07 0.100000000000D+01
-.204122889491D-08 0.000000000000D+00 0.000000000000D+00 0.290424408502D-05 0.000000000000D+00  6 22 -4 9900012 13 -3 21 2 0.88864740D-01 0.31145722D-02 0.29280038D+04 0.29280038D+04 0.29280038D+04 0.12688918D+01  1  2 15  1  6  2       -4 -.928179058749D-07 0.100000000000D+01
0.124863345039D-04 0.000000000000D+00 0.000000000000D+00 0.290424408502D-05 0.000000000000D+00  6 22 -4 9900012 13 -3 21 2 0.88864740D-01 0.37035764D-01 0.31064600D+04 0.31064600D+04 0.31064600D+04 0.12658100D+01  1  2 12  1  6  2       -4 0.950283971439D-05 0.100000000000D+01
-.136818417820D-03 0.000000000000D+00 -.902130741433D-08 0.290424408502D-05 0.000000000000D+00  6 22 -4 9900012 13 -3 21 2 0.88864740D-01 0.37029115D-01 0.29280038D+04 0.29280038D+04 0.29280038D+04 0.12688918D+01  1  2  5  1  6  2       -4 -.104121366414D-03 0.100000000000D+01
0.157311593249D-03 0.000000000000D+00 0.000000000000D+00 0.290424408502D-05 0.122206219691D-04  6 22 -4 9900012 13 -3 21 2 0.88882028D-01 0.37028560D-01 0.31064600D+04 0.31064600D+04 0.31064600D+04 0.12658100D+01  1  2 11  1  6  2       -4 0.119725889965D-03 0.100000000000D+01
0.360247514448D-05 0.000000000000D+00 0.000000000000D+00 0.290424408502D-05 0.000000000000D+00  6 22 21 9900012 13 4 -3 2 0.88864740D-01 0.37035764D-01 0.31064600D+04 0.31064600D+04 0.31064600D+04 0.12658100D+01  3  4 12  3  5  2       -4 0.648645783162D-04 0.100000000000D+01
-.394737218492D-04 0.000000000000D+00 -.260264154809D-08 0.290424408502D-05 0.000000000000D+00  6 22 21 9900012 13 4 -3 2 0.88864740D-01 0.37029115D-01 0.29280038D+04 0.29280038D+04 0.29280038D+04 0.12688918D+01  3  4  5  3  5  2       -4 -.713131602779D-03 0.100000000000D+01
0.447086781982D-04 0.000000000000D+00 0.000000000000D+00 0.290424408502D-05 0.347312720046D-05  6 22 21 9900012 13 4 -3 2 0.88882028D-01 0.37028560D-01 0.31064600D+04 0.31064600D+04 0.31064600D+04 0.12658100D+01  3  4 11  3  5  2       -4 0.805013319481D-03 0.100000000000D+01
  </mgrwgt>
  </event>
  <event>
  5     66 0.91196180E-06 0.11713427E+03 0.78161638E-02 0.10402365E+00
       22 -1    0    0    0    0 0.00000000E+00 0.00000000E+00 0.74839432E+03 0.74839432E+03 0.00000000E+00 0.0000E+00 0.9000E+01
       -2 -1    0    0    0  501 0.00000000E+00 0.00000000E+00 -.11666361E+03 0.11666361E+03 0.00000000E+00 0.0000E+00 0.9000E+01
  9900012  1    1    2    0    0 0.98755340E+02 0.11912962E+02 0.16209412E+03 0.19664445E+03 0.50000000E+02 0.0000E+00 0.9000E+01
       13  1    1    2    0    0 0.68461096E+02 -.96720190E+02 0.46605794E+03 0.48088639E+03 0.00000000E+00 0.0000E+00 0.9000E+01
       -1  1    1    2    0  501 -.16721644E+03 0.84807228E+02 0.35786405E+01 0.18752709E+03 0.00000000E+00 0.0000E+00 0.9000E+01
#aMCatNLO 1  0  0  2  5 0.27640161D+02 0.00000000D+00  -5  6  0 0.00000000D+00 0.00000000D+00 0.00000000D+00 0.00000000D+00 0.00000000D+00
  <mgrwgt>
 0.9565559613D-04    9    4    0
 0.295483307958420D+03 0.000000000000000D+00 0.000000000000000D+00 0.295483307958420D+03
 0.295483307958420D+03 0.000000000000000D+00 0.000000000000000D+00 -.295483307958420D+03
 0.114573321730511D+03 0.987553395697400D+02 0.119129615027652D+02 0.270649276197476D+02
 0.205716315880998D+03 0.684610956279108D+02 -.967201898683046D+02 0.168159108813397D+03
 0.270676978305331D+03 -.167216435197651D+03 0.848072283655394D+02 -.195224036433144D+03
 0.000000000000000D+00 0.000000000000000D+00 -.000000000000000D+00 -.000000000000000D+00
 0.299676332716334D+03 0.000000000000000D+00 0.000000000000000D+00 0.299676332716334D+03
 0.340332006881319D+03 0.000000000000000D+00 0.000000000000000D+00 -.340332006881319D+03
 0.110387992915614D+03 0.937826462936068D+02 0.125624013247347D+02 0.270649276197476D+02
 0.202334035961048D+03 0.594412815140013D+02 -.955421911165114D+02 0.168159108813397D+03
 0.278832240960633D+03 -.179363149418785D+03 0.863936040945935D+02 -.195224036433144D+03
 0.484540697603593D+02 0.261392216111768D+02 -.341381430281684D+01 -.406556741649851D+02
 0.295483307958420D+03 0.000000000000000D+00 0.000000000000000D+00 0.295483307958420D+03
 0.295483307958420D+03 0.000000000000000D+00 0.000000000000000D+00 -.295483307958420D+03
 0.114573321730511D+03 0.987553395697400D+02 0.119129615027652D+02 0.270649276197476D+02
 0.205716315880998D+03 0.684610956279108D+02 -.967201898683046D+02 0.168159108813397D+03
 0.000000000000000D+00 0.000000000000000D+00 -.000000000000000D+00 -.000000000000000D+00
 0.270676978305331D+03 -.167216435197651D+03 0.848072283655394D+02 -.195224036433144D+03
 0.299676332716334D+03 0.000000000000000D+00 0.000000000000000D+00 0.299676332716334D+03
 0.340332006881319D+03 0.000000000000000D+00 0.000000000000000D+00 -.340332006881319D+03
 0.110387992915614D+03 0.937826462936068D+02 0.125624013247347D+02 0.270649276197476D+02
 0.202334035961048D+03 0.594412815140013D+02 -.955421911165114D+02 0.168159108813397D+03
 0.484540697603593D+02 0.261392216111768D+02 -.341381430281684D+01 -.406556741649851D+02
 0.278832240960633D+03 -.179363149418785D+03 0.863936040945935D+02 -.195224036433144D+03
0.918425453095D-05 0.000000000000D+00 0.000000000000D+00 0.152326592412D-08 0.000000000000D+00  6 22 -2 9900012 13 -1 21 0 0.11513759D+00 0.17948248D-01 0.43539296D+05 0.43539296D+05 0.43539296D+05 0.11482234D+01  1  2  2  1  6  2       -2 0.200273649764D-04 0.100000000000D+01
-.650459727007D-07 0.000000000000D+00 -.176349778343D-07 0.152326592412D-08 0.000000000000D+00  6 22 -2 9900012 13 -1 21 2 0.11513759D+00 0.17948248D-01 0.43539296D+05 0.43539296D+05 0.43539296D+05 0.11482234D+01  1  2  3  1  6  2       -2 -.187004954240D-06 0.100000000000D+01
-.128633679540D-05 0.000000000000D+00 0.000000000000D+00 0.152326592412D-08 0.000000000000D+00  6 22 -2 9900012 13 -1 21 2 0.11513759D+00 0.17948248D-01 0.43539296D+05 0.43539296D+05 0.43539296D+05 0.11482234D+01  1  2 15  1  6  2       -2 -.369817443839D-05 0.100000000000D+01
0.391846235923D-04 0.000000000000D+00 0.000000000000D+00 0.152326592412D-08 0.000000000000D+00  6 22 -2 9900012 13 -1 21 2 0.11513759D+00 0.20965798D-01 0.49503792D+05 0.49503792D+05 0.49503792D+05 0.11433284D+01  1  2 12  1  6  2       -2 0.871582089085D-04 0.100000000000D+01
-.122423426209D-04 0.000000000000D+00 0.000000000000D+00 0.152326592412D-08 0.000000000000D+00  6 22 -2 9900012 13 -1 21 2 0.11513759D+00 0.17948248D-01 0.43539296D+05 0.43539296D+05 0.43539296D+05 0.11482234D+01  1  2  4  1  6  2       -2 -.351963177204D-04 0.100000000000D+01
-.559146943081D-04 0.000000000000D+00 -.709198029105D-05 0.152326592412D-08 0.000000000000D+00  6 22 -2 9900012 13 -1 21 2 0.11513759D+00 0.20913577D-01 0.43539296D+05 0.43539296D+05 0.43539296D+05 0.11482234D+01  1  2  5  1  6  2       -2 -.125182628567D-03 0.100000000000D+01
0.564203597220D-04 0.000000000000D+00 0.700987416543D-05 0.152326592412D-08 0.000000000000D+00  6 22 -2 9900012 13 -1 21 2 0.11513759D+00 0.17948248D-01 0.43539296D+05 0.43539296D+05 0.43539296D+05 0.11482234D+01  1  2  6  1  6  2       -2 0.162206610955D-03 0.100000000000D+01
0.919714925833D-06 0.000000000000D+00 0.000000000000D+00 0.152326592412D-08 0.000000000000D+00  6 22 21 9900012 13 2 -1 2 0.11513759D+00 0.20965798D-01 0.49503792D+05 0.49503792D+05 0.49503792D+05 0.11433284D+01  3  4 12  3  5  2       -2 0.259193782596D-04 0.100000000000D+01
-.124445390677D-05 0.000000000000D+00 -.164302981956D-06 0.152326592412D-08 0.000000000000D+00  6 22 21 9900012 13 2 -1 2 0.11513759D+00 0.20913577D-01 0.43539296D+05 0.43539296D+05 0.43539296D+05 0.11482234D+01  3  4  5  3  5  2       -2 -.353918412872D-04 0.100000000000D+01
  </mgrwgt>
  </event>
  <event>
  6     66 0.91196180E-06 0.21926955E+02 0.78161638E-02 0.12755868E+00
       22 -1    0    0    0    0 0.00000000E+00 0.00000000E+00 0.35506606E+03 0.35506606E+03 0.00000000E+00 0.0000E+00 0.9000E+01
       -4 -1    0    0    0  501 0.00000000E+00 0.00000000E+00 -.10246031E+03 0.10246031E+03 0.00000000E+00 0.0000E+00 0.9000E+01
      -24  2    1    2    0    0 0.40860088E+01 -.21542885E+02 0.34813674E+03 0.35951125E+03 0.86996315E+02 0.0000E+00 0.0000E+00
  9900012  1    3    3    0    0 -.24372098E+02 -.38675873E+01 0.19944753E+03 0.20709484E+03 0.50000000E+02 0.0000E+00 0.9000E+01
       13  1    3    3    0    0 0.28458107E+02 -.17675297E+02 0.14868921E+03 0.15241641E+03 0.00000000E+00 0.0000E+00 0.9000E+01
       -3  1    1    2    0  501 -.40860088E+01 0.21542885E+02 -.95531000E+02 0.98015118E+02 0.00000000E+00 0.0000E+00 0.9000E+01
#aMCatNLO 1  0  0  2  5 0.31844351D+01 0.00000000D+00  -5  6  0 0.00000000D+00 0.00000000D+00 0.00000000D+00 0.00000000D+00 0.00000000D+00
  <mgrwgt>
 0.4993732725D-04    7    4    0
 0.190735889813482D+03 0.000000000000000D+00 0.000000000000000D+00 0.190735889813482D+03
 0.190735889813482D+03 0.000000000000000D+00 0.000000000000000D+00 -.190735889813482D+03
 0.116312039867418D+03 -.243720977514479D+02 -.386758728838357D+01 0.102076114923523D+03
 0.843437959364598D+02 0.284581065580018D+02 -.176752973942146D+02 0.774053999804320D+02
 0.180815943823087D+03 -.408600880655388D+01 0.215428846825981D+02 -.179481514903955D+03
 0.000000000000000D+00 0.000000000000000D+00 -.000000000000000D+00 -.000000000000000D+00
 0.247430362839992D+03 0.000000000000000D+00 0.000000000000000D+00 0.247430362839992D+03
 0.256805730434168D+03 0.000000000000000D+00 0.000000000000000D+00 -.256805730434168D+03
 0.126062097240097D+03 -.526755068005626D+02 0.140502706733789D+02 0.102076114923523D+03
 0.781886651719369D+02 0.947826495687563D+01 -.565985058511838D+01 0.774053999804320D+02
 0.192078322540349D+03 -.476309970586301D+02 0.491096316102698D+02 -.179481514903955D+03
 0.107907008321777D+03 0.908282389023171D+02 -.575000516985304D+02 -.937536759417538D+01
 0.190735889813482D+03 0.000000000000000D+00 0.000000000000000D+00 0.190735889813482D+03
 0.190735889813482D+03 0.000000000000000D+00 0.000000000000000D+00 -.190735889813482D+03
 0.116312039867418D+03 -.243720977514479D+02 -.386758728838357D+01 0.102076114923523D+03
 0.843437959364598D+02 0.284581065580018D+02 -.176752973942146D+02 0.774053999804320D+02
 0.000000000000000D+00 0.000000000000000D+00 -.000000000000000D+00 -.000000000000000D+00
 0.180815943823087D+03 -.408600880655388D+01 0.215428846825981D+02 -.179481514903955D+03
 0.247430362839992D+03 0.000000000000000D+00 0.000000000000000D+00 0.247430362839992D+03
 0.256805730434168D+03 0.000000000000000D+00 0.000000000000000D+00 -.256805730434168D+03
 0.126062097240097D+03 -.526755068005626D+02 0.140502706733789D+02 0.102076114923523D+03
 0.781886651719369D+02 0.947826495687563D+01 -.565985058511838D+01 0.774053999804320D+02
 0.107907008321777D+03 0.908282389023171D+02 -.575000516985304D+02 -.937536759417538D+01
 0.192078322540349D+03 -.476309970586301D+02 0.491096316102698D+02 -.179481514903955D+03
0.637934781488D-05 0.000000000000D+00 0.000000000000D+00 0.706957398938D-06 0.000000000000D+00  6 22 -4 9900012 13 -3 21 0 0.54625547D-01 0.15763125D-01 0.30905498D+04 0.30905498D+04 0.30905498D+04 0.12660765D+01  1  2  2  1  6  2       -4 0.336783193575D-04 0.100000000000D+01
0.885214915932D-06 0.000000000000D+00 -.122491876650D-07 0.706957398938D-06 0.000000000000D+00  6 22 -4 9900012 13 -3 21 2 0.54625547D-01 0.15763125D-01 0.30905498D+04 0.30905498D+04 0.30905498D+04 0.12660765D+01  1  2  3  1  6  2       -4 0.749105053170D-05 0.100000000000D+01
-.101655250786D-05 0.000000000000D+00 0.000000000000D+00 0.706957398938D-06 0.000000000000D+00  6 22 -4 9900012 13 -3 21 2 0.54625547D-01 0.15763125D-01 0.30905498D+04 0.30905498D+04 0.30905498D+04 0.12660765D+01  1  2 15  1  6  2       -4 -.860248293089D-05 0.100000000000D+01
-.655684108254D-08 0.000000000000D+00 0.000000000000D+00 0.706957398938D-06 0.000000000000D+00  6 22 -4 9900012 13 -3 21 2 0.54625547D-01 0.15763125D-01 0.30905498D+04 0.30905498D+04 0.30905498D+04 0.12660765D+01  1  2  4  1  6  2       -4 -.554866699528D-07 0.100000000000D+01
0.196890710742D-05 0.000000000000D+00 -.189270992093D-05 0.706957398938D-06 0.000000000000D+00  6 22 -4 9900012 13 -3 21 2 0.54625547D-01 0.27263282D-01 0.30905498D+04 0.30905498D+04 0.30905498D+04 0.12660765D+01  1  2  5  1  6  2       -4 0.633420369537D-05 0.100000000000D+01
-.588935922556D-06 0.000000000000D+00 0.164031312633D-05 0.706957398938D-06 0.000000000000D+00  6 22 -4 9900012 13 -3 21 2 0.54625547D-01 0.15763125D-01 0.30905498D+04 0.30905498D+04 0.30905498D+04 0.12660765D+01  1  2  6  1  6  2       -4 -.498381655844D-05 0.100000000000D+01
0.213683072110D-06 0.000000000000D+00 -.114934387051D-06 0.706957398938D-06 0.000000000000D+00  6 22 21 9900012 13 4 -3 2 0.54625547D-01 0.27263282D-01 0.30905498D+04 0.30905498D+04 0.30905498D+04 0.12660765D+01  3  4  5  3  5  2       -4 0.160755398264D-04 0.100000000000D+01
  </mgrwgt>
  </event>
  <event>
  6     66 0.91196180E-06 0.28740883E+02 0.78161638E-02 0.12515257E+00
       22 -1    0    0    0    0 0.00000000E+00 0.00000000E+00 0.32507398E+02 0.32507398E+02 0.00000000E+00 0.0000E+00 0.9000E+01
       -4 -1    0    0    0  501 -.00000000E+00 -.00000000E+00 -.23051917E+03 0.23051917E+03 0.00000000E+00 0.0000E+00 0.9000E+01
      -24  2    1    2    0    0 -.36914593E+02 -.10605885E+02 -.34937541E+02 0.95490373E+02 0.80141173E+02 0.0000E+00 0.0000E+00
  9900012  1    3    3    0    0 -.47468003E+02 0.14669512E+01 -.38620891E+02 0.79037564E+02 0.50000000E+02 0.0000E+00 0.9000E+01
       13  1    3    3    0    0 0.10553410E+02 -.12072836E+02 0.36833502E+01 0.16452809E+02 0.00000000E+00 0.0000E+00 0.9000E+01
       -3  1    1    2    0  501 0.36914593E+02 0.10605885E+02 -.16307423E+03 0.16753619E+03 0.00000000E+00 0.0000E+00 0.9000E+01
#aMCatNLO 1  0  0  5  2 0.13609701D+02 0.00000000D+00  -5  6  0 0.00000000D+00 0.00000000D+00 0.00000000D+00 0.00000000D+00 0.00000000D+00
  <mgrwgt>
 0.3307020051D-04    7    2    0
 0.865654570892381D+02 0.000000000000000D+00 0.000000000000000D+00 0.865654570892381D+02
 0.865654570892381D+02 -.000000000000000D+00 -.000000000000000D+00 -.865654570892381D+02
 0.759054966109090D+02 -.474680034066888D+02 0.146695119376560D+01 0.317219344070694D+02
 0.292083738720296D+02 0.105534101981906D+02 -.120728364797809D+02 0.244131369710953D+02
 0.680170436955375D+02 0.369145932084982D+02 0.106058852860153D+02 -.561350713781647D+02
 0.000000000000000D+00 0.000000000000000D+00 0.000000000000000D+00 -.000000000000000D+00
 0.865654570892381D+02 0.000000000000000D+00 0.000000000000000D+00 0.865654570892381D+02
 0.865654570892381D+02 -.000000000000000D+00 -.000000000000000D+00 -.865654570892381D+02
 0.742758797056068D+02 -.461529561858310D+02 0.184477575467394D+01 0.297221759594668D+02
 0.286973692919532D+02 0.110604556687222D+02 -.119271578841946D+02 0.236420859799736D+02
 0.358073290058873D+02 0.289403570186828D+02 0.721713886263755D-01 -.210859037619376D+02
 0.343503361750289D+02 0.615214349842596D+01 0.100102107408943D+02 -.322783581775027D+02
0.389855497684D-06 0.000000000000D+00 0.000000000000D+00 0.802841418848D-06 0.000000000000D+00  6 22 -4 9900012 13 -3 21 0 0.50011382D-02 0.35464487D-01 0.38070329D+04 0.38070329D+04 0.38070329D+04 0.12553979D+01  1  2  2  2  6  5       -3 0.164621895000D-04 0.100000000000D+01
0.959927268472D-08 0.000000000000D+00 -.748573881208D-09 0.802841418848D-06 0.000000000000D+00  6 22 -4 9900012 13 -3 21 2 0.50011382D-02 0.35464487D-01 0.38070329D+04 0.38070329D+04 0.38070329D+04 0.12553979D+01  1  2  3  2  6  5       -3 0.638829640310D-06 0.100000000000D+01
-.606239911915D-07 0.000000000000D+00 0.000000000000D+00 0.802841418848D-06 0.000000000000D+00  6 22 -4 9900012 13 -3 21 2 0.50011382D-02 0.35464487D-01 0.38070329D+04 0.38070329D+04 0.38070329D+04 0.12553979D+01  1  2 15  2  6  5       -3 -.403451425531D-05 0.100000000000D+01
0.298039562995D-06 0.000000000000D+00 0.000000000000D+00 0.802841418848D-06 0.000000000000D+00  6 22 -4 9900012 13 -3 21 2 0.50011382D-02 0.35464487D-01 0.39078817D+04 0.39078817D+04 0.39078817D+04 0.12540788D+01  1  2 12  2  6  5       -3 0.198576965102D-04 0.100000000000D+01
-.166597307035D-06 0.000000000000D+00 0.000000000000D+00 0.802841418848D-06 0.000000000000D+00  6 22 -4 9900012 13 -3 21 2 0.50011382D-02 0.35464487D-01 0.38070329D+04 0.38070329D+04 0.38070329D+04 0.12553979D+01  1  2  4  2  6  5       -3 -.110870168215D-04 0.100000000000D+01
-.278337608297D-06 0.000000000000D+00 0.000000000000D+00 0.802841418848D-06 0.000000000000D+00  6 22 -4 9900012 13 -3 21 2 0.50011382D-02 0.35464487D-01 0.38070329D+04 0.38070329D+04 0.38070329D+04 0.12553979D+01  1  2  5  2  6  5       -3 -.185233110917D-04 0.100000000000D+01
0.447128747945D-06 0.000000000000D+00 -.000000000000D+00 0.802841418848D-06 0.000000000000D+00  6 22 -4 9900012 13 -3 21 2 0.50011382D-02 0.35464487D-01 0.38070329D+04 0.38070329D+04 0.38070329D+04 0.12553979D+01  1  2  6  2  6  5       -3 0.297563270264D-04 0.100000000000D+01
  </mgrwgt>
  </event>
  <event>
  6     66 0.91196180E-06 0.60622539E+02 0.78161638E-02 0.11257664E+00
       22 -1    0    0    0    0 0.00000000E+00 0.00000000E+00 0.55070630E+02 0.55070630E+02 0.00000000E+00 0.0000E+00 0.9000E+01
       -2 -1    0    0    0  501 -.00000000E+00 -.00000000E+00 -.30571985E+03 0.30571985E+03 0.00000000E+00 0.0000E+00 0.9000E+01
      -24  2    1    2    0    0 -.67880130E+02 -.89454693E+02 -.89850017E+02 0.16466236E+03 0.80192357E+02 0.0000E+00 0.0000E+00
  9900012  1    3    3    0    0 -.20057318E+02 -.31273563E+02 -.34598899E+02 0.71255986E+02 0.50000000E+02 0.0000E+00 0.9000E+01
       13  1    3    3    0    0 -.47822811E+02 -.58181130E+02 -.55251118E+02 0.93406377E+02 0.00000000E+00 0.0000E+00 0.9000E+01
       -1  1    1    2    0  501 0.67880130E+02 0.89454693E+02 -.16079920E+03 0.19612811E+03 0.00000000E+00 0.0000E+00 0.9000E+01
#aMCatNLO 1  0  0  5  2 0.14925557D+02 0.00000000D+00  -5  6  0 0.00000000D+00 0.00000000D+00 0.00000000D+00 0.00000000D+00 0.00000000D+00
  <mgrwgt>
 0.2002789305D-04    5    2    0
 0.129754323509408D+03 0.000000000000000D+00 0.000000000000000D+00 0.129754323509408D+03
 0.129754323509408D+03 -.000000000000000D+00 -.000000000000000D+00 -.129754323509408D+03
 0.656482718641144D+02 -.200573184568134D+02 -.312735626914389D+02 0.207210967772289D+02
 0.764964174118348D+02 -.478228112695946D+02 -.581811303829349D+02 0.134028603843480D+02
 0.117363957742867D+03 0.678801297264080D+02 0.894546930743739D+02 -.341239571615769D+02
 0.000000000000000D+00 0.000000000000000D+00 -.000000000000000D+00 0.000000000000000D+00
 0.129754323509408D+03 0.000000000000000D+00 0.000000000000000D+00 0.129754323509408D+03
 0.129754323509408D+03 -.000000000000000D+00 -.000000000000000D+00 -.129754323509408D+03
 0.637145563430919D+02 -.182440266767603D+02 -.288839464621725D+02 0.198095385454847D+02
 0.729051405497771D+02 -.457286345981865D+02 -.554213546998391D+02 0.123500987689543D+02
 0.112456437350784D+03 0.571878005510435D+02 0.919909006790848D+02 -.302271394944301D+02
 0.104325127751631D+02 0.678486072390327D+01 -.768559951707321D+01 -.193249782000888D+01
0.361891454435D-06 0.000000000000D+00 0.000000000000D+00 0.220927189042D-06 0.000000000000D+00  6 22 -2 9900012 13 -1 21 0 0.84724046D-02 0.47033823D-01 0.15612381D+05 0.15612381D+05 0.15612381D+05 0.11897720D+01  1  2  2  2  6  5       -1 0.957528934082D-05 0.100000000000D+01
-.105706369744D-07 0.000000000000D+00 -.694879236619D-09 0.220927189042D-06 0.000000000000D+00  6 22 -2 9900012 13 -1 21 2 0.84724046D-02 0.47033823D-01 0.15612381D+05 0.15612381D+05 0.15612381D+05 0.11897720D+01  1  2  3  2  6  5       -1 -.395915214793D-06 0.100000000000D+01
-.557616103889D-07 0.000000000000D+00 0.000000000000D+00 0.220927189042D-06 0.000000000000D+00  6 22 -2 9900012 13 -1 21 2 0.84724046D-02 0.47033823D-01 0.15612381D+05 0.15612381D+05 0.15612381D+05 0.11897720D+01  1  2 15  2  6  5       -1 -.208850895247D-05 0.100000000000D+01
0.529965097959D-06 0.000000000000D+00 0.000000000000D+00 0.220927189042D-06 0.000000000000D+00  6 22 -2 9900012 13 -1 21 2 0.84724046D-02 0.47033823D-01 0.15747509D+05 0.15747509D+05 0.15747509D+05 0.11894031D+01  1  2 12  2  6  5       -1 0.198484857509D-04 0.100000000000D+01
-.184530701026D-06 0.000000000000D+00 0.000000000000D+00 0.220927189042D-06 0.000000000000D+00  6 22 -2 9900012 13 -1 21 2 0.84724046D-02 0.47033823D-01 0.15612381D+05 0.15612381D+05 0.15612381D+05 0.11897720D+01  1  2  4  2  6  5       -1 -.691145787237D-05 0.100000000000D+01
  </mgrwgt>
  </event>
  <event>
  6     66 0.91196180E-06 0.19004976E+02 0.78161638E-02 0.11983377E+00
       22 -1    0    0    0    0 0.00000000E+00 0.00000000E+00 0.75532564E+02 0.75532564E+02 0.00000000E+00 0.0000E+00 0.9000E+01
       -2 -1    0    0    0  501 0.00000000E+00 0.00000000E+00 -.44564805E+02 0.44564805E+02 0.00000000E+00 0.0000E+00 0.9000E+01
      -24  2    1    2    0    0 0.16121202E+02 -.10064590E+02 0.44200407E+01 0.87448165E+02 0.85243508E+02 0.0000E+00 0.0000E+00
  9900012  1    3    3    0    0 -.15645467E+02 0.34072996E+01 -.10510298E+01 0.52511856E+02 0.50000000E+02 0.0000E+00 0.9000E+01
       13  1    3    3    0    0 0.31766669E+02 -.13471889E+02 0.54710705E+01 0.34936309E+02 0.00000000E+00 0.0000E+00 0.9000E+01
       -1  1    1    2    0  501 -.16121202E+02 0.10064590E+02 0.26547719E+02 0.32649204E+02 0.00000000E+00 0.0000E+00 0.9000E+01
#aMCatNLO 1  0  0  2  2 0.58023550D+02 0.00000000D+00  -5  6  0 0.00000000D+00 0.00000000D+00 0.00000000D+00 0.00000000D+00 0.00000000D+00
  <mgrwgt>
 0.2672726363D-04    5    4    0
 0.580180485288232D+02 0.000000000000000D+00 0.000000000000000D+00 0.580180485288232D+02
 0.580180485288232D+02 0.000000000000000D+00 0.000000000000000D+00 -.580180485288232D+02
 0.546302736689232D+02 -.156454672013409D+02 0.340729961178750D+01 -.151022007187271D+02
 0.346989610418572D+02 0.317666694920573D+02 -.134718892283062D+02 -.366125762368168D+01
 0.267068623468660D+02 -.161212022907164D+02 0.100645896165187D+02 0.187634583424088D+02
 0.000000000000000D+00 -.000000000000000D+00 0.000000000000000D+00 -.000000000000000D+00
 0.753677340928054D+02 0.000000000000000D+00 0.000000000000000D+00 0.753677340928054D+02
 0.113270734369185D+03 0.000000000000000D+00 0.000000000000000D+00 -.113270734369185D+03
 0.576074641751115D+02 -.144328457477674D+02 -.195508676472217D+02 -.151022007187271D+02
 0.442074034418091D+02 0.326191773226174D+02 -.296121424837102D+02 -.366125762368168D+01
 0.243847632491963D+02 -.155692061218180D+02 -.386174168466232D+00 0.187634583424088D+02
 0.624388375958735D+02 -.261712545303201D+01 0.495491842993981D+02 -.379030002763796D+02
 0.580180485288232D+02 0.000000000000000D+00 0.000000000000000D+00 0.580180485288232D+02
 0.580180485288232D+02 0.000000000000000D+00 0.000000000000000D+00 -.580180485288232D+02
 0.546302736689232D+02 -.156454672013409D+02 0.340729961178750D+01 -.151022007187271D+02
 0.346989610418572D+02 0.317666694920573D+02 -.134718892283062D+02 -.366125762368168D+01
 0.000000000000000D+00 -.000000000000000D+00 0.000000000000000D+00 -.000000000000000D+00
 0.267068623468660D+02 -.161212022907164D+02 0.100645896165187D+02 0.187634583424088D+02
 0.753677340928054D+02 0.000000000000000D+00 0.000000000000000D+00 0.753677340928054D+02
 0.113270734369185D+03 0.000000000000000D+00 0.000000000000000D+00 -.113270734369185D+03
 0.576074641751115D+02 -.144328457477674D+02 -.195508676472217D+02 -.151022007187271D+02
 0.442074034418091D+02 0.326191773226174D+02 -.296121424837102D+02 -.366125762368168D+01
 0.624388375958735D+02 -.261712545303201D+01 0.495491842993981D+02 -.379030002763796D+02
 0.243847632491963D+02 -.155692061218180D+02 -.386174168466232D+00 0.187634583424088D+02
0.127642144143D-06 0.000000000000D+00 0.000000000000D+00 0.310358472372D-08 0.000000000000D+00  6 22 -2 9900012 13 -1 21 0 0.11620394D-01 0.68561238D-02 0.28096135D+04 0.28096135D+04 0.28096135D+04 0.12710561D+01  1  2  2  1  6  2       -2 0.408440871610D-04 0.100000000000D+01
-.419195091649D-08 0.000000000000D+00 -.245089721229D-09 0.310358472372D-08 0.000000000000D+00  6 22 -2 9900012 13 -1 21 2 0.11620394D-01 0.68561238D-02 0.28096135D+04 0.28096135D+04 0.28096135D+04 0.12710561D+01  1  2  3  1  6  2       -2 -.216710898155D-05 0.100000000000D+01
-.146879027986D-07 0.000000000000D+00 0.000000000000D+00 0.310358472372D-08 0.000000000000D+00  6 22 -2 9900012 13 -1 21 2 0.11620394D-01 0.68561238D-02 0.28096135D+04 0.28096135D+04 0.28096135D+04 0.12710561D+01  1  2 15  1  6  2       -2 -.759319150180D-05 0.100000000000D+01
-.260080591110D-07 0.000000000000D+00 -.337681261698D-07 0.310358472372D-08 0.000000000000D+00  6 22 -2 9900012 13 -1 21 2 0.11620394D-01 0.17210335D-01 0.28096135D+04 0.28096135D+04 0.28096135D+04 0.12710561D+01  1  2  5  1  6  2       -2 -.336983185724D-05 0.100000000000D+01
-.554313416234D-09 0.000000000000D+00 -.342330681423D-08 0.310358472372D-08 0.000000000000D+00  6 22 21 9900012 13 2 -1 2 0.11620394D-01 0.17210335D-01 0.28096135D+04 0.28096135D+04 0.28096135D+04 0.12710561D+01  3  4  5  3  5  2       -2 -.986691188024D-06 0.100000000000D+01
  </mgrwgt>
  </event>
  <event>
  6     66 0.91196180E-06 0.23014195E+02 0.78161638E-02 0.11505506E+00
       22 -1    0    0    0    0 0.00000000E+00 0.00000000E+00 0.10371163E+03 0.10371163E+03 0.00000000E+00 0.0000E+00 0.9000E+01
       -4 -1    0    0    0  501 0.00000000E+00 0.00000000E+00 -.27829615E+02 0.27829615E+02 0.00000000E+00 0.0000E+00 0.9000E+01
      -24  2    1    2    0    0 -.64450928E+01 0.22093301E+02 0.63747684E+02 0.10552404E+03 0.80882022E+02 0.0000E+00 0.0000E+00
  9900012  1    3    3    0    0 -.17164480E+02 -.23574889E+01 0.25140603E+02 0.58585212E+02 0.50000000E+02 0.0000E+00 0.9000E+01
       13  1    3    3    0    0 0.10719387E+02 0.24450790E+02 0.38607082E+02 0.46938823E+02 0.00000000E+00 0.0000E+00 0.9000E+01
       -3  1    1    2    0  501 0.64450928E+01 -.22093301E+02 0.12134326E+02 0.26017207E+02 0.00000000E+00 0.0000E+00 0.9000E+01
#aMCatNLO 1  0  0  2  2 0.47095488D+03 0.00000000D+00  -5  6  0 0.00000000D+00 0.00000000D+00 0.00000000D+00 0.00000000D+00 0.00000000D+00
  <mgrwgt>
 0.1952031650D-03    5    4    0
 0.537238743567700D+02 0.000000000000000D+00 0.000000000000000D+00 0.537238743567700D+02
 0.537238743567700D+02 0.000000000000000D+00 0.000000000000000D+00 -.537238743567700D+02
 0.539671800377971D+02 -.171644798853921D+02 -.235748894437131D+01 -.105961973072016D+02
 0.301989400325347D+02 0.107193871280918D+02 0.244507898316245D+02 0.141148714233058D+02
 0.232816286432081D+02 0.644509275730034D+01 -.220933008872532D+02 -.351867411610418D+01
 0.000000000000000D+00 -.000000000000000D+00 -.000000000000000D+00 -.000000000000000D+00
 0.826960308072198D+02 0.000000000000000D+00 0.000000000000000D+00 0.826960308072198D+02
 0.185623780954110D+03 0.000000000000000D+00 0.000000000000000D+00 -.185623780954110D+03
 0.559745797891062D+02 0.149188042979560D+02 0.172714638497482D+02 -.105961973072016D+02
 0.551782668464810D+02 0.356342256334299D+02 0.396939982918176D+02 0.141148714233058D+02
 0.247790062121418D+02 0.204701821184677D+02 -.135125765626983D+02 -.351867411610418D+01
 0.132387958913601D+03 -.710232120498536D+02 -.434528855788674D+02 -.102927750146890D+03
 0.537238743567700D+02 0.000000000000000D+00 0.000000000000000D+00 0.537238743567700D+02
 0.537238743567700D+02 0.000000000000000D+00 0.000000000000000D+00 -.537238743567700D+02
 0.539671800377971D+02 -.171644798853921D+02 -.235748894437131D+01 -.105961973072016D+02
 0.301989400325347D+02 0.107193871280918D+02 0.244507898316245D+02 0.141148714233058D+02
 0.000000000000000D+00 -.000000000000000D+00 -.000000000000000D+00 -.000000000000000D+00
 0.232816286432081D+02 0.644509275730034D+01 -.220933008872532D+02 -.351867411610418D+01
 0.826960308072198D+02 0.000000000000000D+00 0.000000000000000D+00 0.826960308072198D+02
 0.185623780954110D+03 0.000000000000000D+00 0.000000000000000D+00 -.185623780954110D+03
 0.559745797891062D+02 0.149188042979560D+02 0.172714638497482D+02 -.105961973072016D+02
 0.551782668464810D+02 0.356342256334299D+02 0.396939982918176D+02 0.141148714233058D+02
 0.132387958913601D+03 -.710232120498536D+02 -.434528855788674D+02 -.102927750146890D+03
 0.247790062121418D+02 0.204701821184677D+02 -.135125765626983D+02 -.351867411610418D+01
0.840653698383D-06 0.000000000000D+00 0.000000000000D+00 0.648169745076D-07 0.000000000000D+00  6 22 -4 9900012 13 -3 21 0 0.15955635D-01 0.42814793D-02 0.26331371D+04 0.26331371D+04 0.26331371D+04 0.12744796D+01  1  2  2  1  6  2       -4 0.228077137910D-03 0.100000000000D+01
0.201015271298D-08 0.000000000000D+00 -.161416577550D-08 0.648169745076D-07 0.000000000000D+00  6 22 -4 9900012 13 -3 21 2 0.15955635D-01 0.42814793D-02 0.26331371D+04 0.26331371D+04 0.26331371D+04 0.12744796D+01  1  2  3  1  6  2       -4 0.885848469338D-06 0.100000000000D+01
-.102938494516D-06 0.000000000000D+00 0.000000000000D+00 0.648169745076D-07 0.000000000000D+00  6 22 -4 9900012 13 -3 21 2 0.15955635D-01 0.42814793D-02 0.26331371D+04 0.26331371D+04 0.26331371D+04 0.12744796D+01  1  2 15  1  6  2       -4 -.453636717321D-04 0.100000000000D+01
0.112579287997D-06 0.000000000000D+00 -.308873701089D-06 0.648169745076D-07 0.000000000000D+00  6 22 -4 9900012 13 -3 21 2 0.15955635D-01 0.22364143D-01 0.26331371D+04 0.26331371D+04 0.26331371D+04 0.12744796D+01  1  2  5  1  6  2       -4 0.344131158132D-05 0.100000000000D+01
0.113669899511D-07 0.000000000000D+00 -.623733780199D-07 0.648169745076D-07 0.000000000000D+00  6 22 21 9900012 13 4 -3 2 0.15955635D-01 0.22364143D-01 0.26331371D+04 0.26331371D+04 0.26331371D+04 0.12744796D+01  3  4  5  3  5  2       -4 0.816253878625D-05 0.100000000000D+01
  </mgrwgt>
  </event>
  <event>
  7     66 -.91196180E-06 0.40801453E+02 0.78161638E-02 0.12497954E+00
       22 -1    0    0    0    0 0.00000000E+00 0.00000000E+00 0.28087153E+02 0.28087153E+02 0.00000000E+00 0.0000E+00 0.9000E+01
       -2 -1    0    0    0  501 -.00000000E+00 -.00000000E+00 -.39918498E+03 0.39918498E+03 0.00000000E+00 0.0000E+00 0.9000E+01
      -24  2    1    2    0    0 0.23317953E+01 -.44733945E+02 -.53446380E+02 0.10605823E+03 0.79907879E+02 0.0000E+00 0.0000E+00
  9900012  1    3    3    0    0 0.12900182E+02 -.27350811E+02 -.11663907E+02 0.59586309E+02 0.50000000E+02 0.0000E+00 0.9000E+01
       13  1    3    3    0    0 -.10568387E+02 -.17383134E+02 -.41782473E+02 0.46471918E+02 0.00000000E+00 0.0000E+00 0.9000E+01
       -1  1    1    2    0  502 -.76624097E+01 0.37884198E+02 -.27347606E+03 0.27619392E+03 0.00000000E+00 0.0000E+00 0.9000E+01
       21  1    1    2  502  501 0.53306144E+01 0.68497475E+01 -.44175383E+02 0.45019984E+02 0.00000000E+00 0.0000E+00 0.9000E+01
#aMCatNLO 2  0  0  5  2 0.58080215D+01 0.00000000D+00  -5  6  0 0.00000000D+00 0.00000000D+00 0.00000000D+00 0.00000000D+00 0.00000000D+00
  <mgrwgt>
 -.7711877349D-04    2    2    0
 0.105886589119738D+03 0.000000000000000D+00 0.000000000000000D+00 0.105886589119738D+03
 0.105886589119738D+03 -.000000000000000D+00 -.000000000000000D+00 -.105886589119738D+03
 0.100375914761202D+03 0.129184344485850D+02 -.277009680359718D+02 0.814929118722341D+02
 0.205864009033347D+02 -.105646361996743D+02 -.174550889525200D+02 -.274011565101963D+01
 0.908108625749399D+02 -.235379824891064D+01 0.451560569884918D+02 -.787527962212145D+02
 0.000000000000000D+00 0.000000000000000D+00 0.000000000000000D+00 0.000000000000000D+00
 0.105886589119738D+03 0.000000000000000D+00 0.000000000000000D+00 0.105886589119738D+03
 0.105886589119738D+03 -.000000000000000D+00 -.000000000000000D+00 -.105886589119738D+03
 0.997818474797518D+02 0.129001821958411D+02 -.273508106826584D+02 0.808822325408240D+02
 0.205444847838337D+02 -.105683868976874D+02 -.173831343007973D+02 -.286560557202259D+01
 0.780249576179532D+02 -.766240970084122D+01 0.378841975309344D+02 -.677788246157824D+02
 0.134218883579377D+02 0.533061440268759D+01 0.684974745252125D+01 -.102378023530190D+02
-.239931075388D-05 0.000000000000D+00 0.000000000000D+00 0.169761991602D-05 0.000000000000D+00  6 22 -2 9900012 13 -1 21 2 0.43211005D-02 0.61413074D-01 0.39758124D+04 0.39758124D+04 0.39758124D+04 0.12532116D+01  1  2 13  2  6  5       -1 -.137587304708D-03 0.100000000000D+01
0.105447808237D-05 0.000000000000D+00 0.000000000000D+00 0.169761991602D-05 0.169864333899D-06  6 22 -2 9900012 13 -1 21 2 0.43211005D-02 0.61413074D-01 0.39758124D+04 0.39758124D+04 0.39758124D+04 0.12532116D+01  1  2  1  2  6  5       -1 0.604685312199D-04 0.100000000000D+01
  </mgrwgt>
  </event>
  <event>
  6     66 0.91196180E-06 0.72577925E+02 0.78161638E-02 0.11790085E+00
       22 -1    0    0    0    0 0.00000000E+00 0.00000000E+00 0.62916333E+03 0.62916333E+03 0.00000000E+00 0.0000E+00 0.9000E+01
       -2 -1    0    0    0  501 0.00000000E+00 0.00000000E+00 -.13496537E+03 0.13496537E+03 0.00000000E+00 0.0000E+00 0.9000E+01
      -24  2    1    2    0    0 0.19274188E+02 -.76602576E+02 0.61210509E+03 0.62220779E+03 0.78933164E+02 0.0000E+00 0.0000E+00
  9900012  1    3    3    0    0 0.15989980E+02 -.41291016E+02 0.50468384E+03 0.50908388E+03 0.50000000E+02 0.0000E+00 0.9000E+01
       13  1    3    3    0    0 0.32842078E+01 -.35311559E+02 0.10742126E+03 0.11312391E+03 0.00000000E+00 0.0000E+00 0.9000E+01
       -1  1    1    2    0  501 -.19274188E+02 0.76602576E+02 -.11790714E+03 0.14192090E+03 0.00000000E+00 0.0000E+00 0.9000E+01
#aMCatNLO 1  0  0  2  5 0.46683672D+01 0.00000000D+00  -5  6  0 0.00000000D+00 0.00000000D+00 0.00000000D+00 0.00000000D+00 0.00000000D+00
  <mgrwgt>
 0.7601406374D-04    7    4    0
 0.291402235614285D+03 0.000000000000000D+00 0.000000000000000D+00 0.291402235614285D+03
 0.291402235614285D+03 0.000000000000000D+00 0.000000000000000D+00 -.291402235614285D+03
 0.239517530656038D+03 0.159899802027215D+02 -.412910163747759D+02 0.230017434103201D+03
 0.572299319550056D+02 0.328420779456325D+01 -.353115594417696D+02 0.449174004204058D+02
 0.286057008617526D+03 -.192741879972848D+02 0.766025758165456D+02 -.274934834523607D+03
 0.000000000000000D+00 0.000000000000000D+00 0.000000000000000D+00 0.000000000000000D+00
 0.293409415210468D+03 0.000000000000000D+00 0.000000000000000D+00 0.293409415210468D+03
 0.292126611373008D+03 0.000000000000000D+00 0.000000000000000D+00 -.292126611373008D+03
 0.239633712909028D+03 0.154926081734630D+02 -.421458831100903D+02 0.230017434103201D+03
 0.573496025623562D+02 0.316527111984989D+01 -.355159838983941D+02 0.449174004204058D+02
 0.285826121983607D+03 -.198678182486632D+02 0.755822636053096D+02 -.274934834523607D+03
 0.272658912848465D+01 0.120993895535034D+01 0.207960340317479D+01 0.128280383745928D+01
 0.291402235614285D+03 0.000000000000000D+00 0.000000000000000D+00 0.291402235614285D+03
 0.291402235614285D+03 0.000000000000000D+00 0.000000000000000D+00 -.291402235614285D+03
 0.239517530656038D+03 0.159899802027215D+02 -.412910163747759D+02 0.230017434103201D+03
 0.572299319550056D+02 0.328420779456325D+01 -.353115594417696D+02 0.449174004204058D+02
 0.000000000000000D+00 0.000000000000000D+00 0.000000000000000D+00 0.000000000000000D+00
 0.286057008617526D+03 -.192741879972848D+02 0.766025758165456D+02 -.274934834523607D+03
 0.293409415210468D+03 0.000000000000000D+00 0.000000000000000D+00 0.293409415210468D+03
 0.292126611373008D+03 0.000000000000000D+00 0.000000000000000D+00 -.292126611373008D+03
 0.239633712909028D+03 0.154926081734630D+02 -.421458831100903D+02 0.230017434103201D+03
 0.573496025623562D+02 0.316527111984989D+01 -.355159838983941D+02 0.449174004204058D+02
 0.272658912848465D+01 0.120993895535034D+01 0.207960340317479D+01 0.128280383745928D+01
 0.285826121983607D+03 -.198678182486632D+02 0.755822636053096D+02 -.274934834523607D+03
0.325719331557D-04 0.000000000000D+00 0.000000000000D+00 0.311833337330D-04 0.000000000000D+00  6 22 -2 9900012 13 -1 21 0 0.96794358D-01 0.20763904D-01 0.82121719D+04 0.82121719D+04 0.82121719D+04 0.12183019D+01  1  2  2  1  6  2       -2 0.719388650194D-04 0.100000000000D+01
0.516581594927D-06 0.000000000000D+00 -.625423998524D-07 0.311833337330D-04 0.000000000000D+00  6 22 -2 9900012 13 -1 21 2 0.96794358D-01 0.20763904D-01 0.82121719D+04 0.82121719D+04 0.82121719D+04 0.12183019D+01  1  2  3  1  6  2       -2 0.169343612585D-05 0.100000000000D+01
-.558310059769D-05 0.000000000000D+00 0.000000000000D+00 0.311833337330D-04 0.000000000000D+00  6 22 -2 9900012 13 -1 21 2 0.96794358D-01 0.20763904D-01 0.82121719D+04 0.82121719D+04 0.82121719D+04 0.12183019D+01  1  2 15  1  6  2       -2 -.183022862976D-04 0.100000000000D+01
-.250436016504D-05 0.000000000000D+00 0.000000000000D+00 0.311833337330D-04 0.000000000000D+00  6 22 -2 9900012 13 -1 21 2 0.96794358D-01 0.20763904D-01 0.82121719D+04 0.82121719D+04 0.82121719D+04 0.12183019D+01  1  2  4  1  6  2       -2 -.820968849312D-05 0.100000000000D+01
0.248324766528D-05 0.000000000000D+00 0.000000000000D+00 0.311833337330D-04 0.341603209126D-06  6 22 -2 9900012 13 -1 21 2 0.97461078D-01 0.20815519D-01 0.84103603D+04 0.84103603D+04 0.84103603D+04 0.12172041D+01  1  2 11  1  6  2       -2 0.799925097709D-05 0.100000000000D+01
0.120459657636D-06 0.000000000000D+00 0.000000000000D+00 0.311833337330D-04 0.000000000000D+00  6 22 21 9900012 13 2 -1 2 0.96794358D-01 0.20958896D-01 0.84103603D+04 0.84103603D+04 0.84103603D+04 0.12172041D+01  3  4 12  3  5  2       -2 0.507601140861D-05 0.100000000000D+01
0.375714867168D-06 0.000000000000D+00 0.000000000000D+00 0.311833337330D-04 0.278574506869D-07  6 22 21 9900012 13 2 -1 2 0.97461078D-01 0.20815519D-01 0.84103603D+04 0.84103603D+04 0.84103603D+04 0.12172041D+01  3  4 11  3  5  2       -2 0.158184750023D-04 0.100000000000D+01
  </mgrwgt>
  </event>
  <event>
  6     66 0.91196180E-06 0.40164292E+02 0.78161638E-02 0.11505135E+00
       22 -1    0    0    0    0 0.00000000E+00 0.00000000E+00 0.30955982E+02 0.30955982E+02 0.00000000E+00 0.0000E+00 0.9000E+01
       -2 -1    0    0    0  501 0.00000000E+00 0.00000000E+00 -.16098826E+03 0.16098826E+03 0.00000000E+00 0.0000E+00 0.9000E+01
      -24  2    1    2    0    0 0.71747709E+01 0.39518262E+02 -.48552054E+02 0.10110264E+03 0.79064979E+02 0.0000E+00 0.0000E+00
  9900012  1    3    3    0    0 -.59554590E+01 0.11608158E+02 -.47579950E+02 0.70242925E+02 0.50000000E+02 0.0000E+00 0.9000E+01
       13  1    3    3    0    0 0.13130230E+02 0.27910104E+02 -.97210342E+00 0.30859712E+02 0.00000000E+00 0.0000E+00 0.9000E+01
       -1  1    1    2    0  501 -.71747709E+01 -.39518262E+02 -.81480228E+02 0.90841609E+02 0.00000000E+00 0.0000E+00 0.9000E+01
#aMCatNLO 1  0  0  2  5 0.65162915D+01 0.00000000D+00  -5  6  0 0.00000000D+00 0.00000000D+00 0.00000000D+00 0.00000000D+00 0.00000000D+00
  <mgrwgt>
 0.2322668090D-04    5    4    0
 0.705942621145306D+02 0.000000000000000D+00 0.000000000000000D+00 0.705942621145306D+02
 0.705942621145306D+02 0.000000000000000D+00 0.000000000000000D+00 -.705942621145306D+02
 0.516741414337461D+02 -.595545901076608D+01 0.116081581023258D+02 0.814599842821551D-02
 0.410581483370913D+02 0.131302299054560D+02 0.279101041641234D+02 0.270997175824443D+02
 0.484562344582237D+02 -.717477089468992D+01 -.395182622664492D+02 -.271078635808726D+02
 0.000000000000000D+00 0.000000000000000D+00 -.000000000000000D+00 -.000000000000000D+00
 0.856513442277932D+02 0.000000000000000D+00 0.000000000000000D+00 0.856513442277932D+02
 0.306714974587387D+03 0.000000000000000D+00 0.000000000000000D+00 -.306714974587387D+03
 0.627878469652984D+02 -.332388317829955D+02 0.183710022013546D+02 0.814599842821551D-02
 0.431766971207615D+02 -.694814476881198D+01 0.328870151500766D+02 0.270997175824443D+02
 0.533462744677623D+02 -.314406065579036D+02 -.335033877532070D+02 -.271078635808726D+02
 0.233055500261358D+03 0.716275831097111D+02 -.177546295982241D+02 -.221063630359594D+03
 0.705942621145306D+02 0.000000000000000D+00 0.000000000000000D+00 0.705942621145306D+02
 0.705942621145306D+02 0.000000000000000D+00 0.000000000000000D+00 -.705942621145306D+02
 0.516741414337461D+02 -.595545901076608D+01 0.116081581023258D+02 0.814599842821551D-02
 0.410581483370913D+02 0.131302299054560D+02 0.279101041641234D+02 0.270997175824443D+02
 0.000000000000000D+00 0.000000000000000D+00 -.000000000000000D+00 -.000000000000000D+00
 0.484562344582237D+02 -.717477089468992D+01 -.395182622664492D+02 -.271078635808726D+02
 0.856513442277932D+02 0.000000000000000D+00 0.000000000000000D+00 0.856513442277932D+02
 0.306714974587387D+03 0.000000000000000D+00 0.000000000000000D+00 -.306714974587387D+03
 0.627878469652984D+02 -.332388317829955D+02 0.183710022013546D+02 0.814599842821551D-02
 0.431766971207615D+02 -.694814476881198D+01 0.328870151500766D+02 0.270997175824443D+02
 0.233055500261358D+03 0.716275831097111D+02 -.177546295982241D+02 -.221063630359594D+03
 0.533462744677623D+02 -.314406065579036D+02 -.335033877532070D+02 -.271078635808726D+02
0.261284805563D-06 0.000000000000D+00 0.000000000000D+00 0.185537331405D-06 0.000000000000D+00  6 22 -2 9900012 13 -1 21 0 0.47624588D-02 0.24767425D-01 0.37627692D+04 0.37627692D+04 0.37627692D+04 0.12559893D+01  1  2  2  1  6  2       -2 0.416085394575D-04 0.100000000000D+01
-.774106474146D-09 0.000000000000D+00 -.501701225616D-09 0.185537331405D-06 0.000000000000D+00  6 22 -2 9900012 13 -1 21 2 0.47624588D-02 0.24767425D-01 0.37627692D+04 0.37627692D+04 0.37627692D+04 0.12559893D+01  1  2  3  1  6  2       -2 -.194464767650D-06 0.100000000000D+01
-.347372726805D-07 0.000000000000D+00 0.000000000000D+00 0.185537331405D-06 0.000000000000D+00  6 22 -2 9900012 13 -1 21 2 0.47624588D-02 0.24767425D-01 0.37627692D+04 0.37627692D+04 0.37627692D+04 0.12559893D+01  1  2 15  1  6  2       -2 -.872641669616D-05 0.100000000000D+01
-.276577430938D-06 0.000000000000D+00 -.897915212498D-07 0.185537331405D-06 0.000000000000D+00  6 22 -2 9900012 13 -1 21 2 0.47624588D-02 0.12086270D+00 0.37627692D+04 0.37627692D+04 0.37627692D+04 0.12559893D+01  1  2  5  1  6  2       -2 -.313144570409D-05 0.100000000000D+01
-.554869559368D-07 0.000000000000D+00 -.173206005388D-07 0.185537331405D-06 0.000000000000D+00  6 22 21 9900012 13 2 -1 2 0.47624588D-02 0.12086270D+00 0.37627692D+04 0.37627692D+04 0.37627692D+04 0.12559893D+01  3  4  5  3  5  2       -2 -.632953139116D-05 0.100000000000D+01
  </mgrwgt>
  </event>
  <event>
  7     66 -.91196180E-06 0.38054129E+02 0.78161638E-02 0.12130781E+00
       22 -1    0    0    0    0 0.00000000E+00 0.00000000E+00 0.52088654E+03 0.52088654E+03 0.00000000E+00 0.0000E+00 0.9000E+01
       -2 -1    0    0    0  502 0.00000000E+00 0.00000000E+00 -.83390165E+02 0.83390165E+02 0.00000000E+00 0.0000E+00 0.9000E+01
      -24  2    1    2    0    0 -.43418903E+02 0.17228200E+01 0.50236039E+03 0.51000042E+03 0.76461145E+02 0.0000E+00 0.0000E+00
  9900012  1    3    3    0    0 -.15964719E+02 0.15963297E+02 0.37187467E+03 0.37589955E+03 0.50000000E+02 0.0000E+00 0.9000E+01
       13  1    3    3    0    0 -.27454184E+02 -.14240477E+02 0.13048571E+03 0.13410088E+03 0.00000000E+00 0.0000E+00 0.9000E+01
       -1  1    1    2    0  501 0.44308385E+02 0.17227090E+02 -.55635264E+02 0.73179835E+02 0.00000000E+00 0.0000E+00 0.9000E+01
       21  1    1    2  501  502 -.88948265E+00 -.18949910E+02 -.92287469E+01 0.21096446E+02 0.00000000E+00 0.0000E+00 0.9000E+01
#aMCatNLO 2  0  0  2  5 0.19556025D+02 0.00000000D+00  -5  6  0 0.00000000D+00 0.00000000D+00 0.00000000D+00 0.00000000D+00 0.00000000D+00
  <mgrwgt>
 -.7615933380D-04    2    2    0
 0.187200420432052D+03 0.000000000000000D+00 0.000000000000000D+00 0.187200420432052D+03
 0.187200420432052D+03 0.000000000000000D+00 0.000000000000000D+00 -.187200420432052D+03
 0.141033698673467D+03 -.163002631098429D+02 0.881471891105769D+01 0.130564567607706D+03
 0.539742719645105D+02 -.275813170707117D+02 -.169489759256189D+02 0.431882530072310D+02
 0.179392870226127D+03 0.438815801805546D+02 0.813425701456124D+01 -.173752820614937D+03
 0.000000000000000D+00 -.000000000000000D+00 -.000000000000000D+00 -.000000000000000D+00
 0.189600473055319D+03 0.000000000000000D+00 0.000000000000000D+00 0.189600473055319D+03
 0.229096551441986D+03 0.000000000000000D+00 0.000000000000000D+00 -.229096551441986D+03
 0.141622051303606D+03 -.159647186980769D+02 0.159632972078218D+02 0.130564567607706D+03
 0.531201336624202D+02 -.274541838730235D+02 -.142404771817171D+02 0.431882530072310D+02
 0.180138969410006D+03 0.443083852239745D+02 0.172270899253617D+02 -.173752820614937D+03
 0.438158701212718D+02 -.889482652874004D+00 -.189499099514663D+02 -.394960783866666D+02
-.859687945546D-05 0.000000000000D+00 0.000000000000D+00 0.187844881482D-05 0.000000000000D+00  6 22 -2 9900012 13 -1 21 2 0.79121986D-01 0.12993737D-01 0.57987256D+04 0.57987256D+04 0.57987256D+04 0.12346655D+01  1  2 13  1  6  2       -2 -.858869272539D-04 0.100000000000D+01
0.977235803920D-06 0.000000000000D+00 0.000000000000D+00 0.187844881482D-05 0.710392453677D-08  6 22 -2 9900012 13 -1 21 2 0.80136391D-01 0.12829256D-01 0.57987256D+04 0.57987256D+04 0.57987256D+04 0.12346655D+01  1  2  1  1  6  2       -2 0.972759345296D-05 0.100000000000D+01
  </mgrwgt>
  </event>
  <event>
  6     66 0.91196180E-06 0.29363764E+02 0.78161638E-02 0.12656566E+00
       22 -1    0    0    0    0 0.00000000E+00 0.00000000E+00 0.30835043E+03 0.30835043E+03 0.00000000E+00 0.0000E+00 0.9000E+01
       -2 -1    0    0    0  501 0.00000000E+00 0.00000000E+00 -.11230003E+02 0.11230003E+02 0.00000000E+00 0.0000E+00 0.9000E+01
      -24  2    1    2    0    0 0.21378474E+02 0.20129368E+02 0.23153071E+03 0.24771777E+03 0.83038518E+02 0.0000E+00 0.0000E+00
  9900012  1    3    3    0    0 0.20253714E+01 0.76723182E+00 0.84896710E+02 0.98550201E+02 0.50000000E+02 0.0000E+00 0.9000E+01
       13  1    3    3    0    0 0.19353103E+02 0.19362137E+02 0.14663400E+03 0.14916757E+03 0.00000000E+00 0.0000E+00 0.9000E+01
       -1  1    1    2    0  501 -.21378474E+02 -.20129368E+02 0.65589714E+02 0.71862656E+02 0.00000000E+00 0.0000E+00 0.9000E+01
#aMCatNLO 1  0  0  2  5 0.13174142D+02 0.00000000D+00  -5  6  0 0.00000000D+00 0.00000000D+00 0.00000000D+00 0.00000000D+00 0.00000000D+00
  <mgrwgt>
 0.6092327249D-04    9    4    0
 0.588453578851560D+02 0.000000000000000D+00 0.000000000000000D+00 0.588453578851560D+02
 0.588453578851560D+02 0.000000000000000D+00 0.000000000000000D+00 -.588453578851560D+02
 0.532766675718823D+02 0.202537138667050D+01 0.767231820645303D+00 -.182678004599433D+02
 0.348632499973524D+02 0.193531029347001D+02 0.193621365390699D+02 0.215872943144621D+02
 0.295507982010774D+02 -.213784743213706D+02 -.201293683597152D+02 -.331949385451883D+01
 0.000000000000000D+00 -.000000000000000D+00 0.000000000000000D+00 -.000000000000000D+00
 0.635678164142944D+02 0.000000000000000D+00 0.000000000000000D+00 0.635678164142944D+02
 0.640524643362412D+02 0.000000000000000D+00 0.000000000000000D+00 -.640524643362412D+02
 0.534915373135453D+02 0.444350983416851D+01 -.280842498132921D+01 -.182678004599433D+02
 0.345564833815820D+02 0.209253549593436D+02 0.170372764169576D+02 0.215872943144621D+02
 0.300280624184854D+02 -.200291031890481D+02 -.221246586098120D+02 -.331949385451883D+01
 0.954419763692288D+01 -.533976160446399D+01 0.789580717418359D+01 -.484647921946781D+00
 0.588453578851560D+02 0.000000000000000D+00 0.000000000000000D+00 0.588453578851560D+02
 0.588453578851560D+02 0.000000000000000D+00 0.000000000000000D+00 -.588453578851560D+02
 0.532766675718823D+02 0.202537138667050D+01 0.767231820645303D+00 -.182678004599433D+02
 0.348632499973524D+02 0.193531029347001D+02 0.193621365390699D+02 0.215872943144621D+02
 0.000000000000000D+00 -.000000000000000D+00 0.000000000000000D+00 -.000000000000000D+00
 0.295507982010774D+02 -.213784743213706D+02 -.201293683597152D+02 -.331949385451883D+01
 0.635678164142944D+02 0.000000000000000D+00 0.000000000000000D+00 0.635678164142944D+02
 0.640524643362412D+02 0.000000000000000D+00 0.000000000000000D+00 -.640524643362412D+02
 0.534915373135453D+02 0.444350983416851D+01 -.280842498132921D+01 -.182678004599433D+02
 0.345564833815820D+02 0.209253549593436D+02 0.170372764169576D+02 0.215872943144621D+02
 0.954419763692288D+01 -.533976160446399D+01 0.789580717418359D+01 -.484647921946781D+00
 0.300280624184854D+02 -.200291031890481D+02 -.221246586098120D+02 -.331949385451883D+01
0.142873797138D-06 0.000000000000D+00 0.000000000000D+00 0.176603441840D-07 0.000000000000D+00  6 22 -2 9900012 13 -1 21 0 0.47438527D-01 0.17276927D-02 0.28508369D+04 0.28508369D+04 0.28508369D+04 0.12702911D+01  1  2  2  1  6  2       -2 0.394590261321D-04 0.100000000000D+01
-.225078616098D-08 0.000000000000D+00 -.274336500273D-09 0.176603441840D-07 0.000000000000D+00  6 22 -2 9900012 13 -1 21 2 0.47438527D-01 0.17276927D-02 0.28508369D+04 0.28508369D+04 0.28508369D+04 0.12702911D+01  1  2  3  1  6  2       -2 -.100307759297D-05 0.100000000000D+01
-.186177800989D-07 0.000000000000D+00 0.000000000000D+00 0.176603441840D-07 0.000000000000D+00  6 22 -2 9900012 13 -1 21 2 0.47438527D-01 0.17276927D-02 0.28508369D+04 0.28508369D+04 0.28508369D+04 0.12702911D+01  1  2 15  1  6  2       -2 -.829713562839D-05 0.100000000000D+01
0.111005671482D-06 0.000000000000D+00 0.000000000000D+00 0.176603441840D-07 0.000000000000D+00  6 22 -2 9900012 13 -1 21 2 0.47438527D-01 0.20314925D-02 0.34009612D+04 0.34009612D+04 0.34009612D+04 0.12611388D+01  1  2 12  1  6  2       -2 0.397744278153D-04 0.100000000000D+01
-.272776510654D-07 0.000000000000D+00 0.000000000000D+00 0.176603441840D-07 0.000000000000D+00  6 22 -2 9900012 13 -1 21 2 0.47438527D-01 0.17276927D-02 0.28508369D+04 0.28508369D+04 0.28508369D+04 0.12702911D+01  1  2  4  1  6  2       -2 -.121564638379D-04 0.100000000000D+01
-.403053889838D-06 0.000000000000D+00 -.106449310375D-06 0.176603441840D-07 0.000000000000D+00  6 22 -2 9900012 13 -1 21 2 0.47438527D-01 0.20316076D-02 0.28508369D+04 0.28508369D+04 0.28508369D+04 0.12702911D+01  1  2  5  1  6  2       -2 -.143245528464D-03 0.100000000000D+01
0.416209196362D-06 0.000000000000D+00 0.105066910974D-06 0.176603441840D-07 0.000000000000D+00  6 22 -2 9900012 13 -1 21 2 0.47438527D-01 0.17276927D-02 0.28508369D+04 0.28508369D+04 0.28508369D+04 0.12702911D+01  1  2  6  1  6  2       -2 0.185486354101D-03 0.100000000000D+01
0.269353145573D-08 0.000000000000D+00 0.000000000000D+00 0.176603441840D-07 0.000000000000D+00  6 22 21 9900012 13 2 -1 2 0.47438527D-01 0.20314925D-02 0.34009612D+04 0.34009612D+04 0.34009612D+04 0.12611388D+01  3  4 12  3  5  2       -2 0.171028313500D-04 0.100000000000D+01
-.893460743352D-08 0.000000000000D+00 -.258369320948D-08 0.176603441840D-07 0.000000000000D+00  6 22 21 9900012 13 2 -1 2 0.47438527D-01 0.20316076D-02 0.28508369D+04 0.28508369D+04 0.28508369D+04 0.12702911D+01  3  4  5  3  5  2       -2 -.561971613871D-04 0.100000000000D+01
  </mgrwgt>
  </event>
  <event>
  6     66 0.91196180E-06 0.22940723E+02 0.78161638E-02 0.12825801E+00
       22 -1    0    0    0    0 0.00000000E+00 0.00000000E+00 0.44352365E+02 0.44352365E+02 0.00000000E+00 0.0000E+00 0.9000E+01
       -2 -1    0    0    0  501 -.00000000E+00 -.00000000E+00 -.72923943E+02 0.72923943E+02 0.00000000E+00 0.0000E+00 0.9000E+01
      -24  2    1    2    0    0 0.16196801E+02 0.16246243E+02 -.63687279E+01 0.85350718E+02 0.81962843E+02 0.0000E+00 0.0000E+00
  9900012  1    3    3    0    0 -.11606674E+02 -.19772081E+01 -.83794381E+01 0.52046510E+02 0.50000000E+02 0.0000E+00 0.9000E+01
       13  1    3    3    0    0 0.27803474E+02 0.18223451E+02 0.20107102E+01 0.33304208E+02 0.00000000E+00 0.0000E+00 0.9000E+01
       -1  1    1    2    0  501 -.16196801E+02 -.16246243E+02 -.22202850E+02 0.31925590E+02 0.00000000E+00 0.0000E+00 0.9000E+01
#aMCatNLO 1  0  0  5  2 0.85953891D+01 0.00000000D+00  -5  6  0 0.00000000D+00 0.00000000D+00 0.00000000D+00 0.00000000D+00 0.00000000D+00
  <mgrwgt>
 0.8394572223D-04    7    2    0
 0.568713403479207D+02 0.000000000000000D+00 0.000000000000000D+00 0.568713403479207D+02
 0.568713403479207D+02 -.000000000000000D+00 -.000000000000000D+00 -.568713403479207D+02
 0.515585596017280D+02 -.116066735514890D+02 -.197720807385896D+01 0.443405519888627D+01
 0.348439454503132D+02 0.278034741809341D+02 0.182234508530750D+02 0.104390228000563D+02
 0.273401756438003D+02 -.161968006294451D+02 -.162462427792160D+02 -.148730779989426D+02
 0.000000000000000D+00 0.000000000000000D+00 -.000000000000000D+00 0.000000000000000D+00
 0.568713403479207D+02 0.000000000000000D+00 0.000000000000000D+00 0.568713403479207D+02
 0.568713403479207D+02 -.000000000000000D+00 -.000000000000000D+00 -.568713403479207D+02
 0.519755809830471D+02 -.133956837152160D+02 -.377167934749771D+01 0.279125620945870D+01
 0.329778085108332D+02 0.266315534360187D+02 0.170479527176418D+02 0.936288010703472D+01
 0.190263316605437D+02 -.728672740566958D+01 -.670534903273677D+01 -.162463286474714D+02
 0.976295954141751D+01 -.594914231513317D+01 -.657092433740738D+01 0.409219233097794D+01
0.163916726184D-06 0.000000000000D+00 0.000000000000D+00 0.314944013127D-07 0.000000000000D+00  6 22 -2 9900012 13 -1 21 0 0.68234408D-02 0.11219068D-01 0.28918431D+04 0.28918431D+04 0.28918431D+04 0.12695423D+01  1  2  2  2  6  5       -1 0.531934043948D-04 0.100000000000D+01
0.436188420418D-08 0.000000000000D+00 -.314741694406D-09 0.314944013127D-07 0.000000000000D+00  6 22 -2 9900012 13 -1 21 2 0.68234408D-02 0.11219068D-01 0.28918431D+04 0.28918431D+04 0.28918431D+04 0.12695423D+01  1  2  3  2  6  5       -1 0.228140818521D-05 0.100000000000D+01
-.221147522844D-07 0.000000000000D+00 0.000000000000D+00 0.314944013127D-07 0.000000000000D+00  6 22 -2 9900012 13 -1 21 2 0.68234408D-02 0.11219068D-01 0.28918431D+04 0.28918431D+04 0.28918431D+04 0.12695423D+01  1  2 15  2  6  5       -1 -.115667391691D-04 0.100000000000D+01
0.701413803838D-07 0.000000000000D+00 0.000000000000D+00 0.314944013127D-07 0.000000000000D+00  6 22 -2 9900012 13 -1 21 2 0.68234408D-02 0.11219068D-01 0.26156933D+04 0.26156933D+04 0.26156933D+04 0.12748319D+01  1  2 12  2  6  5       -1 0.365475102699D-04 0.100000000000D+01
-.210768975098D-07 0.000000000000D+00 0.000000000000D+00 0.314944013127D-07 0.000000000000D+00  6 22 -2 9900012 13 -1 21 2 0.68234408D-02 0.11219068D-01 0.28918431D+04 0.28918431D+04 0.28918431D+04 0.12695423D+01  1  2  4  2  6  5       -1 -.110239071573D-04 0.100000000000D+01
-.638000008174D-07 0.000000000000D+00 0.000000000000D+00 0.314944013127D-07 0.000000000000D+00  6 22 -2 9900012 13 -1 21 2 0.68234408D-02 0.11219068D-01 0.28918431D+04 0.28918431D+04 0.28918431D+04 0.12695423D+01  1  2  5  2  6  5       -1 -.333694883376D-04 0.100000000000D+01
0.915497858490D-07 0.000000000000D+00 -.000000000000D+00 0.314944013127D-07 0.000000000000D+00  6 22 -2 9900012 13 -1 21 2 0.68234408D-02 0.11219068D-01 0.28918431D+04 0.28918431D+04 0.28918431D+04 0.12695423D+01  1  2  6  2  6  5       -1 0.478835340448D-04 0.100000000000D+01
  </mgrwgt>
  </event>
  <event>
  6     66 0.91196180E-06 0.36392939E+02 0.78161638E-02 0.11866356E+00
       22 -1    0    0    0    0 0.00000000E+00 0.00000000E+00 0.74023712E+03 0.74023712E+03 0.00000000E+00 0.0000E+00 0.9000E+01
       -2 -1    0    0    0  501 0.00000000E+00 0.00000000E+00 -.29615388E+03 0.29615388E+03 0.00000000E+00 0.0000E+00 0.9000E+01
      -24  2    1    2    0    0 -.46972208E+02 -.28988865E+02 0.73442080E+03 0.74085312E+03 0.80266391E+02 0.0000E+00 0.0000E+00
  9900012  1    3    3    0    0 -.39118526E+02 -.46181435E+02 0.58821018E+03 0.59342581E+03 0.50000000E+02 0.0000E+00 0.9000E+01
       13  1    3    3    0    0 -.78536824E+01 0.17192570E+02 0.14621062E+03 0.14742730E+03 0.00000000E+00 0.0000E+00 0.9000E+01
       -1  1    1    2    0  501 0.46972208E+02 0.28988865E+02 -.29033756E+03 0.29553788E+03 0.00000000E+00 0.0000E+00 0.9000E+01
#aMCatNLO 1  0  0  2  5 0.30970277D+02 0.00000000D+00  -5  6  0 0.00000000D+00 0.00000000D+00 0.00000000D+00 0.00000000D+00 0.00000000D+00
  <mgrwgt>
 0.3563589932D-03    6    4    0
 0.468213728956737D+03 0.000000000000000D+00 0.000000000000000D+00 0.468213728956737D+03
 0.468213728956737D+03 0.000000000000000D+00 0.000000000000000D+00 -.468213728956737D+03
 0.377826269173466D+03 -.391185255772298D+02 -.461814350216744D+02 0.369580445496705D+03
 0.938274985156209D+02 -.785368236021653D+01 0.171925702545637D+02 0.919039426745423D+02
 0.464773690224388D+03 0.469722079374464D+02 0.289888647671107D+02 -.461484388171247D+03
 0.000000000000000D+00 -.000000000000000D+00 -.000000000000000D+00 0.000000000000000D+00
 0.480634820900057D+03 0.000000000000000D+00 0.000000000000000D+00 0.480634820900057D+03
 0.475568296953090D+03 0.000000000000000D+00 0.000000000000000D+00 -.475568296953090D+03
 0.376889182246908D+03 -.317830303823567D+02 -.441088310989303D+02 0.369580445496705D+03
 0.937883976010016D+02 -.603014012074710D+01 0.177078021098658D+02 0.919039426745423D+02
 0.465940949948893D+03 0.560183361940499D+02 0.315447986764379D+02 -.461484388171247D+03
 0.195845880563450D+02 -.182051656909461D+02 -.514376968737342D+01 0.506652394696702D+01
 0.468213728956737D+03 0.000000000000000D+00 0.000000000000000D+00 0.468213728956737D+03
 0.468213728956737D+03 0.000000000000000D+00 0.000000000000000D+00 -.468213728956737D+03
 0.377826269173466D+03 -.391185255772298D+02 -.461814350216744D+02 0.369580445496705D+03
 0.938274985156209D+02 -.785368236021653D+01 0.171925702545637D+02 0.919039426745423D+02
 0.000000000000000D+00 -.000000000000000D+00 -.000000000000000D+00 0.000000000000000D+00
 0.464773690224388D+03 0.469722079374464D+02 0.289888647671107D+02 -.461484388171247D+03
 0.480634820900057D+03 0.000000000000000D+00 0.000000000000000D+00 0.480634820900057D+03
 0.475568296953090D+03 0.000000000000000D+00 0.000000000000000D+00 -.475568296953090D+03
 0.376889182246908D+03 -.317830303823567D+02 -.441088310989303D+02 0.369580445496705D+03
 0.937883976010016D+02 -.603014012074710D+01 0.177078021098658D+02 0.919039426745423D+02
 0.195845880563450D+02 -.182051656909461D+02 -.514376968737342D+01 0.506652394696702D+01
 0.465940949948893D+03 0.560183361940499D+02 0.315447986764379D+02 -.461484388171247D+03
0.480835591208D-03 0.000000000000D+00 0.000000000000D+00 0.725762956712D-03 0.000000000000D+00  6 22 -2 9900012 13 -1 21 0 0.11388263D+00 0.45562136D-01 0.58219518D+04 0.58219518D+04 0.58219518D+04 0.12344737D+01  1  2  2  1  6  2       -2 0.198495455043D-03 0.100000000000D+01
0.198274167744D-04 0.000000000000D+00 -.923267638578D-06 0.725762956712D-03 0.000000000000D+00  6 22 -2 9900012 13 -1 21 2 0.11388263D+00 0.45562136D-01 0.58219518D+04 0.58219518D+04 0.58219518D+04 0.12344737D+01  1  2  3  1  6  2       -2 0.124733691451D-04 0.100000000000D+01
-.786237944826D-04 0.000000000000D+00 0.000000000000D+00 0.725762956712D-03 0.000000000000D+00  6 22 -2 9900012 13 -1 21 2 0.11388263D+00 0.45562136D-01 0.58219518D+04 0.58219518D+04 0.58219518D+04 0.12344737D+01  1  2 15  1  6  2       -2 -.494619961502D-04 0.100000000000D+01
0.270075472451D-03 0.000000000000D+00 0.000000000000D+00 0.725762956712D-03 0.000000000000D+00  6 22 -2 9900012 13 -1 21 2 0.11388263D+00 0.47505502D-01 0.77243648D+04 0.77243648D+04 0.77243648D+04 0.12211348D+01  1  2 12  1  6  2       -2 0.155641096270D-03 0.100000000000D+01
-.899119538019D-06 0.000000000000D+00 0.000000000000D+00 0.725762956712D-03 0.000000000000D+00  6 22 -2 9900012 13 -1 21 2 0.11388263D+00 0.45562136D-01 0.58219518D+04 0.58219518D+04 0.58219518D+04 0.12344737D+01  1  2  4  1  6  2       -2 -.565633437317D-06 0.100000000000D+01
0.613823820132D-05 0.000000000000D+00 0.000000000000D+00 0.725762956712D-03 0.000000000000D+00  6 22 21 9900012 13 2 -1 2 0.11388263D+00 0.47505502D-01 0.77243648D+04 0.77243648D+04 0.77243648D+04 0.12211348D+01  3  4 12  3  5  2       -2 0.397767023438D-04 0.100000000000D+01
  </mgrwgt>
  </event>
  <event>
  7     66 -.91196180E-06 0.22519783E+02 0.78161638E-02 0.12351933E+00
       22 -1    0    0    0    0 0.00000000E+00 0.00000000E+00 0.20432310E+03 0.20432310E+03 0.00000000E+00 0.0000E+00 0.9000E+01
       -4 -1    0    0    0  502 0.00000000E+00 0.00000000E+00 -.14819162E+03 0.14819162E+03 0.00000000E+00 0.0000E+00 0.9000E+01
      -24  2    1    2    0    0 0.22952201E+02 0.10583258E+02 0.19026304E+03 0.20656150E+03 0.76346698E+02 0.0000E+00 0.0000E+00
  9900012  1    3    3    0    0 0.46429868E+01 -.96627030E+01 0.10083661E+03 0.11306170E+03 0.50000000E+02 0.0000E+00 0.9000E+01
       13  1    3    3    0    0 0.18309214E+02 0.20245961E+02 0.89426426E+02 0.93499797E+02 0.00000000E+00 0.0000E+00 0.9000E+01
       -3  1    1    2    0  501 -.32434307E+02 0.10588949E+02 -.86064061E+02 0.92580412E+02 0.00000000E+00 0.0000E+00 0.9000E+01
       21  1    1    2  501  502 0.94821066E+01 -.21172208E+02 -.48067497E+02 0.53372812E+02 0.00000000E+00 0.0000E+00 0.9000E+01
#aMCatNLO 2  0  0  2  5 0.23634440D+02 0.00000000D+00  -5  6  0 0.00000000D+00 0.00000000D+00 0.00000000D+00 0.00000000D+00 0.00000000D+00
  <mgrwgt>
 -.1217346291D-04    2    2    0
 0.139723191925580D+03 0.000000000000000D+00 0.000000000000000D+00 0.139723191925580D+03
 0.139723191925580D+03 0.000000000000000D+00 0.000000000000000D+00 -.139723191925580D+03
 0.843203840930753D+02 0.747930124713002D+01 -.159957934434871D+02 0.655600626797421D+02
 0.658320325944140D+02 0.205507572021189D+02 0.152409107851158D+02 0.606567187735347D+02
 0.129293967163671D+03 -.280300584492489D+02 0.754882658371342D+00 -.126216781453277D+03
 0.000000000000000D+00 0.000000000000000D+00 -.000000000000000D+00 -.000000000000000D+00
 0.142047989145723D+03 0.000000000000000D+00 0.000000000000000D+00 0.142047989145723D+03
 0.213160153619503D+03 0.000000000000000D+00 0.000000000000000D+00 -.213160153619503D+03
 0.831447350989545D+02 0.464298679099399D+01 -.966270302566792D+01 0.655600626797421D+02
 0.665158912514114D+02 0.183092138201024D+02 0.202459612240979D+02 0.606567187735347D+02
 0.130747030759187D+03 -.324343071976161D+02 0.105889493591328D+02 -.126216781453277D+03
 0.748004856556733D+02 0.948210658651968D+01 -.211722075575628D+02 -.711121644737801D+02
-.126951994428D-05 0.000000000000D+00 0.000000000000D+00 0.855092202529D-06 0.000000000000D+00  6 22 -4 9900012 13 -3 21 2 0.30919860D-01 0.23178049D-01 0.46070800D+04 0.46070800D+04 0.46070800D+04 0.12458690D+01  1  2 13  1  6  2       -4 -.138395279067D-04 0.100000000000D+01
0.152187485269D-06 0.000000000000D+00 0.000000000000D+00 0.855092202529D-06 0.199910300085D-08  6 22 -4 9900012 13 -3 21 2 0.31434323D-01 0.22798711D-01 0.46070800D+04 0.46070800D+04 0.46070800D+04 0.12458690D+01  1  2  1  1  6  2       -4 0.166606499896D-05 0.100000000000D+01
  </mgrwgt>
  </event>
  <event>
  6     66 0.91196180E-06 0.88097110E+02 0.78161638E-02 0.11468686E+00
       22 -1    0    0    0    0 0.00000000E+00 0.00000000E+00 0.38830654E+03 0.38830654E+03 0.00000000E+00 0.0000E+00 0.9000E+01
       -4 -1    0    0    0  501 0.00000000E+00 0.00000000E+00 -.27054444E+03 0.27054444E+03 0.00000000E+00 0.0000E+00 0.9000E+01
      -24  2    1    2    0    0 -.81019169E+02 -.47729494E+02 0.36996201E+03 0.38969116E+03 0.78390689E+02 0.0000E+00 0.0000E+00
  9900012  1    3    3    0    0 -.65915487E+02 -.60600258E+02 0.31284615E+03 0.32922630E+03 0.50000000E+02 0.0000E+00 0.9000E+01
       13  1    3    3    0    0 -.15103682E+02 0.12870764E+02 0.57115863E+02 0.60464863E+02 0.00000000E+00 0.0000E+00 0.9000E+01
       -3  1    1    2    0  501 0.81019169E+02 0.47729494E+02 -.25219992E+03 0.26915982E+03 0.00000000E+00 0.0000E+00 0.9000E+01
#aMCatNLO 1  0  0  5  2 0.91151652D+01 0.00000000D+00  -5  6  0 0.00000000D+00 0.00000000D+00 0.00000000D+00 0.00000000D+00 0.00000000D+00
  <mgrwgt>
 0.9954157269D-04    8    2    0
 0.324120618880997D+03 0.000000000000000D+00 0.000000000000000D+00 0.324120618880997D+03
 0.324120618880997D+03 -.000000000000000D+00 -.000000000000000D+00 -.324120618880997D+03
 0.277781851403063D+03 -.659154869367485D+02 -.606002577493624D+02 0.258157925137920D+03
 0.510785925652374D+02 -.151036817825597D+02 0.128707638611589D+02 0.470663877165752D+02
 0.319380793793694D+03 0.810191687193082D+02 0.477294938882034D+02 -.305224312854495D+03
 0.000000000000000D+00 0.000000000000000D+00 0.000000000000000D+00 0.000000000000000D+00
 0.324120618880997D+03 0.000000000000000D+00 0.000000000000000D+00 0.324120618880997D+03
 0.324120618880997D+03 -.000000000000000D+00 -.000000000000000D+00 -.324120618880997D+03
 0.276563266094330D+03 -.656003338688658D+02 -.604145967920219D+02 0.256970645879085D+03
 0.508689419530704D+02 -.150457231621039D+02 0.129049080725170D+02 0.468480396344827D+02
 0.305702794568543D+03 0.717718924910839D+02 0.522135631557457D+02 -.292535019917011D+03
 0.151062351460511D+02 0.887416453988588D+01 -.470387443624080D+01 -.112836655965560D+02
0.985085769737D-05 0.000000000000D+00 0.000000000000D+00 0.229559019626D-04 0.000000000000D+00  6 22 -4 9900012 13 -3 21 0 0.59739468D-01 0.41622222D-01 0.11710537D+05 0.11710537D+05 0.11710537D+05 0.12022869D+01  1  2  2  2  6  5       -3 0.837222587203D-05 0.100000000000D+01
0.163812149551D-06 0.000000000000D+00 -.189149436741D-07 0.229559019626D-04 0.000000000000D+00  6 22 -4 9900012 13 -3 21 2 0.59739468D-01 0.41622222D-01 0.11710537D+05 0.11710537D+05 0.11710537D+05 0.12022869D+01  1  2  3  2  6  5       -3 0.201246921455D-06 0.100000000000D+01
-.155600702270D-05 0.000000000000D+00 0.000000000000D+00 0.229559019626D-04 0.000000000000D+00  6 22 -4 9900012 13 -3 21 2 0.59739468D-01 0.41622222D-01 0.11710537D+05 0.11710537D+05 0.11710537D+05 0.12022869D+01  1  2 15  2  6  5       -3 -.191158973213D-05 0.100000000000D+01
0.751408796540D-04 0.000000000000D+00 0.000000000000D+00 0.229559019626D-04 0.000000000000D+00  6 22 -4 9900012 13 -3 21 2 0.59739468D-01 0.41622222D-01 0.12195040D+05 0.12195040D+05 0.12195040D+05 0.12004989D+01  1  2 12  2  6  5       -3 0.923116617697D-04 0.100000000000D+01
-.791214037524D-05 0.000000000000D+00 0.000000000000D+00 0.229559019626D-04 0.000000000000D+00  6 22 -4 9900012 13 -3 21 2 0.59739468D-01 0.41622222D-01 0.11710537D+05 0.11710537D+05 0.11710537D+05 0.12022869D+01  1  2  4  2  6  5       -3 -.972024295509D-05 0.100000000000D+01
-.172928212622D-03 0.000000000000D+00 0.000000000000D+00 0.229559019626D-04 0.000000000000D+00  6 22 -4 9900012 13 -3 21 2 0.59739468D-01 0.41622222D-01 0.11710537D+05 0.11710537D+05 0.11710537D+05 0.12022869D+01  1  2  5  2  6  5       -3 -.212446210602D-03 0.100000000000D+01
0.181300665367D-03 0.000000000000D+00 -.000000000000D+00 0.229559019626D-04 0.000000000000D+00  6 22 -4 9900012 13 -3 21 2 0.59739468D-01 0.41622222D-01 0.11710537D+05 0.11710537D+05 0.11710537D+05 0.12022869D+01  1  2  6  2  6  5       -3 0.222731957689D-03 0.100000000000D+01
0.205428910221D-08 0.000000000000D+00 0.000000000000D+00 0.229559019626D-04 0.336129461393D-06  6 22 -4 9900012 13 -3 21 2 0.59739468D-01 0.41622222D-01 0.12195040D+05 0.12195040D+05 0.12195040D+05 0.12004989D+01  1  2 11  2  6  5       -3 0.252372399223D-08 0.100000000000D+01
  </mgrwgt>
  </event>
  <event>
  6     66 0.91196180E-06 0.20229883E+02 0.78161638E-02 0.12599590E+00
       22 -1    0    0    0    0 0.00000000E+00 0.00000000E+00 0.45124478E+03 0.45124478E+03 0.00000000E+00 0.0000E+00 0.9000E+01
       -2 -1    0    0    0  501 0.00000000E+00 0.00000000E+00 -.12647613E+03 0.12647613E+03 0.00000000E+00 0.0000E+00 0.9000E+01
      -24  2    1    2    0    0 -.26076462E+01 -.20061116E+02 0.44624190E+03 0.45457467E+03 0.84243973E+02 0.0000E+00 0.0000E+00
  9900012  1    3    3    0    0 -.21114720E+02 -.30945056E+02 0.27593179E+03 0.28291656E+03 0.50000000E+02 0.0000E+00 0.9000E+01
       13  1    3    3    0    0 0.18507074E+02 0.10883941E+02 0.17031011E+03 0.17165811E+03 0.00000000E+00 0.0000E+00 0.9000E+01
       -1  1    1    2    0  501 0.26076462E+01 0.20061116E+02 -.12147325E+03 0.12314625E+03 0.00000000E+00 0.0000E+00 0.9000E+01
#aMCatNLO 1  0  0  2  5 0.16715268D+02 0.00000000D+00  -5  6  0 0.00000000D+00 0.00000000D+00 0.00000000D+00 0.00000000D+00 0.00000000D+00
  <mgrwgt>
 0.1042942602D-03    9    4    0
 0.238896828236636D+03 0.000000000000000D+00 0.000000000000000D+00 0.238896828236636D+03
 0.238896828236636D+03 0.000000000000000D+00 0.000000000000000D+00 -.238896828236636D+03
 0.154528672125603D+03 -.211147202760818D+02 -.309450561468941D+02 0.141335355083682D+03
 0.917950515651011D+02 0.185070740480284D+02 0.108839406279354D+02 0.892488629531376D+02
 0.231469932782569D+03 0.260764622805335D+01 0.200611155189587D+02 -.230584218036819D+03
 0.000000000000000D+00 0.000000000000000D+00 0.000000000000000D+00 -.000000000000000D+00
 0.240155861743698D+03 0.000000000000000D+00 0.000000000000000D+00 0.240155861743698D+03
 0.300226027655159D+03 0.000000000000000D+00 0.000000000000000D+00 -.300226027655159D+03
 0.155450920318578D+03 -.264497664410179D+02 -.314597502608988D+02 0.141335355083682D+03
 0.911765626683626D+02 0.153579570332230D+02 0.105801321993439D+02 0.892488629531376D+02
 0.231451954777467D+03 -.535968356104199D+01 0.192924740452009D+02 -.230584218036819D+03
 0.623024516344486D+02 0.164514929688368D+02 0.158714401635403D+01 -.600701659114612D+02
 0.238896828236636D+03 0.000000000000000D+00 0.000000000000000D+00 0.238896828236636D+03
 0.238896828236636D+03 0.000000000000000D+00 0.000000000000000D+00 -.238896828236636D+03
 0.154528672125603D+03 -.211147202760818D+02 -.309450561468941D+02 0.141335355083682D+03
 0.917950515651011D+02 0.185070740480284D+02 0.108839406279354D+02 0.892488629531376D+02
 0.000000000000000D+00 0.000000000000000D+00 0.000000000000000D+00 -.000000000000000D+00
 0.231469932782569D+03 0.260764622805335D+01 0.200611155189587D+02 -.230584218036819D+03
 0.240155861743698D+03 0.000000000000000D+00 0.000000000000000D+00 0.240155861743698D+03
 0.300226027655159D+03 0.000000000000000D+00 0.000000000000000D+00 -.300226027655159D+03
 0.155450920318578D+03 -.264497664410179D+02 -.314597502608988D+02 0.141335355083682D+03
 0.911765626683626D+02 0.153579570332230D+02 0.105801321993439D+02 0.892488629531376D+02
 0.623024516344486D+02 0.164514929688368D+02 0.158714401635403D+01 -.600701659114612D+02
 0.231451954777467D+03 -.535968356104199D+01 0.192924740452009D+02 -.230584218036819D+03
0.133354039299D-05 0.000000000000D+00 0.000000000000D+00 0.435020816392D-05 0.000000000000D+00  6 22 -2 9900012 13 -1 21 0 0.69422274D-01 0.19457866D-01 0.27132410D+04 0.27132410D+04 0.27132410D+04 0.12728947D+01  1  2  2  1  6  2       -2 0.556700218161D-05 0.100000000000D+01
0.195669589924D-06 0.000000000000D+00 -.256057311916D-08 0.435020816392D-05 0.000000000000D+00  6 22 -2 9900012 13 -1 21 2 0.69422274D-01 0.19457866D-01 0.27132410D+04 0.27132410D+04 0.27132410D+04 0.12728947D+01  1  2  3  1  6  2       -2 0.132349874090D-05 0.100000000000D+01
-.203215216357D-06 0.000000000000D+00 0.000000000000D+00 0.435020816392D-05 0.000000000000D+00  6 22 -2 9900012 13 -1 21 2 0.69422274D-01 0.19457866D-01 0.27132410D+04 0.27132410D+04 0.27132410D+04 0.12728947D+01  1  2 15  1  6  2       -2 -.137453695838D-05 0.100000000000D+01
0.155038161381D-04 0.000000000000D+00 0.000000000000D+00 0.435020816392D-05 0.000000000000D+00  6 22 -2 9900012 13 -1 21 2 0.69422274D-01 0.24581930D-01 0.35955262D+04 0.35955262D+04 0.35955262D+04 0.12582969D+01  1  2 12  1  6  2       -2 0.719758916728D-04 0.100000000000D+01
-.661860775461D-06 0.000000000000D+00 0.000000000000D+00 0.435020816392D-05 0.000000000000D+00  6 22 -2 9900012 13 -1 21 2 0.69422274D-01 0.19457866D-01 0.27132410D+04 0.27132410D+04 0.27132410D+04 0.12728947D+01  1  2  4  1  6  2       -2 -.447679122400D-05 0.100000000000D+01
-.154501626307D-04 0.000000000000D+00 -.715901671021D-06 0.435020816392D-05 0.000000000000D+00  6 22 -2 9900012 13 -1 21 2 0.69422274D-01 0.24527679D-01 0.27132410D+04 0.27132410D+04 0.27132410D+04 0.12728947D+01  1  2  5  1  6  2       -2 -.722644975472D-04 0.100000000000D+01
0.152247326534D-04 0.000000000000D+00 0.697129450839D-06 0.435020816392D-05 0.000000000000D+00  6 22 -2 9900012 13 -1 21 2 0.69422274D-01 0.19457866D-01 0.27132410D+04 0.27132410D+04 0.27132410D+04 0.12728947D+01  1  2  6  1  6  2       -2 0.102979285157D-03 0.100000000000D+01
0.499203692007D-06 0.000000000000D+00 0.000000000000D+00 0.435020816392D-05 0.000000000000D+00  6 22 21 9900012 13 2 -1 2 0.69422274D-01 0.24581930D-01 0.35955262D+04 0.35955262D+04 0.35955262D+04 0.12582969D+01  3  4 12  3  5  2       -2 0.298591012876D-04 0.100000000000D+01
-.483394061498D-06 0.000000000000D+00 -.228883598484D-07 0.435020816392D-05 0.000000000000D+00  6 22 21 9900012 13 2 -1 2 0.69422274D-01 0.24527679D-01 0.27132410D+04 0.27132410D+04 0.27132410D+04 0.12728947D+01  3  4  5  3  5  2       -2 -.292946930952D-04 0.100000000000D+01
  </mgrwgt>
  </event>
  <event>
  6     66 0.91196180E-06 0.27091269E+02 0.78161638E-02 0.12363880E+00
       22 -1    0    0    0    0 0.00000000E+00 0.00000000E+00 0.79717151E+02 0.79717151E+02 0.00000000E+00 0.0000E+00 0.9000E+01
       -2 -1    0    0    0  501 0.00000000E+00 0.00000000E+00 -.16853885E+03 0.16853885E+03 0.00000000E+00 0.0000E+00 0.9000E+01
      -24  2    1    2    0    0 -.26295622E+02 -.30921638E+02 0.49252358E+02 0.10433917E+03 0.82542481E+02 0.0000E+00 0.0000E+00
  9900012  1    3    3    0    0 0.62794790E+01 -.23419229E+02 0.17563768E+02 0.58278453E+02 0.50000000E+02 0.0000E+00 0.9000E+01
       13  1    3    3    0    0 -.32575101E+02 -.75024099E+01 0.31688590E+02 0.46060722E+02 0.00000000E+00 0.0000E+00 0.9000E+01
       -1  1    1    2    0  501 0.26295622E+02 0.30921638E+02 -.13807406E+03 0.14391683E+03 0.00000000E+00 0.0000E+00 0.9000E+01
#aMCatNLO 1  0  0  2  5 0.62193041D+01 0.00000000D+00  -5  6  0 0.00000000D+00 0.00000000D+00 0.00000000D+00 0.00000000D+00 0.00000000D+00
  <mgrwgt>
 0.6490675783D-04   11    4    0
 0.115911332519608D+03 0.000000000000000D+00 0.000000000000000D+00 0.115911332519608D+03
 0.115911332519608D+03 0.000000000000000D+00 0.000000000000000D+00 -.115911332519608D+03
 0.691391389064248D+02 0.627947897663997D+01 -.234192285415933D+02 0.411379193326603D+02
 0.614671785902752D+02 -.325751010253961D+02 -.750240985826968D+01 0.515828526096857D+02
 0.101216347542516D+03 0.262956220487562D+02 0.309216383998630D+02 -.927207719423460D+02
 0.000000000000000D+00 -.000000000000000D+00 0.000000000000000D+00 -.000000000000000D+00
 0.116681965632651D+03 0.000000000000000D+00 0.000000000000000D+00 0.116681965632651D+03
 0.128365724965863D+03 0.000000000000000D+00 0.000000000000000D+00 -.128365724965863D+03
 0.697907334767298D+02 0.660193108707029D+01 -.251958841504131D+02 0.411379193326603D+02
 0.615286276375474D+02 -.322896314095970D+02 -.907529828929995D+01 0.515828526096857D+02
 0.100581637796999D+03 0.267639891834632D+02 0.283410161308581D+02 -.927207719423460D+02
 0.131466916872377D+02 -.107628886093648D+01 0.593016630885505D+01 -.116837593332124D+02
 0.115911332519608D+03 0.000000000000000D+00 0.000000000000000D+00 0.115911332519608D+03
 0.115911332519608D+03 0.000000000000000D+00 0.000000000000000D+00 -.115911332519608D+03
 0.691391389064248D+02 0.627947897663997D+01 -.234192285415933D+02 0.411379193326603D+02
 0.614671785902752D+02 -.325751010253961D+02 -.750240985826968D+01 0.515828526096857D+02
 0.000000000000000D+00 -.000000000000000D+00 0.000000000000000D+00 -.000000000000000D+00
 0.101216347542516D+03 0.262956220487562D+02 0.309216383998630D+02 -.927207719423460D+02
 0.116681965632651D+03 0.000000000000000D+00 0.000000000000000D+00 0.116681965632651D+03
 0.128365724965863D+03 0.000000000000000D+00 0.000000000000000D+00 -.128365724965863D+03
 0.697907334767298D+02 0.660193108707029D+01 -.251958841504131D+02 0.411379193326603D+02
 0.615286276375474D+02 -.322896314095970D+02 -.907529828929995D+01 0.515828526096857D+02
 0.131466916872377D+02 -.107628886093648D+01 0.593016630885505D+01 -.116837593332124D+02
 0.100581637796999D+03 0.267639891834632D+02 0.283410161308581D+02 -.927207719423460D+02
0.178355686344D-06 0.000000000000D+00 0.000000000000D+00 0.498623961032D-06 0.000000000000D+00  6 22 -2 9900012 13 -1 21 0 0.12264177D-01 0.25929054D-01 0.41982248D+04 0.41982248D+04 0.41982248D+04 0.12504845D+01  1  2  2  1  6  2       -2 0.715824530334D-05 0.100000000000D+01
0.711479388208D-08 0.000000000000D+00 -.342466398846D-09 0.498623961032D-06 0.000000000000D+00  6 22 -2 9900012 13 -1 21 2 0.12264177D-01 0.25929054D-01 0.41982248D+04 0.41982248D+04 0.41982248D+04 0.12504845D+01  1  2  3  1  6  2       -2 0.446517550871D-06 0.100000000000D+01
-.270837917539D-07 0.000000000000D+00 0.000000000000D+00 0.498623961032D-06 0.000000000000D+00  6 22 -2 9900012 13 -1 21 2 0.12264177D-01 0.25929054D-01 0.41982248D+04 0.41982248D+04 0.41982248D+04 0.12504845D+01  1  2 15  1  6  2       -2 -.169975245421D-05 0.100000000000D+01
0.131201768147D-05 0.000000000000D+00 0.000000000000D+00 0.498623961032D-06 0.000000000000D+00  6 22 -2 9900012 13 -1 21 2 0.12264177D-01 0.28905979D-01 0.45512782D+04 0.45512782D+04 0.45512782D+04 0.12464714D+01  1  2 12  1  6  2       -2 0.688062274920D-04 0.100000000000D+01
-.491279736510D-06 0.000000000000D+00 0.000000000000D+00 0.498623961032D-06 0.000000000000D+00  6 22 -2 9900012 13 -1 21 2 0.12264177D-01 0.25929054D-01 0.41982248D+04 0.41982248D+04 0.41982248D+04 0.12504845D+01  1  2  4  1  6  2       -2 -.308322389059D-04 0.100000000000D+01
-.205894645131D-05 0.000000000000D+00 -.190187431069D-06 0.498623961032D-06 0.000000000000D+00  6 22 -2 9900012 13 -1 21 2 0.12264177D-01 0.28849728D-01 0.41982248D+04 0.41982248D+04 0.41982248D+04 0.12504845D+01  1  2  5  1  6  2       -2 -.108303041248D-03 0.100000000000D+01
0.206853040189D-05 0.000000000000D+00 0.189109178493D-06 0.498623961032D-06 0.000000000000D+00  6 22 -2 9900012 13 -1 21 2 0.12264177D-01 0.25929054D-01 0.41982248D+04 0.41982248D+04 0.41982248D+04 0.12504845D+01  1  2  6  1  6  2       -2 0.129818958112D-03 0.100000000000D+01
0.828248469436D-07 0.000000000000D+00 0.000000000000D+00 0.498623961032D-06 0.127316403854D-06  6 22 -2 9900012 13 -1 21 2 0.12345715D-01 0.28715068D-01 0.45512782D+04 0.45512782D+04 0.45512782D+04 0.12464714D+01  1  2 11  1  6  2       -2 0.435066307964D-05 0.100000000000D+01
0.228900880054D-07 0.000000000000D+00 0.000000000000D+00 0.498623961032D-06 0.000000000000D+00  6 22 21 9900012 13 2 -1 2 0.12264177D-01 0.28905979D-01 0.45512782D+04 0.45512782D+04 0.45512782D+04 0.12464714D+01  3  4 12  3  5  2       -2 0.149575361344D-04 0.100000000000D+01
-.346620357884D-07 0.000000000000D+00 -.326720136301D-08 0.498623961032D-06 0.000000000000D+00  6 22 21 9900012 13 2 -1 2 0.12264177D-01 0.28849728D-01 0.41982248D+04 0.41982248D+04 0.41982248D+04 0.12504845D+01  3  4  5  3  5  2       -2 -.227631358352D-04 0.100000000000D+01
0.452732896524D-08 0.000000000000D+00 0.000000000000D+00 0.498623961032D-06 0.209767944595D-08  6 22 21 9900012 13 2 -1 2 0.12345715D-01 0.28715068D-01 0.45512782D+04 0.45512782D+04 0.45512782D+04 0.12464714D+01  3  4 11  3  5  2       -2 0.296677859994D-05 0.100000000000D+01
  </mgrwgt>
  </event>
  <event>
  6     66 0.91196180E-06 0.92094644E+02 0.78161638E-02 0.10560130E+00
       22 -1    0    0    0    0 0.00000000E+00 0.00000000E+00 0.26033268E+03 0.26033268E+03 0.00000000E+00 0.0000E+00 0.9000E+01
       -2 -1    0    0    0  501 0.00000000E+00 0.00000000E+00 -.58735983E+02 0.58735983E+02 0.00000000E+00 0.0000E+00 0.9000E+01
      -24  2    1    2    0    0 0.72419194E+02 0.56893618E+02 0.19128462E+03 0.22639848E+03 0.78645044E+02 0.0000E+00 0.0000E+00
  9900012  1    3    3    0    0 0.36563127E+02 0.31882932E+02 0.75978474E+02 0.10308303E+03 0.50000000E+02 0.0000E+00 0.9000E+01
       13  1    3    3    0    0 0.35856067E+02 0.25010686E+02 0.11530614E+03 0.12331544E+03 0.00000000E+00 0.0000E+00 0.9000E+01
       -1  1    1    2    0  501 -.72419194E+02 -.56893618E+02 0.10312074E+02 0.92670180E+02 0.00000000E+00 0.0000E+00 0.9000E+01
#aMCatNLO 1  0  0  2  5 0.20040694D+02 0.00000000D+00  -5  6  0 0.00000000D+00 0.00000000D+00 0.00000000D+00 0.00000000D+00 0.00000000D+00
  <mgrwgt>
 0.3747163580D-04    3    2    0
 0.123656361561750D+03 0.000000000000000D+00 0.000000000000000D+00 0.123656361561750D+03
 0.123656361561750D+03 0.000000000000000D+00 0.000000000000000D+00 -.123656361561750D+03
 0.710580374238138D+02 0.365631269741459D+02 0.318829319550557D+02 0.139950376328859D+02
 0.651028223099174D+02 0.358560669990901D+02 0.250106856419364D+02 0.482409114320374D+02
 0.111151863389768D+03 -.724191939732360D+02 -.568936175969921D+02 -.622359490649233D+02
 0.000000000000000D+00 -.000000000000000D+00 0.000000000000000D+00 0.000000000000000D+00
 0.361132802290206D+03 0.000000000000000D+00 0.000000000000000D+00 0.361132802290206D+03
 0.168132384386282D+03 0.000000000000000D+00 0.000000000000000D+00 -.168132384386282D+03
 0.689164823832709D+02 0.449909684259952D+02 -.542523970243607D+01 0.139950376328859D+02
 0.658671835172086D+02 0.437417482329323D+02 -.989746382780593D+01 0.482409114320374D+02
 0.152441025227005D+03 -.565483120715950D+02 -.127150466841857D+03 -.622359490649233D+02
 0.242040495549004D+03 -.321844045873325D+02 0.142473170372099D+03 0.193000417903924D+03
0.129344480685D-05 0.000000000000D+00 0.000000000000D+00 0.294382183325D-06 0.000000000000D+00  6 22 -2 9900012 13 -1 21 0 0.40051181D-01 0.90363051D-02 0.10555308D+05 0.10555308D+05 0.10555308D+05 0.12069050D+01  1  2  2  1  6  2       -2 0.493569746528D-04 0.100000000000D+01
-.209284393054D-07 0.000000000000D+00 -.248358431507D-08 0.294382183325D-06 0.000000000000D+00  6 22 -2 9900012 13 -1 21 2 0.40051181D-01 0.90363051D-02 0.10555308D+05 0.10555308D+05 0.10555308D+05 0.12069050D+01  1  2  3  1  6  2       -2 -.116327832076D-05 0.100000000000D+01
-.192899660439D-06 0.000000000000D+00 0.000000000000D+00 0.294382183325D-06 0.000000000000D+00  6 22 -2 9900012 13 -1 21 2 0.40051181D-01 0.90363051D-02 0.10555308D+05 0.10555308D+05 0.10555308D+05 0.12069050D+01  1  2 15  1  6  2       -2 -.107220605318D-04 0.100000000000D+01
  </mgrwgt>
  </event>
  <event>
  6     66 0.91196180E-06 0.57997558E+02 0.78161638E-02 0.12243658E+00
       22 -1    0    0    0    0 0.00000000E+00 0.00000000E+00 0.11869927E+04 0.11869927E+04 0.00000000E+00 0.0000E+00 0.9000E+01
       -4 -1    0    0    0  501 0.00000000E+00 0.00000000E+00 -.72247420E+01 0.72247420E+01 0.00000000E+00 0.0000E+00 0.9000E+01
      -24  2    1    2    0    0 0.53755694E+02 -.21772509E+02 0.10099064E+04 0.10147274E+04 0.79981815E+02 0.0000E+00 0.0000E+00
  9900012  1    3    3    0    0 0.47913778E+02 -.69412264E+01 0.95556728E+03 0.95809850E+03 0.50000000E+02 0.0000E+00 0.9000E+01
       13  1    3    3    0    0 0.58419154E+01 -.14831283E+02 0.54339121E+02 0.56628924E+02 0.00000000E+00 0.0000E+00 0.9000E+01
       -3  1    1    2    0  501 -.53755694E+02 0.21772509E+02 0.16986150E+03 0.17948996E+03 0.00000000E+00 0.0000E+00 0.9000E+01
#aMCatNLO 1  0  0  2  2 0.92192233D+02 0.00000000D+00  -5  6  0 0.00000000D+00 0.00000000D+00 0.00000000D+00 0.00000000D+00 0.00000000D+00
  <mgrwgt>
 0.4940747358D-04    4    2    0
 0.926051598555267D+02 0.000000000000000D+00 0.000000000000000D+00 0.926051598555267D+02
 0.926051598555267D+02 0.000000000000000D+00 0.000000000000000D+00 -.926051598555267D+02
 0.908711898117150D+02 0.479137783479031D+02 -.694122637582701D+01 0.584265552520793D+02
 0.190037708829756D+02 0.584191539160729D+01 -.148312829962784D+02 -.103464185597837D+02
 0.753353590163628D+02 -.537556937395103D+02 0.217725093721054D+02 -.480801366922956D+02
 0.000000000000000D+00 0.000000000000000D+00 -.000000000000000D+00 0.000000000000000D+00
 0.139288322619233D+03 0.000000000000000D+00 0.000000000000000D+00 0.139288322619233D+03
 0.110620651926692D+03 0.000000000000000D+00 0.000000000000000D+00 -.110620651926692D+03
 0.810870638615909D+02 0.249531853775805D+02 -.622800984115692D+01 0.584265552520793D+02
 0.179806893098489D+02 0.903593917792724D+00 -.146778857154158D+02 -.103464185597837D+02
 0.928731783566128D+02 -.762156087377848D+02 0.224701735293316D+02 -.480801366922956D+02
 0.579680430178726D+02 0.503588294424116D+02 -.156427797275893D+01 0.286676706925410D+02
0.225779656638D-05 0.000000000000D+00 0.000000000000D+00 0.522010426178D-06 0.000000000000D+00  6 22 -4 9900012 13 -3 21 0 0.18261425D+00 0.11114988D-02 0.51506547D+04 0.51506547D+04 0.51506547D+04 0.12403965D+01  1  2  2  1  6  2       -4 0.692996696453D-04 0.100000000000D+01
-.225519514137D-07 0.000000000000D+00 -.433526665320D-08 0.522010426178D-06 0.000000000000D+00  6 22 -4 9900012 13 -3 21 2 0.18261425D+00 0.11114988D-02 0.51506547D+04 0.51506547D+04 0.51506547D+04 0.12403965D+01  1  2  3  1  6  2       -4 -.106500470852D-05 0.100000000000D+01
-.360764494871D-06 0.000000000000D+00 0.000000000000D+00 0.522010426178D-06 0.000000000000D+00  6 22 -4 9900012 13 -3 21 2 0.18261425D+00 0.11114988D-02 0.51506547D+04 0.51506547D+04 0.51506547D+04 0.12403965D+01  1  2 15  1  6  2       -4 -.170369241515D-04 0.100000000000D+01
-.379097093166D-07 0.000000000000D+00 0.000000000000D+00 0.522010426178D-06 0.000000000000D+00  6 22 -4 9900012 13 -3 21 2 0.18261425D+00 0.11114988D-02 0.51506547D+04 0.51506547D+04 0.51506547D+04 0.12403965D+01  1  2  4  1  6  2       -4 -.179026720039D-05 0.100000000000D+01
  </mgrwgt>
  </event>
  <event>
  6     66 -.91196180E-06 0.34667417E+02 0.78161638E-02 0.12582615E+00
       22 -1    0    0    0    0 0.00000000E+00 0.00000000E+00 0.44313273E+02 0.44313273E+02 0.00000000E+00 0.0000E+00 0.9000E+01
       -4 -1    0    0    0  501 0.00000000E+00 0.00000000E+00 -.17619246E+03 0.17619246E+03 0.00000000E+00 0.0000E+00 0.9000E+01
      -24  2    1    2    0    0 -.21617514E+02 0.27101898E+02 -.34600164E+01 0.87489518E+02 0.80253438E+02 0.0000E+00 0.0000E+00
  9900012  1    3    3    0    0 -.39647260E+02 0.19837196E+02 -.86213758E+01 0.67377650E+02 0.50000000E+02 0.0000E+00 0.9000E+01
       13  1    3    3    0    0 0.18029746E+02 0.72647023E+01 0.51613594E+01 0.20111869E+02 0.00000000E+00 0.0000E+00 0.9000E+01
       -3  1    1    2    0  501 0.21617514E+02 -.27101898E+02 -.12841917E+03 0.13301622E+03 0.00000000E+00 0.0000E+00 0.9000E+01
#aMCatNLO 1  0  0  2  2 0.92192233D+02 0.00000000D+00  -5  6  0 0.00000000D+00 0.00000000D+00 0.00000000D+00 0.00000000D+00 0.00000000D+00
  <mgrwgt>
 -.2225116847D-05    1    2    0
 0.883609900279726D+02 0.000000000000000D+00 0.000000000000000D+00 0.883609900279726D+02
 0.883609900279726D+02 0.000000000000000D+00 0.000000000000000D+00 -.883609900279726D+02
 0.776370771929803D+02 -.396472596665168D+02 0.198371958480341D+02 0.395233629248740D+02
 0.289463612252162D+02 0.180297458859839D+02 0.726470231209747D+01 0.214486407910654D+02
 0.701385416377487D+02 0.216175137805329D+02 -.271018981601316D+02 -.609720037159394D+02
 0.000000000000000D+00 -.000000000000000D+00 0.000000000000000D+00 -.000000000000000D+00
 0.146043083420389D+03 0.000000000000000D+00 0.000000000000000D+00 0.146043083420389D+03
 0.246644305170465D+03 0.000000000000000D+00 0.000000000000000D+00 -.246644305170465D+03
 0.753472635625983D+02 -.261197400300436D+02 -.305429712085004D+02 0.395233629248740D+02
 0.347567484045894D+02 0.236626430973292D+02 -.137137409018908D+02 0.214486407910654D+02
 0.113118636211937D+03 0.378218851537244D+02 -.874513900674563D+02 -.609720037159394D+02
 0.169464740411730D+03 -.353647882210101D+02 0.131708102177847D+03 -.100601221750076D+03
-.307342368117D-07 0.000000000000D+00 0.000000000000D+00 0.948119013550D-06 0.000000000000D+00  6 22 -4 9900012 13 -3 21 2 0.68174266D-02 0.27106532D-01 0.36559869D+04 0.36559869D+04 0.36559869D+04 0.12574490D+01  1  2 14  1  6  2       -4 -.222511684739D-05 0.100000000000D+01
  </mgrwgt>
  </event>
  <event>
  6     66 0.91196180E-06 0.47756024E+02 0.78161638E-02 0.11566198E+00
       22 -1    0    0    0    0 0.00000000E+00 0.00000000E+00 0.87580835E+03 0.87580835E+03 0.00000000E+00 0.0000E+00 0.9000E+01
       -4 -1    0    0    0  501 0.00000000E+00 0.00000000E+00 -.92860375E+02 0.92860375E+02 0.00000000E+00 0.0000E+00 0.9000E+01
      -24  2    1    2    0    0 -.18580162E+02 -.93762760E+02 0.84514032E+03 0.85463116E+03 0.83639651E+02 0.0000E+00 0.0000E+00
  9900012  1    3    3    0    0 -.78802412E+01 -.76373185E+02 0.46488381E+03 0.47382688E+03 0.50000000E+02 0.0000E+00 0.9000E+01
       13  1    3    3    0    0 -.10699921E+02 -.17389576E+02 0.38025651E+03 0.38080428E+03 0.00000000E+00 0.0000E+00 0.9000E+01
       -3  1    1    2    0  501 0.18580162E+02 0.93762760E+02 -.62192343E+02 0.11403756E+03 0.00000000E+00 0.0000E+00 0.9000E+01
#aMCatNLO 1  0  0  5  2 0.19732789D+01 0.00000000D+00  -5  6  0 0.00000000D+00 0.00000000D+00 0.00000000D+00 0.00000000D+00 0.00000000D+00
  <mgrwgt>
 0.9652088743D-04    5    2    0
 0.285180454355635D+03 0.000000000000000D+00 0.000000000000000D+00 0.285180454355635D+03
 0.285180454355635D+03 -.000000000000000D+00 -.000000000000000D+00 -.285180454355635D+03
 0.166563742790666D+03 -.788024116051601D+01 -.763731846175341D+02 0.139098953565665D+03
 0.124749312059146D+03 -.106999206590522D+02 -.173895757933108D+02 0.123067076063620D+03
 0.279047853861459D+03 0.185801618195682D+02 0.937627604108448D+02 -.262166029629285D+03
 0.000000000000000D+00 0.000000000000000D+00 0.000000000000000D+00 0.000000000000000D+00
 0.285180454355635D+03 0.000000000000000D+00 0.000000000000000D+00 0.285180454355635D+03
 0.285180454355635D+03 -.000000000000000D+00 -.000000000000000D+00 -.285180454355635D+03
 0.166069599134791D+03 -.784529935410745D+01 -.761968546019818D+02 0.138605924778125D+03
 0.124364427803522D+03 -.106737522538598D+02 -.172575197902355D+02 0.122697839941909D+03
 0.109127832388847D+01 -.860673174638613D+00 -.380565605911492D+00 0.552539488407319D+00
 0.278835603449068D+03 0.193797247826059D+02 0.938349399981287D+02 -.261856304208441D+03
0.648868938454D-04 0.000000000000D+00 0.000000000000D+00 0.359223137708D-05 0.000000000000D+00  6 22 -4 9900012 13 -3 21 0 0.13473975D+00 0.14286212D-01 0.10777323D+05 0.10777323D+05 0.10777323D+05 0.12059751D+01  1  2  2  2  6  5       -3 0.852565548181D-04 0.100000000000D+01
0.553661442249D-06 0.000000000000D+00 -.124591378739D-06 0.359223137708D-05 0.000000000000D+00  6 22 -4 9900012 13 -3 21 2 0.13473975D+00 0.14286212D-01 0.10777323D+05 0.10777323D+05 0.10777323D+05 0.12059751D+01  1  2  3  2  6  5       -3 0.105801475622D-05 0.100000000000D+01
-.932859382131D-05 0.000000000000D+00 0.000000000000D+00 0.359223137708D-05 0.000000000000D+00  6 22 -4 9900012 13 -3 21 2 0.13473975D+00 0.14286212D-01 0.10777323D+05 0.10777323D+05 0.10777323D+05 0.12059751D+01  1  2 15  2  6  5       -3 -.178263992479D-04 0.100000000000D+01
0.200461379141D-07 0.000000000000D+00 0.000000000000D+00 0.359223137708D-05 0.000000000000D+00  6 22 -4 9900012 13 -3 21 2 0.13473975D+00 0.14286212D-01 0.10870365D+05 0.10870365D+05 0.10870365D+05 0.12055917D+01  1  2 12  2  6  5       -3 0.383121254370D-07 0.100000000000D+01
0.146475742762D-04 0.000000000000D+00 0.000000000000D+00 0.359223137708D-05 0.119081436311D-07  6 22 -4 9900012 13 -3 21 2 0.13473975D+00 0.14286212D-01 0.10870365D+05 0.10870365D+05 0.10870365D+05 0.12055917D+01  1  2 11  2  6  5       -3 0.279944049783D-04 0.100000000000D+01
  </mgrwgt>
  </event>
  <event>
  7     66 0.91196180E-06 0.10013127E+02 0.78161638E-02 0.12752020E+00
       22 -1    0    0    0    0 0.00000000E+00 0.00000000E+00 0.37087317E+03 0.37087317E+03 0.00000000E+00 0.0000E+00 0.9000E+01
       21 -1    0    0  502  501 0.00000000E+00 0.00000000E+00 -.31598574E+03 0.31598574E+03 0.00000000E+00 0.0000E+00 0.9000E+01
      -24  2    1    2    0    0 -.22368855E+02 -.89268802E+01 0.36536540E+03 0.37471985E+03 0.79643165E+02 0.0000E+00 0.0000E+00
  9900012  1    3    3    0    0 -.16033728E+02 0.18016644E+02 0.24055380E+03 0.24687610E+03 0.50000000E+02 0.0000E+00 0.9000E+01
       13  1    3    3    0    0 -.63351269E+01 -.26943524E+02 0.12481160E+03 0.12784375E+03 0.00000000E+00 0.0000E+00 0.9000E+01
        4  1    1    2  502    0 0.11717463E+02 -.31128867E+01 -.21297786E+03 0.21332266E+03 0.00000000E+00 0.0000E+00 0.9000E+01
       -3  1    1    2    0  501 0.10651392E+02 0.12039767E+02 -.97500116E+02 0.98816400E+02 0.00000000E+00 0.0000E+00 0.9000E+01
#aMCatNLO 2  0  0  2  5 0.12128079D+02 0.00000000D+00  -5  6  0 0.00000000D+00 0.00000000D+00 0.00000000D+00 0.00000000D+00 0.00000000D+00
  <mgrwgt>
 0.2100883441D-03    2    2    0
 0.195152363339201D+03 0.000000000000000D+00 0.000000000000000D+00 0.195152363339201D+03
 0.195152363339201D+03 0.000000000000000D+00 0.000000000000000D+00 -.195152363339201D+03
 0.133805229183930D+03 -.120092797938771D+02 0.169475002702499D+02 0.122361753789271D+03
 0.694728796512266D+02 -.425083535829840D+01 -.274972416789971D+02 0.636577811884555D+02
 0.000000000000000D+00 0.000000000000000D+00 -.000000000000000D+00 -.000000000000000D+00
 0.187026617843245D+03 0.162601151521755D+02 0.105497414087472D+02 -.186019534977727D+03
 0.195337293495790D+03 0.000000000000000D+00 0.000000000000000D+00 0.195337293495790D+03
 0.599939881013906D+03 0.000000000000000D+00 0.000000000000000D+00 -.599939881013906D+03
 0.134365466913740D+03 -.160337284193890D+02 0.180166440141960D+02 0.122361753789271D+03
 0.694146990106347D+02 -.633512694265121D+01 -.269435242594620D+02 0.636577811884555D+02
 0.404784192914824D+03 0.117174632038051D+02 -.311288666970439D+01 -.404602587518116D+03
 0.186712815670497D+03 0.106513921582351D+02 0.120397669149704D+02 -.186019534977727D+03
-.101263792945D-04 0.000000000000D+00 0.000000000000D+00 0.380447455606D-04 0.000000000000D+00  6 22 21 9900012 13 4 -3 2 0.57003393D-01 0.48659257D-01 0.31019410D+04 0.31019410D+04 0.31019410D+04 0.12658855D+01  1  2 13  3  5  2       -4 -.234146123347D-03 0.100000000000D+01
0.192064076900D-04 0.000000000000D+00 0.000000000000D+00 0.380447455606D-04 0.103619183409D-05  6 22 21 9900012 13 4 -3 2 0.57057411D-01 0.48613191D-01 0.31019410D+04 0.31019410D+04 0.31019410D+04 0.12658855D+01  1  2  1  3  5  2       -4 0.444234467402D-03 0.100000000000D+01
  </mgrwgt>
  </event>
  <event>
  6     66 -.91196180E-06 0.40020785E+02 0.78161638E-02 0.11514076E+00
       22 -1    0    0    0    0 0.00000000E+00 0.00000000E+00 0.19466135E+03 0.19466135E+03 0.00000000E+00 0.0000E+00 0.9000E+01
       -4 -1    0    0    0  501 0.00000000E+00 0.00000000E+00 -.55698248E+03 0.55698248E+03 0.00000000E+00 0.0000E+00 0.9000E+01
      -24  2    1    2    0    0 0.46352290E+02 -.80267604E+02 0.17104697E+03 0.21028171E+03 0.79811712E+02 0.0000E+00 0.0000E+00
  9900012  1    3    3    0    0 0.42398759E+02 -.48585499E+02 0.81989672E+02 0.11567416E+03 0.50000000E+02 0.0000E+00 0.9000E+01
       13  1    3    3    0    0 0.39535315E+01 -.31682105E+02 0.89057297E+02 0.94607549E+02 0.00000000E+00 0.0000E+00 0.9000E+01
       -3  1    1    2    0  501 -.46352290E+02 0.80267604E+02 -.53336809E+03 0.54136212E+03 0.00000000E+00 0.0000E+00 0.9000E+01
#aMCatNLO 1  0  0  2  5 0.94754741D+01 0.00000000D+00  -5  6  0 0.00000000D+00 0.00000000D+00 0.00000000D+00 0.00000000D+00 0.00000000D+00
  <mgrwgt>
 -.5026870918D-04   11    4    0
 0.329276422861965D+03 0.000000000000000D+00 0.000000000000000D+00 0.329276422861965D+03
 0.329276422861965D+03 0.000000000000000D+00 0.000000000000000D+00 -.329276422861965D+03
 0.177134395017984D+03 0.423987589489374D+02 -.485854992228324D+02 0.157220826874957D+03
 0.156978321123434D+03 0.395353151385119D+01 -.316821045294679D+02 0.153697127962382D+03
 0.324440129582512D+03 -.463522904627886D+02 0.802676037523004D+02 -.310917954837340D+03
 0.000000000000000D+00 -.000000000000000D+00 0.000000000000000D+00 -.000000000000000D+00
 0.329689312428693D+03 0.000000000000000D+00 0.000000000000000D+00 0.329689312428693D+03
 0.388078714844230D+03 0.000000000000000D+00 0.000000000000000D+00 -.388078714844230D+03
 0.177991676745304D+03 0.447221280342611D+02 -.496243876682300D+02 0.157220826874957D+03
 0.157231556293950D+03 0.600921137951172D+01 -.326012964363248D+02 0.153697127962382D+03
 0.323397263658072D+03 -.421138931964365D+02 0.783724154351140D+02 -.310917954837340D+03
 0.591475305755965D+02 -.861744621733637D+01 0.385326866944084D+01 -.583894024155372D+02
 0.329276422861965D+03 0.000000000000000D+00 0.000000000000000D+00 0.329276422861965D+03
 0.329276422861965D+03 0.000000000000000D+00 0.000000000000000D+00 -.329276422861965D+03
 0.177134395017984D+03 0.423987589489374D+02 -.485854992228324D+02 0.157220826874957D+03
 0.156978321123434D+03 0.395353151385119D+01 -.316821045294679D+02 0.153697127962382D+03
 0.000000000000000D+00 -.000000000000000D+00 0.000000000000000D+00 -.000000000000000D+00
 0.324440129582512D+03 -.463522904627886D+02 0.802676037523004D+02 -.310917954837340D+03
 0.329689312428693D+03 0.000000000000000D+00 0.000000000000000D+00 0.329689312428693D+03
 0.388078714844230D+03 0.000000000000000D+00 0.000000000000000D+00 -.388078714844230D+03
 0.177991676745304D+03 0.447221280342611D+02 -.496243876682300D+02 0.157220826874957D+03
 0.157231556293950D+03 0.600921137951172D+01 -.326012964363248D+02 0.153697127962382D+03
 0.591475305755965D+02 -.861744621733637D+01 0.385326866944084D+01 -.583894024155372D+02
 0.323397263658072D+03 -.421138931964365D+02 0.783724154351140D+02 -.310917954837340D+03
0.461942281197D-05 0.000000000000D+00 0.000000000000D+00 0.748630552842D-04 0.000000000000D+00  6 22 -4 9900012 13 -3 21 0 0.29947901D-01 0.85689612D-01 0.10631217D+05 0.10631217D+05 0.10631217D+05 0.12065846D+01  1  2  2  1  6  2       -4 0.236968379831D-05 0.100000000000D+01
0.597172814822D-07 0.000000000000D+00 -.886989995996D-08 0.748630552842D-04 0.000000000000D+00  6 22 -4 9900012 13 -3 21 2 0.29947901D-01 0.85689612D-01 0.10631217D+05 0.10631217D+05 0.10631217D+05 0.12065846D+01  1  2  3  1  6  2       -4 0.445982962814D-07 0.100000000000D+01
-.708529281072D-06 0.000000000000D+00 0.000000000000D+00 0.748630552842D-04 0.000000000000D+00  6 22 -4 9900012 13 -3 21 2 0.29947901D-01 0.85689612D-01 0.10631217D+05 0.10631217D+05 0.10631217D+05 0.12065846D+01  1  2 15  1  6  2       -4 -.529146639248D-06 0.100000000000D+01
0.206009583755D-03 0.000000000000D+00 0.000000000000D+00 0.748630552842D-04 0.000000000000D+00  6 22 -4 9900012 13 -3 21 2 0.29947901D-01 0.10111873D+00 0.11556632D+05 0.11556632D+05 0.11556632D+05 0.12028722D+01  1  2 12  1  6  2       -4 0.101019575174D-03 0.100000000000D+01
-.273169553491D-03 0.000000000000D+00 0.000000000000D+00 0.748630552842D-04 0.000000000000D+00  6 22 -4 9900012 13 -3 21 2 0.29947901D-01 0.85689612D-01 0.10631217D+05 0.10631217D+05 0.10631217D+05 0.12065846D+01  1  2  4  1  6  2       -4 -.204009566063D-03 0.100000000000D+01
-.207770922723D-03 0.000000000000D+00 -.310434099990D-05 0.748630552842D-04 0.000000000000D+00  6 22 -4 9900012 13 -3 21 2 0.29947901D-01 0.10104568D+00 0.10631217D+05 0.10631217D+05 0.10631217D+05 0.12065846D+01  1  2  5  1  6  2       -4 -.102189007497D-03 0.100000000000D+01
0.205525688294D-03 0.000000000000D+00 0.306263680088D-05 0.748630552842D-04 0.000000000000D+00  6 22 -4 9900012 13 -3 21 2 0.29947901D-01 0.85689612D-01 0.10631217D+05 0.10631217D+05 0.10631217D+05 0.12065846D+01  1  2  6  1  6  2       -4 0.153491507190D-03 0.100000000000D+01
0.318205960846D-08 0.000000000000D+00 0.000000000000D+00 0.748630552842D-04 0.166660321448D-04  6 22 -4 9900012 13 -3 21 2 0.29985453D-01 0.10099209D+00 0.11556632D+05 0.11556632D+05 0.11556632D+05 0.12028722D+01  1  2 11  1  6  2       -4 0.156240060638D-08 0.100000000000D+01
0.508658409708D-05 0.000000000000D+00 0.000000000000D+00 0.748630552842D-04 0.000000000000D+00  6 22 21 9900012 13 4 -3 2 0.29947901D-01 0.10111873D+00 0.11556632D+05 0.11556632D+05 0.11556632D+05 0.12028722D+01  3  4 12  3  5  2       -4 0.600887645162D-04 0.100000000000D+01
-.508676029485D-05 0.000000000000D+00 -.763831374184D-07 0.748630552842D-04 0.000000000000D+00  6 22 21 9900012 13 4 -3 2 0.29947901D-01 0.10104568D+00 0.10631217D+05 0.10631217D+05 0.10631217D+05 0.12065846D+01  3  4  5  3  5  2       -4 -.605574142889D-04 0.100000000000D+01
0.620574297534D-10 0.000000000000D+00 0.000000000000D+00 0.748630552842D-04 0.170982461892D-06  6 22 21 9900012 13 4 -3 2 0.29985453D-01 0.10099209D+00 0.11556632D+05 0.11556632D+05 0.11556632D+05 0.12028722D+01  3  4 11  3  5  2       -4 0.733929879879D-09 0.100000000000D+01
  </mgrwgt>
  </event>
  <event>
  6     66 0.91196180E-06 0.39051963E+02 0.78161638E-02 0.12314450E+00
       22 -1    0    0    0    0 0.00000000E+00 0.00000000E+00 0.10907395E+04 0.10907395E+04 0.00000000E+00 0.0000E+00 0.9000E+01
       -2 -1    0    0    0  501 0.00000000E+00 0.00000000E+00 -.33334051E+02 0.33334051E+02 0.00000000E+00 0.0000E+00 0.9000E+01
      -24  2    1    2    0    0 -.36470270E+02 0.23329401E+02 0.10738770E+04 0.10777524E+04 0.80399819E+02 0.0000E+00 0.0000E+00
  9900012  1    3    3    0    0 -.31619526E+02 0.41690178E+01 0.49529839E+03 0.49883632E+03 0.50000000E+02 0.0000E+00 0.9000E+01
       13  1    3    3    0    0 -.48507442E+01 0.19160383E+02 0.57857860E+03 0.57891610E+03 0.00000000E+00 0.0000E+00 0.9000E+01
       -1  1    1    2    0  501 0.36470270E+02 -.23329401E+02 -.16471498E+02 0.46321181E+02 0.00000000E+00 0.0000E+00 0.9000E+01
#aMCatNLO 1  0  0  2  5 0.13068763D+02 0.00000000D+00  -5  6  0 0.00000000D+00 0.00000000D+00 0.00000000D+00 0.00000000D+00 0.00000000D+00
  <mgrwgt>
 0.6709665255D-04    9    4    0
 0.190679750501759D+03 0.000000000000000D+00 0.000000000000000D+00 0.190679750501759D+03
 0.190679750501759D+03 0.000000000000000D+00 0.000000000000000D+00 -.190679750501759D+03
 0.970147390906620D+02 -.316195256344780D+02 0.416901781327628D+01 0.767768486586445D+02
 0.102140125985779D+03 -.485074419561829D+01 0.191603832320473D+02 0.100209557086840D+03
 0.182204635927077D+03 0.364702698300963D+02 -.233294010453236D+02 -.176986405745484D+03
 0.000000000000000D+00 -.000000000000000D+00 -.000000000000000D+00 -.000000000000000D+00
 0.191711984891017D+03 0.000000000000000D+00 0.000000000000000D+00 0.191711984891017D+03
 0.235910645300593D+03 0.000000000000000D+00 0.000000000000000D+00 -.235910645300593D+03
 0.961712861085100D+02 -.286844270095526D+02 0.560673068250396D+01 0.767768486586445D+02
 0.102336442170205D+03 -.174410698723153D+01 0.206821216351760D+02 0.100209557086840D+03
 0.183070137618389D+03 0.420199336033837D+02 -.206109836950567D+02 -.176986405745484D+03
 0.460447642945068D+02 -.115913996065995D+02 -.567786862262334D+01 -.441986604095762D+02
 0.190679750501759D+03 0.000000000000000D+00 0.000000000000000D+00 0.190679750501759D+03
 0.190679750501759D+03 0.000000000000000D+00 0.000000000000000D+00 -.190679750501759D+03
 0.970147390906620D+02 -.316195256344780D+02 0.416901781327628D+01 0.767768486586445D+02
 0.102140125985779D+03 -.485074419561829D+01 0.191603832320473D+02 0.100209557086840D+03
 0.000000000000000D+00 -.000000000000000D+00 -.000000000000000D+00 -.000000000000000D+00
 0.182204635927077D+03 0.364702698300963D+02 -.233294010453236D+02 -.176986405745484D+03
 0.191711984891017D+03 0.000000000000000D+00 0.000000000000000D+00 0.191711984891017D+03
 0.235910645300593D+03 0.000000000000000D+00 0.000000000000000D+00 -.235910645300593D+03
 0.961712861085100D+02 -.286844270095526D+02 0.560673068250396D+01 0.767768486586445D+02
 0.102336442170205D+03 -.174410698723153D+01 0.206821216351760D+02 0.100209557086840D+03
 0.460447642945068D+02 -.115913996065995D+02 -.567786862262334D+01 -.441986604095762D+02
 0.183070137618389D+03 0.420199336033837D+02 -.206109836950567D+02 -.176986405745484D+03
0.775166844484D-06 0.000000000000D+00 0.000000000000D+00 0.264443247552D-04 0.000000000000D+00  6 22 -2 9900012 13 -1 21 0 0.16780608D+00 0.51283155D-02 0.37432561D+04 0.37432561D+04 0.37432561D+04 0.12562526D+01  1  2  2  1  6  2       -2 0.428327765486D-05 0.100000000000D+01
0.292288284777D-07 0.000000000000D+00 -.148842239447D-08 0.264443247552D-04 0.000000000000D+00  6 22 -2 9900012 13 -1 21 2 0.16780608D+00 0.51283155D-02 0.37432561D+04 0.37432561D+04 0.37432561D+04 0.12562526D+01  1  2  3  1  6  2       -2 0.254886231209D-06 0.100000000000D+01
-.125905229659D-06 0.000000000000D+00 0.000000000000D+00 0.264443247552D-04 0.000000000000D+00  6 22 -2 9900012 13 -1 21 2 0.16780608D+00 0.51283155D-02 0.37432561D+04 0.37432561D+04 0.37432561D+04 0.12562526D+01  1  2 15  1  6  2       -2 -.109794032634D-05 0.100000000000D+01
0.903707708243D-05 0.000000000000D+00 0.000000000000D+00 0.264443247552D-04 0.000000000000D+00  6 22 -2 9900012 13 -1 21 2 0.16780608D+00 0.63791437D-02 0.47873404D+04 0.47873404D+04 0.47873404D+04 0.12439773D+01  1  2 12  1  6  2       -2 0.573948684990D-04 0.100000000000D+01
-.170365503008D-05 0.000000000000D+00 0.000000000000D+00 0.264443247552D-04 0.000000000000D+00  6 22 -2 9900012 13 -1 21 2 0.16780608D+00 0.51283155D-02 0.37432561D+04 0.37432561D+04 0.37432561D+04 0.12562526D+01  1  2  4  1  6  2       -2 -.148565040925D-04 0.100000000000D+01
-.909848508136D-05 0.000000000000D+00 -.445521908198D-06 0.264443247552D-04 0.000000000000D+00  6 22 -2 9900012 13 -1 21 2 0.16780608D+00 0.63727277D-02 0.37432561D+04 0.37432561D+04 0.37432561D+04 0.12562526D+01  1  2  5  1  6  2       -2 -.577699470032D-04 0.100000000000D+01
0.899253625427D-05 0.000000000000D+00 0.435210967954D-06 0.264443247552D-04 0.000000000000D+00  6 22 -2 9900012 13 -1 21 2 0.16780608D+00 0.51283155D-02 0.37432561D+04 0.37432561D+04 0.37432561D+04 0.12562526D+01  1  2  6  1  6  2       -2 0.784182532875D-04 0.100000000000D+01
0.276382756297D-06 0.000000000000D+00 0.000000000000D+00 0.264443247552D-04 0.000000000000D+00  6 22 21 9900012 13 2 -1 2 0.16780608D+00 0.63791437D-02 0.47873404D+04 0.47873404D+04 0.47873404D+04 0.12439773D+01  3  4 12  3  5  2       -2 0.275861298443D-04 0.100000000000D+01
-.271382750928D-06 0.000000000000D+00 -.135780296004D-07 0.264443247552D-04 0.000000000000D+00  6 22 21 9900012 13 2 -1 2 0.16780608D+00 0.63727277D-02 0.37432561D+04 0.37432561D+04 0.37432561D+04 0.12562526D+01  3  4  5  3  5  2       -2 -.271163715455D-04 0.100000000000D+01
  </mgrwgt>
  </event>
  <event>
  6     66 0.91196180E-06 0.51092385E+02 0.78161638E-02 0.98050581E-01
       22 -1    0    0    0    0 0.00000000E+00 0.00000000E+00 0.20042502E+03 0.20042502E+03 0.00000000E+00 0.0000E+00 0.9000E+01
       -4 -1    0    0    0  501 0.00000000E+00 0.00000000E+00 -.36279566E+03 0.36279566E+03 0.00000000E+00 0.0000E+00 0.9000E+01
      -24  2    1    2    0    0 0.22627540E+02 -.45808583E+02 0.18723836E+03 0.20989805E+03 0.79928455E+02 0.0000E+00 0.0000E+00
  9900012  1    3    3    0    0 0.35613108E+01 -.54320838E+02 0.14921105E+03 0.16651539E+03 0.50000000E+02 0.0000E+00 0.9000E+01
       13  1    3    3    0    0 0.19066230E+02 0.85122554E+01 0.38027311E+02 0.43382669E+02 0.00000000E+00 0.0000E+00 0.9000E+01
       -3  1    1    2    0  501 -.22627540E+02 0.45808583E+02 -.34960900E+03 0.35332263E+03 0.00000000E+00 0.0000E+00 0.9000E+01
#aMCatNLO 1  0  0  2  5 0.15373859D+01 0.00000000D+00  -5  6  0 0.00000000D+00 0.00000000D+00 0.00000000D+00 0.00000000D+00 0.00000000D+00
  <mgrwgt>
 0.4765397380D-04    5    4    0
 0.269654091899176D+03 0.000000000000000D+00 0.000000000000000D+00 0.269654091899176D+03
 0.269654091899176D+03 0.000000000000000D+00 0.000000000000000D+00 -.269654091899176D+03
 0.218821827614868D+03 0.356131075949760D+01 -.543208382289470D+02 0.205960083124109D+03
 0.567551838383651D+02 0.190662295073811D+02 0.851225544565587D+01 0.527747220942602D+02
 0.263731172345118D+03 -.226275402668787D+02 0.458085827832911D+02 -.258734805218370D+03
 0.000000000000000D+00 0.000000000000000D+00 -.000000000000000D+00 -.000000000000000D+00
 0.376035700651544D+03 0.000000000000000D+00 0.000000000000000D+00 0.376035700651544D+03
 0.836119607130919D+03 0.000000000000000D+00 0.000000000000000D+00 -.836119607130919D+03
 0.225193959367457D+03 -.281318574413065D+02 0.707203089077225D+02 0.205960083124109D+03
 0.694823179350581D+02 0.100555895836396D+02 0.440625275220056D+02 0.527747220942602D+02
 0.344060605815457D+03 -.660107883879093D+02 0.216971373363212D+03 -.258734805218370D+03
 0.573418424664491D+03 0.840870562455761D+02 -.331754209792940D+03 -.460083906479374D+03
 0.269654091899176D+03 0.000000000000000D+00 0.000000000000000D+00 0.269654091899176D+03
 0.269654091899176D+03 0.000000000000000D+00 0.000000000000000D+00 -.269654091899176D+03
 0.218821827614868D+03 0.356131075949760D+01 -.543208382289470D+02 0.205960083124109D+03
 0.567551838383651D+02 0.190662295073811D+02 0.851225544565587D+01 0.527747220942602D+02
 0.000000000000000D+00 0.000000000000000D+00 -.000000000000000D+00 -.000000000000000D+00
 0.263731172345118D+03 -.226275402668787D+02 0.458085827832911D+02 -.258734805218370D+03
 0.376035700651544D+03 0.000000000000000D+00 0.000000000000000D+00 0.376035700651544D+03
 0.836119607130919D+03 0.000000000000000D+00 0.000000000000000D+00 -.836119607130919D+03
 0.225193959367457D+03 -.281318574413065D+02 0.707203089077225D+02 0.205960083124109D+03
 0.694823179350581D+02 0.100555895836396D+02 0.440625275220056D+02 0.527747220942602D+02
 0.573418424664491D+03 0.840870562455761D+02 -.331754209792940D+03 -.460083906479374D+03
 0.344060605815457D+03 -.660107883879093D+02 0.216971373363212D+03 -.258734805218370D+03
0.390639535450D-04 0.000000000000D+00 0.000000000000D+00 0.861566121847D-04 0.000000000000D+00  6 22 -4 9900012 13 -3 21 0 0.30834619D-01 0.55814717D-01 0.53207959D+04 0.53207959D+04 0.53207959D+04 0.12388164D+01  1  2  2  1  6  2       -4 0.492525763513D-04 0.100000000000D+01
0.169933120941D-05 0.000000000000D+00 -.750079336940D-07 0.861566121847D-04 0.000000000000D+00  6 22 -4 9900012 13 -3 21 2 0.30834619D-01 0.55814717D-01 0.53207959D+04 0.53207959D+04 0.53207959D+04 0.12388164D+01  1  2  3  1  6  2       -4 0.328809734875D-05 0.100000000000D+01
-.616799684349D-05 0.000000000000D+00 0.000000000000D+00 0.861566121847D-04 0.000000000000D+00  6 22 -4 9900012 13 -3 21 2 0.30834619D-01 0.55814717D-01 0.53207959D+04 0.53207959D+04 0.53207959D+04 0.12388164D+01  1  2 15  1  6  2       -4 -.119346799234D-04 0.100000000000D+01
0.220207216876D-04 0.000000000000D+00 -.111621728897D-04 0.861566121847D-04 0.000000000000D+00  6 22 -4 9900012 13 -3 21 2 0.30834619D-01 0.21045642D+00 0.53207959D+04 0.53207959D+04 0.53207959D+04 0.12388164D+01  1  2  5  1  6  2       -4 0.121560246665D-05 0.100000000000D+01
0.369491358945D-05 0.000000000000D+00 -.175362085020D-05 0.861566121847D-04 0.000000000000D+00  6 22 21 9900012 13 4 -3 2 0.30834619D-01 0.21045642D+00 0.53207959D+04 0.53207959D+04 0.53207959D+04 0.12388164D+01  3  4  5  3  5  2       -4 0.583237756073D-05 0.100000000000D+01
  </mgrwgt>
  </event>
  <event>
  5     66 0.91196180E-06 0.30100086E+02 0.78161638E-02 0.11562706E+00
       22 -1    0    0    0    0 0.00000000E+00 0.00000000E+00 0.93616100E+01 0.93616100E+01 0.00000000E+00 0.0000E+00 0.9000E+01
       -4 -1    0    0    0  501 0.00000000E+00 0.00000000E+00 -.10773773E+04 0.10773773E+04 0.00000000E+00 0.0000E+00 0.9000E+01
  9900012  1    1    2    0    0 -.32944180E+01 -.44765347E+02 -.14565075E+03 0.16040241E+03 0.50000000E+02 0.0000E+00 0.9000E+01
       13  1    1    2    0    0 0.24683008E+02 0.23586505E+02 -.78365261E+03 0.78439593E+03 0.00000000E+00 0.0000E+00 0.9000E+01
       -3  1    1    2    0  501 -.21388590E+02 0.21178843E+02 -.13871233E+03 0.14194057E+03 0.00000000E+00 0.0000E+00 0.9000E+01
#aMCatNLO 1  0  0  2  5 0.78249311D+02 0.00000000D+00  -5  6  0 0.00000000D+00 0.00000000D+00 0.00000000D+00 0.00000000D+00 0.00000000D+00
  <mgrwgt>
 0.2572624744D-05    7    4    0
 0.100429010464527D+03 0.000000000000000D+00 0.000000000000000D+00 0.100429010464527D+03
 0.100429010464527D+03 0.000000000000000D+00 0.000000000000000D+00 -.100429010464527D+03
 0.933905678362327D+02 -.329441798536238D+01 -.447653474907353D+02 0.648614572372949D+02
 0.770708752962633D+02 0.246830079675301D+02 0.235865046816009D+02 -.690966405370900D+02
 0.303965777965575D+02 -.213885899821677D+02 0.211788428091344D+02 0.423518329979518D+01
 0.000000000000000D+00 -.000000000000000D+00 -.000000000000000D+00 -.000000000000000D+00
 0.128777142891669D+03 0.000000000000000D+00 0.000000000000000D+00 0.128777142891669D+03
 0.142147398343233D+03 0.000000000000000D+00 0.000000000000000D+00 -.142147398343233D+03
 0.887931639357809D+02 0.181700178798174D+02 -.291044288215412D+02 0.648614572372949D+02
 0.905066059407735D+02 0.444265715858339D+02 0.379918375777667D+02 -.690966405370900D+02
 0.302886405465027D+02 -.142388079219391D+02 0.263954791116682D+02 0.423518329979518D+01
 0.613361308118455D+02 -.483577815437122D+02 -.352828878678938D+02 -.133702554515637D+02
 0.100429010464527D+03 0.000000000000000D+00 0.000000000000000D+00 0.100429010464527D+03
 0.100429010464527D+03 0.000000000000000D+00 0.000000000000000D+00 -.100429010464527D+03
 0.933905678362327D+02 -.329441798536238D+01 -.447653474907353D+02 0.648614572372949D+02
 0.770708752962633D+02 0.246830079675301D+02 0.235865046816009D+02 -.690966405370900D+02
 0.000000000000000D+00 -.000000000000000D+00 -.000000000000000D+00 -.000000000000000D+00
 0.303965777965575D+02 -.213885899821677D+02 0.211788428091344D+02 0.423518329979518D+01
 0.128777142891669D+03 0.000000000000000D+00 0.000000000000000D+00 0.128777142891669D+03
 0.142147398343233D+03 0.000000000000000D+00 0.000000000000000D+00 -.142147398343233D+03
 0.887931639357809D+02 0.181700178798174D+02 -.291044288215412D+02 0.648614572372949D+02
 0.905066059407735D+02 0.444265715858339D+02 0.379918375777667D+02 -.690966405370900D+02
 0.613361308118455D+02 -.483577815437122D+02 -.352828878678938D+02 -.133702554515637D+02
 0.302886405465027D+02 -.142388079219391D+02 0.263954791116682D+02 0.423518329979518D+01
0.397659555026D-06 0.000000000000D+00 0.000000000000D+00 0.146424345030D-11 0.000000000000D+00  6 22 -4 9900012 13 -3 21 0 0.14402477D-02 0.16575035D+00 0.43186435D+04 0.43186435D+04 0.43186435D+04 0.12490746D+01  1  2  2  1  6  2       -4 0.220434565197D-05 0.100000000000D+01
-.463024600011D-08 0.000000000000D+00 -.763558698732D-09 0.146424345030D-11 0.000000000000D+00  6 22 -4 9900012 13 -3 21 2 0.14402477D-02 0.16575035D+00 0.43186435D+04 0.43186435D+04 0.43186435D+04 0.12490746D+01  1  2  3  1  6  2       -4 -.400450757007D-07 0.100000000000D+01
-.522541353900D-07 0.000000000000D+00 0.000000000000D+00 0.146424345030D-11 0.000000000000D+00  6 22 -4 9900012 13 -3 21 2 0.14402477D-02 0.16575035D+00 0.43186435D+04 0.43186435D+04 0.43186435D+04 0.12490746D+01  1  2 15  1  6  2       -4 -.451924326983D-06 0.100000000000D+01
-.224793659639D-07 0.000000000000D+00 0.000000000000D+00 0.146424345030D-11 0.000000000000D+00  6 22 -4 9900012 13 -3 21 2 0.14402477D-02 0.16575035D+00 0.43186435D+04 0.43186435D+04 0.43186435D+04 0.12490746D+01  1  2  4  1  6  2       -4 -.194414705333D-06 0.100000000000D+01
-.100008724031D-06 0.000000000000D+00 -.105559508703D-06 0.146424345030D-11 0.000000000000D+00  6 22 -4 9900012 13 -3 21 2 0.14402477D-02 0.27141066D+00 0.43186435D+04 0.43186435D+04 0.43186435D+04 0.12490746D+01  1  2  5  1  6  2       -4 -.161209236814D-06 0.100000000000D+01
0.145645571012D-06 0.000000000000D+00 0.939072177273D-07 0.146424345030D-11 0.000000000000D+00  6 22 -4 9900012 13 -3 21 2 0.14402477D-02 0.16575035D+00 0.43186435D+04 0.43186435D+04 0.43186435D+04 0.12490746D+01  1  2  6  1  6  2       -4 0.125962808812D-05 0.100000000000D+01
-.890476004544D-09 0.000000000000D+00 -.588722155178D-08 0.146424345030D-11 0.000000000000D+00  6 22 21 9900012 13 4 -3 2 0.14402477D-02 0.27141066D+00 0.43186435D+04 0.43186435D+04 0.43186435D+04 0.12490746D+01  3  4  5  3  5  2       -4 -.437556516997D-07 0.100000000000D+01
  </mgrwgt>
  </event>
  <event>
  6     66 0.91196180E-06 0.45220023E+02 0.78161638E-02 0.12239404E+00
       22 -1    0    0    0    0 0.00000000E+00 0.00000000E+00 0.67675043E+03 0.67675043E+03 0.00000000E+00 0.0000E+00 0.9000E+01
       -2 -1    0    0    0  501 0.00000000E+00 0.00000000E+00 -.91930249E+01 0.91930249E+01 0.00000000E+00 0.0000E+00 0.9000E+01
      -24  2    1    2    0    0 0.11027336E+02 0.54968299E+02 0.49517717E+03 0.50467553E+03 0.79710991E+02 0.0000E+00 0.0000E+00
  9900012  1    3    3    0    0 0.13478769E+02 0.17588723E+02 0.20817808E+03 0.21524208E+03 0.50000000E+02 0.0000E+00 0.9000E+01
       13  1    3    3    0    0 -.24514331E+01 0.37379576E+02 0.28699909E+03 0.28943345E+03 0.00000000E+00 0.0000E+00 0.9000E+01
       -1  1    1    2    0  501 -.11027336E+02 -.54968299E+02 0.17238023E+03 0.18126792E+03 0.00000000E+00 0.0000E+00 0.9000E+01
#aMCatNLO 1  0  0  5  2 0.19247228D+02 0.00000000D+00  -5  6  0 0.00000000D+00 0.00000000D+00 0.00000000D+00 0.00000000D+00 0.00000000D+00
  <mgrwgt>
 0.5684953693D-04    7    2    0
 0.788757476140411D+02 0.000000000000000D+00 0.000000000000000D+00 0.788757476140411D+02
 0.788757476140411D+02 -.000000000000000D+00 -.000000000000000D+00 -.788757476140411D+02
 0.549793693451684D+02 0.134787687136568D+02 0.175887232463362D+02 -.562944598694961D+01
 0.440351481309889D+02 -.245143310051017D+01 0.373795762185122D+02 0.231484778850854D+02
 0.587369777519250D+02 -.110273356131466D+02 -.549682994648484D+02 -.175190318981358D+02
 0.000000000000000D+00 0.000000000000000D+00 -.000000000000000D+00 0.000000000000000D+00
 0.788757476140411D+02 0.000000000000000D+00 0.000000000000000D+00 0.788757476140411D+02
 0.788757476140411D+02 -.000000000000000D+00 -.000000000000000D+00 -.788757476140411D+02
 0.535802557316739D+02 0.125111336707811D+02 0.127653230456513D+02 -.716671933897157D+01
 0.402917188346611D+02 -.320307194850841D+01 0.336328589029602D+02 0.219543558037496D+02
 0.413442054053492D+02 -.211631119233932D+02 -.283891378806039D+02 -.213429816266074D+02
 0.225353152563980D+02 0.118550502011205D+02 -.180090440680075D+02 0.655534516182940D+01
0.428736994237D-06 0.000000000000D+00 0.000000000000D+00 0.204968357460D-06 0.000000000000D+00  6 22 -2 9900012 13 -1 21 0 0.10411545D+00 0.14143115D-02 0.54918312D+04 0.54918312D+04 0.54918312D+04 0.12372844D+01  1  2  2  2  6  5       -1 0.421138385042D-04 0.100000000000D+01
-.100414014947D-07 0.000000000000D+00 -.823231473457D-09 0.204968357460D-06 0.000000000000D+00  6 22 -2 9900012 13 -1 21 2 0.10411545D+00 0.14143115D-02 0.54918312D+04 0.54918312D+04 0.54918312D+04 0.12372844D+01  1  2  3  2  6  5       -1 -.150996627619D-05 0.100000000000D+01
-.562751818074D-07 0.000000000000D+00 0.000000000000D+00 0.204968357460D-06 0.000000000000D+00  6 22 -2 9900012 13 -1 21 2 0.10411545D+00 0.14143115D-02 0.54918312D+04 0.54918312D+04 0.54918312D+04 0.12372844D+01  1  2 15  2  6  5       -1 -.846232737137D-05 0.100000000000D+01
0.176465023888D-06 0.000000000000D+00 0.000000000000D+00 0.204968357460D-06 0.000000000000D+00  6 22 -2 9900012 13 -1 21 2 0.10411545D+00 0.14143115D-02 0.51734901D+04 0.51734901D+04 0.51734901D+04 0.12401810D+01  1  2 12  2  6  5       -1 0.264723844441D-04 0.100000000000D+01
-.811834773508D-07 0.000000000000D+00 0.000000000000D+00 0.204968357460D-06 0.000000000000D+00  6 22 -2 9900012 13 -1 21 2 0.10411545D+00 0.14143115D-02 0.54918312D+04 0.54918312D+04 0.54918312D+04 0.12372844D+01  1  2  4  2  6  5       -1 -.122078888139D-04 0.100000000000D+01
-.154535196566D-06 0.000000000000D+00 0.000000000000D+00 0.204968357460D-06 0.000000000000D+00  6 22 -2 9900012 13 -1 21 2 0.10411545D+00 0.14143115D-02 0.54918312D+04 0.54918312D+04 0.54918312D+04 0.12372844D+01  1  2  5  2  6  5       -1 -.232380843872D-04 0.100000000000D+01
0.223985317691D-06 0.000000000000D+00 -.000000000000D+00 0.204968357460D-06 0.000000000000D+00  6 22 -2 9900012 13 -1 21 2 0.10411545D+00 0.14143115D-02 0.54918312D+04 0.54918312D+04 0.54918312D+04 0.12372844D+01  1  2  6  2  6  5       -1 0.336815808285D-04 0.100000000000D+01
  </mgrwgt>
  </event>
  <event>
  6     66 0.91196180E-06 0.44856500E+02 0.78161638E-02 0.12133099E+00
       22 -1    0    0    0    0 0.00000000E+00 0.00000000E+00 0.53109780E+03 0.53109780E+03 0.00000000E+00 0.0000E+00 0.9000E+01
       -2 -1    0    0    0  501 0.00000000E+00 0.00000000E+00 -.12930703E+02 0.12930703E+02 0.00000000E+00 0.0000E+00 0.9000E+01
      -24  2    1    2    0    0 -.15886501E+02 0.52449720E+02 0.42589823E+03 0.43671169E+03 0.79526384E+02 0.0000E+00 0.0000E+00
  9900012  1    3    3    0    0 0.11784327E+02 0.42059464E+02 0.27058926E+03 0.27861518E+03 0.50000000E+02 0.0000E+00 0.9000E+01
       13  1    3    3    0    0 -.27670828E+02 0.10390255E+02 0.15530897E+03 0.15809652E+03 0.00000000E+00 0.0000E+00 0.9000E+01
       -1  1    1    2    0  501 0.15886501E+02 -.52449720E+02 0.92268864E+02 0.10731681E+03 0.00000000E+00 0.0000E+00 0.9000E+01
#aMCatNLO 1  0  0  5  2 0.13483381D+02 0.00000000D+00  -5  6  0 0.00000000D+00 0.00000000D+00 0.00000000D+00 0.00000000D+00 0.00000000D+00
  <mgrwgt>
 0.2523172641D-04    5    2    0
 0.828701871782795D+02 0.000000000000000D+00 0.000000000000000D+00 0.828701871782795D+02
 0.828701871782795D+02 -.000000000000000D+00 -.000000000000000D+00 -.828701871782795D+02
 0.685659486980563D+02 0.117843268038929D+02 0.420594643421450D+02 0.171295190211336D+02
 0.333836140683946D+02 -.276708276483750D+02 0.103902554753236D+02 0.155188136363235D+02
 0.637908115901081D+02 0.158865008444821D+02 -.524497198174686D+02 -.326483326574572D+02
 0.000000000000000D+00 -.000000000000000D+00 0.000000000000000D+00 0.000000000000000D+00
 0.828701871782795D+02 0.000000000000000D+00 0.000000000000000D+00 0.828701871782795D+02
 0.828701871782795D+02 -.000000000000000D+00 -.000000000000000D+00 -.828701871782795D+02
 0.660027769487687D+02 0.129100251354325D+02 0.383429403154743D+02 0.148160974590272D+02
 0.318868150459657D+02 -.271248255011470D+02 0.858761435742177D+01 0.143967251469267D+02
 0.569259177258501D+02 0.197813405296128D+02 -.494288761244179D+02 -.201505553486424D+02
 0.109248646359745D+02 -.556654016389825D+01 0.249832145152182D+01 -.906226725731147D+01
0.157369648430D-06 0.000000000000D+00 0.000000000000D+00 0.245842653271D-06 0.000000000000D+00  6 22 -2 9900012 13 -1 21 0 0.81707354D-01 0.19893389D-02 0.56815351D+04 0.56815351D+04 0.56815351D+04 0.12356467D+01  1  2  2  2  6  5       -1 0.151845229268D-04 0.100000000000D+01
-.133447031002D-08 0.000000000000D+00 -.302170443176D-09 0.245842653271D-06 0.000000000000D+00  6 22 -2 9900012 13 -1 21 2 0.81707354D-01 0.19893389D-02 0.56815351D+04 0.56815351D+04 0.56815351D+04 0.12356467D+01  1  2  3  2  6  5       -1 -.196597388348D-06 0.100000000000D+01
-.244832756622D-07 0.000000000000D+00 0.000000000000D+00 0.245842653271D-06 0.000000000000D+00  6 22 -2 9900012 13 -1 21 2 0.81707354D-01 0.19893389D-02 0.56815351D+04 0.56815351D+04 0.56815351D+04 0.12356467D+01  1  2 15  2  6  5       -1 -.360693528904D-05 0.100000000000D+01
0.135539562205D-06 0.000000000000D+00 0.000000000000D+00 0.245842653271D-06 0.000000000000D+00  6 22 -2 9900012 13 -1 21 2 0.81707354D-01 0.19893389D-02 0.57844967D+04 0.57844967D+04 0.57844967D+04 0.12347835D+01  1  2 12  2  6  5       -1 0.199809515650D-04 0.100000000000D+01
-.416108805886D-07 0.000000000000D+00 0.000000000000D+00 0.245842653271D-06 0.000000000000D+00  6 22 -2 9900012 13 -1 21 2 0.81707354D-01 0.19893389D-02 0.56815351D+04 0.56815351D+04 0.56815351D+04 0.12356467D+01  1  2  4  2  6  5       -1 -.613021540391D-05 0.100000000000D+01
  </mgrwgt>
  </event>
  <event>
  7     66 -.91196180E-06 0.60202840E+02 0.78161638E-02 0.11731300E+00
       22 -1    0    0    0    0 0.00000000E+00 0.00000000E+00 0.96599075E+03 0.96599075E+03 0.00000000E+00 0.0000E+00 0.9000E+01
       -4 -1    0    0    0  501 -.00000000E+00 -.00000000E+00 -.14218190E+04 0.14218190E+04 0.00000000E+00 0.0000E+00 0.9000E+01
      -24  2    1    2    0    0 -.38771179E+02 -.51795482E+02 0.96160801E+03 0.96805286E+03 0.90831684E+02 0.0000E+00 0.0000E+00
  9900012  1    3    3    0    0 -.10687587E+02 0.86273215E+00 0.49830193E+03 0.50091894E+03 0.50000000E+02 0.0000E+00 0.9000E+01
       13  1    3    3    0    0 -.28083592E+02 -.52658214E+02 0.46330608E+03 0.46713392E+03 0.00000000E+00 0.0000E+00 0.9000E+01
       -3  1    1    2    0  502 0.49002033E+02 0.44805419E+02 -.12934221E+04 0.12951253E+04 0.00000000E+00 0.0000E+00 0.9000E+01
       21  1    1    2  502  501 -.10230854E+02 0.69900635E+01 -.12401421E+03 0.12463168E+03 0.00000000E+00 0.0000E+00 0.9000E+01
#aMCatNLO 2  0  0  5  2 0.13862601D+02 0.00000000D+00  -5  6  0 0.00000000D+00 0.00000000D+00 0.00000000D+00 0.00000000D+00 0.00000000D+00
  <mgrwgt>
 -.2037554605D-02    5    2    0
 0.117194882431050D+04 0.000000000000000D+00 0.000000000000000D+00 0.117194882431050D+04
 0.117194882431050D+04 -.000000000000000D+00 -.000000000000000D+00 -.117194882431050D+04
 0.607474854900759D+03 -.106963897931407D+02 0.850972328492816D+00 0.605318562765250D+03
 0.566233942757636D+03 -.280917971636046D+02 -.526691756999267D+02 0.563078757185944D+03
 0.117018885096260D+04 0.387881869567454D+02 0.518182033714341D+02 -.116839731995119D+04
 0.000000000000000D+00 0.000000000000000D+00 0.000000000000000D+00 -.000000000000000D+00
 0.117194882431050D+04 0.000000000000000D+00 0.000000000000000D+00 0.117194882431050D+04
 0.117194882431050D+04 -.000000000000000D+00 -.000000000000000D+00 -.117194882431050D+04
 0.607210497486708D+03 -.106875870511705D+02 0.862732153053473D+00 0.605053402134317D+03
 0.565986734516660D+03 -.280835920375152D+02 -.526582142468208D+02 0.562831598241818D+03
 0.106785140274927D+04 0.490020329247066D+02 0.448054186345177D+02 -.106578510666261D+04
 0.102849013868350D+03 -.102308538360208D+02 0.699006345924978D+01 -.102099893713528D+03
-.790932004689D+00 0.000000000000D+00 0.000000000000D+00 0.222739751316D-03 0.000000000000D+00  6 22 -4 9900012 13 -3 21 2 0.14861396D+00 0.21874139D+00 0.89874865D+04 0.89874865D+04 0.89874865D+04 0.12141658D+01  1  2 13  2  6  5       -3 -.222176953765D-02 0.100000000000D+01
-.123159081992D-02 0.000000000000D+00 0.000000000000D+00 0.222739751316D-03 0.000000000000D+00  6 22 -4 9900012 13 -3 21 2 0.14861396D+00 0.21874139D+00 0.77051865D+04 0.77051865D+04 0.77051865D+04 0.12212502D+01  1  2  8  2  6  5       -3 -.348999839208D-05 0.100000000000D+01
-.151941886061D-01 0.000000000000D+00 0.000000000000D+00 0.222739751316D-03 0.000000000000D+00  6 22 -4 9900012 13 -3 21 2 0.14861396D+00 0.21874139D+00 0.77051865D+04 0.77051865D+04 0.77051865D+04 0.12212502D+01  1  2  9  2  6  5       -3 -.430562593897D-04 0.100000000000D+01
0.165880590498D-01 0.000000000000D+00 0.000000000000D+00 0.222739751316D-03 0.000000000000D+00  6 22 -4 9900012 13 -3 21 2 0.14861396D+00 0.21874139D+00 0.77051865D+04 0.77051865D+04 0.77051865D+04 0.12212502D+01  1  2 10  2  6  5       -3 0.470061147544D-04 0.100000000000D+01
0.654153223202D-01 0.000000000000D+00 0.000000000000D+00 0.222739751316D-03 0.159864394392D-05  6 22 -4 9900012 13 -3 21 2 0.14861396D+00 0.21874139D+00 0.89874865D+04 0.89874865D+04 0.89874865D+04 0.12141658D+01  1  2  1  2  6  5       -3 0.183755075740D-03 0.100000000000D+01
  </mgrwgt>
  </event>
  <event>
  6     66 0.91196180E-06 0.92226039E+02 0.78161638E-02 0.91274766E-01
       22 -1    0    0    0    0 0.00000000E+00 0.00000000E+00 0.47088845E+03 0.47088845E+03 0.00000000E+00 0.0000E+00 0.9000E+01
       -4 -1    0    0    0  501 0.00000000E+00 0.00000000E+00 -.21339333E+03 0.21339333E+03 0.00000000E+00 0.0000E+00 0.9000E+01
      -24  2    1    2    0    0 0.89518857E+02 -.22181443E+02 0.45242847E+03 0.46863241E+03 0.80119737E+02 0.0000E+00 0.0000E+00
  9900012  1    3    3    0    0 0.64884126E+02 0.83922980E+01 0.28463671E+03 0.29630801E+03 0.50000000E+02 0.0000E+00 0.9000E+01
       13  1    3    3    0    0 0.24634731E+02 -.30573741E+02 0.16779176E+03 0.17232439E+03 0.00000000E+00 0.0000E+00 0.9000E+01
       -3  1    1    2    0  501 -.89518857E+02 0.22181443E+02 -.19493335E+03 0.21564938E+03 0.00000000E+00 0.0000E+00 0.9000E+01
#aMCatNLO 1  0  0  2  5 0.44662103D+02 0.00000000D+00  -5  6  0 0.00000000D+00 0.00000000D+00 0.00000000D+00 0.00000000D+00 0.00000000D+00
  <mgrwgt>
 0.9799700407D-05    5    4    0
 0.316992831921602D+03 0.000000000000000D+00 0.000000000000000D+00 0.316992831921602D+03
 0.316992831921602D+03 0.000000000000000D+00 0.000000000000000D+00 -.316992831921602D+03
 0.204209051618448D+03 0.648841264548254D+02 0.839229801963864D+01 0.186871496571975D+03
 0.117846333446402D+03 0.246347309024761D+02 -.305737408138165D+02 0.111113161744110D+03
 0.311930278778355D+03 -.895188573573015D+02 0.221814427941778D+02 -.297984658316085D+03
 0.000000000000000D+00 0.000000000000000D+00 0.000000000000000D+00 -.000000000000000D+00
 0.459114892947569D+03 0.000000000000000D+00 0.000000000000000D+00 0.459114892947569D+03
 0.861858757306711D+04 0.000000000000000D+00 0.000000000000000D+00 -.861858757306711D+04
 0.224098042699802D+03 -.102770941976736D+03 -.472980971715224D+02 0.186871496571975D+03
 0.152505871043357D+03 -.811910140959828D+02 -.657261380273192D+02 0.111113161744110D+03
 0.517324121824838D+03 -.414119372092174D+03 -.856419061445314D+02 -.297984658316085D+03
 0.818377443044668D+04 0.598081328164893D+03 0.198666141343373D+03 -.815947268011954D+04
 0.316992831921602D+03 0.000000000000000D+00 0.000000000000000D+00 0.316992831921602D+03
 0.316992831921602D+03 0.000000000000000D+00 0.000000000000000D+00 -.316992831921602D+03
 0.204209051618448D+03 0.648841264548254D+02 0.839229801963864D+01 0.186871496571975D+03
 0.117846333446402D+03 0.246347309024761D+02 -.305737408138165D+02 0.111113161744110D+03
 0.000000000000000D+00 0.000000000000000D+00 0.000000000000000D+00 -.000000000000000D+00
 0.311930278778355D+03 -.895188573573015D+02 0.221814427941778D+02 -.297984658316085D+03
 0.459114892947569D+03 0.000000000000000D+00 0.000000000000000D+00 0.459114892947569D+03
 0.861858757306711D+04 0.000000000000000D+00 0.000000000000000D+00 -.861858757306711D+04
 0.224098042699802D+03 -.102770941976736D+03 -.472980971715224D+02 0.186871496571975D+03
 0.152505871043357D+03 -.811910140959828D+02 -.657261380273192D+02 0.111113161744110D+03
 0.818377443044668D+04 0.598081328164893D+03 0.198666141343373D+03 -.815947268011954D+04
 0.517324121824838D+03 -.414119372092174D+03 -.856419061445314D+02 -.297984658316085D+03
0.127270355958D-04 0.000000000000D+00 0.000000000000D+00 0.579397362999D-04 0.000000000000D+00  6 22 -4 9900012 13 -3 21 0 0.72444377D-01 0.32829743D-01 0.11431097D+05 0.11431097D+05 0.11431097D+05 0.12033560D+01  1  2  2  1  6  2       -4 0.123711403765D-04 0.100000000000D+01
0.219330685952D-06 0.000000000000D+00 -.244375838967D-07 0.579397362999D-04 0.000000000000D+00  6 22 -4 9900012 13 -3 21 2 0.72444377D-01 0.32829743D-01 0.11431097D+05 0.11431097D+05 0.11431097D+05 0.12033560D+01  1  2  3  1  6  2       -4 0.308723791922D-06 0.100000000000D+01
-.204599665275D-05 0.000000000000D+00 0.000000000000D+00 0.579397362999D-04 0.000000000000D+00  6 22 -4 9900012 13 -3 21 2 0.72444377D-01 0.32829743D-01 0.11431097D+05 0.11431097D+05 0.11431097D+05 0.12033560D+01  1  2 15  1  6  2       -4 -.287988815681D-05 0.100000000000D+01
-.220032963446D-03 0.000000000000D+00 -.193330978657D-04 0.579397362999D-04 0.000000000000D+00  6 22 -4 9900012 13 -3 21 2 0.72444377D-01 0.90050582D+00 0.11431097D+05 0.11431097D+05 0.11431097D+05 0.12033560D+01  1  2  5  1  6  2       -4 -.248177525784D-10 0.100000000000D+01
-.793442291738D-04 0.000000000000D+00 -.648620185706D-05 0.579397362999D-04 0.000000000000D+00  6 22 21 9900012 13 4 -3 2 0.72444377D-01 0.90050582D+00 0.11431097D+05 0.11431097D+05 0.11431097D+05 0.12033560D+01  3  4  5  3  5  2       -4 -.250786526546D-09 0.100000000000D+01
  </mgrwgt>
  </event>
  <event>
  7     66 -.91196180E-06 0.36616052E+02 0.78161638E-02 0.12308066E+00
       22 -1    0    0    0    0 0.00000000E+00 0.00000000E+00 0.22933949E+03 0.22933949E+03 0.00000000E+00 0.0000E+00 0.9000E+01
       -4 -1    0    0    0  501 0.00000000E+00 0.00000000E+00 -.33377230E+02 0.33377230E+02 0.00000000E+00 0.0000E+00 0.9000E+01
      -24  2    1    2    0    0 -.29846559E+02 0.33562272E+02 0.18470667E+03 0.20709263E+03 0.82180047E+02 0.0000E+00 0.0000E+00
  9900012  1    3    3    0    0 0.86837650E+00 0.31088416E+02 0.14726820E+03 0.15860381E+03 0.50000000E+02 0.0000E+00 0.9000E+01
       13  1    3    3    0    0 -.30714936E+02 0.24738552E+01 0.37438469E+02 0.48488825E+02 0.00000000E+00 0.0000E+00 0.9000E+01
       -3  1    1    2    0  502 0.82803951E+01 0.10604030E+01 -.70387184E+01 0.10919384E+02 0.00000000E+00 0.0000E+00 0.9000E+01
       21  1    1    2  502  501 0.21566164E+02 -.34622675E+02 0.18294309E+02 0.44704706E+02 0.00000000E+00 0.0000E+00 0.9000E+01
#aMCatNLO 2  0  0  5  2 0.14625987D+02 0.00000000D+00  -5  6  0 0.00000000D+00 0.00000000D+00 0.00000000D+00 0.00000000D+00 0.00000000D+00
  <mgrwgt>
 -.5056087270D-05    2    2    0
 0.874912392778590D+02 0.000000000000000D+00 0.000000000000000D+00 0.874912392778590D+02
 0.874912392778590D+02 -.000000000000000D+00 -.000000000000000D+00 -.874912392778590D+02
 0.751897924579127D+02 -.557520377887041D+00 0.326918286000318D+02 0.456556502930183D+02
 0.315992652658611D+02 -.313152399334569D+02 0.314889375783111D+01 0.282024491031800D+01
 0.681934208319441D+02 0.318727603113439D+02 -.358407223578629D+02 -.484758952033363D+02
 0.000000000000000D+00 0.000000000000000D+00 -.000000000000000D+00 0.000000000000000D+00
 0.874912392778590D+02 0.000000000000000D+00 0.000000000000000D+00 0.874912392778590D+02
 0.874912392778590D+02 -.000000000000000D+00 -.000000000000000D+00 -.874912392778590D+02
 0.732008252298474D+02 0.868376496452884D+00 0.310884163607105D+02 0.434869762661670D+02
 0.308733664673465D+02 -.307149356035186D+02 0.247385524188929D+01 0.190723048973024D+01
 0.242768765488718D+02 0.828039511612571D+01 0.106040303706207D+01 -.227964325518050D+02
 0.466314103096522D+02 0.215661639909400D+02 -.346226746396619D+02 -.225977742040922D+02
-.918237643814D-07 0.000000000000D+00 0.000000000000D+00 0.742776467185D-07 0.000000000000D+00  6 22 -4 9900012 13 -3 21 2 0.35282999D-01 0.51349585D-02 0.48188437D+04 0.48188437D+04 0.48188437D+04 0.12436548D+01  1  2 13  2  6  5       -3 -.972924125146D-05 0.100000000000D+01
0.441048360295D-07 0.000000000000D+00 0.000000000000D+00 0.742776467185D-07 0.278239495362D-09  6 22 -4 9900012 13 -3 21 2 0.35282999D-01 0.51349585D-02 0.48188437D+04 0.48188437D+04 0.48188437D+04 0.12436548D+01  1  2  1  2  6  5       -3 0.467315398120D-05 0.100000000000D+01
  </mgrwgt>
  </event>
</LesHouchesEvents>
