<LesHouchesEvents version="3.0">
  <!--
  <scalesfunctionalform>
    muR  H_T/2 := sum_i mT(i)/2, i=final state
    muF1 H_T/2 := sum_i mT(i)/2, i=final state
    muF2 H_T/2 := sum_i mT(i)/2, i=final state
    QES  H_T/2 := sum_i mT(i)/2, i=final state
  </scalesfunctionalform>
PYTHIA8   
  -->
  <header>
       62
  </header>
  <init>
   2212   2212 0.65000000D+04 0.65000000D+04 -1 -1  82200  82200 -4   1
 0.27092940D-04 0.18086437D-06 0.85654518D-06     66
  </init>
  <event>
  6     66 -.85654518E-06 0.15205138E+02 0.78161638E-02 0.13051855E+00
       -2 -1    0    0    0  501 0.00000000E+00 0.00000000E+00 0.98806035E+02 0.98806035E+02 0.00000000E+00 0.0000E+00 0.9000E+01
       22 -1    0    0    0    0 0.00000000E+00 0.00000000E+00 -.48951628E+02 0.48951628E+02 0.00000000E+00 0.0000E+00 0.9000E+01
      -24  2    1    2    0    0 -.13610713E+02 0.67782549E+01 -.13307931E+02 0.82790924E+02 0.80287234E+02 0.0000E+00 0.0000E+00
  9900012  1    3    3    0    0 0.93834889E+01 0.20505505E+02 -.71720348E+01 0.55316938E+02 0.50000000E+02 0.0000E+00 0.9000E+01
       11  1    3    3    0    0 -.22994201E+02 -.13727250E+02 -.61358966E+01 0.27473986E+02 0.00000000E+00 0.0000E+00 0.9000E+01
       -1  1    1    2    0  501 0.13610713E+02 -.67782549E+01 0.63162338E+02 0.64966739E+02 0.00000000E+00 0.0000E+00 0.9000E+01
#aMCatNLO 1  0  0  0  0 0.00000000D+00 0.00000000D+00  -5  6  0 0.00000000D+00 0.00000000D+00 0.00000000D+00 0.00000000D+00 0.00000000D+00
  <mgrwgt>
 -.1700810827D-05    1    2    0
 0.695465047126175D+02 0.000000000000000D+00 0.000000000000000D+00 0.695465047126175D+02
 0.695465047126175D+02 0.000000000000000D+00 0.000000000000000D+00 -.695465047126175D+02
 0.613334856812607D+02 0.938348887814067D+01 0.205055045564856D+02 -.274457808264071D+02
 0.313847079045763D+02 -.229942013981962D+02 -.137272496354623D+02 -.163654883752506D+02
 0.463748158393981D+02 0.136107125200556D+02 -.677825492102327D+01 0.438112692016577D+02
 0.000000000000000D+00 0.000000000000000D+00 0.000000000000000D+00 0.000000000000000D+00
 0.723784964526112D+02 0.000000000000000D+00 0.000000000000000D+00 0.723784964526112D+02
 0.707531627920322D+02 0.000000000000000D+00 0.000000000000000D+00 -.707531627920322D+02
 0.609860060918494D+02 0.782862542909197D+01 0.201180187333370D+02 -.274457808264071D+02
 0.320671494657190D+02 -.238007692834056D+02 -.139282535378415D+02 -.163654883752506D+02
 0.460876035511669D+02 0.124353770584950D+02 -.707115898862940D+01 0.438112692016577D+02
 0.399090013590812D+01 0.353676679581863D+01 0.881393793133859D+00 0.162533366057907D+01
-.594664767874D-08 0.000000000000D+00 0.000000000000D+00 0.431965224697D-06 0.000000000000D+00  6 -2 22 9900012 11 -1 21 2 0.15200928D-01 0.75310198D-02 0.23442644D+04 0.23442644D+04 0.23442644D+04 0.12806812D+01  1  2 14  1  6  1       -2 -.170081082673D-05 0.100000000000D+01
  </mgrwgt>
  </event>
  <event>
  7     66 -.85654518E-06 0.29022814E+02 0.78161638E-02 0.13041764E+00
       -2 -1    0    0    0  502 0.00000000E+00 0.00000000E+00 0.28029902E+02 0.28029902E+02 0.00000000E+00 0.0000E+00 0.9000E+01
       22 -1    0    0    0    0 0.00000000E+00 0.00000000E+00 -.68712709E+03 0.68712709E+03 0.00000000E+00 0.0000E+00 0.9000E+01
      -24  2    1    2    0    0 -.20305113E+02 0.12807136E+02 -.66472932E+03 0.67022744E+03 0.82240031E+02 0.0000E+00 0.0000E+00
  9900012  1    3    3    0    0 -.10176593E+02 0.54249136E+01 -.24522901E+03 0.25053994E+03 0.50000000E+02 0.0000E+00 0.9000E+01
       11  1    3    3    0    0 -.10128520E+02 0.73822219E+01 -.41950031E+03 0.41968750E+03 0.00000000E+00 0.0000E+00 0.9000E+01
       -1  1    1    2    0  501 0.27694631E+02 -.20074675E+02 0.40198544E+01 0.34440447E+02 0.00000000E+00 0.0000E+00 0.9000E+01
       21  1    1    2  501  502 -.73895179E+01 0.72675390E+01 0.16122757E+01 0.10489115E+02 0.00000000E+00 0.0000E+00 0.9000E+01
#aMCatNLO 2  0  0  1  5 0.10518389D+02 0.00000000D+00  -5  6  0 0.00000000D+00 0.00000000D+00 0.00000000D+00 0.00000000D+00 0.00000000D+00
  <mgrwgt>
 -.9780467618D-04    1    2    0
 0.122385049112445D+03 0.000000000000000D+00 0.000000000000000D+00 0.122385049112445D+03
 0.122385049112445D+03 0.000000000000000D+00 0.000000000000000D+00 -.122385049112445D+03
 0.597987421665498D+02 -.119732186882624D+02 0.719188271217891D+01 -.296784167704210D+02
 0.764021749973192D+02 -.124250949636629D+02 0.964088681505240D+01 -.747660528641462D+02
 0.108569181061020D+03 0.243983136519253D+02 -.168327695272313D+02 0.104444469634567D+03
 0.000000000000000D+00 -.000000000000000D+00 0.000000000000000D+00 0.000000000000000D+00
 0.156216507329303D+03 0.000000000000000D+00 0.000000000000000D+00 0.156216507329303D+03
 0.123291102217765D+03 0.000000000000000D+00 0.000000000000000D+00 -.123291102217765D+03
 0.592773240638133D+02 -.101765926678025D+02 0.542491362522596D+01 -.296784167704210D+02
 0.758092790326502D+02 -.101285204497448D+02 0.738222189215511D+01 -.747660528641462D+02
 0.109902831538083D+03 0.276946309976667D+02 -.200746745115646D+02 0.104444469634567D+03
 0.345181749125216D+02 -.738951788011952D+01 0.726753899418349D+01 0.329254051115374D+02
-.330242077262D-05 0.000000000000D+00 0.000000000000D+00 0.145088710260D-05 0.000000000000D+00  6 -2 22 9900012 11 -1 21 2 0.43442179D-02 0.10493500D+00 0.29384815D+04 0.29384815D+04 0.29384815D+04 0.12687050D+01  1  2 13  1  6  1       -2 -.978046761811D-04 0.100000000000D+01
  </mgrwgt>
  </event>
  <event>
  6     66 0.85654518E-06 0.65585898E+02 0.78161638E-02 0.10825881E+00
       -2 -1    0    0    0  501 0.00000000E+00 0.00000000E+00 0.16185489E+03 0.16185489E+03 0.00000000E+00 0.0000E+00 0.9000E+01
       22 -1    0    0    0    0 0.00000000E+00 0.00000000E+00 -.13820773E+03 0.13820773E+03 0.00000000E+00 0.0000E+00 0.9000E+01
      -24  2    1    2    0    0 -.73412277E+02 -.11780254E+03 0.81451686E+01 0.16039476E+03 0.79958342E+02 0.0000E+00 0.0000E+00
  9900012  1    3    3    0    0 -.75079225E+02 -.95907977E+02 -.98129652E+01 0.13202850E+03 0.50000000E+02 0.0000E+00 0.9000E+01
       11  1    3    3    0    0 0.16669478E+01 -.21894560E+02 0.17958134E+02 0.28366266E+02 0.00000000E+00 0.0000E+00 0.9000E+01
       -1  1    1    2    0  501 0.73412277E+02 0.11780254E+03 0.15501989E+02 0.13966786E+03 0.00000000E+00 0.0000E+00 0.9000E+01
#aMCatNLO 1  0  0  1  5 0.41972264D+02 0.00000000D+00  -5  6  0 0.00000000D+00 0.00000000D+00 0.00000000D+00 0.00000000D+00 0.00000000D+00
  <mgrwgt>
 0.3524539579D-04    9    4    0
 0.149564694791889D+03 0.000000000000000D+00 0.000000000000000D+00 0.149564694791889D+03
 0.149564694791889D+03 0.000000000000000D+00 0.000000000000000D+00 -.149564694791889D+03
 0.133216153310941D+03 -.750792245374871D+02 -.959079770553092D+02 -.202808649463512D+02
 0.270351149947016D+02 0.166694777925937D+01 -.218945600573084D+02 0.157717141672957D+02
 0.138878121278136D+03 0.734122767582277D+02 0.117802537112618D+03 0.450915077905557D+01
 0.000000000000000D+00 -.000000000000000D+00 0.000000000000000D+00 0.000000000000000D+00
 0.184922995931545D+03 0.000000000000000D+00 0.000000000000000D+00 0.184922995931545D+03
 0.160364848293059D+03 0.000000000000000D+00 0.000000000000000D+00 -.160364848293059D+03
 0.128361701903507D+03 -.597357581292157D+02 -.999852600802758D+02 -.202808649463512D+02
 0.281163838170267D+02 0.490198909684271D+01 -.227542210164602D+02 0.157717141672957D+02
 0.144863226965875D+03 0.900557951548842D+02 0.113379785875790D+03 0.450915077905557D+01
 0.439465315381946D+02 -.352220261225112D+02 0.935969522094612D+01 0.245581476384859D+02
 0.149564694791889D+03 0.000000000000000D+00 0.000000000000000D+00 0.149564694791889D+03
 0.149564694791889D+03 0.000000000000000D+00 0.000000000000000D+00 -.149564694791889D+03
 0.133216153310941D+03 -.750792245374871D+02 -.959079770553092D+02 -.202808649463512D+02
 0.270351149947016D+02 0.166694777925937D+01 -.218945600573084D+02 0.157717141672957D+02
 0.000000000000000D+00 -.000000000000000D+00 0.000000000000000D+00 0.000000000000000D+00
 0.138878121278136D+03 0.734122767582277D+02 0.117802537112618D+03 0.450915077905557D+01
 0.184922995931545D+03 0.000000000000000D+00 0.000000000000000D+00 0.184922995931545D+03
 0.160364848293059D+03 0.000000000000000D+00 0.000000000000000D+00 -.160364848293059D+03
 0.128361701903507D+03 -.597357581292157D+02 -.999852600802758D+02 -.202808649463512D+02
 0.281163838170267D+02 0.490198909684271D+01 -.227542210164602D+02 0.157717141672957D+02
 0.439465315381946D+02 -.352220261225112D+02 0.935969522094612D+01 0.245581476384859D+02
 0.144863226965875D+03 0.900557951548842D+02 0.113379785875790D+03 0.450915077905557D+01
0.105752550399D-05 0.000000000000D+00 0.000000000000D+00 0.238065365621D-06 0.000000000000D+00  6 -2 22 9900012 11 -1 21 0 0.24900753D-01 0.21262728D-01 0.21378263D+05 0.21378263D+05 0.21378263D+05 0.11765504D+01  1  2  2  1  6  1       -2 0.229689525792D-04 0.100000000000D+01
-.467393708939D-07 0.000000000000D+00 -.203058819408D-08 0.238065365621D-06 0.000000000000D+00  6 -2 22 9900012 11 -1 21 2 0.24900753D-01 0.21262728D-01 0.21378263D+05 0.21378263D+05 0.21378263D+05 0.11765504D+01  1  2  3  1  6  1       -2 -.140525220383D-05 0.100000000000D+01
-.152024840046D-06 0.000000000000D+00 0.000000000000D+00 0.238065365621D-06 0.000000000000D+00  6 -2 22 9900012 11 -1 21 2 0.24900753D-01 0.21262728D-01 0.21378263D+05 0.21378263D+05 0.21378263D+05 0.11765504D+01  1  2 15  1  6  1       -2 -.457073421027D-05 0.100000000000D+01
0.965364365181D-06 0.000000000000D+00 0.000000000000D+00 0.238065365621D-06 0.000000000000D+00  6 -2 22 9900012 11 -1 21 2 0.33010674D-01 0.21262728D-01 0.27433812D+05 0.27433812D+05 0.27433812D+05 0.11663706D+01  1  2 12  1  6  1       -2 0.178885684872D-04 0.100000000000D+01
-.606395344134D-06 0.000000000000D+00 0.000000000000D+00 0.238065365621D-06 0.000000000000D+00  6 -2 22 9900012 11 -1 21 2 0.24900753D-01 0.21262728D-01 0.21378263D+05 0.21378263D+05 0.21378263D+05 0.11765504D+01  1  2  4  1  6  1       -2 -.182317043947D-04 0.100000000000D+01
-.194426238219D-05 0.000000000000D+00 -.506751244140D-06 0.238065365621D-06 0.000000000000D+00  6 -2 22 9900012 11 -1 21 2 0.32764660D-01 0.21262728D-01 0.21378263D+05 0.21378263D+05 0.21378263D+05 0.11765504D+01  1  2  5  1  6  1       -2 -.365895226402D-04 0.100000000000D+01
0.202509634232D-05 0.000000000000D+00 0.488247129285D-06 0.238065365621D-06 0.000000000000D+00  6 -2 22 9900012 11 -1 21 2 0.24900753D-01 0.21262728D-01 0.21378263D+05 0.21378263D+05 0.21378263D+05 0.11765504D+01  1  2  6  1  6  1       -2 0.608859521124D-04 0.100000000000D+01
0.356747322792D-07 0.000000000000D+00 0.000000000000D+00 0.238065365621D-06 0.000000000000D+00  6 21 22 9900012 11 2 -1 2 0.33010674D-01 0.21262728D-01 0.27433812D+05 0.27433812D+05 0.27433812D+05 0.11663706D+01  3  4 12  3  5  1       -2 0.774870815703D-05 0.100000000000D+01
-.605811695033D-07 0.000000000000D+00 -.183640693192D-07 0.238065365621D-06 0.000000000000D+00  6 21 22 9900012 11 2 -1 2 0.32764660D-01 0.21262728D-01 0.21378263D+05 0.21378263D+05 0.21378263D+05 0.11765504D+01  3  4  5  3  5  1       -2 -.134495720921D-04 0.100000000000D+01
  </mgrwgt>
  </event>
  <event>
  6     66 0.85654518E-06 0.24646449E+02 0.78161638E-02 0.12821243E+00
       -4 -1    0    0    0  501 0.00000000E+00 0.00000000E+00 0.91199345E+02 0.91199345E+02 0.00000000E+00 0.0000E+00 0.9000E+01
       22 -1    0    0    0    0 0.00000000E+00 0.00000000E+00 -.58780202E+02 0.58780202E+02 0.00000000E+00 0.0000E+00 0.9000E+01
      -24  2    1    2    0    0 0.18574282E+01 0.24576358E+02 -.26021296E+02 0.86554533E+02 0.78785354E+02 0.0000E+00 0.0000E+00
  9900012  1    3    3    0    0 -.16055372E+01 -.71658485E+01 -.17836353E+02 0.53591628E+02 0.50000000E+02 0.0000E+00 0.9000E+01
       11  1    3    3    0    0 0.34629654E+01 0.31742207E+02 -.81849426E+01 0.32962905E+02 0.00000000E+00 0.0000E+00 0.9000E+01
       -3  1    1    2    0  501 -.18574282E+01 -.24576358E+02 0.58440439E+02 0.63425013E+02 0.00000000E+00 0.0000E+00 0.9000E+01
#aMCatNLO 1  0  0  5  1 0.95998113D+01 0.00000000D+00  -5  6  0 0.00000000D+00 0.00000000D+00 0.00000000D+00 0.00000000D+00 0.00000000D+00
  <mgrwgt>
 0.2640301581D-04    8    2    0
 0.732169099107686D+02 0.000000000000000D+00 0.000000000000000D+00 0.732169099107686D+02
 0.732169099107686D+02 -.000000000000000D+00 -.000000000000000D+00 -.732169099107686D+02
 0.588380976757570D+02 -.160553722351619D+01 -.716584846578552D+01 -.301329488117447D+02
 0.355731374397220D+02 0.346296543668947D+01 0.317422069200148D+02 -.156808251548383D+02
 0.520225847060583D+02 -.185742821317327D+01 -.245763584542293D+02 0.458137739665829D+02
 0.000000000000000D+00 -.000000000000000D+00 0.000000000000000D+00 0.000000000000000D+00
 0.732169099107686D+02 0.000000000000000D+00 0.000000000000000D+00 0.732169099107686D+02
 0.732169099107686D+02 -.000000000000000D+00 -.000000000000000D+00 -.732169099107686D+02
 0.579909827324765D+02 -.168596346543027D+01 -.822999949805075D+01 -.281492222580609D+02
 0.344836458406342D+02 0.341473768568655D+01 0.311040867021335D+02 -.144912797028558D+02
 0.429423303933745D+02 0.472781616495008D+01 -.142816807775208D+02 0.402209533463985D+02
 0.110168608550521D+02 -.645659038520636D+01 -.859240642656198D+01 0.241954861451817D+01
0.970466498908D-07 0.000000000000D+00 0.000000000000D+00 0.217608994905D-06 0.000000000000D+00  6 -4 22 9900012 11 -3 21 0 0.14030668D-01 0.90431080D-02 0.28683196D+04 0.28683196D+04 0.28683196D+04 0.12699704D+01  1  2  2  2  6  5       -3 0.920725579899D-05 0.100000000000D+01
0.575285146875D-08 0.000000000000D+00 -.186342344275D-09 0.217608994905D-06 0.000000000000D+00  6 -4 22 9900012 11 -3 21 2 0.14030668D-01 0.90431080D-02 0.28683196D+04 0.28683196D+04 0.28683196D+04 0.12699704D+01  1  2  3  2  6  5       -3 0.880278343244D-06 0.100000000000D+01
-.143844714948D-07 0.000000000000D+00 0.000000000000D+00 0.217608994905D-06 0.000000000000D+00  6 -4 22 9900012 11 -3 21 2 0.14030668D-01 0.90431080D-02 0.28683196D+04 0.28683196D+04 0.28683196D+04 0.12699704D+01  1  2 15  2  6  5       -3 -.220105434751D-05 0.100000000000D+01
0.108885500971D-06 0.000000000000D+00 0.000000000000D+00 0.217608994905D-06 0.000000000000D+00  6 -4 22 9900012 11 -3 21 2 0.14030668D-01 0.90431080D-02 0.29043252D+04 0.29043252D+04 0.29043252D+04 0.12693167D+01  1  2 12  2  6  5       -3 0.166740712806D-04 0.100000000000D+01
-.120659674798D-07 0.000000000000D+00 0.000000000000D+00 0.217608994905D-06 0.000000000000D+00  6 -4 22 9900012 11 -3 21 2 0.14030668D-01 0.90431080D-02 0.28683196D+04 0.28683196D+04 0.28683196D+04 0.12699704D+01  1  2  4  2  6  5       -3 -.184628612791D-05 0.100000000000D+01
-.103208970157D-06 0.000000000000D+00 0.000000000000D+00 0.217608994905D-06 0.000000000000D+00  6 -4 22 9900012 11 -3 21 2 0.14030668D-01 0.90431080D-02 0.28683196D+04 0.28683196D+04 0.28683196D+04 0.12699704D+01  1  2  5  2  6  5       -3 -.157926241884D-04 0.100000000000D+01
0.127315891898D-06 0.000000000000D+00 -.000000000000D+00 0.217608994905D-06 0.000000000000D+00  6 -4 22 9900012 11 -3 21 2 0.14030668D-01 0.90431080D-02 0.28683196D+04 0.28683196D+04 0.28683196D+04 0.12699704D+01  1  2  6  2  6  5       -3 0.194813690215D-04 0.100000000000D+01
0.393616745786D-13 0.000000000000D+00 0.000000000000D+00 0.217608994905D-06 0.160028941674D-08  6 -4 22 9900012 11 -3 21 2 0.14030668D-01 0.90431080D-02 0.29043252D+04 0.29043252D+04 0.29043252D+04 0.12693167D+01  1  2 11  2  6  5       -3 0.602761030435D-11 0.100000000000D+01
  </mgrwgt>
  </event>
  <event>
  6     66 0.85654518E-06 0.34685329E+02 0.78161638E-02 0.12559569E+00
       -4 -1    0    0    0  501 0.00000000E+00 0.00000000E+00 0.15092813E+03 0.15092813E+03 0.00000000E+00 0.0000E+00 0.9000E+01
       22 -1    0    0    0    0 -.00000000E+00 -.00000000E+00 -.13389984E+04 0.13389984E+04 0.00000000E+00 0.0000E+00 0.9000E+01
      -24  2    1    2    0    0 0.27128081E+02 0.21963749E+02 -.13355022E+04 0.13384190E+04 0.81122573E+02 0.0000E+00 0.0000E+00
  9900012  1    3    3    0    0 0.10055400E+02 -.92450406E+01 -.69536811E+03 0.69729720E+03 0.50000000E+02 0.0000E+00 0.9000E+01
       11  1    3    3    0    0 0.17072680E+02 0.31208790E+02 -.64013413E+03 0.64112180E+03 0.00000000E+00 0.0000E+00 0.9000E+01
       -3  1    1    2    0  501 -.27128081E+02 -.21963749E+02 0.14743198E+03 0.15150752E+03 0.00000000E+00 0.0000E+00 0.9000E+01
#aMCatNLO 1  0  0  5  1 0.16182577D+01 0.00000000D+00  -5  6  0 0.00000000D+00 0.00000000D+00 0.00000000D+00 0.00000000D+00 0.00000000D+00
  <mgrwgt>
 0.3113124051D-03    8    2    0
 0.449547025726481D+03 0.000000000000000D+00 0.000000000000000D+00 0.449547025726481D+03
 0.449547025726481D+03 -.000000000000000D+00 -.000000000000000D+00 -.449547025726481D+03
 0.236655363598597D+03 0.100554004800878D+02 -.924504064719921D+01 -.230909461184683D+03
 0.216551385930256D+03 0.170726802086819D+02 0.312087899383774D+02 -.213609545127059D+03
 0.445887301924108D+03 -.271280806887695D+02 -.219637492911780D+02 0.444519006311742D+03
 0.000000000000000D+00 0.000000000000000D+00 -.000000000000000D+00 0.000000000000000D+00
 0.449547025726481D+03 0.000000000000000D+00 0.000000000000000D+00 0.449547025726481D+03
 0.449547025726481D+03 -.000000000000000D+00 -.000000000000000D+00 -.449547025726481D+03
 0.236641008066409D+03 0.100545031991118D+02 -.924576711416256D+01 -.230894758395629D+03
 0.216537954398115D+03 0.170718591526815D+02 0.312081251855570D+02 -.213596091355609D+03
 0.421171486518472D+03 -.244723819247142D+02 -.196175123530355D+02 0.420001996171672D+03
 0.247436024699652D+02 -.265398042707889D+01 -.234484571835881D+01 0.244888535795665D+02
0.151640936287D-04 0.000000000000D+00 0.000000000000D+00 0.481305396125D-03 0.000000000000D+00  6 -4 22 9900012 11 -3 21 0 0.23219713D-01 0.20599975D+00 0.37399546D+04 0.37399546D+04 0.37399546D+04 0.12562973D+01  1  2  2  2  6  5       -3 0.292504810505D-05 0.100000000000D+01
0.116567548124D-05 0.000000000000D+00 -.291170561659D-07 0.481305396125D-03 0.000000000000D+00  6 -4 22 9900012 11 -3 21 2 0.23219713D-01 0.20599975D+00 0.37399546D+04 0.37399546D+04 0.37399546D+04 0.12562973D+01  1  2  3  2  6  5       -3 0.354877972972D-06 0.100000000000D+01
-.236044902702D-05 0.000000000000D+00 0.000000000000D+00 0.481305396125D-03 0.000000000000D+00  6 -4 22 9900012 11 -3 21 2 0.23219713D-01 0.20599975D+00 0.37399546D+04 0.37399546D+04 0.37399546D+04 0.12562973D+01  1  2 15  2  6  5       -3 -.718614553957D-06 0.100000000000D+01
0.341199693913D-05 0.000000000000D+00 0.000000000000D+00 0.481305396125D-03 0.000000000000D+00  6 -4 22 9900012 11 -3 21 2 0.23219713D-01 0.20599975D+00 0.37399802D+04 0.37399802D+04 0.37399802D+04 0.12562969D+01  1  2 12  2  6  5       -3 0.103874760467D-05 0.100000000000D+01
-.486803058147D-02 0.000000000000D+00 0.000000000000D+00 0.481305396125D-03 0.000000000000D+00  6 -4 22 9900012 11 -3 21 2 0.23219713D-01 0.20599975D+00 0.37399546D+04 0.37399546D+04 0.37399546D+04 0.12562973D+01  1  2  4  2  6  5       -3 -.148202210042D-02 0.100000000000D+01
-.179563314643D-01 0.000000000000D+00 0.000000000000D+00 0.481305396125D-03 0.000000000000D+00  6 -4 22 9900012 11 -3 21 2 0.23219713D-01 0.20599975D+00 0.37399546D+04 0.37399546D+04 0.37399546D+04 0.12562973D+01  1  2  5  2  6  5       -3 -.546662138357D-02 0.100000000000D+01
0.189803842702D-01 0.000000000000D+00 -.000000000000D+00 0.481305396125D-03 0.000000000000D+00  6 -4 22 9900012 11 -3 21 2 0.23219713D-01 0.20599975D+00 0.37399546D+04 0.37399546D+04 0.37399546D+04 0.12562973D+01  1  2  6  2  6  5       -3 0.577838378214D-02 0.100000000000D+01
0.485472705832D-02 0.000000000000D+00 0.000000000000D+00 0.481305396125D-03 0.411852014638D-03  6 -4 22 9900012 11 -3 21 2 0.23219713D-01 0.20599975D+00 0.37399802D+04 0.37399802D+04 0.37399802D+04 0.12562969D+01  1  2 11  2  6  5       -3 0.147797204778D-02 0.100000000000D+01
  </mgrwgt>
  </event>
  <event>
  6     66 0.85654518E-06 0.50324893E+02 0.78161638E-02 0.11894853E+00
       -2 -1    0    0    0  501 0.00000000E+00 0.00000000E+00 0.26461631E+02 0.26461631E+02 0.00000000E+00 0.0000E+00 0.9000E+01
       22 -1    0    0    0    0 -.00000000E+00 -.00000000E+00 -.41132445E+03 0.41132445E+03 0.00000000E+00 0.0000E+00 0.9000E+01
      -24  2    1    2    0    0 0.18359601E+01 -.68576815E+02 -.33966492E+03 0.35563378E+03 0.79981111E+02 0.0000E+00 0.0000E+00
  9900012  1    3    3    0    0 -.15326219E+02 -.70079995E+02 -.26697263E+03 0.28092789E+03 0.50000000E+02 0.0000E+00 0.9000E+01
       11  1    3    3    0    0 0.17162179E+02 0.15031802E+01 -.72692290E+02 0.74705883E+02 0.00000000E+00 0.0000E+00 0.9000E+01
       -1  1    1    2    0  501 -.18359601E+01 0.68576815E+02 -.45197902E+02 0.82152302E+02 0.00000000E+00 0.0000E+00 0.9000E+01
#aMCatNLO 1  0  0  5  1 0.90729047D+01 0.00000000D+00  -5  6  0 0.00000000D+00 0.00000000D+00 0.00000000D+00 0.00000000D+00 0.00000000D+00
  <mgrwgt>
 0.7828976478D-04    8    2    0
 0.104327923589615D+03 0.000000000000000D+00 0.000000000000000D+00 0.104327923589615D+03
 0.104327923589615D+03 -.000000000000000D+00 -.000000000000000D+00 -.104327923589615D+03
 0.969945703310390D+02 -.153262192680282D+02 -.700799954243076D+02 -.419743721570702D+02
 0.226623704705526D+02 0.171621793295592D+02 0.150318016607396D+01 -.147235554603141D+02
 0.889989063776381D+02 -.183596006153106D+01 0.685768152582337D+02 0.566979276173843D+02
 0.000000000000000D+00 0.000000000000000D+00 0.000000000000000D+00 0.000000000000000D+00
 0.104327923589615D+03 0.000000000000000D+00 0.000000000000000D+00 0.104327923589615D+03
 0.104327923589615D+03 -.000000000000000D+00 -.000000000000000D+00 -.104327923589615D+03
 0.959790162408237D+02 -.153515469497875D+02 -.691339553718453D+02 -.411922053239259D+02
 0.225550782979682D+02 0.171562445631867D+02 0.172485567288873D+01 -.145402786226160D+02
 0.696302936400493D+02 -.802776302523869D+01 0.492490937955272D+02 0.485639740294126D+02
 0.204914590003886D+02 0.622306541183953D+01 0.181600059034294D+02 0.716850991712932D+01
0.309097603348D-06 0.000000000000D+00 0.000000000000D+00 0.820336401751D-06 0.000000000000D+00  6 -2 22 9900012 11 -1 21 0 0.40710201D-02 0.63280684D-01 0.75057310D+04 0.75057310D+04 0.75057310D+04 0.12224697D+01  1  2  2  2  6  5       -1 0.173667162919D-04 0.100000000000D+01
-.133102645979D-08 0.000000000000D+00 -.593508092061D-09 0.820336401751D-06 0.000000000000D+00  6 -2 22 9900012 11 -1 21 2 0.40710201D-02 0.63280684D-01 0.75057310D+04 0.75057310D+04 0.75057310D+04 0.12224697D+01  1  2  3  2  6  5       -1 -.111759630065D-06 0.100000000000D+01
-.441823140662D-07 0.000000000000D+00 0.000000000000D+00 0.820336401751D-06 0.000000000000D+00  6 -2 22 9900012 11 -1 21 2 0.40710201D-02 0.63280684D-01 0.75057310D+04 0.75057310D+04 0.75057310D+04 0.12224697D+01  1  2 15  2  6  5       -1 -.370976778045D-05 0.100000000000D+01
0.110483413223D-05 0.000000000000D+00 0.000000000000D+00 0.820336401751D-06 0.000000000000D+00  6 -2 22 9900012 11 -1 21 2 0.40710201D-02 0.63280684D-01 0.74847234D+04 0.74847234D+04 0.74847234D+04 0.12226002D+01  1  2 12  2  6  5       -1 0.927610974238D-04 0.100000000000D+01
-.611147218698D-06 0.000000000000D+00 0.000000000000D+00 0.820336401751D-06 0.000000000000D+00  6 -2 22 9900012 11 -1 21 2 0.40710201D-02 0.63280684D-01 0.75057310D+04 0.75057310D+04 0.75057310D+04 0.12224697D+01  1  2  4  2  6  5       -1 -.513149731733D-04 0.100000000000D+01
-.108415429235D-05 0.000000000000D+00 0.000000000000D+00 0.820336401751D-06 0.000000000000D+00  6 -2 22 9900012 11 -1 21 2 0.40710201D-02 0.63280684D-01 0.75057310D+04 0.75057310D+04 0.75057310D+04 0.12224697D+01  1  2  5  2  6  5       -1 -.910310097557D-04 0.100000000000D+01
0.136155439692D-05 0.000000000000D+00 -.000000000000D+00 0.820336401751D-06 0.000000000000D+00  6 -2 22 9900012 11 -1 21 2 0.40710201D-02 0.63280684D-01 0.75057310D+04 0.75057310D+04 0.75057310D+04 0.12224697D+01  1  2  6  2  6  5       -1 0.114322908154D-03 0.100000000000D+01
0.780527255722D-10 0.000000000000D+00 0.000000000000D+00 0.820336401751D-06 0.267311315517D-07  6 -2 22 9900012 11 -1 21 2 0.40710201D-02 0.63280684D-01 0.74847234D+04 0.74847234D+04 0.74847234D+04 0.12226002D+01  1  2 11  2  6  5       -1 0.655325199481D-08 0.100000000000D+01
  </mgrwgt>
  </event>
  <event>
  6     66 0.85654518E-06 0.11955636E+03 0.78161638E-02 0.11264162E+00
       -4 -1    0    0    0  501 0.00000000E+00 0.00000000E+00 0.13688729E+03 0.13688729E+03 0.00000000E+00 0.0000E+00 0.9000E+01
       22 -1    0    0    0    0 -.00000000E+00 -.00000000E+00 -.45726971E+03 0.45726971E+03 0.00000000E+00 0.0000E+00 0.9000E+01
      -24  2    1    2    0    0 0.23334203E+02 -.11725714E+03 -.41664944E+03 0.44066087E+03 0.79319136E+02 0.0000E+00 0.0000E+00
  9900012  1    3    3    0    0 -.75902187E+01 -.78736233E+02 -.25479171E+03 0.27143290E+03 0.50000000E+02 0.0000E+00 0.9000E+01
       11  1    3    3    0    0 0.30924421E+02 -.38520909E+02 -.16185773E+03 0.16922796E+03 0.00000000E+00 0.0000E+00 0.9000E+01
       -3  1    1    2    0  501 -.23334203E+02 0.11725714E+03 0.96267018E+02 0.15349613E+03 0.00000000E+00 0.0000E+00 0.9000E+01
#aMCatNLO 1  0  0  5  1 0.15127992D+03 0.00000000D+00  -5  6  0 0.00000000D+00 0.00000000D+00 0.00000000D+00 0.00000000D+00 0.00000000D+00
  <mgrwgt>
 0.1876168879D-04    3    2    0
 0.250188749010223D+03 0.000000000000000D+00 0.000000000000000D+00 0.250188749010223D+03
 0.250188749010223D+03 -.000000000000000D+00 -.000000000000000D+00 -.250188749010223D+03
 0.159165778697234D+03 -.759021873717284D+01 -.787362328132247D+02 -.128750686717393D+03
 0.973097492345126D+02 0.309244213095627D+02 -.385209085097782D+02 -.838391738409539D+02
 0.243901970088700D+03 -.233342025723898D+02 0.117257141323003D+03 0.212589860558347D+03
 0.000000000000000D+00 0.000000000000000D+00 0.000000000000000D+00 0.000000000000000D+00
 0.250188749010223D+03 0.000000000000000D+00 0.000000000000000D+00 0.250188749010223D+03
 0.250188749010223D+03 -.000000000000000D+00 -.000000000000000D+00 -.250188749010223D+03
 0.100794028356494D+03 -.137997379263955D+02 -.475326608522907D+02 -.721779020046552D+02
 0.598941921258435D+02 0.271693758601836D+02 -.196513588190965D+02 -.496282516550669D+02
 0.133800600884711D+03 -.291331085064760D+02 0.102955004452223D+03 -.803375991930452D+02
 0.205888676653398D+03 0.157634705726879D+02 -.357709847808362D+02 0.202143752852767D+03
0.984445982232D-05 0.000000000000D+00 0.000000000000D+00 0.740160805665D-05 0.000000000000D+00  6 -4 22 9900012 11 -3 21 0 0.21059583D-01 0.70349186D-01 0.17230948D+05 0.17230948D+05 0.17230948D+05 0.11855722D+01  1  2  2  2  6  5       -3 0.239466116761D-04 0.100000000000D+01
0.557723520757D-07 0.000000000000D+00 -.189026589118D-07 0.740160805665D-05 0.000000000000D+00  6 -4 22 9900012 11 -3 21 2 0.21059583D-01 0.70349186D-01 0.17230948D+05 0.17230948D+05 0.17230948D+05 0.11855722D+01  1  2  3  2  6  5       -3 0.190689670655D-06 0.100000000000D+01
-.157224329616D-05 0.000000000000D+00 0.000000000000D+00 0.740160805665D-05 0.000000000000D+00  6 -4 22 9900012 11 -3 21 2 0.21059583D-01 0.70349186D-01 0.17230948D+05 0.17230948D+05 0.17230948D+05 0.11855722D+01  1  2 15  2  6  5       -3 -.537561256026D-05 0.100000000000D+01
  </mgrwgt>
  </event>
  <event>
  6     66 0.85654518E-06 0.45056701E+02 0.78161638E-02 0.12436213E+00
       -2 -1    0    0    0  501 0.00000000E+00 0.00000000E+00 0.18247825E+04 0.18247825E+04 0.00000000E+00 0.0000E+00 0.9000E+01
       22 -1    0    0    0    0 0.00000000E+00 0.00000000E+00 -.26676672E+01 0.26676672E+01 0.00000000E+00 0.0000E+00 0.9000E+01
      -24  2    1    2    0    0 0.61239718E+01 0.45376733E+02 0.11230115E+04 0.11268490E+04 0.80853249E+02 0.0000E+00 0.0000E+00
  9900012  1    3    3    0    0 -.13600180E+02 0.15203368E+02 0.53033484E+03 0.53307706E+03 0.50000000E+02 0.0000E+00 0.9000E+01
       11  1    3    3    0    0 0.19724152E+02 0.30173365E+02 0.59267671E+03 0.59377197E+03 0.00000000E+00 0.0000E+00 0.9000E+01
       -1  1    1    2    0  501 -.61239718E+01 -.45376733E+02 0.69910330E+03 0.70060115E+03 0.00000000E+00 0.0000E+00 0.9000E+01
#aMCatNLO 1  0  0  5  1 0.12165976D+02 0.00000000D+00  -5  6  0 0.00000000D+00 0.00000000D+00 0.00000000D+00 0.00000000D+00 0.00000000D+00
  <mgrwgt>
 0.2326784069D-04    7    2    0
 0.697704262964546D+02 0.000000000000000D+00 0.000000000000000D+00 0.697704262964546D+02
 0.697704262964546D+02 -.000000000000000D+00 -.000000000000000D+00 -.697704262964546D+02
 0.561898568004125D+02 -.136001801273359D+02 0.152033678975659D+02 -.155303803020448D+02
 0.370047057023196D+02 0.197241519442685D+02 0.301733653670742D+02 0.835907271291150D+01
 0.463462900901771D+02 -.612397181693261D+01 -.453767332646401D+02 0.717130758913326D+01
 0.000000000000000D+00 0.000000000000000D+00 0.000000000000000D+00 0.000000000000000D+00
 0.697704262964546D+02 0.000000000000000D+00 0.000000000000000D+00 0.697704262964546D+02
 0.697704262964546D+02 -.000000000000000D+00 -.000000000000000D+00 -.697704262964546D+02
 0.554982083729928D+02 -.139615260380940D+02 0.125259066846648D+02 -.151072361809440D+02
 0.355372341450680D+02 0.194894560232530D+02 0.284343413276799D+02 0.863390687117188D+01
 0.274583041157190D+02 -.756071684813672D+01 -.253198516268804D+02 -.746318559640421D+01
 0.210471059591293D+02 0.203278686297765D+01 -.156403963854643D+02 0.139365149061764D+02
0.255730837113D-05 0.000000000000D+00 0.000000000000D+00 0.359664596755D-07 0.000000000000D+00  6 -2 22 9900012 11 -1 21 0 0.28073577D+00 0.41041033D-03 0.46129445D+04 0.46129445D+04 0.46129445D+04 0.12458062D+01  1  2  2  2  6  5       -1 0.364486053002D-04 0.100000000000D+01
-.615744715887D-07 0.000000000000D+00 -.491036874994D-08 0.359664596755D-07 0.000000000000D+00  6 -2 22 9900012 11 -1 21 2 0.28073577D+00 0.41041033D-03 0.46129445D+04 0.46129445D+04 0.46129445D+04 0.12458062D+01  1  2  3  2  6  5       -1 -.136207014729D-05 0.100000000000D+01
-.356783645576D-06 0.000000000000D+00 0.000000000000D+00 0.359664596755D-07 0.000000000000D+00  6 -2 22 9900012 11 -1 21 2 0.28073577D+00 0.41041033D-03 0.46129445D+04 0.46129445D+04 0.46129445D+04 0.12458062D+01  1  2 15  2  6  5       -1 -.789230244517D-05 0.100000000000D+01
0.128708366152D-05 0.000000000000D+00 0.000000000000D+00 0.359664596755D-07 0.000000000000D+00  6 -2 22 9900012 11 -1 21 2 0.28073577D+00 0.41041033D-03 0.42296463D+04 0.42296463D+04 0.42296463D+04 0.12501123D+01  1  2 12  2  6  5       -1 0.285047399105D-04 0.100000000000D+01
-.209752465756D-05 0.000000000000D+00 0.000000000000D+00 0.359664596755D-07 0.000000000000D+00  6 -2 22 9900012 11 -1 21 2 0.28073577D+00 0.41041033D-03 0.46129445D+04 0.46129445D+04 0.46129445D+04 0.12458062D+01  1  2  4  2  6  5       -1 -.463987046181D-04 0.100000000000D+01
-.116744931803D-05 0.000000000000D+00 0.000000000000D+00 0.359664596755D-07 0.000000000000D+00  6 -2 22 9900012 11 -1 21 2 0.28073577D+00 0.41041033D-03 0.46129445D+04 0.46129445D+04 0.46129445D+04 0.12458062D+01  1  2  5  2  6  5       -1 -.258247910787D-04 0.100000000000D+01
0.179887487986D-05 0.000000000000D+00 -.000000000000D+00 0.359664596755D-07 0.000000000000D+00  6 -2 22 9900012 11 -1 21 2 0.28073577D+00 0.41041033D-03 0.46129445D+04 0.46129445D+04 0.46129445D+04 0.12458062D+01  1  2  6  2  6  5       -1 0.397923637726D-04 0.100000000000D+01
  </mgrwgt>
  </event>
  <event>
  6     66 0.85654518E-06 0.33553828E+02 0.78161638E-02 0.12656000E+00
       -4 -1    0    0    0  501 0.00000000E+00 0.00000000E+00 0.30307838E+02 0.30307838E+02 0.00000000E+00 0.0000E+00 0.9000E+01
       22 -1    0    0    0    0 0.00000000E+00 0.00000000E+00 -.12679118E+04 0.12679118E+04 0.00000000E+00 0.0000E+00 0.9000E+01
      -24  2    1    2    0    0 -.15143390E+02 -.29942229E+02 -.12567067E+04 0.12596091E+04 0.78598323E+02 0.0000E+00 0.0000E+00
  9900012  1    3    3    0    0 0.10065748E+02 -.12664242E+02 -.64394386E+03 0.64608467E+03 0.50000000E+02 0.0000E+00 0.9000E+01
       11  1    3    3    0    0 -.25209138E+02 -.17277987E+02 -.61276281E+03 0.61352448E+03 0.00000000E+00 0.0000E+00 0.9000E+01
       -3  1    1    2    0  501 0.15143390E+02 0.29942229E+02 0.19102682E+02 0.38610514E+02 0.00000000E+00 0.0000E+00 0.9000E+01
#aMCatNLO 1  0  0  1  5 0.14612638D+02 0.00000000D+00  -5  6  0 0.00000000D+00 0.00000000D+00 0.00000000D+00 0.00000000D+00 0.00000000D+00
  <mgrwgt>
 0.6482019902D-04    3    2    0
 0.196029758817404D+03 0.000000000000000D+00 0.000000000000000D+00 0.196029758817404D+03
 0.196029758817404D+03 0.000000000000000D+00 0.000000000000000D+00 -.196029758817404D+03
 0.106647915959648D+03 0.100657475342603D+02 -.126642420894768D+02 -.928012698049537D+02
 0.972603615025776D+02 -.252091378096331D+02 -.172779872074358D+02 -.923338965308336D+02
 0.188151240172582D+03 0.151433902753729D+02 0.299422292969126D+02 0.185135166335787D+03
 0.000000000000000D+00 -.000000000000000D+00 -.000000000000000D+00 -.000000000000000D+00
 0.226573754088974D+03 0.000000000000000D+00 0.000000000000000D+00 0.226573754088974D+03
 0.569787715230145D+03 0.000000000000000D+00 0.000000000000000D+00 -.569787715230145D+03
 0.115727324701240D+03 0.473615446679801D+02 0.613368500636306D+01 -.928012698049537D+02
 0.925797997011993D+02 0.663001891953613D+01 -.123033055480952D+01 -.923338965308336D+02
 0.212422944717344D+03 0.823259304370373D+02 0.638037522868715D+02 0.185135166335787D+03
 0.375631400199335D+03 -.136317494024554D+03 -.687071067384251D+02 -.343213961141171D+03
0.245510448922D-04 0.000000000000D+00 0.000000000000D+00 0.148639244890D-04 0.000000000000D+00  6 -4 22 9900012 11 -3 21 0 0.46627443D-02 0.19506336D+00 0.34028337D+04 0.34028337D+04 0.34028337D+04 0.12611106D+01  1  2  2  1  6  1       -4 0.736123542465D-04 0.100000000000D+01
0.172168147182D-05 0.000000000000D+00 -.471412384123D-07 0.148639244890D-04 0.000000000000D+00  6 -4 22 9900012 11 -3 21 2 0.46627443D-02 0.19506336D+00 0.34028337D+04 0.34028337D+04 0.34028337D+04 0.12611106D+01  1  2  3  1  6  1       -4 0.820993777367D-05 0.100000000000D+01
-.356545802200D-05 0.000000000000D+00 0.000000000000D+00 0.148639244890D-04 0.000000000000D+00  6 -4 22 9900012 11 -3 21 2 0.46627443D-02 0.19506336D+00 0.34028337D+04 0.34028337D+04 0.34028337D+04 0.12611106D+01  1  2 15  1  6  1       -4 -.170020929971D-04 0.100000000000D+01
  </mgrwgt>
  </event>
  <event>
  6     66 0.85654518E-06 0.86684475E+02 0.78161638E-02 0.11644889E+00
       -4 -1    0    0    0  501 0.00000000E+00 0.00000000E+00 0.88218750E+02 0.88218750E+02 0.00000000E+00 0.0000E+00 0.9000E+01
       22 -1    0    0    0    0 -.00000000E+00 -.00000000E+00 -.85264847E+03 0.85264847E+03 0.00000000E+00 0.0000E+00 0.9000E+01
      -24  2    1    2    0    0 -.25415885E+02 0.82874791E+02 -.82615162E+03 0.83445391E+03 0.79200032E+02 0.0000E+00 0.0000E+00
  9900012  1    3    3    0    0 -.31999980E+02 0.46084216E+02 -.65326514E+03 0.65757364E+03 0.50000000E+02 0.0000E+00 0.9000E+01
       11  1    3    3    0    0 0.65840946E+01 0.36790575E+02 -.17288648E+03 0.17688027E+03 0.00000000E+00 0.0000E+00 0.9000E+01
       -3  1    1    2    0  501 0.25415885E+02 -.82874791E+02 0.61721899E+02 0.10641330E+03 0.00000000E+00 0.0000E+00 0.9000E+01
#aMCatNLO 1  0  0  5  5 0.32832325D+02 0.00000000D+00  -5  6  0 0.00000000D+00 0.00000000D+00 0.00000000D+00 0.00000000D+00 0.00000000D+00
  <mgrwgt>
 0.5172882241D-06    1    2    0
 0.274261885625158D+03 0.000000000000000D+00 0.000000000000000D+00 0.274261885625158D+03
 0.274261885625158D+03 -.000000000000000D+00 -.000000000000000D+00 -.274261885625158D+03
 0.217518736829656D+03 -.319999797800189D+02 0.460842157940263D+02 -.204124097599223D+03
 0.624609000877086D+02 0.658409462611713D+01 0.367905752000668D+02 -.500446532026079D+02
 0.268544134332951D+03 0.254158851539017D+02 -.828747909940931D+02 0.254168750801831D+03
 0.000000000000000D+00 0.000000000000000D+00 0.000000000000000D+00 -.000000000000000D+00
 0.274261885625158D+03 0.000000000000000D+00 0.000000000000000D+00 0.274261885625158D+03
 0.274261885625158D+03 -.000000000000000D+00 -.000000000000000D+00 -.274261885625158D+03
 0.708120842351628D+02 -.163025811625317D+02 -.510104183905325D+01 -.471439974262165D+02
 0.243469701026341D+02 0.113101164106788D+02 0.213802101760906D+02 -.278259461324230D+01
 0.233440618365183D+03 -.204236687463827D+03 0.925714782544687D+01 0.112677429020457D+03
 0.219924098547335D+03 0.209229152215679D+03 -.255363161624842D+02 -.627508369809980D+02
0.234836855625D-06 0.000000000000D+00 0.000000000000D+00 0.239205539852D-04 0.000000000000D+00  6 -4 22 9900012 11 -3 21 2 0.13572115D-01 0.13117669D+00 0.99212650D+04 0.99212650D+04 0.99212650D+04 0.12096859D+01  1  2 14  2  6  5       -3 0.517288224140D-06 0.100000000000D+01
  </mgrwgt>
  </event>
  <event>
  6     66 0.85654518E-06 0.22262121E+02 0.78161638E-02 0.12635172E+00
       -4 -1    0    0    0  501 0.00000000E+00 0.00000000E+00 0.65826639E+03 0.65826639E+03 0.00000000E+00 0.0000E+00 0.9000E+01
       22 -1    0    0    0    0 0.00000000E+00 0.00000000E+00 -.13382302E+02 0.13382302E+02 0.00000000E+00 0.0000E+00 0.9000E+01
      -24  2    1    2    0    0 0.20109923E+02 -.95495037E+01 0.11934489E+03 0.14563819E+03 0.80446733E+02 0.0000E+00 0.0000E+00
  9900012  1    3    3    0    0 -.59160320E+01 -.20171883E+02 0.89395942E+02 0.10456356E+03 0.50000000E+02 0.0000E+00 0.9000E+01
       11  1    3    3    0    0 0.26025955E+02 0.10622379E+02 0.29948950E+02 0.41074626E+02 0.00000000E+00 0.0000E+00 0.9000E+01
       -3  1    1    2    0  501 -.20109923E+02 0.95495037E+01 0.52553919E+03 0.52601050E+03 0.00000000E+00 0.0000E+00 0.9000E+01
#aMCatNLO 1  0  0  5  5 0.16899394D+02 0.00000000D+00  -5  6  0 0.00000000D+00 0.00000000D+00 0.00000000D+00 0.00000000D+00 0.00000000D+00
  <mgrwgt>
 0.8694991321D-05    6    2    0
 0.938569087533951D+02 0.000000000000000D+00 0.000000000000000D+00 0.938569087533951D+02
 0.938569087533951D+02 -.000000000000000D+00 -.000000000000000D+00 -.938569087533951D+02
 0.670166957593557D+02 -.591603198997114D+01 -.201718831889344D+02 -.393615701491655D+02
 0.440783601088242D+02 0.260259547639002D+02 0.106223794995431D+02 -.339516798152652D+02
 0.766187616386103D+02 -.201099227739291D+02 0.954950368939133D+01 0.733132499644307D+02
 0.000000000000000D+00 0.000000000000000D+00 0.000000000000000D+00 0.000000000000000D+00
 0.938569087533951D+02 0.000000000000000D+00 0.000000000000000D+00 0.938569087533951D+02
 0.938569087533951D+02 -.000000000000000D+00 -.000000000000000D+00 -.938569087533951D+02
 0.648617540576834D+02 -.693257826893469D+01 -.196891606767434D+02 -.356556229763258D+02
 0.419209023648271D+02 0.253630547193328D+02 0.109371677009926D+02 -.315349944199434D+02
 0.624217482061188D+02 -.175384422240917D+02 -.800061656124700D+01 0.593705973365621D+02
 0.185094128781609D+02 -.892034226306428D+00 0.167526095369977D+02 0.782002005970705D+01
0.564732690011D-06 0.000000000000D+00 0.000000000000D+00 0.155576341701D-05 0.000000000000D+00  6 -4 22 9900012 11 -3 21 0 0.10127175D+00 0.20588156D-02 0.27359009D+04 0.27359009D+04 0.27359009D+04 0.12724559D+01  1  2  2  2  6  5       -3 0.731057221490D-05 0.100000000000D+01
0.532655289468D-07 0.000000000000D+00 -.108436111359D-08 0.155576341701D-05 0.000000000000D+00  6 -4 22 9900012 11 -3 21 2 0.10127175D+00 0.20588156D-02 0.27359009D+04 0.27359009D+04 0.27359009D+04 0.12724559D+01  1  2  3  2  6  5       -3 0.111645232524D-05 0.100000000000D+01
-.866456703553D-07 0.000000000000D+00 0.000000000000D+00 0.155576341701D-05 0.000000000000D+00  6 -4 22 9900012 11 -3 21 2 0.10127175D+00 0.20588156D-02 0.27359009D+04 0.27359009D+04 0.27359009D+04 0.12724559D+01  1  2 15  2  6  5       -3 -.181610437469D-05 0.100000000000D+01
-.185900266248D-07 0.000000000000D+00 0.000000000000D+00 0.155576341701D-05 0.000000000000D+00  6 -4 22 9900012 11 -3 21 2 0.10127175D+00 0.20588156D-02 0.27359009D+04 0.27359009D+04 0.27359009D+04 0.12724559D+01  1  2  4  2  6  5       -3 -.389649344744D-06 0.100000000000D+01
-.437635798818D-06 0.000000000000D+00 0.000000000000D+00 0.155576341701D-05 0.000000000000D+00  6 -4 22 9900012 11 -3 21 2 0.10127175D+00 0.20588156D-02 0.27359009D+04 0.27359009D+04 0.27359009D+04 0.12724559D+01  1  2  5  2  6  5       -3 -.917290252930D-05 0.100000000000D+01
0.555656092136D-06 0.000000000000D+00 -.000000000000D+00 0.155576341701D-05 0.000000000000D+00  6 -4 22 9900012 11 -3 21 2 0.10127175D+00 0.20588156D-02 0.27359009D+04 0.27359009D+04 0.27359009D+04 0.12724559D+01  1  2  6  2  6  5       -3 0.116466230293D-04 0.100000000000D+01
  </mgrwgt>
  </event>
  <event>
  7     66 -.85654518E-06 0.57214097E+02 0.78161638E-02 0.11969910E+00
       -2 -1    0    0    0  502 0.00000000E+00 0.00000000E+00 0.28985408E+03 0.28985408E+03 0.00000000E+00 0.0000E+00 0.9000E+01
       22 -1    0    0    0    0 0.00000000E+00 0.00000000E+00 -.87819253E+02 0.87819253E+02 0.00000000E+00 0.0000E+00 0.9000E+01
      -24  2    1    2    0    0 0.18751656E+01 0.55925696E+02 -.54703486E+02 0.11086102E+03 0.78527035E+02 0.0000E+00 0.0000E+00
  9900012  1    3    3    0    0 0.10625573E+02 0.14995814E+02 -.21542391E+02 0.57461742E+02 0.50000000E+02 0.0000E+00 0.9000E+01
       11  1    3    3    0    0 -.87504070E+01 0.40929882E+02 -.33161096E+02 0.53399281E+02 0.00000000E+00 0.0000E+00 0.9000E+01
       -1  1    1    2    0  501 -.94395807E+01 -.61059849E+02 0.19949771E+03 0.20884623E+03 0.00000000E+00 0.0000E+00 0.9000E+01
       21  1    1    2  501  502 0.75644151E+01 0.51341526E+01 0.57240609E+02 0.57966087E+02 0.00000000E+00 0.0000E+00 0.9000E+01
#aMCatNLO 2  0  0  1  5 0.92367230D+01 0.00000000D+00  -5  6  0 0.00000000D+00 0.00000000D+00 0.00000000D+00 0.00000000D+00 0.00000000D+00
  <mgrwgt>
 -.4911580889D-04    2    2    0
 0.142446287253034D+03 0.000000000000000D+00 0.000000000000000D+00 0.142446287253034D+03
 0.142446287253034D+03 0.000000000000000D+00 0.000000000000000D+00 -.142446287253034D+03
 0.759848387254100D+02 0.126347423691303D+02 0.163594862955626D+02 -.533519091461362D+02
 0.772839405130328D+02 -.670613656078153D+01 0.423173784775861D+02 -.643200954013198D+02
 0.131623795267625D+03 -.592860580834874D+01 -.586768647731487D+02 0.117672004547456D+03
 0.000000000000000D+00 0.000000000000000D+00 0.000000000000000D+00 0.000000000000000D+00
 0.177867645127489D+03 0.000000000000000D+00 0.000000000000000D+00 0.177867645127489D+03
 0.143110733003574D+03 0.000000000000000D+00 0.000000000000000D+00 -.143110733003574D+03
 0.753936564583133D+02 0.106255725370072D+02 0.149958138451164D+02 -.533519091461362D+02
 0.767391658066174D+02 -.875040697245229D+01 0.409298824097639D+02 -.643200954013198D+02
 0.132906401188989D+03 -.943958066485778D+01 -.610598488342678D+02 0.117672004547456D+03
 0.359391546771437D+02 0.756441510030290D+01 0.513415257938750D+01 0.347569121239148D+02
-.396081571198D-05 0.000000000000D+00 0.000000000000D+00 0.191368523071D-05 0.000000000000D+00  6 -2 22 9900012 11 -1 21 2 0.44800941D-01 0.13447926D-01 0.68933999D+04 0.68933999D+04 0.68933999D+04 0.12264515D+01  1  2 13  1  6  1       -2 -.845869972124D-04 0.100000000000D+01
0.165792962275D-05 0.000000000000D+00 0.000000000000D+00 0.191368523071D-05 0.839823593939D-07  6 -2 22 9900012 11 -1 21 2 0.44592936D-01 0.13510654D-01 0.68933999D+04 0.68933999D+04 0.68933999D+04 0.12264515D+01  1  2  1  1  6  1       -2 0.354711883248D-04 0.100000000000D+01
  </mgrwgt>
  </event>
  <event>
  6     66 0.85654518E-06 0.33448424E+02 0.78161638E-02 0.12421584E+00
       -2 -1    0    0    0  501 0.00000000E+00 0.00000000E+00 0.67538461E+03 0.67538461E+03 0.00000000E+00 0.0000E+00 0.9000E+01
       22 -1    0    0    0    0 0.00000000E+00 0.00000000E+00 -.23666771E+02 0.23666771E+02 0.00000000E+00 0.0000E+00 0.9000E+01
      -24  2    1    2    0    0 0.17668816E+02 0.32701645E+02 0.65572024E+03 0.66166684E+03 0.80326753E+02 0.0000E+00 0.0000E+00
  9900012  1    3    3    0    0 -.11680185E+01 0.43683737E+02 0.51602789E+03 0.52028301E+03 0.50000000E+02 0.0000E+00 0.9000E+01
       11  1    3    3    0    0 0.18836835E+02 -.10982092E+02 0.13969235E+03 0.14138383E+03 0.00000000E+00 0.0000E+00 0.9000E+01
       -1  1    1    2    0  501 -.17668816E+02 -.32701645E+02 -.40024029E+01 0.37384541E+02 0.00000000E+00 0.0000E+00 0.9000E+01
#aMCatNLO 1  0  0  5  1 0.25090741D+02 0.00000000D+00  -5  6  0 0.00000000D+00 0.00000000D+00 0.00000000D+00 0.00000000D+00 0.00000000D+00
  <mgrwgt>
 0.1693085747D-04    5    2    0
 0.126428529168848D+03 0.000000000000000D+00 0.000000000000000D+00 0.126428529168848D+03
 0.126428529168848D+03 -.000000000000000D+00 -.000000000000000D+00 -.126428529168848D+03
 0.108361536565749D+03 -.116801846867681D+01 0.436837370220093D+02 0.856305404603930D+02
 0.308259547002850D+02 0.188368348568149D+02 -.109820917735370D+02 0.217900618640406D+02
 0.113669567071661D+03 -.176688163881381D+02 -.327016452484723D+02 -.107420602324434D+03
 0.000000000000000D+00 0.000000000000000D+00 0.000000000000000D+00 0.000000000000000D+00
 0.126428529168848D+03 0.000000000000000D+00 0.000000000000000D+00 0.126428529168848D+03
 0.126428529168848D+03 -.000000000000000D+00 -.000000000000000D+00 -.126428529168848D+03
 0.981450155802372D+02 -.304703992522650D+01 0.402060228539223D+02 0.742067069556988D+02
 0.286460107346253D+02 0.182956941619842D+02 -.119836410931477D+02 0.185001041156538D+02
 0.111789633217409D+03 -.142883515898189D+02 -.351469826942884D+02 -.105154432675071D+03
 0.142763988054233D+02 -.960302646938765D+00 0.692460093351387D+01 0.124476216037183D+02
0.819244007397D-06 0.000000000000D+00 0.000000000000D+00 0.247744018918D-06 0.000000000000D+00  6 -2 22 9900012 11 -1 21 0 0.10390532D+00 0.36410417D-02 0.39299836D+04 0.39299836D+04 0.39299836D+04 0.12537948D+01  1  2  2  2  6  5       -1 0.122094076407D-04 0.100000000000D+01
-.377239814480D-07 0.000000000000D+00 -.157305635015D-08 0.247744018918D-06 0.000000000000D+00  6 -2 22 9900012 11 -1 21 2 0.10390532D+00 0.36410417D-02 0.39299836D+04 0.39299836D+04 0.39299836D+04 0.12537948D+01  1  2  3  2  6  5       -1 -.883795419451D-06 0.100000000000D+01
-.862243198444D-07 0.000000000000D+00 0.000000000000D+00 0.247744018918D-06 0.000000000000D+00  6 -2 22 9900012 11 -1 21 2 0.10390532D+00 0.36410417D-02 0.39299836D+04 0.39299836D+04 0.39299836D+04 0.12537948D+01  1  2 15  2  6  5       -1 -.202005875305D-05 0.100000000000D+01
0.478524961978D-06 0.000000000000D+00 0.000000000000D+00 0.247744018918D-06 0.000000000000D+00  6 -2 22 9900012 11 -1 21 2 0.10390532D+00 0.36410417D-02 0.42925186D+04 0.42925186D+04 0.42925186D+04 0.12493767D+01  1  2 12  2  6  5       -1 0.111959382686D-04 0.100000000000D+01
-.152409186296D-06 0.000000000000D+00 0.000000000000D+00 0.247744018918D-06 0.000000000000D+00  6 -2 22 9900012 11 -1 21 2 0.10390532D+00 0.36410417D-02 0.39299836D+04 0.39299836D+04 0.39299836D+04 0.12537948D+01  1  2  4  2  6  5       -1 -.357063426393D-05 0.100000000000D+01
  </mgrwgt>
  </event>
  <event>
  6     66 -.85654518E-06 0.46789667E+02 0.78161638E-02 0.12048130E+00
       -2 -1    0    0    0  501 0.00000000E+00 0.00000000E+00 0.14017463E+02 0.14017463E+02 0.00000000E+00 0.0000E+00 0.9000E+01
       22 -1    0    0    0    0 0.00000000E+00 0.00000000E+00 -.13748067E+04 0.13748067E+04 0.00000000E+00 0.0000E+00 0.9000E+01
      -24  2    1    2    0    0 -.40763663E+02 0.44312552E+02 -.12978091E+04 0.13016934E+04 0.80448014E+02 0.0000E+00 0.0000E+00
  9900012  1    3    3    0    0 -.61380828E+01 0.24923077E+02 -.55875427E+03 0.56157383E+03 0.50000000E+02 0.0000E+00 0.9000E+01
       11  1    3    3    0    0 -.34625580E+02 0.19389475E+02 -.73905483E+03 0.74011953E+03 0.00000000E+00 0.0000E+00 0.9000E+01
       -1  1    1    2    0  501 0.40763663E+02 -.44312552E+02 -.62980150E+02 0.87130808E+02 0.00000000E+00 0.0000E+00 0.9000E+01
#aMCatNLO 1  0  0  1  5 0.32560872D+01 0.00000000D+00  -5  6  0 0.00000000D+00 0.00000000D+00 0.00000000D+00 0.00000000D+00 0.00000000D+00
  <mgrwgt>
 -.1626922675D-04   11    4    0
 0.138821114068446D+03 0.000000000000000D+00 0.000000000000000D+00 0.138821114068446D+03
 0.138821114068446D+03 0.000000000000000D+00 0.000000000000000D+00 -.138821114068446D+03
 0.705242562958917D+02 -.613808275301601D+01 0.249230766253450D+02 -.426008793070393D+02
 0.799519345100077D+02 -.346255801015560D+02 0.193894752129857D+02 -.694077033584046D+02
 0.127166037330993D+03 0.407636628545721D+02 -.443125518383308D+02 0.112008582665444D+03
 0.000000000000000D+00 0.000000000000000D+00 -.000000000000000D+00 0.000000000000000D+00
 0.258959321470029D+03 0.000000000000000D+00 0.000000000000000D+00 0.258959321470029D+03
 0.138852713530634D+03 0.000000000000000D+00 0.000000000000000D+00 -.138852713530634D+03
 0.707097267655804D+02 -.690001318358253D+01 0.252471851816493D+02 -.426008793070393D+02
 0.804200346040723D+02 -.354907563206867D+02 0.197575022717328D+02 -.694077033584046D+02
 0.126531552679219D+03 0.393950126912042D+02 -.437303579650595D+02 0.112008582665444D+03
 0.120150720951791D+03 0.299575681306502D+01 -.127432948832257D+01 0.120106607939394D+03
 0.138821114068446D+03 0.000000000000000D+00 0.000000000000000D+00 0.138821114068446D+03
 0.138821114068446D+03 0.000000000000000D+00 0.000000000000000D+00 -.138821114068446D+03
 0.705242562958917D+02 -.613808275301601D+01 0.249230766253450D+02 -.426008793070393D+02
 0.799519345100077D+02 -.346255801015560D+02 0.193894752129857D+02 -.694077033584046D+02
 0.000000000000000D+00 0.000000000000000D+00 -.000000000000000D+00 0.000000000000000D+00
 0.127166037330993D+03 0.407636628545721D+02 -.443125518383308D+02 0.112008582665444D+03
 0.258959321470029D+03 0.000000000000000D+00 0.000000000000000D+00 0.258959321470029D+03
 0.138852713530634D+03 0.000000000000000D+00 0.000000000000000D+00 -.138852713530634D+03
 0.707097267655804D+02 -.690001318358253D+01 0.252471851816493D+02 -.426008793070393D+02
 0.804200346040723D+02 -.354907563206867D+02 0.197575022717328D+02 -.694077033584046D+02
 0.120150720951791D+03 0.299575681306502D+01 -.127432948832257D+01 0.120106607939394D+03
 0.126531552679219D+03 0.393950126912042D+02 -.437303579650595D+02 0.112008582665444D+03
0.888250413229D-07 0.000000000000D+00 0.000000000000D+00 0.422834207074D-05 0.000000000000D+00  6 -2 22 9900012 11 -1 21 0 0.21565327D-02 0.21150872D+00 0.60916930D+04 0.60916930D+04 0.60916930D+04 0.12323069D+01  1  2  2  1  6  1       -2 0.101909241153D-05 0.100000000000D+01
0.153093907510D-08 0.000000000000D+00 -.170555773425D-09 0.422834207074D-05 0.000000000000D+00  6 -2 22 9900012 11 -1 21 2 0.21565327D-02 0.21150872D+00 0.60916930D+04 0.60916930D+04 0.60916930D+04 0.12323069D+01  1  2  3  1  6  1       -2 0.266731199289D-07 0.100000000000D+01
-.126526971228D-07 0.000000000000D+00 0.000000000000D+00 0.422834207074D-05 0.000000000000D+00  6 -2 22 9900012 11 -1 21 2 0.21565327D-02 0.21150872D+00 0.60916930D+04 0.60916930D+04 0.60916930D+04 0.12323069D+01  1  2 15  1  6  1       -2 -.220444375135D-06 0.100000000000D+01
0.103340535278D-05 0.000000000000D+00 0.000000000000D+00 0.422834207074D-05 0.000000000000D+00  6 -2 22 9900012 11 -1 21 2 0.40237494D-02 0.21150872D+00 0.63337415D+04 0.63337415D+04 0.63337415D+04 0.12304522D+01  1  2 12  1  6  1       -2 0.736982013825D-05 0.100000000000D+01
-.363768441305D-04 0.000000000000D+00 0.000000000000D+00 0.422834207074D-05 0.000000000000D+00  6 -2 22 9900012 11 -1 21 2 0.21565327D-02 0.21150872D+00 0.60916930D+04 0.60916930D+04 0.60916930D+04 0.12323069D+01  1  2  4  1  6  1       -2 -.633783500538D-03 0.100000000000D+01
-.380481872455D-04 0.000000000000D+00 -.260681156904D-07 0.422834207074D-05 0.000000000000D+00  6 -2 22 9900012 11 -1 21 2 0.40231754D-02 0.21150872D+00 0.60916930D+04 0.60916930D+04 0.60916930D+04 0.12323069D+01  1  2  5  1  6  1       -2 -.271284310250D-03 0.100000000000D+01
0.317028212955D-04 0.000000000000D+00 0.217089263599D-07 0.422834207074D-05 0.000000000000D+00  6 -2 22 9900012 11 -1 21 2 0.21565327D-02 0.21150872D+00 0.60916930D+04 0.60916930D+04 0.60916930D+04 0.12323069D+01  1  2  6  1  6  1       -2 0.552349318306D-03 0.100000000000D+01
0.434714747868D-04 0.000000000000D+00 0.000000000000D+00 0.422834207074D-05 0.454085337106D-05  6 -2 22 9900012 11 -1 21 2 0.40228337D-02 0.21155687D+00 0.63337415D+04 0.63337415D+04 0.63337415D+04 0.12304522D+01  1  2 11  1  6  1       -2 0.309942349450D-03 0.100000000000D+01
0.702125149637D-07 0.000000000000D+00 0.000000000000D+00 0.422834207074D-05 0.000000000000D+00  6 21 22 9900012 11 2 -1 2 0.40237494D-02 0.21150872D+00 0.63337415D+04 0.63337415D+04 0.63337415D+04 0.12304522D+01  3  4 12  3  5  1       -2 0.829439836345D-05 0.100000000000D+01
-.258311241817D-05 0.000000000000D+00 -.177077656106D-08 0.422834207074D-05 0.000000000000D+00  6 21 22 9900012 11 2 -1 2 0.40231754D-02 0.21150872D+00 0.60916930D+04 0.60916930D+04 0.60916930D+04 0.12323069D+01  3  4  5  3  5  1       -2 -.305106298641D-03 0.100000000000D+01
0.266814474815D-05 0.000000000000D+00 0.000000000000D+00 0.422834207074D-05 0.278578309441D-06  6 21 22 9900012 11 2 -1 2 0.40228337D-02 0.21155687D+00 0.63337415D+04 0.63337415D+04 0.63337415D+04 0.12304522D+01  3  4 11  3  5  1       -2 0.315123675260D-03 0.100000000000D+01
  </mgrwgt>
  </event>
  <event>
  7     66 -.85654518E-06 0.87625405E+01 0.78161638E-02 0.12916663E+00
       -4 -1    0    0    0  502 0.00000000E+00 0.00000000E+00 0.91522978E+02 0.91522978E+02 0.00000000E+00 0.0000E+00 0.9000E+01
       22 -1    0    0    0    0 0.00000000E+00 0.00000000E+00 -.11805612E+03 0.11805612E+03 0.00000000E+00 0.0000E+00 0.9000E+01
      -24  2    1    2    0    0 0.10928481E+02 0.21026083E+02 -.98911242E+02 0.13154759E+03 0.83425452E+02 0.0000E+00 0.0000E+00
  9900012  1    3    3    0    0 0.29309963E+02 0.31089604E+02 -.74944229E+02 0.99710957E+02 0.50000000E+02 0.0000E+00 0.9000E+01
       11  1    3    3    0    0 -.18381481E+02 -.10063522E+02 -.23967013E+02 0.31836631E+02 0.00000000E+00 0.0000E+00 0.9000E+01
       -3  1    1    2    0  501 -.90350655E+01 -.10705803E+02 0.60856939E+02 0.62448488E+02 0.00000000E+00 0.0000E+00 0.9000E+01
       21  1    1    2  501  502 -.18934160E+01 -.10320279E+02 0.11521166E+02 0.15583018E+02 0.00000000E+00 0.0000E+00 0.9000E+01
#aMCatNLO 2  0  0  1  5 0.11085295D+02 0.00000000D+00  -5  6  0 0.00000000D+00 0.00000000D+00 0.00000000D+00 0.00000000D+00 0.00000000D+00
  <mgrwgt>
 -.1505401980D-04    1    2    0
 0.949687503500794D+02 0.000000000000000D+00 0.000000000000000D+00 0.949687503500794D+02
 0.949687503500794D+02 0.000000000000000D+00 0.000000000000000D+00 -.949687503500794D+02
 0.848449330540107D+02 0.284556094017388D+02 0.264328536043141D+02 -.564822556990081D+02
 0.284451228812403D+02 -.186609780286007D+02 -.115869499609313D+02 -.180730602098211D+02
 0.766474447649078D+02 -.979463137313812D+01 -.148459036433827D+02 0.745553159088292D+02
 0.000000000000000D+00 -.000000000000000D+00 -.000000000000000D+00 0.000000000000000D+00
 0.111645198995446D+03 0.000000000000000D+00 0.000000000000000D+00 0.111645198995446D+03
 0.967784319626282D+02 0.000000000000000D+00 0.000000000000000D+00 -.967784319626282D+02
 0.866941901836808D+02 0.293099628224125D+02 0.310896040840806D+02 -.564822556990081D+02
 0.276728897442952D+02 -.183814813450272D+02 -.100635215016673D+02 -.180730602098211D+02
 0.758600142538567D+02 -.903506546868612D+01 -.107058033003867D+02 0.745553159088292D+02
 0.181965367762414D+02 -.189341600869920D+01 -.103202792820266D+02 0.148667670328178D+02
-.267085171946D-06 0.000000000000D+00 0.000000000000D+00 0.128987637178D-06 0.000000000000D+00  6 -4 22 9900012 11 -3 21 2 0.14348769D-01 0.17822855D-01 0.30928558D+04 0.30928558D+04 0.30928558D+04 0.12660377D+01  1  2 13  1  6  1       -4 -.150540198022D-04 0.100000000000D+01
  </mgrwgt>
  </event>
  <event>
  6     66 0.85654518E-06 0.57351380E+02 0.78161638E-02 0.11746454E+00
       -4 -1    0    0    0  501 0.00000000E+00 0.00000000E+00 0.90185081E+02 0.90185081E+02 0.00000000E+00 0.0000E+00 0.9000E+01
       22 -1    0    0    0    0 0.00000000E+00 0.00000000E+00 -.14137581E+03 0.14137581E+03 0.00000000E+00 0.0000E+00 0.9000E+01
      -24  2    1    2    0    0 -.11586721E+02 0.60669784E+02 0.49645265E+02 0.11331127E+03 0.80992079E+02 0.0000E+00 0.0000E+00
  9900012  1    3    3    0    0 -.27530784E+02 0.61755482E+02 0.48977399E+02 0.97316336E+02 0.50000000E+02 0.0000E+00 0.9000E+01
       11  1    3    3    0    0 0.15944063E+02 -.10856980E+01 0.66786604E+00 0.15994934E+02 0.00000000E+00 0.0000E+00 0.9000E+01
       -3  1    1    2    0  501 0.11586721E+02 -.60669784E+02 -.10083599E+03 0.11824962E+03 0.00000000E+00 0.0000E+00 0.9000E+01
#aMCatNLO 1  0  0  1  5 0.26624345D+02 0.00000000D+00  -5  6  0 0.00000000D+00 0.00000000D+00 0.00000000D+00 0.00000000D+00 0.00000000D+00
  <mgrwgt>
 0.1776465466D-04    9    4    0
 0.112915847442830D+03 0.000000000000000D+00 0.000000000000000D+00 0.112915847442830D+03
 0.112915847442830D+03 0.000000000000000D+00 0.000000000000000D+00 -.112915847442830D+03
 0.110887206941431D+03 -.275307841062200D+02 0.617554822812961D+02 0.722792432028241D+02
 0.165521041837032D+02 0.159440627892966D+02 -.108569803716694D+01 0.431048424788040D+01
 0.983923837605250D+02 0.115867213169234D+02 -.606697842441292D+02 -.765897274507045D+02
 0.000000000000000D+00 -.000000000000000D+00 0.000000000000000D+00 0.000000000000000D+00
 0.138013143126978D+03 0.000000000000000D+00 0.000000000000000D+00 0.138013143126978D+03
 0.119233997385216D+03 0.000000000000000D+00 0.000000000000000D+00 -.119233997385216D+03
 0.104429771140065D+03 -.223715975100667D+02 0.517764398857336D+02 0.722792432028241D+02
 0.175095249968281D+02 0.167602097660800D+02 -.266431224902811D+01 0.431048424788040D+01
 0.105125209165746D+03 0.164631841340320D+02 -.701019744325193D+02 -.765897274507045D+02
 0.301826352095547D+02 -.108517963900453D+02 0.209898467958138D+02 0.187791457417615D+02
 0.112915847442830D+03 0.000000000000000D+00 0.000000000000000D+00 0.112915847442830D+03
 0.112915847442830D+03 0.000000000000000D+00 0.000000000000000D+00 -.112915847442830D+03
 0.110887206941431D+03 -.275307841062200D+02 0.617554822812961D+02 0.722792432028241D+02
 0.165521041837032D+02 0.159440627892966D+02 -.108569803716694D+01 0.431048424788040D+01
 0.000000000000000D+00 -.000000000000000D+00 0.000000000000000D+00 0.000000000000000D+00
 0.983923837605250D+02 0.115867213169234D+02 -.606697842441292D+02 -.765897274507045D+02
 0.138013143126978D+03 0.000000000000000D+00 0.000000000000000D+00 0.138013143126978D+03
 0.119233997385216D+03 0.000000000000000D+00 0.000000000000000D+00 -.119233997385216D+03
 0.104429771140065D+03 -.223715975100667D+02 0.517764398857336D+02 0.722792432028241D+02
 0.175095249968281D+02 0.167602097660800D+02 -.266431224902811D+01 0.431048424788040D+01
 0.301826352095547D+02 -.108517963900453D+02 0.209898467958138D+02 0.187791457417615D+02
 0.105125209165746D+03 0.164631841340320D+02 -.701019744325193D+02 -.765897274507045D+02
0.520811299868D-06 0.000000000000D+00 0.000000000000D+00 0.746341383712D-07 0.000000000000D+00  6 -4 22 9900012 11 -3 21 0 0.13874628D-01 0.21750124D-01 0.65480934D+04 0.65480934D+04 0.65480934D+04 0.12288749D+01  1  2  2  1  6  1       -4 0.158636137125D-04 0.100000000000D+01
-.341163779439D-07 0.000000000000D+00 -.100002626213D-08 0.746341383712D-07 0.000000000000D+00  6 -4 22 9900012 11 -3 21 2 0.13874628D-01 0.21750124D-01 0.65480934D+04 0.65480934D+04 0.65480934D+04 0.12288749D+01  1  2  3  1  6  1       -4 -.156927833227D-05 0.100000000000D+01
-.544700614512D-07 0.000000000000D+00 0.000000000000D+00 0.746341383712D-07 0.000000000000D+00  6 -4 22 9900012 11 -3 21 2 0.13874628D-01 0.21750124D-01 0.65480934D+04 0.65480934D+04 0.65480934D+04 0.12288749D+01  1  2 15  1  6  1       -4 -.250550299723D-05 0.100000000000D+01
0.583895823437D-06 0.000000000000D+00 0.000000000000D+00 0.746341383712D-07 0.000000000000D+00  6 -4 22 9900012 11 -3 21 2 0.17907382D-01 0.21750124D-01 0.88344286D+04 0.88344286D+04 0.88344286D+04 0.12149498D+01  1  2 12  1  6  1       -4 0.175283706666D-04 0.100000000000D+01
-.503471373034D-06 0.000000000000D+00 0.000000000000D+00 0.746341383712D-07 0.000000000000D+00  6 -4 22 9900012 11 -3 21 2 0.13874628D-01 0.21750124D-01 0.65480934D+04 0.65480934D+04 0.65480934D+04 0.12288749D+01  1  2  4  1  6  1       -4 -.231585755651D-04 0.100000000000D+01
-.100828215423D-05 0.000000000000D+00 -.270962069365D-06 0.746341383712D-07 0.000000000000D+00  6 -4 22 9900012 11 -3 21 2 0.17839086D-01 0.21750124D-01 0.65480934D+04 0.65480934D+04 0.65480934D+04 0.12288749D+01  1  2  5  1  6  1       -4 -.301623577598D-04 0.100000000000D+01
0.105134128480D-05 0.000000000000D+00 0.262623764237D-06 0.746341383712D-07 0.000000000000D+00  6 -4 22 9900012 11 -3 21 2 0.13874628D-01 0.21750124D-01 0.65480934D+04 0.65480934D+04 0.65480934D+04 0.12288749D+01  1  2  6  1  6  1       -4 0.483593862388D-04 0.100000000000D+01
0.200600331670D-07 0.000000000000D+00 0.000000000000D+00 0.746341383712D-07 0.000000000000D+00  6 21 22 9900012 11 4 -3 2 0.17907382D-01 0.21750124D-01 0.88344286D+04 0.88344286D+04 0.88344286D+04 0.12149498D+01  3  4 12  3  5  1       -4 0.133535309428D-04 0.100000000000D+01
-.296766769135D-07 0.000000000000D+00 -.920618473853D-08 0.746341383712D-07 0.000000000000D+00  6 21 22 9900012 11 4 -3 2 0.17839086D-01 0.21750124D-01 0.65480934D+04 0.65480934D+04 0.65480934D+04 0.12288749D+01  3  4  5  3  5  1       -4 -.199445322419D-04 0.100000000000D+01
  </mgrwgt>
  </event>
  <event>
  6     66 0.85654518E-06 0.33022696E+02 0.78161638E-02 0.12095949E+00
       -2 -1    0    0    0  501 0.00000000E+00 0.00000000E+00 0.34359868E+02 0.34359868E+02 0.00000000E+00 0.0000E+00 0.9000E+01
       22 -1    0    0    0    0 -.00000000E+00 -.00000000E+00 -.31446933E+03 0.31446933E+03 0.00000000E+00 0.0000E+00 0.9000E+01
      -24  2    1    2    0    0 0.27806544E+02 0.17812766E+02 -.29865155E+03 0.31095694E+03 0.80068563E+02 0.0000E+00 0.0000E+00
  9900012  1    3    3    0    0 0.81429394E+01 0.12430721E+02 -.27421908E+03 0.27913605E+03 0.50000000E+02 0.0000E+00 0.9000E+01
       11  1    3    3    0    0 0.19663604E+02 0.53820449E+01 -.24432466E+02 0.31820891E+02 0.00000000E+00 0.0000E+00 0.9000E+01
       -1  1    1    2    0  501 -.27806544E+02 -.17812766E+02 0.18542089E+02 0.37872253E+02 0.00000000E+00 0.0000E+00 0.9000E+01
#aMCatNLO 1  0  0  5  1 0.10962070D-01 0.00000000D+00  -5  6  0 0.00000000D+00 0.00000000D+00 0.00000000D+00 0.00000000D+00 0.00000000D+00
  <mgrwgt>
 0.5762402281D-04    4    2    0
 0.103947701549847D+03 0.000000000000000D+00 0.000000000000000D+00 0.103947701549847D+03
 0.103947701549847D+03 -.000000000000000D+00 -.000000000000000D+00 -.103947701549847D+03
 0.988932186029187D+02 0.814293936758100D+01 0.124307206971267D+02 -.840180838096810D+02
 0.204732334793088D+02 0.196636041953521D+02 0.538204486148645D+01 0.187871026392230D+01
 0.885289510174672D+02 -.278065435629332D+02 -.178127655586132D+02 0.821393735457587D+02
 0.000000000000000D+00 0.000000000000000D+00 0.000000000000000D+00 0.000000000000000D+00
 0.103947701549847D+03 0.000000000000000D+00 0.000000000000000D+00 0.103947701549847D+03
 0.103947701549847D+03 -.000000000000000D+00 -.000000000000000D+00 -.103947701549847D+03
 0.790533407309254D+02 0.277572957758040D+00 0.739219702827598D+01 -.607841184608945D+02
 0.197166428739748D+02 0.178871826412214D+02 0.424407600155307D+01 0.712618567485377D+01
 0.684135386027504D+02 0.446931884586218D+01 -.453724801161554D+02 0.510076023874198D+02
 0.407118808920441D+02 -.226340744448416D+02 0.337362070863264D+02 0.265033039862092D+01
0.134600720994D-05 0.000000000000D+00 0.000000000000D+00 0.206488081464D-05 0.000000000000D+00  6 -2 22 9900012 11 -1 21 0 0.52861336D-02 0.48379896D-01 0.27863157D+04 0.27863157D+04 0.27863157D+04 0.12714941D+01  1  2  2  2  6  5       -1 0.733556849407D-04 0.100000000000D+01
0.489149275985D-07 0.000000000000D+00 -.258451104899D-08 0.206488081464D-05 0.000000000000D+00  6 -2 22 9900012 11 -1 21 2 0.52861336D-02 0.48379896D-01 0.27863157D+04 0.27863157D+04 0.27863157D+04 0.12714941D+01  1  2  3  2  6  5       -1 0.430979367611D-05 0.100000000000D+01
-.219056385127D-06 0.000000000000D+00 0.000000000000D+00 0.206488081464D-05 0.000000000000D+00  6 -2 22 9900012 11 -1 21 2 0.52861336D-02 0.48379896D-01 0.27863157D+04 0.27863157D+04 0.27863157D+04 0.12714941D+01  1  2 15  2  6  5       -1 -.193006075994D-04 0.100000000000D+01
-.840841557169D-08 0.000000000000D+00 0.000000000000D+00 0.206488081464D-05 0.000000000000D+00  6 -2 22 9900012 11 -1 21 2 0.52861336D-02 0.48379896D-01 0.27863157D+04 0.27863157D+04 0.27863157D+04 0.12714941D+01  1  2  4  2  6  5       -1 -.740848203935D-06 0.100000000000D+01
  </mgrwgt>
  </event>
  <event>
  6     66 0.85654518E-06 0.36422637E+02 0.78161638E-02 0.12385550E+00
       -4 -1    0    0    0  501 0.00000000E+00 0.00000000E+00 0.17046388E+02 0.17046388E+02 0.00000000E+00 0.0000E+00 0.9000E+01
       22 -1    0    0    0    0 -.00000000E+00 -.00000000E+00 -.46739966E+03 0.46739966E+03 0.00000000E+00 0.0000E+00 0.9000E+01
      -24  2    1    2    0    0 -.15276614E+02 -.39564852E+02 -.42577733E+03 0.43542840E+03 0.80701975E+02 0.0000E+00 0.0000E+00
  9900012  1    3    3    0    0 0.72068042E+01 -.45196825E+02 -.30407213E+03 0.31153579E+03 0.50000000E+02 0.0000E+00 0.9000E+01
       11  1    3    3    0    0 -.22483418E+02 0.56319734E+01 -.12170520E+03 0.12389261E+03 0.00000000E+00 0.0000E+00 0.9000E+01
       -3  1    1    2    0  501 0.15276614E+02 0.39564852E+02 -.24575942E+02 0.49017643E+02 0.00000000E+00 0.0000E+00 0.9000E+01
#aMCatNLO 1  0  0  5  1 0.35530796D+01 0.00000000D+00  -5  6  0 0.00000000D+00 0.00000000D+00 0.00000000D+00 0.00000000D+00 0.00000000D+00
  <mgrwgt>
 0.1182863649D-04    6    2    0
 0.892607196908852D+02 0.000000000000000D+00 0.000000000000000D+00 0.892607196908852D+02
 0.892607196908852D+02 -.000000000000000D+00 -.000000000000000D+00 -.892607196908852D+02
 0.783233991679067D+02 0.720680424997652D+01 -.451968251684183D+02 -.392410986647060D+02
 0.291782913265333D+02 -.224834184434913D+02 0.563197335342813D+01 -.177242617893440D+02
 0.710197488873305D+02 0.152766141935148D+02 0.395648518149902D+02 0.569653604540501D+02
 0.000000000000000D+00 0.000000000000000D+00 0.000000000000000D+00 0.000000000000000D+00
 0.892607196908852D+02 0.000000000000000D+00 0.000000000000000D+00 0.892607196908852D+02
 0.892607196908852D+02 -.000000000000000D+00 -.000000000000000D+00 -.892607196908852D+02
 0.781582351958692D+02 0.725735624356131D+01 -.450659007299401D+02 -.390525940327405D+02
 0.291306175662754D+02 -.224645815263012D+02 0.568075902202181D+01 -.176540203232714D+02
 0.149867716300492D+02 0.164973242149629D+01 0.109251774284301D+02 0.101253249323680D+02
 0.562458149895767D+02 0.135574928612436D+02 0.284599642794882D+02 0.465812894236439D+02
0.148495387567D-06 0.000000000000D+00 0.000000000000D+00 0.497635759933D-06 0.000000000000D+00  6 -4 22 9900012 11 -3 21 0 0.26225213D-02 0.71907640D-01 0.44471512D+04 0.44471512D+04 0.44471512D+04 0.12476178D+01  1  2  2  2  6  5       -3 0.845194944788D-05 0.100000000000D+01
0.333299894555D-08 0.000000000000D+00 -.285130693996D-09 0.497635759933D-06 0.000000000000D+00  6 -4 22 9900012 11 -3 21 2 0.26225213D-02 0.71907640D-01 0.44471512D+04 0.44471512D+04 0.44471512D+04 0.12476178D+01  1  2  3  2  6  5       -3 0.295285569188D-06 0.100000000000D+01
-.220685379443D-07 0.000000000000D+00 0.000000000000D+00 0.497635759933D-06 0.000000000000D+00  6 -4 22 9900012 11 -3 21 2 0.26225213D-02 0.71907640D-01 0.44471512D+04 0.44471512D+04 0.44471512D+04 0.12476178D+01  1  2 15  2  6  5       -3 -.195515237012D-05 0.100000000000D+01
0.175708262283D-07 0.000000000000D+00 0.000000000000D+00 0.497635759933D-06 0.000000000000D+00  6 -4 22 9900012 11 -3 21 2 0.26225213D-02 0.71907640D-01 0.44520436D+04 0.44520436D+04 0.44520436D+04 0.12475633D+01  1  2 12  2  6  5       -3 0.155679299910D-05 0.100000000000D+01
-.361357590748D-06 0.000000000000D+00 0.000000000000D+00 0.497635759933D-06 0.000000000000D+00  6 -4 22 9900012 11 -3 21 2 0.26225213D-02 0.71907640D-01 0.44471512D+04 0.44471512D+04 0.44471512D+04 0.12476178D+01  1  2  5  2  6  5       -3 -.320143161182D-04 0.100000000000D+01
0.400605770182D-06 0.000000000000D+00 0.000000000000D+00 0.497635759933D-06 0.414763359581D-07  6 -4 22 9900012 11 -3 21 2 0.26225213D-02 0.71907640D-01 0.44520436D+04 0.44520436D+04 0.44520436D+04 0.12475633D+01  1  2 11  2  6  5       -3 0.354940769613D-04 0.100000000000D+01
  </mgrwgt>
  </event>
  <event>
  6     66 -.85654518E-06 0.26192432E+02 0.78161638E-02 0.12833267E+00
       -2 -1    0    0    0  501 0.00000000E+00 0.00000000E+00 0.39630273E+02 0.39630273E+02 0.00000000E+00 0.0000E+00 0.9000E+01
       22 -1    0    0    0    0 -.00000000E+00 -.00000000E+00 -.33031289E+03 0.33031289E+03 0.00000000E+00 0.0000E+00 0.9000E+01
      -24  2    1    2    0    0 -.25812543E+02 -.44447840E+01 -.32001442E+03 0.33061890E+03 0.78826303E+02 0.0000E+00 0.0000E+00
  9900012  1    3    3    0    0 -.18311619E+02 0.18811588E+02 -.18560306E+03 0.19400435E+03 0.50000000E+02 0.0000E+00 0.9000E+01
       11  1    3    3    0    0 -.75009243E+01 -.23256372E+02 -.13441136E+03 0.13661455E+03 0.00000000E+00 0.0000E+00 0.9000E+01
       -1  1    1    2    0  501 0.25812543E+02 0.44447840E+01 0.29331798E+02 0.39324266E+02 0.00000000E+00 0.0000E+00 0.9000E+01
#aMCatNLO 1  0  0  5  1 0.79074297D+00 0.00000000D+00  -5  6  0 0.00000000D+00 0.00000000D+00 0.00000000D+00 0.00000000D+00 0.00000000D+00
  <mgrwgt>
 -.3797348479D-04    8    2    0
 0.114413242530367D+03 0.000000000000000D+00 0.000000000000000D+00 0.114413242530367D+03
 0.114413242530367D+03 -.000000000000000D+00 -.000000000000000D+00 -.114413242530367D+03
 0.778712259332625D+02 -.183116187759035D+02 0.188115882404996D+02 -.536165701441736D+02
 0.501190859125488D+02 -.750092426814045D+01 -.232563722459973D+02 -.437584284200047D+02
 0.100836173214923D+03 0.258125430440439D+02 0.444478400549768D+01 0.973749985641783D+02
 0.000000000000000D+00 0.000000000000000D+00 0.000000000000000D+00 0.000000000000000D+00
 0.114413242530367D+03 0.000000000000000D+00 0.000000000000000D+00 0.114413242530367D+03
 0.114413242530367D+03 -.000000000000000D+00 -.000000000000000D+00 -.114413242530367D+03
 0.778645316435964D+02 -.183092201102455D+02 0.188120012780966D+02 -.536075214400376D+02
 0.501136468690183D+02 -.749938046845264D+01 -.232561064118194D+02 -.437526046043455D+02
 0.878055451168460D+02 0.228130551678488D+02 0.457485822179112D+01 0.846666932118272D+02
 0.130427614312732D+02 0.299554541084932D+01 -.130753088068352D+00 0.126934328325559D+02
0.179219311098D-07 0.000000000000D+00 0.000000000000D+00 0.204923111337D-05 0.000000000000D+00  6 -2 22 9900012 11 -1 21 0 0.60969651D-02 0.50817368D-01 0.28676802D+04 0.28676802D+04 0.28676802D+04 0.12699821D+01  1  2  2  2  6  5       -1 0.734174126314D-06 0.100000000000D+01
0.147397852644D-08 0.000000000000D+00 -.344124672073D-10 0.204923111337D-05 0.000000000000D+00  6 -2 22 9900012 11 -1 21 2 0.60969651D-02 0.50817368D-01 0.28676802D+04 0.28676802D+04 0.28676802D+04 0.12699821D+01  1  2  3  2  6  5       -1 0.973869172508D-07 0.100000000000D+01
-.279756129045D-08 0.000000000000D+00 0.000000000000D+00 0.204923111337D-05 0.000000000000D+00  6 -2 22 9900012 11 -1 21 2 0.60969651D-02 0.50817368D-01 0.28676802D+04 0.28676802D+04 0.28676802D+04 0.12699821D+01  1  2 15  2  6  5       -1 -.184837068525D-06 0.100000000000D+01
0.831279669821D-11 0.000000000000D+00 0.000000000000D+00 0.204923111337D-05 0.000000000000D+00  6 -2 22 9900012 11 -1 21 2 0.60969651D-02 0.50817368D-01 0.28715289D+04 0.28715289D+04 0.28715289D+04 0.12699118D+01  1  2 12  2  6  5       -1 0.549250328982D-09 0.100000000000D+01
-.122907017999D-04 0.000000000000D+00 0.000000000000D+00 0.204923111337D-05 0.000000000000D+00  6 -2 22 9900012 11 -1 21 2 0.60969651D-02 0.50817368D-01 0.28676802D+04 0.28676802D+04 0.28676802D+04 0.12699821D+01  1  2  4  2  6  5       -1 -.812056307242D-03 0.100000000000D+01
-.836647162761D-05 0.000000000000D+00 0.000000000000D+00 0.204923111337D-05 0.000000000000D+00  6 -2 22 9900012 11 -1 21 2 0.60969651D-02 0.50817368D-01 0.28676802D+04 0.28676802D+04 0.28676802D+04 0.12699821D+01  1  2  5  2  6  5       -1 -.552779342075D-03 0.100000000000D+01
0.951796292995D-05 0.000000000000D+00 -.000000000000D+00 0.204923111337D-05 0.000000000000D+00  6 -2 22 9900012 11 -1 21 2 0.60969651D-02 0.50817368D-01 0.28676802D+04 0.28676802D+04 0.28676802D+04 0.12699821D+01  1  2  6  2  6  5       -1 0.628859275509D-03 0.100000000000D+01
0.105543413532D-04 0.000000000000D+00 0.000000000000D+00 0.204923111337D-05 0.277060278506D-04  6 -2 22 9900012 11 -1 21 2 0.60969651D-02 0.50817368D-01 0.28715289D+04 0.28715289D+04 0.28715289D+04 0.12699118D+01  1  2 11  2  6  5       -1 0.697355615788D-03 0.100000000000D+01
  </mgrwgt>
  </event>
  <event>
  6     66 0.85654518E-06 0.20283667E+02 0.78161638E-02 0.12639002E+00
       -2 -1    0    0    0  501 0.00000000E+00 0.00000000E+00 0.61665640E+02 0.61665640E+02 0.00000000E+00 0.0000E+00 0.9000E+01
       22 -1    0    0    0    0 0.00000000E+00 0.00000000E+00 -.92194197E+02 0.92194197E+02 0.00000000E+00 0.0000E+00 0.9000E+01
      -24  2    1    2    0    0 0.31286829E+02 -.60410608E+01 -.62792685E+02 0.10851302E+03 0.82563875E+02 0.0000E+00 0.0000E+00
  9900012  1    3    3    0    0 0.42263362E+01 -.88854902E+01 -.14331913E+02 0.52935976E+02 0.50000000E+02 0.0000E+00 0.9000E+01
       11  1    3    3    0    0 0.27060493E+02 0.28444294E+01 -.48460772E+02 0.55577041E+02 0.00000000E+00 0.0000E+00 0.9000E+01
       -1  1    1    2    0  501 -.31286829E+02 0.60410608E+01 0.32264128E+02 0.45346819E+02 0.00000000E+00 0.0000E+00 0.9000E+01
#aMCatNLO 1  0  0  1  5 0.94112434D+01 0.00000000D+00  -5  6  0 0.00000000D+00 0.00000000D+00 0.00000000D+00 0.00000000D+00 0.00000000D+00
  <mgrwgt>
 0.4065359522D-04   11    4    0
 0.754003589437348D+02 0.000000000000000D+00 0.000000000000000D+00 0.754003589437348D+02
 0.754003589437348D+02 0.000000000000000D+00 0.000000000000000D+00 -.754003589437348D+02
 0.511084306719705D+02 0.422633620779625D+01 -.888549020365211D+01 -.390612747501742D+01
 0.468939211631840D+02 0.270604928259630D+02 0.284442937459695D+01 -.381926536340151D+02
 0.527983660523151D+02 -.312868290337593D+02 0.604106082905516D+01 0.420987811090325D+02
 0.000000000000000D+00 0.000000000000000D+00 -.000000000000000D+00 0.000000000000000D+00
 0.796340841315030D+02 0.000000000000000D+00 0.000000000000000D+00 0.796340841315030D+02
 0.785396236339338D+02 0.000000000000000D+00 0.000000000000000D+00 -.785396236339338D+02
 0.507013155158141D+02 0.308731075844750D+01 -.677008681361039D+01 -.390612747501742D+01
 0.464586176813552D+02 0.260160847856058D+02 0.478410887027605D+01 -.381926536340151D+02
 0.538088377021153D+02 -.324795274021084D+02 0.825614581521191D+01 0.420987811090325D+02
 0.720493686615220D+01 0.337613185805503D+01 -.627016787187757D+01 0.109446049756912D+01
 0.754003589437348D+02 0.000000000000000D+00 0.000000000000000D+00 0.754003589437348D+02
 0.754003589437348D+02 0.000000000000000D+00 0.000000000000000D+00 -.754003589437348D+02
 0.511084306719705D+02 0.422633620779625D+01 -.888549020365211D+01 -.390612747501742D+01
 0.468939211631840D+02 0.270604928259630D+02 0.284442937459695D+01 -.381926536340151D+02
 0.000000000000000D+00 0.000000000000000D+00 -.000000000000000D+00 0.000000000000000D+00
 0.527983660523151D+02 -.312868290337593D+02 0.604106082905516D+01 0.420987811090325D+02
 0.796340841315030D+02 0.000000000000000D+00 0.000000000000000D+00 0.796340841315030D+02
 0.785396236339338D+02 0.000000000000000D+00 0.000000000000000D+00 -.785396236339338D+02
 0.507013155158141D+02 0.308731075844750D+01 -.677008681361039D+01 -.390612747501742D+01
 0.464586176813552D+02 0.260160847856058D+02 0.478410887027605D+01 -.381926536340151D+02
 0.720493686615220D+01 0.337613185805503D+01 -.627016787187757D+01 0.109446049756912D+01
 0.538088377021153D+02 -.324795274021084D+02 0.825614581521191D+01 0.420987811090325D+02
0.991577629293D-07 0.000000000000D+00 0.000000000000D+00 0.107869986636D-06 0.000000000000D+00  6 -2 22 9900012 11 -1 21 0 0.94870215D-02 0.14183723D-01 0.30268282D+04 0.30268282D+04 0.30268282D+04 0.12671597D+01  1  2  2  1  6  1       -2 0.149150258774D-04 0.100000000000D+01
0.208287105092D-08 0.000000000000D+00 -.190395959244D-09 0.107869986636D-06 0.000000000000D+00  6 -2 22 9900012 11 -1 21 2 0.94870215D-02 0.14183723D-01 0.30268282D+04 0.30268282D+04 0.30268282D+04 0.12671597D+01  1  2  3  1  6  1       -2 0.503062968358D-06 0.100000000000D+01
-.147744158885D-07 0.000000000000D+00 0.000000000000D+00 0.107869986636D-06 0.000000000000D+00  6 -2 22 9900012 11 -1 21 2 0.94870215D-02 0.14183723D-01 0.30268282D+04 0.30268282D+04 0.30268282D+04 0.12671597D+01  1  2 15  1  6  1       -2 -.356837333227D-05 0.100000000000D+01
0.144064491345D-06 0.000000000000D+00 0.000000000000D+00 0.107869986636D-06 0.000000000000D+00  6 -2 22 9900012 11 -1 21 2 0.10436884D-01 0.14183723D-01 0.34595979D+04 0.34595979D+04 0.34595979D+04 0.12602634D+01  1  2 12  1  6  1       -2 0.302809467250D-04 0.100000000000D+01
-.118013041629D-07 0.000000000000D+00 0.000000000000D+00 0.107869986636D-06 0.000000000000D+00  6 -2 22 9900012 11 -1 21 2 0.94870215D-02 0.14183723D-01 0.30268282D+04 0.30268282D+04 0.30268282D+04 0.12671597D+01  1  2  4  1  6  1       -2 -.285029603732D-05 0.100000000000D+01
-.566988180921D-06 0.000000000000D+00 -.124348351473D-06 0.107869986636D-06 0.000000000000D+00  6 -2 22 9900012 11 -1 21 2 0.10427135D-01 0.14183723D-01 0.30268282D+04 0.30268282D+04 0.30268282D+04 0.12671597D+01  1  2  5  1  6  1       -2 -.118904803527D-03 0.100000000000D+01
0.576714183974D-06 0.000000000000D+00 0.123795332396D-06 0.107869986636D-06 0.000000000000D+00  6 -2 22 9900012 11 -1 21 2 0.94870215D-02 0.14183723D-01 0.30268282D+04 0.30268282D+04 0.30268282D+04 0.12671597D+01  1  2  6  1  6  1       -2 0.139290211536D-03 0.100000000000D+01
0.205565959219D-12 0.000000000000D+00 0.000000000000D+00 0.107869986636D-06 0.149980646085D-08  6 -2 22 9900012 11 -1 21 2 0.10019717D-01 0.14774256D-01 0.34595979D+04 0.34595979D+04 0.34595979D+04 0.12602634D+01  1  2 11  1  6  1       -2 0.433202003086D-10 0.100000000000D+01
0.226872494571D-08 0.000000000000D+00 0.000000000000D+00 0.107869986636D-06 0.000000000000D+00  6 21 22 9900012 11 2 -1 2 0.10436884D-01 0.14183723D-01 0.34595979D+04 0.34595979D+04 0.34595979D+04 0.12602634D+01  3  4 12  3  5  1       -2 0.704509328592D-05 0.100000000000D+01
-.839843691675D-08 0.000000000000D+00 -.192278023617D-08 0.107869986636D-06 0.000000000000D+00  6 21 22 9900012 11 2 -1 2 0.10427135D-01 0.14183723D-01 0.30268282D+04 0.30268282D+04 0.30268282D+04 0.12671597D+01  3  4  5  3  5  1       -2 -.260574168708D-04 0.100000000000D+01
0.323461670469D-13 0.000000000000D+00 0.000000000000D+00 0.107869986636D-06 0.166523933273D-09  6 21 22 9900012 11 2 -1 2 0.10019717D-01 0.14774256D-01 0.34595979D+04 0.34595979D+04 0.34595979D+04 0.12602634D+01  3  4 11  3  5  1       -2 0.101277823321D-09 0.100000000000D+01
  </mgrwgt>
  </event>
  <event>
  6     66 0.85654518E-06 0.36738490E+02 0.78161638E-02 0.10716453E+00
       -2 -1    0    0    0  501 0.00000000E+00 0.00000000E+00 0.18056937E+03 0.18056937E+03 0.00000000E+00 0.0000E+00 0.9000E+01
       22 -1    0    0    0    0 0.00000000E+00 0.00000000E+00 -.33803481E+02 0.33803481E+02 0.00000000E+00 0.0000E+00 0.9000E+01
      -24  2    1    2    0    0 0.70652146E+01 0.36052731E+02 0.30855886E+02 0.92779902E+02 0.79412265E+02 0.0000E+00 0.0000E+00
  9900012  1    3    3    0    0 0.88035532E+01 -.62119095E+00 0.18622524E+02 0.54080374E+02 0.50000000E+02 0.0000E+00 0.9000E+01
       11  1    3    3    0    0 -.17383387E+01 0.36673922E+02 0.12233362E+02 0.38699529E+02 0.00000000E+00 0.0000E+00 0.9000E+01
       -1  1    1    2    0  501 -.70652146E+01 -.36052731E+02 0.11591000E+03 0.12159295E+03 0.00000000E+00 0.0000E+00 0.9000E+01
#aMCatNLO 1  0  0  1  5 0.36728729D+01 0.00000000D+00  -5  6  0 0.00000000D+00 0.00000000D+00 0.00000000D+00 0.00000000D+00 0.00000000D+00
  <mgrwgt>
 0.5958321054D-04    3    2    0
 0.781272897206206D+02 0.000000000000000D+00 0.000000000000000D+00 0.781272897206206D+02
 0.781272897206206D+02 0.000000000000000D+00 0.000000000000000D+00 -.781272897206206D+02
 0.567036996058868D+02 0.880355323386230D+01 -.621190951103852D+00 -.252472002656822D+02
 0.416031839347787D+02 -.173833866760399D+01 0.366739216391048D+02 -.195659542010233D+02
 0.579476959005757D+02 -.706521456625830D+01 -.360527306880010D+02 0.448131544667054D+02
 0.000000000000000D+00 0.000000000000000D+00 0.000000000000000D+00 -.000000000000000D+00
 0.155378168684933D+03 0.000000000000000D+00 0.000000000000000D+00 0.155378168684933D+03
 0.244324136081492D+03 0.000000000000000D+00 0.000000000000000D+00 -.244324136081492D+03
 0.716901441167262D+02 -.425041901838642D+02 -.139803239960815D+02 -.252472002656822D+02
 0.511821843351775D+02 -.388165016860675D+02 0.270197821304885D+02 -.195659542010233D+02
 0.976243246995544D+02 -.692336884159349D+02 -.522397008807713D+02 0.448131544667054D+02
 0.179205651614967D+03 0.150554380285867D+03 0.392002427463643D+02 -.889459673965593D+02
0.642696485372D-06 0.000000000000D+00 0.000000000000D+00 0.391018816725D-06 0.000000000000D+00  6 -2 22 9900012 11 -1 21 0 0.27779903D-01 0.52005356D-02 0.38580557D+04 0.38580557D+04 0.38580557D+04 0.12547257D+01  1  2  2  1  6  1       -2 0.753803551575D-04 0.100000000000D+01
0.153200346027D-07 0.000000000000D+00 -.123406186485D-08 0.391018816725D-06 0.000000000000D+00  6 -2 22 9900012 11 -1 21 2 0.27779903D-01 0.52005356D-02 0.38580557D+04 0.38580557D+04 0.38580557D+04 0.12547257D+01  1  2  3  1  6  1       -2 0.282884764740D-05 0.100000000000D+01
-.100871761771D-06 0.000000000000D+00 0.000000000000D+00 0.391018816725D-06 0.000000000000D+00  6 -2 22 9900012 11 -1 21 2 0.27779903D-01 0.52005356D-02 0.38580557D+04 0.38580557D+04 0.38580557D+04 0.12547257D+01  1  2 15  1  6  1       -2 -.186259922629D-04 0.100000000000D+01
  </mgrwgt>
  </event>
  <event>
  6     66 0.85654518E-06 0.23661614E+02 0.78161638E-02 0.12873161E+00
       -4 -1    0    0    0  501 0.00000000E+00 0.00000000E+00 0.67767911E+01 0.67767911E+01 0.00000000E+00 0.0000E+00 0.9000E+01
       22 -1    0    0    0    0 -.00000000E+00 -.00000000E+00 -.91009318E+03 0.91009318E+03 0.00000000E+00 0.0000E+00 0.9000E+01
      -24  2    1    2    0    0 0.13355973E+02 0.19531767E+02 -.87887303E+03 0.88285012E+03 0.80291180E+02 0.0000E+00 0.0000E+00
  9900012  1    3    3    0    0 0.20054595E+02 0.19194224E+00 -.78122089E+03 0.78307618E+03 0.50000000E+02 0.0000E+00 0.9000E+01
       11  1    3    3    0    0 -.66986222E+01 0.19339825E+02 -.97652138E+02 0.99773946E+02 0.00000000E+00 0.0000E+00 0.9000E+01
       -3  1    1    2    0  501 -.13355973E+02 -.19531767E+02 -.24443361E+02 0.34019845E+02 0.00000000E+00 0.0000E+00 0.9000E+01
#aMCatNLO 1  0  0  5  5 0.18872477D+02 0.00000000D+00  -5  6  0 0.00000000D+00 0.00000000D+00 0.00000000D+00 0.00000000D+00 0.00000000D+00
  <mgrwgt>
 0.1419240733D-04    4    2    0
 0.785335044003096D+02 0.000000000000000D+00 0.000000000000000D+00 0.785335044003096D+02
 0.785335044003096D+02 -.000000000000000D+00 -.000000000000000D+00 -.785335044003096D+02
 0.782430417624076D+02 0.200545954501068D+02 0.191942239221222D+00 -.567428404624162D+02
 0.208125114345706D+02 -.669862217423315D+01 0.193398251733607D+02 0.377627534017928D+01
 0.580114556036410D+02 -.133559732758737D+02 -.195317674125819D+02 0.529665651222369D+02
 0.000000000000000D+00 0.000000000000000D+00 0.000000000000000D+00 0.000000000000000D+00
 0.785335044003096D+02 0.000000000000000D+00 0.000000000000000D+00 0.785335044003096D+02
 0.785335044003096D+02 -.000000000000000D+00 -.000000000000000D+00 -.785335044003096D+02
 0.734326476541644D+02 0.184714234890368D+02 -.212328749949048D+01 -.504643627323662D+02
 0.207600107584257D+02 -.713255098471082D+01 0.187052479377819D+02 0.549713222749414D+01
 0.232772396739155D+02 -.192414975914556D+02 -.113618265103469D+02 0.651947510338767D+01
 0.395971107141137D+02 0.790262508712963D+01 -.522013392794458D+01 0.384477554014844D+02
0.469197253920D-06 0.000000000000D+00 0.000000000000D+00 0.539431513928D-06 0.000000000000D+00  6 -4 22 9900012 11 -3 21 0 0.10425832D-02 0.14001434D+00 0.24010470D+04 0.24010470D+04 0.24010470D+04 0.12793965D+01  1  2  2  2  6  5       -3 0.254045362090D-04 0.100000000000D+01
0.262442389214D-07 0.000000000000D+00 -.900920498763D-09 0.539431513928D-06 0.000000000000D+00  6 -4 22 9900012 11 -3 21 2 0.10425832D-02 0.14001434D+00 0.24010470D+04 0.24010470D+04 0.24010470D+04 0.12793965D+01  1  2  3  2  6  5       -3 0.232594844705D-05 0.100000000000D+01
-.767224307019D-07 0.000000000000D+00 0.000000000000D+00 0.539431513928D-06 0.000000000000D+00  6 -4 22 9900012 11 -3 21 2 0.10425832D-02 0.14001434D+00 0.24010470D+04 0.24010470D+04 0.24010470D+04 0.12793965D+01  1  2 15  2  6  5       -3 -.679967969654D-05 0.100000000000D+01
-.760309703316D-07 0.000000000000D+00 0.000000000000D+00 0.539431513928D-06 0.000000000000D+00  6 -4 22 9900012 11 -3 21 2 0.10425832D-02 0.14001434D+00 0.24010470D+04 0.24010470D+04 0.24010470D+04 0.12793965D+01  1  2  5  2  6  5       -3 -.673839763081D-05 0.100000000000D+01
  </mgrwgt>
  </event>
  <event>
  6     66 0.85654518E-06 0.64720650E+02 0.78161638E-02 0.11372367E+00
       -2 -1    0    0    0  501 0.00000000E+00 0.00000000E+00 0.52072015E+02 0.52072015E+02 0.00000000E+00 0.0000E+00 0.9000E+01
       22 -1    0    0    0    0 0.00000000E+00 0.00000000E+00 -.77043498E+03 0.77043498E+03 0.00000000E+00 0.0000E+00 0.9000E+01
      -24  2    1    2    0    0 0.91065434E+02 -.10948025E+02 -.72045513E+03 0.73076197E+03 0.80899293E+02 0.0000E+00 0.0000E+00
  9900012  1    3    3    0    0 0.28742477E+02 0.18273541E+01 -.29682294E+03 0.30237944E+03 0.50000000E+02 0.0000E+00 0.9000E+01
       11  1    3    3    0    0 0.62322957E+02 -.12775379E+02 -.42363219E+03 0.42838253E+03 0.00000000E+00 0.0000E+00 0.9000E+01
       -1  1    1    2    0  501 -.91065434E+02 0.10948025E+02 0.20921610E+01 0.91745025E+02 0.00000000E+00 0.0000E+00 0.9000E+01
#aMCatNLO 1  0  0  1  5 0.21226119D+02 0.00000000D+00  -5  6  0 0.00000000D+00 0.00000000D+00 0.00000000D+00 0.00000000D+00 0.00000000D+00
  <mgrwgt>
 0.6083486686D-04    9    4    0
 0.200295037627482D+03 0.000000000000000D+00 0.000000000000000D+00 0.200295037627482D+03
 0.200295037627482D+03 0.000000000000000D+00 0.000000000000000D+00 -.200295037627482D+03
 0.885758313363690D+02 0.287424770663363D+02 0.182735406860659D+01 -.672027431443685D+02
 0.119888025302418D+03 0.623229568075704D+02 -.127753791806137D+02 -.101615832193937D+03
 0.192126218616177D+03 -.910654338739067D+02 0.109480251120071D+02 0.168818575338305D+03
 0.000000000000000D+00 0.000000000000000D+00 -.000000000000000D+00 0.000000000000000D+00
 0.223119801846782D+03 0.000000000000000D+00 0.000000000000000D+00 0.223119801846782D+03
 0.204682670107738D+03 0.000000000000000D+00 0.000000000000000D+00 -.204682670107738D+03
 0.877550754098766D+02 0.257181119688867D+02 0.482941930473854D+01 -.672027431443685D+02
 0.117453752678429D+03 0.582521549116504D+02 -.873459294576819D+01 -.101615832193937D+03
 0.195849438368945D+03 -.977198545724544D+02 0.175533800880161D+02 0.168818575338305D+03
 0.267442054972693D+02 0.137495876919173D+02 -.136482064469864D+02 0.184371317390446D+02
 0.200295037627482D+03 0.000000000000000D+00 0.000000000000000D+00 0.200295037627482D+03
 0.200295037627482D+03 0.000000000000000D+00 0.000000000000000D+00 -.200295037627482D+03
 0.885758313363690D+02 0.287424770663363D+02 0.182735406860659D+01 -.672027431443685D+02
 0.119888025302418D+03 0.623229568075704D+02 -.127753791806137D+02 -.101615832193937D+03
 0.000000000000000D+00 0.000000000000000D+00 -.000000000000000D+00 0.000000000000000D+00
 0.192126218616177D+03 -.910654338739067D+02 0.109480251120071D+02 0.168818575338305D+03
 0.223119801846782D+03 0.000000000000000D+00 0.000000000000000D+00 0.223119801846782D+03
 0.204682670107738D+03 0.000000000000000D+00 0.000000000000000D+00 -.204682670107738D+03
 0.877550754098766D+02 0.257181119688867D+02 0.482941930473854D+01 -.672027431443685D+02
 0.117453752678429D+03 0.582521549116504D+02 -.873459294576819D+01 -.101615832193937D+03
 0.267442054972693D+02 0.137495876919173D+02 -.136482064469864D+02 0.184371317390446D+02
 0.195849438368945D+03 -.977198545724544D+02 0.175533800880161D+02 0.168818575338305D+03
0.213422696486D-05 0.000000000000D+00 0.000000000000D+00 0.584276849209D-05 0.000000000000D+00  6 -2 22 9900012 11 -1 21 0 0.80110792D-02 0.11852846D+00 0.11346680D+05 0.11346680D+05 0.11346680D+05 0.12036846D+01  1  2  2  1  6  1       -2 0.141481218983D-04 0.100000000000D+01
0.215849962895D-07 0.000000000000D+00 -.409799674996D-08 0.584276849209D-05 0.000000000000D+00  6 -2 22 9900012 11 -1 21 2 0.80110792D-02 0.11852846D+00 0.11346680D+05 0.11346680D+05 0.11346680D+05 0.12036846D+01  1  2  3  1  6  1       -2 0.207317328159D-06 0.100000000000D+01
-.320885215403D-06 0.000000000000D+00 0.000000000000D+00 0.584276849209D-05 0.000000000000D+00  6 -2 22 9900012 11 -1 21 2 0.80110792D-02 0.11852846D+00 0.11346680D+05 0.11346680D+05 0.11346680D+05 0.12036846D+01  1  2 15  1  6  1       -2 -.308200495431D-05 0.100000000000D+01
0.591803547220D-05 0.000000000000D+00 0.000000000000D+00 0.584276849209D-05 0.000000000000D+00  6 -2 22 9900012 11 -1 21 2 0.91194750D-02 0.11852846D+00 0.13688310D+05 0.13688310D+05 0.13688310D+05 0.11954471D+01  1  2 12  1  6  1       -2 0.467363509187D-04 0.100000000000D+01
-.767528118871D-06 0.000000000000D+00 0.000000000000D+00 0.584276849209D-05 0.000000000000D+00  6 -2 22 9900012 11 -1 21 2 0.80110792D-02 0.11852846D+00 0.11346680D+05 0.11346680D+05 0.11346680D+05 0.12036846D+01  1  2  4  1  6  1       -2 -.737187427586D-05 0.100000000000D+01
-.102863412434D-04 0.000000000000D+00 -.200633476020D-05 0.584276849209D-05 0.000000000000D+00  6 -2 22 9900012 11 -1 21 2 0.91129543D-02 0.11852846D+00 0.11346680D+05 0.11346680D+05 0.11346680D+05 0.12036846D+01  1  2  5  1  6  1       -2 -.813192061566D-04 0.100000000000D+01
0.104743478218D-04 0.000000000000D+00 0.198978881759D-05 0.584276849209D-05 0.000000000000D+00  6 -2 22 9900012 11 -1 21 2 0.80110792D-02 0.11852846D+00 0.11346680D+05 0.11346680D+05 0.11346680D+05 0.12036846D+01  1  2  6  1  6  1       -2 0.100602926935D-03 0.100000000000D+01
0.119735738170D-06 0.000000000000D+00 0.000000000000D+00 0.584276849209D-05 0.000000000000D+00  6 21 22 9900012 11 2 -1 2 0.91194750D-02 0.11852846D+00 0.13688310D+05 0.13688310D+05 0.13688310D+05 0.11954471D+01  3  4 12  3  5  1       -2 0.140480831395D-04 0.100000000000D+01
-.196586272502D-06 0.000000000000D+00 -.404066310299D-07 0.584276849209D-05 0.000000000000D+00  6 21 22 9900012 11 2 -1 2 0.91129543D-02 0.11852846D+00 0.11346680D+05 0.11346680D+05 0.11346680D+05 0.12036846D+01  3  4  5  3  5  1       -2 -.231348479736D-04 0.100000000000D+01
  </mgrwgt>
  </event>
  <event>
  7     66 0.85654518E-06 0.42328822E+02 0.78161638E-02 0.12270741E+00
       -2 -1    0    0    0  502 0.00000000E+00 0.00000000E+00 0.32290528E+02 0.32290528E+02 0.00000000E+00 0.0000E+00 0.9000E+01
       22 -1    0    0    0    0 0.00000000E+00 0.00000000E+00 -.89014450E+03 0.89014450E+03 0.00000000E+00 0.0000E+00 0.9000E+01
      -24  2    1    2    0    0 -.15438659E+02 -.47931923E+02 -.86189959E+03 0.86717689E+03 0.81172855E+02 0.0000E+00 0.0000E+00
  9900012  1    3    3    0    0 -.16498121E+02 -.16789203E+02 -.35061108E+03 0.35493970E+03 0.50000000E+02 0.0000E+00 0.9000E+01
       11  1    3    3    0    0 0.10594626E+01 -.31142720E+02 -.51128851E+03 0.51223719E+03 0.00000000E+00 0.0000E+00 0.9000E+01
       -1  1    1    2    0  501 0.60312973E+01 -.23200287E+00 0.46182952E+00 0.60534006E+01 0.00000000E+00 0.0000E+00 0.9000E+01
       21  1    1    2  501  502 0.94073612E+01 0.48163925E+02 0.35837932E+01 0.49204733E+02 0.00000000E+00 0.0000E+00 0.9000E+01
#aMCatNLO 2  0  0  1  1 0.49837350D+02 0.00000000D+00  -5  6  0 0.00000000D+00 0.00000000D+00 0.00000000D+00 0.00000000D+00 0.00000000D+00
  <mgrwgt>
 0.1060545654D-04    1    2    0
 0.671711649328599D+02 0.000000000000000D+00 0.000000000000000D+00 0.671711649328599D+02
 0.671711649328599D+02 0.000000000000000D+00 0.000000000000000D+00 -.671711649328599D+02
 0.517382785391222D+02 -.128665103038893D+02 0.180396398075526D+01 -.283691606288337D+01
 0.399561783398629D+02 0.404088457953746D+01 -.158783984589513D+02 -.364423366665827D+02
 0.426478729867346D+02 0.882562572435183D+01 0.140744344781960D+02 0.392792527294661D+02
 0.000000000000000D+00 0.000000000000000D+00 0.000000000000000D+00 0.000000000000000D+00
 0.391633514800946D+03 0.000000000000000D+00 0.000000000000000D+00 0.391633514800946D+03
 0.733931963080531D+02 0.000000000000000D+00 0.000000000000000D+00 -.733931963080531D+02
 0.553363661154911D+02 -.164981211430466D+02 -.167892025084334D+02 -.283691606288337D+01
 0.479482572387343D+02 0.105946258101503D+01 -.311427200088673D+02 -.364423366665827D+02
 0.397402826849519D+02 0.603129733670603D+01 -.232002868218853D+00 0.392792527294661D+02
 0.322001805069822D+03 0.940736122532550D+01 0.481639253855196D+02 0.318240318492893D+03
0.739376882029D-06 0.000000000000D+00 0.000000000000D+00 0.287467594833D-06 0.549349627970D-07  6 -2 22 9900012 11 -1 21 2 0.49677735D-02 0.13694531D+00 0.50079782D+04 0.50079782D+04 0.50079782D+04 0.12417676D+01  1  2  1  1  6  1       -2 0.106054565366D-04 0.100000000000D+01
  </mgrwgt>
  </event>
  <event>
  5     66 0.85654518E-06 0.33889028E+02 0.78161638E-02 0.11274971E+00
       -4 -1    0    0    0  501 0.00000000E+00 0.00000000E+00 0.12261774E+04 0.12261774E+04 0.00000000E+00 0.0000E+00 0.9000E+01
       22 -1    0    0    0    0 0.00000000E+00 0.00000000E+00 -.92734153E+01 0.92734153E+01 0.00000000E+00 0.0000E+00 0.9000E+01
  9900012  1    1    2    0    0 0.51987547E+02 0.18429880E+02 0.17430298E+03 0.18953600E+03 0.50000000E+02 0.0000E+00 0.9000E+01
       11  1    1    2    0    0 -.31653764E+02 0.86810674E+01 0.20351995E+03 0.20614968E+03 0.00000000E+00 0.0000E+00 0.9000E+01
       -3  1    1    2    0  501 -.20333783E+02 -.27110947E+02 0.83908104E+03 0.83976512E+03 0.00000000E+00 0.0000E+00 0.9000E+01
#aMCatNLO 1  0  0  1  5 0.47869245D+01 0.00000000D+00  -5  6  0 0.00000000D+00 0.00000000D+00 0.00000000D+00 0.00000000D+00 0.00000000D+00
  <mgrwgt>
 0.1481751304D-04    6    4    0
 0.106634198180602D+03 0.000000000000000D+00 0.000000000000000D+00 0.106634198180602D+03
 0.106634198180602D+03 0.000000000000000D+00 0.000000000000000D+00 -.106634198180602D+03
 0.103402152530129D+03 0.519875466772598D+02 0.184298799682951D+02 -.717609898391741D+02
 0.329329414232437D+02 -.316537636816502D+02 0.868106740763444D+01 0.269387160739948D+01
 0.769333024078318D+02 -.203337829956096D+02 -.271109473759295D+02 0.690671182317747D+02
 0.000000000000000D+00 -.000000000000000D+00 0.000000000000000D+00 0.000000000000000D+00
 0.159679250285280D+03 0.000000000000000D+00 0.000000000000000D+00 0.159679250285280D+03
 0.148761086957204D+03 0.000000000000000D+00 0.000000000000000D+00 -.148761086957204D+03
 0.111824942667657D+03 0.674781489579586D+02 -.173746238271330D+02 -.717609898391741D+02
 0.274727961001935D+02 -.273061639773102D+02 -.136784142717562D+01 0.269387160739948D+01
 0.884604810071182D+02 -.842984814843534D+01 -.546253378878622D+02 0.690671182317747D+02
 0.806821174675145D+02 -.317421368322130D+02 0.733678031421708D+02 0.109181633280758D+02
 0.106634198180602D+03 0.000000000000000D+00 0.000000000000000D+00 0.106634198180602D+03
 0.106634198180602D+03 0.000000000000000D+00 0.000000000000000D+00 -.106634198180602D+03
 0.103402152530129D+03 0.519875466772598D+02 0.184298799682951D+02 -.717609898391741D+02
 0.329329414232437D+02 -.316537636816502D+02 0.868106740763444D+01 0.269387160739948D+01
 0.000000000000000D+00 -.000000000000000D+00 0.000000000000000D+00 0.000000000000000D+00
 0.769333024078318D+02 -.203337829956096D+02 -.271109473759295D+02 0.690671182317747D+02
 0.159679250285280D+03 0.000000000000000D+00 0.000000000000000D+00 0.159679250285280D+03
 0.148761086957204D+03 0.000000000000000D+00 0.000000000000000D+00 -.148761086957204D+03
 0.111824942667657D+03 0.674781489579586D+02 -.173746238271330D+02 -.717609898391741D+02
 0.274727961001935D+02 -.273061639773102D+02 -.136784142717562D+01 0.269387160739948D+01
 0.806821174675145D+02 -.317421368322130D+02 0.733678031421708D+02 0.109181633280758D+02
 0.884604810071182D+02 -.842984814843534D+01 -.546253378878622D+02 0.690671182317747D+02
0.318391067483D-05 0.000000000000D+00 0.000000000000D+00 0.518920520799D-09 0.000000000000D+00  6 -4 22 9900012 11 -3 21 0 0.18864268D+00 0.14266793D-02 0.49814426D+04 0.49814426D+04 0.49814426D+04 0.12420275D+01  1  2  2  1  6  1       -4 0.120984162940D-04 0.100000000000D+01
0.171342390598D-06 0.000000000000D+00 -.611352766713D-08 0.518920520799D-09 0.000000000000D+00  6 -4 22 9900012 11 -3 21 2 0.18864268D+00 0.14266793D-02 0.49814426D+04 0.49814426D+04 0.49814426D+04 0.12420275D+01  1  2  3  1  6  1       -4 0.100437263342D-05 0.100000000000D+01
-.537040603739D-06 0.000000000000D+00 0.000000000000D+00 0.518920520799D-09 0.000000000000D+00  6 -4 22 9900012 11 -3 21 2 0.18864268D+00 0.14266793D-02 0.49814426D+04 0.49814426D+04 0.49814426D+04 0.12420275D+01  1  2 15  1  6  1       -4 -.314801774126D-05 0.100000000000D+01
-.385959453342D-06 0.000000000000D+00 -.780563453231D-06 0.518920520799D-09 0.000000000000D+00  6 -4 22 9900012 11 -3 21 2 0.33800005D+00 0.14266793D-02 0.49814426D+04 0.49814426D+04 0.49814426D+04 0.12420275D+01  1  2  5  1  6  1       -4 -.251598279835D-06 0.100000000000D+01
0.814849972174D-06 0.000000000000D+00 0.664348370657D-06 0.518920520799D-09 0.000000000000D+00  6 -4 22 9900012 11 -3 21 2 0.18864268D+00 0.14266793D-02 0.49814426D+04 0.49814426D+04 0.49814426D+04 0.12420275D+01  1  2  6  1  6  1       -4 0.477647714345D-05 0.100000000000D+01
0.164924977994D-07 0.000000000000D+00 -.499783048812D-07 0.518920520799D-09 0.000000000000D+00  6 21 22 9900012 11 4 -3 2 0.33800005D+00 0.14266793D-02 0.49814426D+04 0.49814426D+04 0.49814426D+04 0.12420275D+01  3  4  5  3  5  1       -4 0.337862991086D-06 0.100000000000D+01
  </mgrwgt>
  </event>
  <event>
  6     66 0.85654518E-06 0.10687517E+03 0.78161638E-02 0.91066866E-01
       -4 -1    0    0    0  501 0.00000000E+00 0.00000000E+00 0.67515436E+03 0.67515436E+03 0.00000000E+00 0.0000E+00 0.9000E+01
       22 -1    0    0    0    0 0.00000000E+00 0.00000000E+00 -.28455457E+02 0.28455457E+02 0.00000000E+00 0.0000E+00 0.9000E+01
      -24  2    1    2    0    0 -.56077300E+02 0.90981525E+02 0.17638658E+03 0.22130703E+03 0.80263768E+02 0.0000E+00 0.0000E+00
  9900012  1    3    3    0    0 -.18918914E+02 0.39659590E+02 0.11620771E+03 0.13392177E+03 0.50000000E+02 0.0000E+00 0.9000E+01
       11  1    3    3    0    0 -.37158387E+02 0.51321934E+02 0.60178871E+02 0.87385257E+02 0.00000000E+00 0.0000E+00 0.9000E+01
       -3  1    1    2    0  501 0.56077300E+02 -.90981525E+02 0.47031232E+03 0.48230279E+03 0.00000000E+00 0.0000E+00 0.9000E+01
#aMCatNLO 1  0  0  1  5 0.62071932D+01 0.00000000D+00  -5  6  0 0.00000000D+00 0.00000000D+00 0.00000000D+00 0.00000000D+00 0.00000000D+00
  <mgrwgt>
 0.1753676429D-04    3    2    0
 0.138606730711666D+03 0.000000000000000D+00 0.000000000000000D+00 0.138606730711666D+03
 0.138606730711666D+03 0.000000000000000D+00 0.000000000000000D+00 -.138606730711666D+03
 0.688179889374445D+02 -.189189138799391D+02 0.396595904267619D+02 -.174673176583922D+02
 0.814084381594886D+02 -.371583865740019D+02 0.513219343662432D+02 -.511140603326651D+02
 0.126987034326399D+03 0.560773004539410D+02 -.909815247930051D+02 0.685813779910573D+02
 0.000000000000000D+00 0.000000000000000D+00 -.000000000000000D+00 -.000000000000000D+00
 0.501508699885022D+03 0.000000000000000D+00 0.000000000000000D+00 0.501508699885022D+03
 0.999790079558470D+03 0.000000000000000D+00 0.000000000000000D+00 -.999790079558470D+03
 0.236524354496716D+03 -.212788139247893D+03 0.886559128277889D+02 -.174673176583922D+02
 0.315131501171072D+03 -.288931167253036D+03 0.114952148550779D+03 -.511140603326651D+02
 0.141897294290638D+03 -.114643851143585D+03 -.478353855928756D+02 0.685813779910573D+02
 0.807745629485066D+03 0.616363157644513D+03 -.155772675785693D+03 -.498281379673449D+03
0.440679730056D-05 0.000000000000D+00 0.000000000000D+00 0.768652567562D-06 0.000000000000D+00  6 -4 22 9900012 11 -3 21 0 0.10386990D+00 0.43777626D-02 0.14018683D+05 0.14018683D+05 0.14018683D+05 0.11944118D+01  1  2  2  1  6  1       -4 0.226858790372D-04 0.100000000000D+01
-.727975546546D-07 0.000000000000D+00 -.846163098527D-08 0.768652567562D-06 0.000000000000D+00  6 -4 22 9900012 11 -3 21 2 0.10386990D+00 0.43777626D-02 0.14018683D+05 0.14018683D+05 0.14018683D+05 0.11944118D+01  1  2  3  1  6  1       -4 -.534635142458D-06 0.100000000000D+01
-.628321642625D-06 0.000000000000D+00 0.000000000000D+00 0.768652567562D-06 0.000000000000D+00  6 -4 22 9900012 11 -3 21 2 0.10386990D+00 0.43777626D-02 0.14018683D+05 0.14018683D+05 0.14018683D+05 0.11944118D+01  1  2 15  1  6  1       -4 -.461447960042D-05 0.100000000000D+01
  </mgrwgt>
  </event>
  <event>
  6     66 0.85654518E-06 0.47304250E+02 0.78161638E-02 0.12219523E+00
       -2 -1    0    0    0  501 0.00000000E+00 0.00000000E+00 0.15378710E+03 0.15378710E+03 0.00000000E+00 0.0000E+00 0.9000E+01
       22 -1    0    0    0    0 0.00000000E+00 0.00000000E+00 -.93519880E+02 0.93519880E+02 0.00000000E+00 0.0000E+00 0.9000E+01
      -24  2    1    2    0    0 0.45752241E+02 -.19447103E+02 -.63715542E+02 0.11372860E+03 0.80019172E+02 0.0000E+00 0.0000E+00
  9900012  1    3    3    0    0 0.16484694E+02 0.23221266E+00 -.17265862E+02 0.55406760E+02 0.50000000E+02 0.0000E+00 0.9000E+01
       11  1    3    3    0    0 0.29267547E+02 -.19679316E+02 -.46449680E+02 0.58321845E+02 0.00000000E+00 0.0000E+00 0.9000E+01
       -1  1    1    2    0  501 -.45752241E+02 0.19447103E+02 0.12398276E+03 0.13357837E+03 0.00000000E+00 0.0000E+00 0.9000E+01
#aMCatNLO 1  0  0  1  5 0.70923967D+01 0.00000000D+00  -5  6  0 0.00000000D+00 0.00000000D+00 0.00000000D+00 0.00000000D+00 0.00000000D+00
  <mgrwgt>
 0.9528966088D-04   11    4    0
 0.119925606542808D+03 0.000000000000000D+00 0.000000000000000D+00 0.119925606542808D+03
 0.119925606542808D+03 0.000000000000000D+00 0.000000000000000D+00 -.119925606542808D+03
 0.614674560372551D+02 0.164846942383907D+02 0.232212662073255D+00 -.317245817125810D+02
 0.718061501882733D+02 0.292675470528567D+02 -.196793161166216D+02 -.625480488228991D+02
 0.106577606860088D+03 -.457522412912474D+02 0.194471034545483D+02 0.942726305354800D+02
 0.000000000000000D+00 0.000000000000000D+00 -.000000000000000D+00 0.000000000000000D+00
 0.179100484743305D+03 0.000000000000000D+00 0.000000000000000D+00 0.179100484743305D+03
 0.120189321354480D+03 0.000000000000000D+00 0.000000000000000D+00 -.120189321354480D+03
 0.610164667606487D+02 0.147059533756901D+02 0.543200172271362D+00 -.317245817125810D+02
 0.708871709492460D+02 0.271953204671638D+02 -.193170168070569D+02 -.625480488228991D+02
 0.108051857523275D+03 -.488691417784090D+02 0.199920491194081D+02 0.942726305354800D+02
 0.593343108646147D+02 0.696786793555513D+01 -.121823248462256D+01 0.589111633888247D+02
 0.119925606542808D+03 0.000000000000000D+00 0.000000000000000D+00 0.119925606542808D+03
 0.119925606542808D+03 0.000000000000000D+00 0.000000000000000D+00 -.119925606542808D+03
 0.614674560372551D+02 0.164846942383907D+02 0.232212662073255D+00 -.317245817125810D+02
 0.718061501882733D+02 0.292675470528567D+02 -.196793161166216D+02 -.625480488228991D+02
 0.000000000000000D+00 0.000000000000000D+00 -.000000000000000D+00 0.000000000000000D+00
 0.106577606860088D+03 -.457522412912474D+02 0.194471034545483D+02 0.942726305354800D+02
 0.179100484743305D+03 0.000000000000000D+00 0.000000000000000D+00 0.179100484743305D+03
 0.120189321354480D+03 0.000000000000000D+00 0.000000000000000D+00 -.120189321354480D+03
 0.610164667606487D+02 0.147059533756901D+02 0.543200172271362D+00 -.317245817125810D+02
 0.708871709492460D+02 0.271953204671638D+02 -.193170168070569D+02 -.625480488228991D+02
 0.593343108646147D+02 0.696786793555513D+01 -.121823248462256D+01 0.589111633888247D+02
 0.108051857523275D+03 -.488691417784090D+02 0.199920491194081D+02 0.942726305354800D+02
0.125071832897D-06 0.000000000000D+00 0.000000000000D+00 0.385383666208D-05 0.000000000000D+00  6 -2 22 9900012 11 -1 21 0 0.23659554D-01 0.14387674D-01 0.47355111D+04 0.47355111D+04 0.47355111D+04 0.12445130D+01  1  2  2  1  6  1       -2 0.468569417034D-05 0.100000000000D+01
0.271502741020D-08 0.000000000000D+00 -.240154385246D-09 0.385383666208D-05 0.000000000000D+00  6 -2 22 9900012 11 -1 21 2 0.23659554D-01 0.14387674D-01 0.47355111D+04 0.47355111D+04 0.47355111D+04 0.12445130D+01  1  2  3  1  6  1       -2 0.157538783257D-06 0.100000000000D+01
-.181651170484D-07 0.000000000000D+00 0.000000000000D+00 0.385383666208D-05 0.000000000000D+00  6 -2 22 9900012 11 -1 21 2 0.23659554D-01 0.14387674D-01 0.47355111D+04 0.47355111D+04 0.47355111D+04 0.12445130D+01  1  2 15  1  6  1       -2 -.105402635228D-05 0.100000000000D+01
0.412145637507D-05 0.000000000000D+00 0.000000000000D+00 0.385383666208D-05 0.000000000000D+00  6 -2 22 9900012 11 -1 21 2 0.35411583D-01 0.14387674D-01 0.52818134D+04 0.52818134D+04 0.52818134D+04 0.12391733D+01  1  2 12  1  6  1       -2 0.121688097723D-03 0.100000000000D+01
-.235394028975D-05 0.000000000000D+00 0.000000000000D+00 0.385383666208D-05 0.000000000000D+00  6 -2 22 9900012 11 -1 21 2 0.23659554D-01 0.14387674D-01 0.47355111D+04 0.47355111D+04 0.47355111D+04 0.12445130D+01  1  2  4  1  6  1       -2 -.136586793825D-03 0.100000000000D+01
-.427213280402D-05 0.000000000000D+00 -.453553289605D-07 0.385383666208D-05 0.000000000000D+00  6 -2 22 9900012 11 -1 21 2 0.35366444D-01 0.14387674D-01 0.47355111D+04 0.47355111D+04 0.47355111D+04 0.12445130D+01  1  2  5  1  6  1       -2 -.126486428861D-03 0.100000000000D+01
0.396877731987D-05 0.000000000000D+00 0.419221333486D-07 0.385383666208D-05 0.000000000000D+00  6 -2 22 9900012 11 -1 21 2 0.23659554D-01 0.14387674D-01 0.47355111D+04 0.47355111D+04 0.47355111D+04 0.12445130D+01  1  2  6  1  6  1       -2 0.230287306729D-03 0.100000000000D+01
0.858926083541D-07 0.000000000000D+00 0.000000000000D+00 0.385383666208D-05 0.379802714647D-06  6 -2 22 9900012 11 -1 21 2 0.35333885D-01 0.14419312D-01 0.52818134D+04 0.52818134D+04 0.52818134D+04 0.12391733D+01  1  2 11  1  6  1       -2 0.253765264519D-05 0.100000000000D+01
0.197357946572D-06 0.000000000000D+00 0.000000000000D+00 0.385383666208D-05 0.000000000000D+00  6 21 22 9900012 11 2 -1 2 0.35411583D-01 0.14387674D-01 0.52818134D+04 0.52818134D+04 0.52818134D+04 0.12391733D+01  3  4 12  3  5  1       -2 0.697398702378D-04 0.100000000000D+01
-.202538862130D-06 0.000000000000D+00 -.216681115533D-08 0.385383666208D-05 0.000000000000D+00  6 21 22 9900012 11 2 -1 2 0.35366444D-01 0.14387674D-01 0.47355111D+04 0.47355111D+04 0.47355111D+04 0.12445130D+01  3  4  5  3  5  1       -2 -.719564124324D-04 0.100000000000D+01
0.643742964349D-08 0.000000000000D+00 0.000000000000D+00 0.385383666208D-05 0.281833219064D-07  6 21 22 9900012 11 2 -1 2 0.35333885D-01 0.14419312D-01 0.52818134D+04 0.52818134D+04 0.52818134D+04 0.12391733D+01  3  4 11  3  5  1       -2 0.227716206539D-05 0.100000000000D+01
  </mgrwgt>
  </event>
  <event>
  6     66 0.85654518E-06 0.13547331E+02 0.78161638E-02 0.12513159E+00
       -4 -1    0    0    0  501 0.00000000E+00 0.00000000E+00 0.21479345E+02 0.21479345E+02 0.00000000E+00 0.0000E+00 0.9000E+01
       22 -1    0    0    0    0 -.00000000E+00 -.00000000E+00 -.49228908E+03 0.49228908E+03 0.00000000E+00 0.0000E+00 0.9000E+01
      -24  2    1    2    0    0 0.25292352E+02 -.28532618E+02 -.46703008E+03 0.47545264E+03 0.80525200E+02 0.0000E+00 0.0000E+00
  9900012  1    3    3    0    0 0.74994043E+01 -.24222537E+01 -.19001105E+03 0.19663751E+03 0.50000000E+02 0.0000E+00 0.9000E+01
       11  1    3    3    0    0 0.17792948E+02 -.26110365E+02 -.27701902E+03 0.27881513E+03 0.00000000E+00 0.0000E+00 0.9000E+01
       -3  1    1    2    0  501 -.25292352E+02 0.28532618E+02 -.37796570E+01 0.38315783E+02 0.00000000E+00 0.0000E+00 0.9000E+01
#aMCatNLO 1  0  0  5  1 0.10793404D+02 0.00000000D+00  -5  6  0 0.00000000D+00 0.00000000D+00 0.00000000D+00 0.00000000D+00 0.00000000D+00
  <mgrwgt>
 0.4179863898D-04    5    2    0
 0.102830184703339D+03 0.000000000000000D+00 0.000000000000000D+00 0.102830184703339D+03
 0.102830184703339D+03 -.000000000000000D+00 -.000000000000000D+00 -.102830184703339D+03
 0.562436413386637D+02 0.749940434156093D+01 -.242225366201370D+01 -.245201715481536D+02
 0.623511454351900D+02 0.177929477020267D+02 -.261103648079656D+02 -.537524436537364D+02
 0.870655826328252D+02 -.252923520435876D+02 0.285326184699792D+02 0.782726152018900D+02
 0.000000000000000D+00 0.000000000000000D+00 0.000000000000000D+00 -.000000000000000D+00
 0.102830184703339D+03 0.000000000000000D+00 0.000000000000000D+00 0.102830184703339D+03
 0.102830184703339D+03 -.000000000000000D+00 -.000000000000000D+00 -.102830184703339D+03
 0.551961503348107D+02 0.678668483341408D+01 -.161822587657802D+01 -.223145079660589D+02
 0.596781511683153D+02 0.170125024144978D+02 -.252299347243032D+02 -.513371881025091D+02
 0.832491208109727D+02 -.183016634993459D+02 0.318993408703926D+02 0.746853217238243D+02
 0.753694709258016D+01 -.549752374856604D+01 -.505118026951136D+01 -.103362565525633D+01
0.410880151962D-06 0.000000000000D+00 0.000000000000D+00 0.209541756607D-05 0.000000000000D+00  6 -4 22 9900012 11 -3 21 0 0.33045146D-02 0.75736781D-01 0.36205913D+04 0.36205913D+04 0.36205913D+04 0.12579435D+01  1  2  2  2  6  5       -3 0.146806841287D-04 0.100000000000D+01
0.137237150788D-07 0.000000000000D+00 -.788943985381D-09 0.209541756607D-05 0.000000000000D+00  6 -4 22 9900012 11 -3 21 2 0.33045146D-02 0.75736781D-01 0.36205913D+04 0.36205913D+04 0.36205913D+04 0.12579435D+01  1  2  3  2  6  5       -3 0.775934513666D-06 0.100000000000D+01
-.613775683463D-07 0.000000000000D+00 0.000000000000D+00 0.209541756607D-05 0.000000000000D+00  6 -4 22 9900012 11 -3 21 2 0.33045146D-02 0.75736781D-01 0.36205913D+04 0.36205913D+04 0.36205913D+04 0.12579435D+01  1  2 15  2  6  5       -3 -.347026831811D-05 0.100000000000D+01
0.551185889874D-06 0.000000000000D+00 0.000000000000D+00 0.209541756607D-05 0.000000000000D+00  6 -4 22 9900012 11 -3 21 2 0.33045146D-02 0.75736781D-01 0.39160441D+04 0.39160441D+04 0.39160441D+04 0.12539737D+01  1  2 12  2  6  5       -3 0.313196432353D-04 0.100000000000D+01
-.266601168378D-07 0.000000000000D+00 0.000000000000D+00 0.209541756607D-05 0.000000000000D+00  6 -4 22 9900012 11 -3 21 2 0.33045146D-02 0.75736781D-01 0.36205913D+04 0.36205913D+04 0.36205913D+04 0.12579435D+01  1  2  4  2  6  5       -3 -.150735458103D-05 0.100000000000D+01
  </mgrwgt>
  </event>
  <event>
  7     66 -.85654518E-06 0.34353213E+02 0.78161638E-02 0.12236593E+00
       -2 -1    0    0    0  501 0.00000000E+00 0.00000000E+00 0.11906629E+03 0.11906629E+03 0.00000000E+00 0.0000E+00 0.9000E+01
       22 -1    0    0    0    0 -.00000000E+00 -.00000000E+00 -.13516125E+04 0.13516125E+04 0.00000000E+00 0.0000E+00 0.9000E+01
      -24  2    1    2    0    0 0.41772924E+02 0.98318229E+01 -.13438045E+04 0.13468755E+04 0.80134945E+02 0.0000E+00 0.0000E+00
  9900012  1    3    3    0    0 0.11460689E+02 -.11715272E+02 -.68186683E+03 0.68389397E+03 0.50000000E+02 0.0000E+00 0.9000E+01
       11  1    3    3    0    0 0.30312235E+02 0.21547095E+02 -.66193762E+03 0.66298154E+03 0.00000000E+00 0.0000E+00 0.9000E+01
       -1  1    1    2    0  502 -.40846116E+02 0.34049169E+01 0.86205438E+02 0.95453529E+02 0.00000000E+00 0.0000E+00 0.9000E+01
       21  1    1    2  502  501 -.92680834E+00 -.13236740E+02 0.25052758E+02 0.28349796E+02 0.00000000E+00 0.0000E+00 0.9000E+01
#aMCatNLO 2  0  0  5  1 0.13946341D+02 0.00000000D+00  -5  6  0 0.00000000D+00 0.00000000D+00 0.00000000D+00 0.00000000D+00 0.00000000D+00
  <mgrwgt>
 -.6021232305D-03    2    2    0
 0.401162678984189D+03 0.000000000000000D+00 0.000000000000000D+00 0.401162678984189D+03
 0.401162678984189D+03 -.000000000000000D+00 -.000000000000000D+00 -.401162678984189D+03
 0.206442305528176D+03 0.114984816538809D+02 -.117063772880518D+02 -.199622571775423D+03
 0.198722247080193D+03 0.303486140878292D+02 0.215556574865846D+02 -.195204627859767D+03
 0.397160805360010D+03 -.418470957417104D+02 -.984928019853282D+01 0.394827199635191D+03
 0.000000000000000D+00 0.000000000000000D+00 0.000000000000000D+00 0.000000000000000D+00
 0.401162678984189D+03 0.000000000000000D+00 0.000000000000000D+00 0.401162678984189D+03
 0.401162678984189D+03 -.000000000000000D+00 -.000000000000000D+00 -.401162678984189D+03
 0.206095928639106D+03 0.114606886710670D+02 -.117152723779183D+02 -.199265995116857D+03
 0.198378607668326D+03 0.303122353366350D+02 0.215470952552652D+02 -.194861394471508D+03
 0.307398578980125D+03 -.408461156672394D+02 0.340491686190692D+01 0.304653717743707D+03
 0.904522426808219D+02 -.926808340462831D+00 -.132367397392539D+02 0.894736718446583D+02
-.988569515180D-03 0.000000000000D+00 0.000000000000D+00 0.584812391426D-03 0.000000000000D+00  6 -2 22 9900012 11 -1 21 2 0.18317891D-01 0.20794039D+00 0.51886483D+04 0.51886483D+04 0.51886483D+04 0.12400386D+01  1  2 13  2  6  5       -1 -.755763157957D-03 0.100000000000D+01
0.200967389078D-03 0.000000000000D+00 0.000000000000D+00 0.584812391426D-03 0.821132000159D-05  6 -2 22 9900012 11 -1 21 2 0.18317891D-01 0.20794039D+00 0.51886483D+04 0.51886483D+04 0.51886483D+04 0.12400386D+01  1  2  1  2  6  5       -1 0.153639927475D-03 0.100000000000D+01
  </mgrwgt>
  </event>
  <event>
  7     66 -.85654518E-06 0.34957384E+02 0.78161638E-02 0.12371166E+00
       -4 -1    0    0    0  502 0.00000000E+00 0.00000000E+00 0.34621824E+02 0.34621824E+02 0.00000000E+00 0.0000E+00 0.9000E+01
       22 -1    0    0    0    0 0.00000000E+00 0.00000000E+00 -.46175821E+03 0.46175821E+03 0.00000000E+00 0.0000E+00 0.9000E+01
      -24  2    1    2    0    0 -.37372936E+02 -.10348961E+02 -.42448016E+03 0.43343474E+03 0.78602994E+02 0.0000E+00 0.0000E+00
  9900012  1    3    3    0    0 -.40262552E+02 -.27311546E+02 -.36004835E+03 0.36674488E+03 0.50000000E+02 0.0000E+00 0.9000E+01
       11  1    3    3    0    0 0.28896155E+01 0.16962586E+02 -.64431818E+02 0.66689867E+02 0.00000000E+00 0.0000E+00 0.9000E+01
       -3  1    1    2    0  501 0.39062210E+02 0.21896946E+01 0.16188616E+02 0.42340552E+02 0.00000000E+00 0.0000E+00 0.9000E+01
       21  1    1    2  501  502 -.16892737E+01 0.81592662E+01 -.18844844E+02 0.20604742E+02 0.00000000E+00 0.0000E+00 0.9000E+01
#aMCatNLO 2  0  0  1  5 0.13642348D+02 0.00000000D+00  -5  6  0 0.00000000D+00 0.00000000D+00 0.00000000D+00 0.00000000D+00 0.00000000D+00
  <mgrwgt>
 -.2242360366D-04    3    2    0
 0.122056049953249D+03 0.000000000000000D+00 0.000000000000000D+00 0.122056049953249D+03
 0.122056049953249D+03 0.000000000000000D+00 0.000000000000000D+00 -.122056049953249D+03
 0.111951142779381D+03 -.410390037311394D+02 -.235612498605269D+02 -.882820822555446D+02
 0.227598117754307D+02 0.273409842739650D+01 0.177137397872810D+02 -.140270153842805D+02
 0.109401145351686D+03 0.383049053037429D+02 0.584751007324593D+01 0.102309097639825D+03
 0.000000000000000D+00 -.000000000000000D+00 0.000000000000000D+00 -.000000000000000D+00
 0.125312066284063D+03 0.000000000000000D+00 0.000000000000000D+00 0.125312066284063D+03
 0.127576792284341D+03 0.000000000000000D+00 0.000000000000000D+00 -.127576792284341D+03
 0.112519863579005D+03 -.402625518710925D+02 -.273115464463407D+02 -.882820822555446D+02
 0.221999178100438D+02 0.288961546378432D+01 0.169625856712152D+02 -.140270153842805D+02
 0.109534480788180D+03 0.390622101196505D+02 0.218969455156363D+01 0.102309097639825D+03
 0.863459639117569D+01 -.168927371234232D+01 0.815926622356184D+01 -.226472600027826D+01
-.728776448875D-06 0.000000000000D+00 0.000000000000D+00 0.168178966982D-05 0.000000000000D+00  6 -4 22 9900012 11 -3 21 2 0.55673555D-02 0.67965561D-01 0.45176299D+04 0.45176299D+04 0.45176299D+04 0.12468386D+01  1  2 13  1  6  1       -4 -.229544952804D-04 0.100000000000D+01
-.379405478874D-08 0.000000000000D+00 0.000000000000D+00 0.168178966982D-05 0.000000000000D+00  6 -4 22 9900012 11 -3 21 2 0.51880363D-02 0.67965561D-01 0.39385023D+04 0.39385023D+04 0.39385023D+04 0.12536858D+01  1  2  8  1  6  1       -4 -.132204602100D-06 0.100000000000D+01
0.212632726363D-07 0.000000000000D+00 0.000000000000D+00 0.168178966982D-05 0.389196429717D-08  6 -4 22 9900012 11 -3 21 2 0.53264344D-02 0.71039725D-01 0.45176299D+04 0.45176299D+04 0.45176299D+04 0.12468386D+01  1  2  1  1  6  1       -4 0.663096217883D-06 0.100000000000D+01
  </mgrwgt>
  </event>
  <event>
  7     66 -.85654518E-06 0.16312153E+03 0.78161638E-02 0.10638858E+00
       -2 -1    0    0    0  501 0.00000000E+00 0.00000000E+00 0.34027422E+03 0.34027422E+03 0.00000000E+00 0.0000E+00 0.9000E+01
       22 -1    0    0    0    0 -.00000000E+00 -.00000000E+00 -.74698438E+03 0.74698438E+03 0.00000000E+00 0.0000E+00 0.9000E+01
      -24  2    1    2    0    0 0.37802330E+02 -.17054270E+03 -.70731179E+03 0.73325326E+03 0.82804212E+02 0.0000E+00 0.0000E+00
  9900012  1    3    3    0    0 0.81671904E+01 -.70999953E+02 -.37890868E+03 0.38881806E+03 0.50000000E+02 0.0000E+00 0.9000E+01
       11  1    3    3    0    0 0.29635139E+02 -.99542745E+02 -.32840311E+03 0.34443519E+03 0.00000000E+00 0.0000E+00 0.9000E+01
       -1  1    1    2    0  502 -.50352843E+02 0.16287051E+03 0.28781911E+03 0.33451764E+03 0.00000000E+00 0.0000E+00 0.9000E+01
       21  1    1    2  502  501 0.12550513E+02 0.76721897E+01 0.12782522E+02 0.19487708E+02 0.00000000E+00 0.0000E+00 0.9000E+01
#aMCatNLO 2  0  0  5  1 0.14806066D+02 0.00000000D+00  -5  6  0 0.00000000D+00 0.00000000D+00 0.00000000D+00 0.00000000D+00 0.00000000D+00
  <mgrwgt>
 -.5049818665D-04    3    2    0
 0.504162205658024D+03 0.000000000000000D+00 0.000000000000000D+00 0.504162205658024D+03
 0.504162205658024D+03 -.000000000000000D+00 -.000000000000000D+00 -.504162205658024D+03
 0.267574474291696D+03 0.825649620915272D+01 -.714028496208307D+02 -.252842960409917D+03
 0.239987697439190D+03 0.297152344788532D+02 -.999040899430798D+02 -.216171858887035D+03
 0.500762239585163D+03 -.379717306880059D+02 0.171306939563911D+03 0.469014819296951D+03
 0.000000000000000D+00 0.000000000000000D+00 0.000000000000000D+00 0.000000000000000D+00
 0.504162205658024D+03 0.000000000000000D+00 0.000000000000000D+00 0.504162205658024D+03
 0.504162205658024D+03 -.000000000000000D+00 -.000000000000000D+00 -.504162205658024D+03
 0.266421968689693D+03 0.816719044803731D+01 -.709999526144285D+02 -.251739883867110D+03
 0.238936241393799D+03 0.296351390635447D+02 -.995427447997062D+02 -.215182545625385D+03
 0.476797084030165D+03 -.503528425570428D+02 0.162870507690714D+03 0.445278843322545D+03
 0.261691172023915D+02 0.125505130454609D+02 0.767218972342067D+01 0.216435861699501D+02
-.140171113439D-03 0.000000000000D+00 0.000000000000D+00 0.750679645217D-05 0.000000000000D+00  6 -2 22 9900012 11 -1 21 2 0.52349880D-01 0.11492067D+00 0.35394553D+05 0.35394553D+05 0.35394553D+05 0.11562519D+01  1  2 13  2  6  5       -1 -.621994319449D-04 0.100000000000D+01
-.222899419435D-04 0.000000000000D+00 0.000000000000D+00 0.750679645217D-05 0.000000000000D+00  6 -2 22 9900012 11 -1 21 2 0.52349880D-01 0.11492067D+00 0.33718745D+05 0.33718745D+05 0.33718745D+05 0.11581569D+01  1  2  8  2  6  5       -1 -.990961115146D-05 0.100000000000D+01
0.487016957568D-04 0.000000000000D+00 0.000000000000D+00 0.750679645217D-05 0.802123677966D-07  6 -2 22 9900012 11 -1 21 2 0.52349880D-01 0.11492067D+00 0.35394553D+05 0.35394553D+05 0.35394553D+05 0.11562519D+01  1  2  1  2  6  5       -1 0.216108564490D-04 0.100000000000D+01
  </mgrwgt>
  </event>
  <event>
  6     66 0.85654518E-06 0.19294631E+02 0.78161638E-02 0.92729952E-01
       -2 -1    0    0    0  501 0.00000000E+00 0.00000000E+00 0.26774959E+03 0.26774959E+03 0.00000000E+00 0.0000E+00 0.9000E+01
       22 -1    0    0    0    0 0.00000000E+00 0.00000000E+00 -.56503110E+02 0.56503110E+02 0.00000000E+00 0.0000E+00 0.9000E+01
      -24  2    1    2    0    0 0.15923450E+02 -.10896170E+02 -.24091791E+02 0.88124800E+02 0.82542614E+02 0.0000E+00 0.0000E+00
  9900012  1    3    3    0    0 -.10290966E+02 0.89941070E+01 -.13647357E+02 0.53600824E+02 0.50000000E+02 0.0000E+00 0.9000E+01
       11  1    3    3    0    0 0.26214416E+02 -.19890277E+02 -.10444434E+02 0.34523976E+02 0.00000000E+00 0.0000E+00 0.9000E+01
       -1  1    1    2    0  501 -.15923450E+02 0.10896170E+02 0.23533827E+03 0.23612790E+03 0.00000000E+00 0.0000E+00 0.9000E+01
#aMCatNLO 1  0  0  1  5 0.52251399D+03 0.00000000D+00  -5  6  0 0.00000000D+00 0.00000000D+00 0.00000000D+00 0.00000000D+00 0.00000000D+00
  <mgrwgt>
 0.4104902977D-04    5    4    0
 0.122998717106208D+03 0.000000000000000D+00 0.000000000000000D+00 0.122998717106208D+03
 0.122998717106208D+03 0.000000000000000D+00 0.000000000000000D+00 -.122998717106208D+03
 0.823714603666771D+02 -.102909660876116D+02 0.899410704748940D+01 -.640176502094616D+02
 0.544755377073980D+02 0.262144158728536D+02 -.198902772155826D+02 -.434138858113680D+02
 0.109150436138341D+03 -.159234497852421D+02 0.108961701680932D+02 0.107431536020830D+03
 0.000000000000000D+00 -.000000000000000D+00 0.000000000000000D+00 0.000000000000000D+00
 0.642824445426409D+03 0.000000000000000D+00 0.000000000000000D+00 0.642824445426409D+03
 0.530892653497028D+03 0.000000000000000D+00 0.000000000000000D+00 -.530892653497028D+03
 0.172934662570222D+03 0.948371515607318D+02 -.119641350141923D+03 -.640176502094616D+02
 0.206690435383232D+03 0.133755460439191D+03 -.151478207674792D+03 -.434138858113680D+02
 0.227675350002623D+03 0.122772248011143D+03 -.158812799186061D+03 0.107431536020830D+03
 0.566416650967361D+03 -.351364860011066D+03 0.429932357002777D+03 0.111931791929381D+03
 0.122998717106208D+03 0.000000000000000D+00 0.000000000000000D+00 0.122998717106208D+03
 0.122998717106208D+03 0.000000000000000D+00 0.000000000000000D+00 -.122998717106208D+03
 0.823714603666771D+02 -.102909660876116D+02 0.899410704748940D+01 -.640176502094616D+02
 0.544755377073980D+02 0.262144158728536D+02 -.198902772155826D+02 -.434138858113680D+02
 0.000000000000000D+00 -.000000000000000D+00 0.000000000000000D+00 0.000000000000000D+00
 0.109150436138341D+03 -.159234497852421D+02 0.108961701680932D+02 0.107431536020830D+03
 0.642824445426409D+03 0.000000000000000D+00 0.000000000000000D+00 0.642824445426409D+03
 0.530892653497028D+03 0.000000000000000D+00 0.000000000000000D+00 -.530892653497028D+03
 0.172934662570222D+03 0.948371515607318D+02 -.119641350141923D+03 -.640176502094616D+02
 0.206690435383232D+03 0.133755460439191D+03 -.151478207674792D+03 -.434138858113680D+02
 0.566416650967361D+03 -.351364860011066D+03 0.429932357002777D+03 0.111931791929381D+03
 0.227675350002623D+03 0.122772248011143D+03 -.158812799186061D+03 0.107431536020830D+03
0.145297667863D-05 0.000000000000D+00 0.000000000000D+00 0.811957132891D-06 0.000000000000D+00  6 -2 22 9900012 11 -1 21 0 0.41192245D-01 0.86927861D-02 0.27058293D+04 0.27058293D+04 0.27058293D+04 0.12730392D+01  1  2  2  1  6  1       -2 0.415123070162D-04 0.100000000000D+01
0.200110977139D-06 0.000000000000D+00 -.278990651174D-08 0.811957132891D-06 0.000000000000D+00  6 -2 22 9900012 11 -1 21 2 0.41192245D-01 0.86927861D-02 0.27058293D+04 0.27058293D+04 0.27058293D+04 0.12730392D+01  1  2  3  1  6  1       -2 0.926558112930D-05 0.100000000000D+01
-.217889219490D-06 0.000000000000D+00 0.000000000000D+00 0.811957132891D-06 0.000000000000D+00  6 -2 22 9900012 11 -1 21 2 0.41192245D-01 0.86927861D-02 0.27058293D+04 0.27058293D+04 0.27058293D+04 0.12730392D+01  1  2 15  1  6  1       -2 -.100887530971D-04 0.100000000000D+01
0.474220669918D-05 0.000000000000D+00 -.106121816859D-05 0.811957132891D-06 0.000000000000D+00  6 -2 22 9900012 11 -1 21 2 0.50370969D+00 0.86927861D-02 0.27058293D+04 0.27058293D+04 0.27058293D+04 0.12730392D+01  1  2  5  1  6  1       -2 0.855727886682D-07 0.100000000000D+01
0.117461028078D-05 0.000000000000D+00 -.308472059133D-06 0.811957132891D-06 0.000000000000D+00  6 21 22 9900012 11 2 -1 2 0.50370969D+00 0.86927861D-02 0.27058293D+04 0.27058293D+04 0.27058293D+04 0.12730392D+01  3  4  5  3  5  1       -2 0.274321936612D-06 0.100000000000D+01
  </mgrwgt>
  </event>
  <event>
  6     66 -.85654518E-06 0.45208393E+02 0.78161638E-02 0.12339321E+00
       -2 -1    0    0    0  501 0.00000000E+00 0.00000000E+00 0.28625817E+03 0.28625817E+03 0.00000000E+00 0.0000E+00 0.9000E+01
       22 -1    0    0    0    0 0.00000000E+00 0.00000000E+00 -.22435197E+02 0.22435197E+02 0.00000000E+00 0.0000E+00 0.9000E+01
      -24  2    1    2    0    0 -.17390108E+02 -.41729881E+02 0.10037965E+03 0.13911295E+03 0.85044340E+02 0.0000E+00 0.0000E+00
  9900012  1    3    3    0    0 -.30971485E+02 -.12937718E+02 0.44784567E+02 0.75048483E+02 0.50000000E+02 0.0000E+00 0.9000E+01
       11  1    3    3    0    0 0.13581377E+02 -.28792163E+02 0.55595087E+02 0.64064469E+02 0.00000000E+00 0.0000E+00 0.9000E+01
       -1  1    1    2    0  501 0.17390108E+02 0.41729881E+02 0.16344332E+03 0.16958042E+03 0.00000000E+00 0.0000E+00 0.9000E+01
#aMCatNLO 1  0  0  5  1 0.48268175D+01 0.00000000D+00  -5  6  0 0.00000000D+00 0.00000000D+00 0.00000000D+00 0.00000000D+00 0.00000000D+00
  <mgrwgt>
 -.6792104916D-04    8    2    0
 0.801389959438577D+02 0.000000000000000D+00 0.000000000000000D+00 0.801389959438577D+02
 0.801389959438577D+02 -.000000000000000D+00 -.000000000000000D+00 -.801389959438577D+02
 0.708255173167590D+02 -.309714853287254D+02 -.129377178872261D+02 -.372778279355117D+02
 0.318759642586606D+02 0.135813771621124D+02 -.287921631659607D+02 0.162315496011786D+01
 0.575765103122958D+02 0.173901081666131D+02 0.417298810531869D+02 0.356546729753939D+02
 0.000000000000000D+00 0.000000000000000D+00 0.000000000000000D+00 0.000000000000000D+00
 0.801389959438577D+02 0.000000000000000D+00 0.000000000000000D+00 0.801389959438577D+02
 0.801389959438577D+02 -.000000000000000D+00 -.000000000000000D+00 -.801389959438577D+02
 0.705945389787368D+02 -.308529603193098D+02 -.126533013386140D+02 -.370348179202991D+02
 0.317889875013569D+02 0.136347351454456D+02 -.286641235772244D+02 0.173255401779737D+01
 0.204754874814996D+02 0.782901298451469D+01 0.168602613879736D+02 0.858392271764796D+01
 0.374189779261221D+02 0.938921218934960D+01 0.244571635278649D+02 0.267183411848538D+02
0.124608454201D-06 0.000000000000D+00 0.000000000000D+00 0.946428678276D-08 0.000000000000D+00  6 -2 22 9900012 11 -1 21 0 0.44039719D-01 0.34515688D-02 0.47103794D+04 0.47103794D+04 0.47103794D+04 0.12447751D+01  1  2  2  2  6  5       -1 0.117190554742D-04 0.100000000000D+01
0.232585498713D-09 0.000000000000D+00 -.239264637145D-09 0.946428678276D-08 0.000000000000D+00  6 -2 22 9900012 11 -1 21 2 0.44039719D-01 0.34515688D-02 0.47103794D+04 0.47103794D+04 0.47103794D+04 0.12447751D+01  1  2  3  2  6  5       -1 0.338929597269D-07 0.100000000000D+01
-.184770655809D-07 0.000000000000D+00 0.000000000000D+00 0.946428678276D-08 0.000000000000D+00  6 -2 22 9900012 11 -1 21 2 0.44039719D-01 0.34515688D-02 0.47103794D+04 0.47103794D+04 0.47103794D+04 0.12447751D+01  1  2 15  2  6  5       -1 -.269252572955D-05 0.100000000000D+01
0.901331097845D-07 0.000000000000D+00 0.000000000000D+00 0.946428678276D-08 0.000000000000D+00  6 -2 22 9900012 11 -1 21 2 0.44039719D-01 0.34515688D-02 0.46668412D+04 0.46668412D+04 0.46668412D+04 0.12452329D+01  1  2 12  2  6  5       -1 0.131330405217D-04 0.100000000000D+01
-.106726962538D-05 0.000000000000D+00 0.000000000000D+00 0.946428678276D-08 0.000000000000D+00  6 -2 22 9900012 11 -1 21 2 0.44039719D-01 0.34515688D-02 0.47103794D+04 0.47103794D+04 0.47103794D+04 0.12447751D+01  1  2  4  2  6  5       -1 -.155525286963D-03 0.100000000000D+01
-.269449981303D-06 0.000000000000D+00 0.000000000000D+00 0.946428678276D-08 0.000000000000D+00  6 -2 22 9900012 11 -1 21 2 0.44039719D-01 0.34515688D-02 0.47103794D+04 0.47103794D+04 0.47103794D+04 0.12447751D+01  1  2  5  2  6  5       -1 -.392649473646D-04 0.100000000000D+01
0.480059132548D-06 0.000000000000D+00 -.000000000000D+00 0.946428678276D-08 0.000000000000D+00  6 -2 22 9900012 11 -1 21 2 0.44039719D-01 0.34515688D-02 0.47103794D+04 0.47103794D+04 0.47103794D+04 0.12447751D+01  1  2  6  2  6  5       -1 0.699554569653D-04 0.100000000000D+01
0.238287961528D-06 0.000000000000D+00 0.000000000000D+00 0.946428678276D-08 0.872434779066D-09  6 -2 22 9900012 11 -1 21 2 0.44039719D-01 0.34515688D-02 0.46668412D+04 0.46668412D+04 0.46668412D+04 0.12452329D+01  1  2 11  2  6  5       -1 0.347202649732D-04 0.100000000000D+01
  </mgrwgt>
  </event>
  <event>
  7     66 -.85654518E-06 0.12961653E+02 0.78161638E-02 0.12970968E+00
       -4 -1    0    0    0  502 0.00000000E+00 0.00000000E+00 0.16352467E+03 0.16352467E+03 0.00000000E+00 0.0000E+00 0.9000E+01
       22 -1    0    0    0    0 0.00000000E+00 0.00000000E+00 -.46748507E+02 0.46748507E+02 0.00000000E+00 0.0000E+00 0.9000E+01
      -24  2    1    2    0    0 -.78945982E+00 0.19295924E+02 -.65923677E+01 0.81289506E+02 0.78686521E+02 0.0000E+00 0.0000E+00
  9900012  1    3    3    0    0 -.20307469E+02 0.10083982E+02 -.16801489E+02 0.57414023E+02 0.50000000E+02 0.0000E+00 0.9000E+01
       11  1    3    3    0    0 0.19518009E+02 0.92119416E+01 0.10209121E+02 0.23875483E+02 0.00000000E+00 0.0000E+00 0.9000E+01
       -3  1    1    2    0  501 0.68858365E+01 -.15155452E+02 0.11951266E+03 0.12066640E+03 0.00000000E+00 0.0000E+00 0.9000E+01
       21  1    1    2  501  502 -.60963767E+01 -.41404716E+01 0.38558634E+01 0.83172710E+01 0.00000000E+00 0.0000E+00 0.9000E+01
#aMCatNLO 2  0  0  1  5 0.11132536D+02 0.00000000D+00  -5  6  0 0.00000000D+00 0.00000000D+00 0.00000000D+00 0.00000000D+00 0.00000000D+00
  <mgrwgt>
 -.6396780358D-05    3    2    0
 0.836374378104372D+02 0.000000000000000D+00 0.000000000000000D+00 0.836374378104372D+02
 0.836374378104372D+02 0.000000000000000D+00 0.000000000000000D+00 -.836374378104372D+02
 0.811501388180144D+02 -.232532158866537D+02 0.808332166268562D+01 -.589855312090112D+02
 0.209944674084234D+02 0.187365092787693D+02 0.868117082267348D+01 -.378789584829172D+01
 0.651302693944367D+02 0.451670660788438D+01 -.167644924853591D+02 0.627734270573030D+02
 0.000000000000000D+00 -.000000000000000D+00 -.000000000000000D+00 -.000000000000000D+00
 0.869551314867435D+02 0.000000000000000D+00 0.000000000000000D+00 0.869551314867435D+02
 0.879135468128980D+02 0.000000000000000D+00 0.000000000000000D+00 -.879135468128980D+02
 0.805814674345345D+02 -.203074691766672D+02 0.100839822259073D+02 -.589855312090112D+02
 0.219125697529569D+02 0.195180093608005D+02 0.921194164182566D+01 -.378789584829172D+01
 0.649430952758846D+02 0.688583651954898D+01 -.151554523165803D+02 0.627734270573030D+02
 0.743154583626539D+01 -.609637670368232D+01 -.414047155115271D+01 -.958415326154583D+00
-.877521594280D-07 0.000000000000D+00 0.000000000000D+00 0.430135685580D-06 0.000000000000D+00  6 -4 22 9900012 11 -3 21 2 0.26443869D-01 0.68422558D-02 0.25250228D+04 0.25250228D+04 0.25250228D+04 0.12767066D+01  1  2 13  1  6  1       -4 -.649686971152D-05 0.100000000000D+01
-.363601877765D-10 0.000000000000D+00 0.000000000000D+00 0.430135685580D-06 0.000000000000D+00  6 -4 22 9900012 11 -3 21 2 0.24197774D-01 0.68422558D-02 0.21969927D+04 0.21969927D+04 0.21969927D+04 0.12841844D+01  1  2  8  1  6  1       -4 -.313922653635D-08 0.100000000000D+01
0.136343191631D-08 0.000000000000D+00 0.000000000000D+00 0.430135685580D-06 0.120893089948D-08  6 -4 22 9900012 11 -3 21 2 0.25157641D-01 0.71920780D-02 0.25250228D+04 0.25250228D+04 0.25250228D+04 0.12767066D+01  1  2  1  1  6  1       -4 0.103228580302D-06 0.100000000000D+01
  </mgrwgt>
  </event>
  <event>
  6     66 0.85654518E-06 0.79550912E+02 0.78161638E-02 0.11154542E+00
       -4 -1    0    0    0  501 0.00000000E+00 0.00000000E+00 0.13386489E+03 0.13386489E+03 0.00000000E+00 0.0000E+00 0.9000E+01
       22 -1    0    0    0    0 0.00000000E+00 0.00000000E+00 -.77121925E+02 0.77121925E+02 0.00000000E+00 0.0000E+00 0.9000E+01
      -24  2    1    2    0    0 -.76123423E+02 -.23099179E+02 0.21549910E+01 0.11450783E+03 0.82334992E+02 0.0000E+00 0.0000E+00
  9900012  1    3    3    0    0 -.61683464E+02 -.41900674E+02 -.44738370E+01 0.89891777E+02 0.50000000E+02 0.0000E+00 0.9000E+01
       11  1    3    3    0    0 -.14439959E+02 0.18801494E+02 0.66288280E+01 0.24616051E+02 0.00000000E+00 0.0000E+00 0.9000E+01
       -3  1    1    2    0  501 0.76123423E+02 0.23099179E+02 0.54587970E+02 0.96478983E+02 0.00000000E+00 0.0000E+00 0.9000E+01
#aMCatNLO 1  0  0  1  5 0.85888947D+02 0.00000000D+00  -5  6  0 0.00000000D+00 0.00000000D+00 0.00000000D+00 0.00000000D+00 0.00000000D+00
  <mgrwgt>
 0.3098912312D-04    7    4    0
 0.101606681020902D+03 0.000000000000000D+00 0.000000000000000D+00 0.101606681020902D+03
 0.101606681020902D+03 0.000000000000000D+00 0.000000000000000D+00 -.101606681020902D+03
 0.945795974033213D+02 -.616834644789761D+02 -.419006739683255D+02 -.297453185534349D+02
 0.237067223051280D+02 -.144399587400427D+02 0.188014944860996D+02 0.889536305485894D-02
 0.849270423333540D+02 0.761234232190188D+02 0.230991794822258D+02 0.297364231903800D+02
 0.000000000000000D+00 -.000000000000000D+00 -.000000000000000D+00 0.000000000000000D+00
 0.144786368289973D+03 0.000000000000000D+00 0.000000000000000D+00 0.144786368289973D+03
 0.133861239752242D+03 0.000000000000000D+00 0.000000000000000D+00 -.133861239752242D+03
 0.786200784393102D+02 -.497757984967606D+02 -.178522447319059D+02 -.297453185534349D+02
 0.281880555970767D+02 -.108721363496465D+02 0.260069808015290D+02 0.889536305485894D-02
 0.106401665935077D+03 0.892774798867649D+02 0.496647886804181D+02 0.297364231903800D+02
 0.654378080707510D+02 -.286295450403579D+02 -.578195247500412D+02 0.109251285377305D+02
 0.101606681020902D+03 0.000000000000000D+00 0.000000000000000D+00 0.101606681020902D+03
 0.101606681020902D+03 0.000000000000000D+00 0.000000000000000D+00 -.101606681020902D+03
 0.945795974033213D+02 -.616834644789761D+02 -.419006739683255D+02 -.297453185534349D+02
 0.237067223051280D+02 -.144399587400427D+02 0.188014944860996D+02 0.889536305485894D-02
 0.000000000000000D+00 -.000000000000000D+00 -.000000000000000D+00 0.000000000000000D+00
 0.849270423333540D+02 0.761234232190188D+02 0.230991794822258D+02 0.297364231903800D+02
 0.144786368289973D+03 0.000000000000000D+00 0.000000000000000D+00 0.144786368289973D+03
 0.133861239752242D+03 0.000000000000000D+00 0.000000000000000D+00 -.133861239752242D+03
 0.786200784393102D+02 -.497757984967606D+02 -.178522447319059D+02 -.297453185534349D+02
 0.281880555970767D+02 -.108721363496465D+02 0.260069808015290D+02 0.889536305485894D-02
 0.654378080707510D+02 -.286295450403579D+02 -.578195247500412D+02 0.109251285377305D+02
 0.106401665935077D+03 0.892774798867649D+02 0.496647886804181D+02 0.297364231903800D+02
0.726542676545D-06 0.000000000000D+00 0.000000000000D+00 0.455464308215D-07 0.000000000000D+00  6 -4 22 9900012 11 -3 21 0 0.20594598D-01 0.11864911D-01 0.93159184D+04 0.93159184D+04 0.93159184D+04 0.12125330D+01  1  2  2  1  6  1       -4 0.281593428018D-04 0.100000000000D+01
-.167658597572D-07 0.000000000000D+00 -.139505759051D-08 0.455464308215D-07 0.000000000000D+00  6 -4 22 9900012 11 -3 21 2 0.20594598D-01 0.11864911D-01 0.93159184D+04 0.93159184D+04 0.93159184D+04 0.12125330D+01  1  2  3  1  6  1       -4 -.955376018528D-06 0.100000000000D+01
-.110665398058D-06 0.000000000000D+00 0.000000000000D+00 0.455464308215D-07 0.000000000000D+00  6 -4 22 9900012 11 -3 21 2 0.20594598D-01 0.11864911D-01 0.93159184D+04 0.93159184D+04 0.93159184D+04 0.12125330D+01  1  2 15  1  6  1       -4 -.630609279312D-05 0.100000000000D+01
-.540785822590D-07 0.000000000000D+00 0.000000000000D+00 0.455464308215D-07 0.000000000000D+00  6 -4 22 9900012 11 -3 21 2 0.20594598D-01 0.11864911D-01 0.93159184D+04 0.93159184D+04 0.93159184D+04 0.12125330D+01  1  2  4  1  6  1       -4 -.308158253466D-05 0.100000000000D+01
-.240063458690D-06 0.000000000000D+00 -.210737074563D-06 0.455464308215D-07 0.000000000000D+00  6 -4 22 9900012 11 -3 21 2 0.37994082D-01 0.11864911D-01 0.93159184D+04 0.93159184D+04 0.93159184D+04 0.12125330D+01  1  2  5  1  6  1       -4 -.430391540412D-05 0.100000000000D+01
0.337909258237D-06 0.000000000000D+00 0.176577738667D-06 0.455464308215D-07 0.000000000000D+00  6 -4 22 9900012 11 -3 21 2 0.20594598D-01 0.11864911D-01 0.93159184D+04 0.93159184D+04 0.93159184D+04 0.12125330D+01  1  2  6  1  6  1       -4 0.192552249890D-04 0.100000000000D+01
-.444094148012D-08 0.000000000000D+00 -.140848033722D-07 0.455464308215D-07 0.000000000000D+00  6 21 22 9900012 11 4 -3 2 0.37994082D-01 0.11864911D-01 0.93159184D+04 0.93159184D+04 0.93159184D+04 0.12125330D+01  3  4  5  3  5  1       -4 -.177847792401D-05 0.100000000000D+01
  </mgrwgt>
  </event>
  <event>
  6     66 0.85654518E-06 0.21693741E+02 0.78161638E-02 0.12915955E+00
       -4 -1    0    0    0  501 0.00000000E+00 0.00000000E+00 0.12298698E+02 0.12298698E+02 0.00000000E+00 0.0000E+00 0.9000E+01
       22 -1    0    0    0    0 0.00000000E+00 0.00000000E+00 -.23868544E+03 0.23868544E+03 0.00000000E+00 0.0000E+00 0.9000E+01
      -24  2    1    2    0    0 -.18100975E+02 0.11957136E+02 -.14208031E+03 0.16393133E+03 0.78841901E+02 0.0000E+00 0.0000E+00
  9900012  1    3    3    0    0 -.32025259E+02 -.48538821E+01 -.96791948E+02 0.11365676E+03 0.50000000E+02 0.0000E+00 0.9000E+01
       11  1    3    3    0    0 0.13924284E+02 0.16811018E+02 -.45288366E+02 0.50274568E+02 0.00000000E+00 0.0000E+00 0.9000E+01
       -3  1    1    2    0  501 0.18100975E+02 -.11957136E+02 -.84306425E+02 0.87052810E+02 0.00000000E+00 0.0000E+00 0.9000E+01
#aMCatNLO 1  0  0  1  5 0.85888947D+02 0.00000000D+00  -5  6  0 0.00000000D+00 0.00000000D+00 0.00000000D+00 0.00000000D+00 0.00000000D+00
  <mgrwgt>
 0.2274312743D-04    1    2    0
 0.541804404692963D+02 0.000000000000000D+00 0.000000000000000D+00 0.541804404692963D+02
 0.541804404692963D+02 0.000000000000000D+00 0.000000000000000D+00 -.541804404692963D+02
 0.610333688958898D+02 -.320252594917255D+02 -.485388206578895D+01 0.132625300060291D+02
 0.218292183565708D+02 0.139242843744992D+02 0.168110183708149D+02 0.136894313426678D+00
 0.254982936861320D+02 0.181009751172263D+02 -.119571363050260D+02 -.133994243194558D+02
 0.000000000000000D+00 0.000000000000000D+00 0.000000000000000D+00 -.000000000000000D+00
 0.765740931912600D+02 0.000000000000000D+00 0.000000000000000D+00 0.765740931912600D+02
 0.130180991335006D+03 0.000000000000000D+00 0.000000000000000D+00 -.130180991335006D+03
 0.883147076426997D+02 -.687862941822469D+02 -.197999650638098D+02 0.132625300060291D+02
 0.141499232980098D+02 0.506825820293030D+01 0.132103878851055D+02 0.136894313426678D+00
 0.223594963230144D+02 0.632109874042310D+01 -.167465284294953D+02 -.133994243194558D+02
 0.819309572625417D+02 0.573969372388935D+02 0.233361056081995D+02 -.536068981437456D+02
0.540727071284D-07 0.000000000000D+00 0.000000000000D+00 0.293872634955D-07 0.000000000000D+00  6 -4 22 9900012 11 -3 21 2 0.18921074D-02 0.36720837D-01 0.26572738D+04 0.26572738D+04 0.26572738D+04 0.12739964D+01  1  2 14  1  6  1       -4 0.227431274298D-04 0.100000000000D+01
  </mgrwgt>
  </event>
  <event>
  6     66 0.85654518E-06 0.36944467E+02 0.78161638E-02 0.12416787E+00
       -4 -1    0    0    0  501 0.00000000E+00 0.00000000E+00 0.19779039E+03 0.19779039E+03 0.00000000E+00 0.0000E+00 0.9000E+01
       22 -1    0    0    0    0 0.00000000E+00 0.00000000E+00 -.25616164E+02 0.25616164E+02 0.00000000E+00 0.0000E+00 0.9000E+01
      -24  2    1    2    0    0 -.18001256E+02 -.32262183E+02 0.65576424E+02 0.11058818E+03 0.81022128E+02 0.0000E+00 0.0000E+00
  9900012  1    3    3    0    0 0.61226312E+01 -.36317245E+01 0.46127610E+02 0.68399068E+02 0.50000000E+02 0.0000E+00 0.9000E+01
       11  1    3    3    0    0 -.24123887E+02 -.28630459E+02 0.19448814E+02 0.42189115E+02 0.00000000E+00 0.0000E+00 0.9000E+01
       -3  1    1    2    0  501 0.18001256E+02 0.32262183E+02 0.10659781E+03 0.11281838E+03 0.00000000E+00 0.0000E+00 0.9000E+01
#aMCatNLO 1  0  0  5  1 0.17864515D+02 0.00000000D+00  -5  6  0 0.00000000D+00 0.00000000D+00 0.00000000D+00 0.00000000D+00 0.00000000D+00
  <mgrwgt>
 0.4581386310D-04    7    2    0
 0.711802730179559D+02 0.000000000000000D+00 0.000000000000000D+00 0.711802730179559D+02
 0.711802730179559D+02 -.000000000000000D+00 -.000000000000000D+00 -.711802730179559D+02
 0.515509020900817D+02 0.612263123111174D+01 -.363172447301008D+01 -.103353505243483D+02
 0.426855664150404D+02 -.241238868928427D+02 -.286304588581029D+02 -.205034749964154D+02
 0.481240775307897D+02 0.180012556617310D+02 0.322621833311130D+02 0.308388255207637D+02
 0.000000000000000D+00 0.000000000000000D+00 0.000000000000000D+00 0.000000000000000D+00
 0.711802730179559D+02 0.000000000000000D+00 0.000000000000000D+00 0.711802730179559D+02
 0.711802730179559D+02 -.000000000000000D+00 -.000000000000000D+00 -.711802730179559D+02
 0.511246425400202D+02 0.812070203350627D+01 -.507450265352838D-01 -.691235837251906D+01
 0.386025113063619D+02 -.225420171763192D+02 -.257954026953870D+02 -.177934971425840D+02
 0.243277635134551D+02 -.990873380932252D+01 0.185653204408581D+02 0.122059800422105D+02
 0.283056286760746D+02 0.243300489521355D+02 0.728082728106417D+01 0.124998754728926D+02
0.478010756581D-06 0.000000000000D+00 0.000000000000D+00 0.164354969818D-06 0.000000000000D+00  6 -4 22 9900012 11 -3 21 0 0.30429292D-01 0.39409484D-02 0.38992221D+04 0.38992221D+04 0.38992221D+04 0.12541905D+01  1  2  2  2  6  5       -3 0.375676828808D-04 0.100000000000D+01
0.520514818788D-08 0.000000000000D+00 -.917843584196D-09 0.164354969818D-06 0.000000000000D+00  6 -4 22 9900012 11 -3 21 2 0.30429292D-01 0.39409484D-02 0.38992221D+04 0.38992221D+04 0.38992221D+04 0.12541905D+01  1  2  3  2  6  5       -3 0.643482682397D-06 0.100000000000D+01
-.702442834510D-07 0.000000000000D+00 0.000000000000D+00 0.164354969818D-06 0.000000000000D+00  6 -4 22 9900012 11 -3 21 2 0.30429292D-01 0.39409484D-02 0.38992221D+04 0.38992221D+04 0.38992221D+04 0.12541905D+01  1  2 15  2  6  5       -3 -.868389876841D-05 0.100000000000D+01
0.104879659160D-06 0.000000000000D+00 0.000000000000D+00 0.164354969818D-06 0.000000000000D+00  6 -4 22 9900012 11 -3 21 2 0.30429292D-01 0.39409484D-02 0.43133656D+04 0.43133656D+04 0.43133656D+04 0.12491355D+01  1  2 12  2  6  5       -3 0.130341158078D-04 0.100000000000D+01
-.339700214226D-07 0.000000000000D+00 0.000000000000D+00 0.164354969818D-06 0.000000000000D+00  6 -4 22 9900012 11 -3 21 2 0.30429292D-01 0.39409484D-02 0.38992221D+04 0.38992221D+04 0.38992221D+04 0.12541905D+01  1  2  4  2  6  5       -3 -.419951934453D-05 0.100000000000D+01
-.849014529546D-07 0.000000000000D+00 0.000000000000D+00 0.164354969818D-06 0.000000000000D+00  6 -4 22 9900012 11 -3 21 2 0.30429292D-01 0.39409484D-02 0.38992221D+04 0.38992221D+04 0.38992221D+04 0.12541905D+01  1  2  5  2  6  5       -3 -.104958807540D-04 0.100000000000D+01
0.145180873921D-06 0.000000000000D+00 -.000000000000D+00 0.164354969818D-06 0.000000000000D+00  6 -4 22 9900012 11 -3 21 2 0.30429292D-01 0.39409484D-02 0.38992221D+04 0.38992221D+04 0.38992221D+04 0.12541905D+01  1  2  6  2  6  5       -3 0.179478806005D-04 0.100000000000D+01
  </mgrwgt>
  </event>
  <event>
  6     66 0.85654518E-06 0.27762058E+02 0.78161638E-02 0.12686213E+00
       -2 -1    0    0    0  501 0.00000000E+00 0.00000000E+00 0.70888831E+02 0.70888831E+02 0.00000000E+00 0.0000E+00 0.9000E+01
       22 -1    0    0    0    0 0.00000000E+00 0.00000000E+00 -.77188646E+02 0.77188646E+02 0.00000000E+00 0.0000E+00 0.9000E+01
      -24  2    1    2    0    0 0.43391498E+01 -.28331750E+02 -.48458744E+02 0.97098152E+02 0.79109323E+02 0.0000E+00 0.0000E+00
  9900012  1    3    3    0    0 0.21031567E+02 -.19860350E+02 -.52375162E+02 0.77973829E+02 0.50000000E+02 0.0000E+00 0.9000E+01
       11  1    3    3    0    0 -.16692418E+02 -.84714000E+01 0.39164182E+01 0.19124324E+02 0.00000000E+00 0.0000E+00 0.9000E+01
       -1  1    1    2    0  501 -.43391498E+01 0.28331750E+02 0.42158929E+02 0.50979325E+02 0.00000000E+00 0.0000E+00 0.9000E+01
#aMCatNLO 1  0  0  1  5 0.91430192D+01 0.00000000D+00  -5  6  0 0.00000000D+00 0.00000000D+00 0.00000000D+00 0.00000000D+00 0.00000000D+00
  <mgrwgt>
 0.5206290824D-04   11    4    0
 0.739717034061908D+02 0.000000000000000D+00 0.000000000000000D+00 0.739717034061908D+02
 0.739717034061908D+02 0.000000000000000D+00 0.000000000000000D+00 -.739717034061908D+02
 0.758142200680869D+02 0.210315674922053D+02 -.198603501669761D+02 -.491022975490783D+02
 0.193084260394353D+02 -.166924177304488D+02 -.847140001430437D+01 0.473433081123255D+01
 0.528207607048594D+02 -.433914976175646D+01 0.283317501812805D+02 0.443679667378457D+02
 0.000000000000000D+00 -.000000000000000D+00 -.000000000000000D+00 0.000000000000000D+00
 0.870471022354662D+02 0.000000000000000D+00 0.000000000000000D+00 0.870471022354662D+02
 0.755283211598993D+02 0.000000000000000D+00 0.000000000000000D+00 -.755283211598993D+02
 0.756762120853939D+02 0.235112398043830D+02 -.162195885846741D+02 -.491022975490783D+02
 0.183866522687411D+02 -.160754055491683D+02 -.756547618139040D+01 0.473433081123255D+01
 0.541309296020031D+02 -.258851019050061D+01 0.309021145250629D+02 0.443679667378457D+02
 0.143816294392274D+02 -.484732406471414D+01 -.711704975899839D+01 0.115187810755669D+02
 0.739717034061908D+02 0.000000000000000D+00 0.000000000000000D+00 0.739717034061908D+02
 0.739717034061908D+02 0.000000000000000D+00 0.000000000000000D+00 -.739717034061908D+02
 0.758142200680869D+02 0.210315674922053D+02 -.198603501669761D+02 -.491022975490783D+02
 0.193084260394353D+02 -.166924177304488D+02 -.847140001430437D+01 0.473433081123255D+01
 0.000000000000000D+00 -.000000000000000D+00 -.000000000000000D+00 0.000000000000000D+00
 0.528207607048594D+02 -.433914976175646D+01 0.283317501812805D+02 0.443679667378457D+02
 0.870471022354662D+02 0.000000000000000D+00 0.000000000000000D+00 0.870471022354662D+02
 0.755283211598993D+02 0.000000000000000D+00 0.000000000000000D+00 -.755283211598993D+02
 0.756762120853939D+02 0.235112398043830D+02 -.162195885846741D+02 -.491022975490783D+02
 0.183866522687411D+02 -.160754055491683D+02 -.756547618139040D+01 0.473433081123255D+01
 0.143816294392274D+02 -.484732406471414D+01 -.711704975899839D+01 0.115187810755669D+02
 0.541309296020031D+02 -.258851019050061D+01 0.309021145250629D+02 0.443679667378457D+02
0.681334894383D-07 0.000000000000D+00 0.000000000000D+00 0.245299937484D-06 0.000000000000D+00  6 -2 22 9900012 11 -1 21 0 0.10905974D-01 0.11875176D-01 0.27639107D+04 0.27639107D+04 0.27639107D+04 0.12719191D+01  1  2  2  1  6  1       -2 0.106045010528D-04 0.100000000000D+01
0.221335648220D-08 0.000000000000D+00 -.130825269701D-09 0.245299937484D-06 0.000000000000D+00  6 -2 22 9900012 11 -1 21 2 0.10905974D-01 0.11875176D-01 0.27639107D+04 0.27639107D+04 0.27639107D+04 0.12719191D+01  1  2  3  1  6  1       -2 0.557314000410D-06 0.100000000000D+01
-.109346590248D-07 0.000000000000D+00 0.000000000000D+00 0.245299937484D-06 0.000000000000D+00  6 -2 22 9900012 11 -1 21 2 0.10905974D-01 0.11875176D-01 0.27639107D+04 0.27639107D+04 0.27639107D+04 0.12719191D+01  1  2 15  1  6  1       -2 -.275330188032D-05 0.100000000000D+01
0.207509744111D-06 0.000000000000D+00 0.000000000000D+00 0.245299937484D-06 0.000000000000D+00  6 -2 22 9900012 11 -1 21 2 0.13103803D-01 0.11875176D-01 0.33046085D+04 0.33046085D+04 0.33046085D+04 0.12626150D+01  1  2 12  1  6  1       -2 0.397831890687D-04 0.100000000000D+01
-.393058528337D-07 0.000000000000D+00 0.000000000000D+00 0.245299937484D-06 0.000000000000D+00  6 -2 22 9900012 11 -1 21 2 0.10905974D-01 0.11875176D-01 0.27639107D+04 0.27639107D+04 0.27639107D+04 0.12719191D+01  1  2  4  1  6  1       -2 -.989705104374D-05 0.100000000000D+01
-.302016724141D-06 0.000000000000D+00 -.468829219870D-07 0.245299937484D-06 0.000000000000D+00  6 -2 22 9900012 11 -1 21 2 0.13077480D-01 0.11875176D-01 0.27639107D+04 0.27639107D+04 0.27639107D+04 0.12719191D+01  1  2  5  1  6  1       -2 -.578203257664D-04 0.100000000000D+01
0.306229858202D-06 0.000000000000D+00 0.461204962622D-07 0.245299937484D-06 0.000000000000D+00  6 -2 22 9900012 11 -1 21 2 0.10905974D-01 0.11875176D-01 0.27639107D+04 0.27639107D+04 0.27639107D+04 0.12719191D+01  1  2  6  1  6  1       -2 0.771074107096D-04 0.100000000000D+01
0.317805270448D-11 0.000000000000D+00 0.000000000000D+00 0.245299937484D-06 0.554867644687D-08  6 -2 22 9900012 11 -1 21 2 0.12833738D-01 0.12125071D-01 0.33046085D+04 0.33046085D+04 0.33046085D+04 0.12626150D+01  1  2 11  1  6  1       -2 0.610604699996D-09 0.100000000000D+01
0.555794278878D-08 0.000000000000D+00 0.000000000000D+00 0.245299937484D-06 0.000000000000D+00  6 21 22 9900012 11 2 -1 2 0.13103803D-01 0.11875176D-01 0.33046085D+04 0.33046085D+04 0.33046085D+04 0.12626150D+01  3  4 12  3  5  1       -2 0.152395742064D-04 0.100000000000D+01
-.756337357988D-08 0.000000000000D+00 -.124496706995D-08 0.245299937484D-06 0.000000000000D+00  6 21 22 9900012 11 2 -1 2 0.13077480D-01 0.11875176D-01 0.27639107D+04 0.27639107D+04 0.27639107D+04 0.12719191D+01  3  4  5  3  5  1       -2 -.207598386675D-04 0.100000000000D+01
0.299645839278D-12 0.000000000000D+00 0.000000000000D+00 0.245299937484D-06 0.439227524944D-09  6 21 22 9900012 11 2 -1 2 0.12833738D-01 0.12125071D-01 0.33046085D+04 0.33046085D+04 0.33046085D+04 0.12626150D+01  3  4 11  3  5  1       -2 0.825953693410D-09 0.100000000000D+01
  </mgrwgt>
  </event>
  <event>
  7     66 0.85654518E-06 0.35860964E+02 0.78161638E-02 0.12657759E+00
       21 -1    0    0  502  501 0.00000000E+00 0.00000000E+00 0.30750679E+03 0.30750679E+03 0.00000000E+00 0.0000E+00 0.9000E+01
       22 -1    0    0    0    0 0.00000000E+00 0.00000000E+00 -.19444533E+02 0.19444533E+02 0.00000000E+00 0.0000E+00 0.9000E+01
      -24  2    1    2    0    0 -.82909028E+01 -.33851191E+02 0.22353265E+03 0.23874148E+03 0.76262741E+02 0.0000E+00 0.0000E+00
  9900012  1    3    3    0    0 -.15849114E+02 -.13763481E+02 0.10391180E+03 0.11721045E+03 0.50000000E+02 0.0000E+00 0.9000E+01
       11  1    3    3    0    0 0.75582116E+01 -.20087710E+02 0.11962085E+03 0.12153103E+03 0.00000000E+00 0.0000E+00 0.9000E+01
        2  1    1    2  502    0 -.26383263E+01 -.20555934E+01 -.68168221E+01 0.75931083E+01 0.00000000E+00 0.0000E+00 0.9000E+01
       -1  1    1    2    0  501 0.10929229E+02 0.35906784E+02 0.71346432E+02 0.80616739E+02 0.00000000E+00 0.0000E+00 0.9000E+01
#aMCatNLO 2  0  0  1  5 0.57402252D+02 0.00000000D+00  -5  6  0 0.00000000D+00 0.00000000D+00 0.00000000D+00 0.00000000D+00 0.00000000D+00
  <mgrwgt>
 0.7807126868D-03    1    2    0
 0.612878692488664D+02 0.000000000000000D+00 0.000000000000000D+00 0.612878692488664D+02
 0.612878692488664D+02 0.000000000000000D+00 0.000000000000000D+00 -.612878692488664D+02
 0.559720224737782D+02 -.170472588469081D+02 -.146969884234153D+02 -.112364049808487D+02
 0.290399775650964D+02 0.693525979701395D+01 -.205730692976366D+02 0.192865571889818D+02
 0.000000000000000D+00 -.000000000000000D+00 -.000000000000000D+00 -.000000000000000D+00
 0.375637384588582D+02 0.101119990498941D+02 0.352700577210519D+02 -.805015220813311D+01
 0.613881656806843D+02 0.000000000000000D+00 0.000000000000000D+00 0.613881656806843D+02
 0.974019318242798D+02 0.000000000000000D+00 0.000000000000000D+00 -.974019318242798D+02
 0.553794603288346D+02 -.158491143968263D+02 -.137634807463677D+02 -.112364049808487D+02
 0.288550507280424D+02 0.755821159873997D+01 -.200877102165156D+02 0.192865571889818D+02
 0.361687376281695D+02 -.263832627280203D+01 -.205559340532691D+01 -.360137661435955D+02
 0.383868488199176D+02 0.109292290708883D+02 0.359067843682102D+02 -.805015220813311D+01
0.440380955746D-06 0.000000000000D+00 0.000000000000D+00 0.179379770807D-08 0.233408893423D-09  6 21 22 9900012 11 2 -1 2 0.47308738D-01 0.29914666D-02 0.33970235D+04 0.33970235D+04 0.33970235D+04 0.12611982D+01  1  2  1  3  5  1       -2 0.780712686806D-03 0.100000000000D+01
  </mgrwgt>
  </event>
  <event>
  7     66 -.85654518E-06 0.31943139E+02 0.78161638E-02 0.12398246E+00
       -2 -1    0    0    0  501 0.00000000E+00 0.00000000E+00 0.13173080E+02 0.13173080E+02 0.00000000E+00 0.0000E+00 0.9000E+01
       22 -1    0    0    0    0 -.00000000E+00 -.00000000E+00 -.83327323E+03 0.83327323E+03 0.00000000E+00 0.0000E+00 0.9000E+01
      -24  2    1    2    0    0 0.20566276E+02 -.20231200E+02 -.76267369E+03 0.76736452E+03 0.79654765E+02 0.0000E+00 0.0000E+00
  9900012  1    3    3    0    0 0.94839471E+00 -.34144437E+02 -.56335653E+03 0.56660155E+03 0.50000000E+02 0.0000E+00 0.9000E+01
       11  1    3    3    0    0 0.19617881E+02 0.13913237E+02 -.19931716E+03 0.20076297E+03 0.00000000E+00 0.0000E+00 0.9000E+01
       -1  1    1    2    0  502 -.31261193E+02 0.20330858E+02 -.24894617E+02 0.44836903E+02 0.00000000E+00 0.0000E+00 0.9000E+01
       21  1    1    2  502  501 0.10694917E+02 -.99657416E-01 -.32531841E+02 0.34244881E+02 0.00000000E+00 0.0000E+00 0.9000E+01
#aMCatNLO 2  0  0  5  1 0.14772399D+02 0.00000000D+00  -5  6  0 0.00000000D+00 0.00000000D+00 0.00000000D+00 0.00000000D+00 0.00000000D+00
  <mgrwgt>
 -.2104183860D-04    2    2    0
 0.104770104958436D+03 0.000000000000000D+00 0.000000000000000D+00 0.104770104958436D+03
 0.104770104958436D+03 -.000000000000000D+00 -.000000000000000D+00 -.104770104958436D+03
 0.877983815713222D+02 0.220376728615894D+01 -.353793565206216D+02 -.628649373536529D+02
 0.321117331941243D+02 0.200784898003397D+02 0.134601322094575D+02 -.211386493649004D+02
 0.896300951514247D+02 -.222822570864986D+02 0.219192243111642D+02 0.840035867185533D+02
 0.000000000000000D+00 0.000000000000000D+00 0.000000000000000D+00 0.000000000000000D+00
 0.104770104958436D+03 0.000000000000000D+00 0.000000000000000D+00 0.104770104958436D+03
 0.104770104958436D+03 -.000000000000000D+00 -.000000000000000D+00 -.104770104958436D+03
 0.839410276820366D+02 0.948394712798942D+00 -.341444370543063D+02 -.581322121893679D+02
 0.309011877446520D+02 0.196178809449945D+02 0.139132366135951D+02 -.194021647810849D+02
 0.836877673097075D+02 -.312611927827421D+02 0.203308578565423D+02 0.749202004929314D+02
 0.110102271804752D+02 0.106949171249486D+02 -.996574158311642D-01 0.261417647752126D+01
-.366561672627D-06 0.000000000000D+00 0.000000000000D+00 0.218836513846D-05 0.000000000000D+00  6 -2 22 9900012 11 -1 21 2 0.20266277D-02 0.12819588D+00 0.43950673D+04 0.43950673D+04 0.43950673D+04 0.12482025D+01  1  2 13  2  6  5       -1 -.217403413527D-04 0.100000000000D+01
0.117773834832D-07 0.000000000000D+00 0.000000000000D+00 0.218836513846D-05 0.458417992272D-08  6 -2 22 9900012 11 -1 21 2 0.20266277D-02 0.12819588D+00 0.43950673D+04 0.43950673D+04 0.43950673D+04 0.12482025D+01  1  2  1  2  6  5       -1 0.698502752157D-06 0.100000000000D+01
  </mgrwgt>
  </event>
  <event>
  6     66 0.85654518E-06 0.30603285E+02 0.78161638E-02 0.10457349E+00
       -4 -1    0    0    0  501 0.00000000E+00 0.00000000E+00 0.15277499E+02 0.15277499E+02 0.00000000E+00 0.0000E+00 0.9000E+01
       22 -1    0    0    0    0 0.00000000E+00 0.00000000E+00 -.51237464E+03 0.51237464E+03 0.00000000E+00 0.0000E+00 0.9000E+01
      -24  2    1    2    0    0 -.83149688E+01 0.29452034E+02 -.48831291E+03 0.49581311E+03 0.80278115E+02 0.0000E+00 0.0000E+00
  9900012  1    3    3    0    0 -.26306257E+02 0.83272699E+01 -.36300867E+03 0.36747334E+03 0.50000000E+02 0.0000E+00 0.9000E+01
       11  1    3    3    0    0 0.17991289E+02 0.21124764E+02 -.12530425E+03 0.12833977E+03 0.00000000E+00 0.0000E+00 0.9000E+01
       -3  1    1    2    0  501 0.83149688E+01 -.29452034E+02 -.87842226E+01 0.31839026E+02 0.00000000E+00 0.0000E+00 0.9000E+01
#aMCatNLO 1  0  0  1  1 0.23439681D+03 0.00000000D+00  -5  6  0 0.00000000D+00 0.00000000D+00 0.00000000D+00 0.00000000D+00 0.00000000D+00
  <mgrwgt>
 0.3653126828D-04    5    4    0
 0.884748725606153D+02 0.000000000000000D+00 0.000000000000000D+00 0.884748725606153D+02
 0.884748725606153D+02 0.000000000000000D+00 0.000000000000000D+00 -.884748725606153D+02
 0.759962832585353D+02 -.263062574241875D+02 0.832726989808530D+01 -.501405271760116D+02
 0.306887757112439D+02 0.179912886616995D+02 0.211247644473632D+02 -.131094932773869D+02
 0.702646861514513D+02 0.831496876248801D+01 -.294520343454485D+02 0.632500204533985D+02
 0.000000000000000D+00 -.000000000000000D+00 0.000000000000000D+00 0.000000000000000D+00
 0.259231483173056D+03 0.000000000000000D+00 0.000000000000000D+00 0.259231483173056D+03
 0.207566739300233D+03 0.000000000000000D+00 0.000000000000000D+00 -.207566739300233D+03
 0.973498802809029D+02 -.747938497559304D+01 -.663851303049459D+02 -.501405271760116D+02
 0.279770961552865D+02 0.243629029170417D+02 -.416029527162367D+01 -.131094932773869D+02
 0.138751307470894D+03 0.310158891133953D+02 -.119538173233628D+03 0.632500204533985D+02
 0.202719938566206D+03 -.478994070548439D+02 0.190083598810197D+03 0.516647438728232D+02
 0.884748725606153D+02 0.000000000000000D+00 0.000000000000000D+00 0.884748725606153D+02
 0.884748725606153D+02 0.000000000000000D+00 0.000000000000000D+00 -.884748725606153D+02
 0.759962832585353D+02 -.263062574241875D+02 0.832726989808530D+01 -.501405271760116D+02
 0.306887757112439D+02 0.179912886616995D+02 0.211247644473632D+02 -.131094932773869D+02
 0.000000000000000D+00 -.000000000000000D+00 0.000000000000000D+00 0.000000000000000D+00
 0.702646861514513D+02 0.831496876248801D+01 -.294520343454485D+02 0.632500204533985D+02
 0.259231483173056D+03 0.000000000000000D+00 0.000000000000000D+00 0.259231483173056D+03
 0.207566739300233D+03 0.000000000000000D+00 0.000000000000000D+00 -.207566739300233D+03
 0.973498802809029D+02 -.747938497559304D+01 -.663851303049459D+02 -.501405271760116D+02
 0.279770961552865D+02 0.243629029170417D+02 -.416029527162367D+01 -.131094932773869D+02
 0.202719938566206D+03 -.478994070548439D+02 0.190083598810197D+03 0.516647438728232D+02
 0.138751307470894D+03 0.310158891133953D+02 -.119538173233628D+03 0.632500204533985D+02
0.484320862326D-06 0.000000000000D+00 0.000000000000D+00 0.863626691338D-06 0.000000000000D+00  6 -4 22 9900012 11 -3 21 0 0.23503845D-02 0.78826867D-01 0.33327215D+04 0.33327215D+04 0.33327215D+04 0.12621793D+01  1  2  2  1  6  1       -4 0.263153712293D-04 0.100000000000D+01
0.249824913017D-07 0.000000000000D+00 -.929959817972D-09 0.863626691338D-06 0.000000000000D+00  6 -4 22 9900012 11 -3 21 2 0.23503845D-02 0.78826867D-01 0.33327215D+04 0.33327215D+04 0.33327215D+04 0.12621793D+01  1  2  3  1  6  1       -4 0.216249027022D-05 0.100000000000D+01
-.788993753409D-07 0.000000000000D+00 0.000000000000D+00 0.863626691338D-06 0.000000000000D+00  6 -4 22 9900012 11 -3 21 2 0.23503845D-02 0.78826867D-01 0.33327215D+04 0.33327215D+04 0.33327215D+04 0.12621793D+01  1  2 15  1  6  1       -4 -.682954832008D-05 0.100000000000D+01
0.620664305147D-06 0.000000000000D+00 -.227939981663D-06 0.863626691338D-06 0.000000000000D+00  6 -4 22 9900012 11 -3 21 2 0.16375822D-01 0.78826867D-01 0.33327215D+04 0.33327215D+04 0.33327215D+04 0.12621793D+01  1  2  5  1  6  1       -4 0.260677149962D-05 0.100000000000D+01
0.126053975697D-06 0.000000000000D+00 -.540958903645D-07 0.863626691338D-06 0.000000000000D+00  6 21 22 9900012 11 4 -3 2 0.16375822D-01 0.78826867D-01 0.33327215D+04 0.33327215D+04 0.33327215D+04 0.12621793D+01  3  4  5  3  5  1       -4 0.122761835981D-04 0.100000000000D+01
  </mgrwgt>
  </event>
  <event>
  6     66 0.85654518E-06 0.12967963E+03 0.78161638E-02 0.10503453E+00
       -4 -1    0    0    0  501 0.00000000E+00 0.00000000E+00 0.91221149E+02 0.91221149E+02 0.00000000E+00 0.0000E+00 0.9000E+01
       22 -1    0    0    0    0 0.00000000E+00 0.00000000E+00 -.56064676E+03 0.56064676E+03 0.00000000E+00 0.0000E+00 0.9000E+01
      -24  2    1    2    0    0 -.12746549E+03 0.23861180E+02 -.49646090E+03 0.51940013E+03 0.80537373E+02 0.0000E+00 0.0000E+00
  9900012  1    3    3    0    0 -.56983434E+02 0.12859975E+02 -.19496895E+03 0.20958383E+03 0.50000000E+02 0.0000E+00 0.9000E+01
       11  1    3    3    0    0 -.70482054E+02 0.11001205E+02 -.30149195E+03 0.30981630E+03 0.00000000E+00 0.0000E+00 0.9000E+01
       -3  1    1    2    0  501 0.12746549E+03 -.23861180E+02 0.27035282E+02 0.13246778E+03 0.00000000E+00 0.0000E+00 0.9000E+01
#aMCatNLO 1  0  0  1  5 0.14453269D+03 0.00000000D+00  -5  6  0 0.00000000D+00 0.00000000D+00 0.00000000D+00 0.00000000D+00 0.00000000D+00
  <mgrwgt>
 0.2924395431D-04    7    4    0
 0.226147831725300D+03 0.000000000000000D+00 0.000000000000000D+00 0.226147831725300D+03
 0.226147831725300D+03 0.000000000000000D+00 0.000000000000000D+00 -.226147831725300D+03
 0.997081306041941D+02 -.569834335516058D+02 0.128599748770426D+02 -.634761424112601D+02
 0.133610086574945D+03 -.704820535151301D+02 0.110012052615391D+02 -.112973044792322D+03
 0.218977446271462D+03 0.127465487066736D+03 -.238611801385817D+02 0.176449187203582D+03
 0.000000000000000D+00 -.000000000000000D+00 -.000000000000000D+00 0.000000000000000D+00
 0.312030412641123D+03 0.000000000000000D+00 0.000000000000000D+00 0.312030412641123D+03
 0.274746608462072D+03 0.000000000000000D+00 0.000000000000000D+00 -.274746608462072D+03
 0.971580509245055D+02 -.428049863680029D+02 0.328359459444875D+02 -.634761424112601D+02
 0.129768242481765D+03 -.515133525486223D+02 0.377261502986928D+02 -.112973044792322D+03
 0.239595518054211D+03 0.160492249225842D+03 0.226701245098334D+02 0.176449187203582D+03
 0.120255209642713D+03 -.661739103092168D+02 -.932322207530138D+02 0.372838041790504D+02
 0.226147831725300D+03 0.000000000000000D+00 0.000000000000000D+00 0.226147831725300D+03
 0.226147831725300D+03 0.000000000000000D+00 0.000000000000000D+00 -.226147831725300D+03
 0.997081306041941D+02 -.569834335516058D+02 0.128599748770426D+02 -.634761424112601D+02
 0.133610086574945D+03 -.704820535151301D+02 0.110012052615391D+02 -.112973044792322D+03
 0.000000000000000D+00 -.000000000000000D+00 -.000000000000000D+00 0.000000000000000D+00
 0.218977446271462D+03 0.127465487066736D+03 -.238611801385817D+02 0.176449187203582D+03
 0.312030412641123D+03 0.000000000000000D+00 0.000000000000000D+00 0.312030412641123D+03
 0.274746608462072D+03 0.000000000000000D+00 0.000000000000000D+00 -.274746608462072D+03
 0.971580509245055D+02 -.428049863680029D+02 0.328359459444875D+02 -.634761424112601D+02
 0.129768242481765D+03 -.515133525486223D+02 0.377261502986928D+02 -.112973044792322D+03
 0.120255209642713D+03 -.661739103092168D+02 -.932322207530138D+02 0.372838041790504D+02
 0.239595518054211D+03 0.160492249225842D+03 0.226701245098334D+02 0.176449187203582D+03
0.739336639817D-05 0.000000000000D+00 0.000000000000D+00 0.478432643406D-05 0.000000000000D+00  6 -4 22 9900012 11 -3 21 0 0.14034023D-01 0.86253348D-01 0.19308186D+05 0.19308186D+05 0.19308186D+05 0.11807843D+01  1  2  2  1  6  1       -4 0.255414230762D-04 0.100000000000D+01
-.882867213113D-08 0.000000000000D+00 -.141962368435D-07 0.478432643406D-05 0.000000000000D+00  6 -4 22 9900012 11 -3 21 2 0.14034023D-01 0.86253348D-01 0.19308186D+05 0.19308186D+05 0.19308186D+05 0.11807843D+01  1  2  3  1  6  1       -4 -.425245134942D-07 0.100000000000D+01
-.110742155811D-05 0.000000000000D+00 0.000000000000D+00 0.478432643406D-05 0.000000000000D+00  6 -4 22 9900012 11 -3 21 2 0.14034023D-01 0.86253348D-01 0.19308186D+05 0.19308186D+05 0.19308186D+05 0.11807843D+01  1  2 15  1  6  1       -4 -.533404823421D-05 0.100000000000D+01
-.315530488814D-06 0.000000000000D+00 0.000000000000D+00 0.478432643406D-05 0.000000000000D+00  6 -4 22 9900012 11 -3 21 2 0.14034023D-01 0.86253348D-01 0.19308186D+05 0.19308186D+05 0.19308186D+05 0.11807843D+01  1  2  4  1  6  1       -4 -.151979599311D-05 0.100000000000D+01
-.205763689952D-05 0.000000000000D+00 -.234887993612D-05 0.478432643406D-05 0.000000000000D+00  6 -4 22 9900012 11 -3 21 2 0.23373003D-01 0.86253348D-01 0.19308186D+05 0.19308186D+05 0.19308186D+05 0.11807843D+01  1  2  5  1  6  1       -4 -.401576600909D-05 0.100000000000D+01
0.311702858524D-05 0.000000000000D+00 0.207325141217D-05 0.478432643406D-05 0.000000000000D+00  6 -4 22 9900012 11 -3 21 2 0.14034023D-01 0.86253348D-01 0.19308186D+05 0.19308186D+05 0.19308186D+05 0.11807843D+01  1  2  6  1  6  1       -4 0.150135968542D-04 0.100000000000D+01
-.954356495411D-08 0.000000000000D+00 -.134561317572D-06 0.478432643406D-05 0.000000000000D+00  6 21 22 9900012 11 4 -3 2 0.23373003D-01 0.86253348D-01 0.19308186D+05 0.19308186D+05 0.19308186D+05 0.11807843D+01  3  4  5  3  5  1       -4 -.398930871756D-06 0.100000000000D+01
  </mgrwgt>
  </event>
  <event>
  5     66 0.85654518E-06 0.56102650E+02 0.78161638E-02 0.11057213E+00
       -4 -1    0    0    0  501 0.00000000E+00 0.00000000E+00 0.89852526E+02 0.89852526E+02 0.00000000E+00 0.0000E+00 0.9000E+01
       22 -1    0    0    0    0 -.00000000E+00 -.00000000E+00 -.61551008E+03 0.61551008E+03 0.00000000E+00 0.0000E+00 0.9000E+01
  9900012  1    1    2    0    0 -.25432886E+02 0.38108439E+02 -.42415490E+02 0.79988490E+02 0.50000000E+02 0.0000E+00 0.9000E+01
       11  1    1    2    0    0 0.68437335E+02 0.66060708E+02 -.50216960E+03 0.51109881E+03 0.00000000E+00 0.0000E+00 0.9000E+01
       -3  1    1    2    0  501 -.43004449E+02 -.10416915E+03 0.18927537E+02 0.11427531E+03 0.00000000E+00 0.0000E+00 0.9000E+01
#aMCatNLO 1  0  0  5  1 0.37491045D+02 0.00000000D+00  -5  6  0 0.00000000D+00 0.00000000D+00 0.00000000D+00 0.00000000D+00 0.00000000D+00
  <mgrwgt>
 0.4834657292D-03    4    2    0
 0.235170438858967D+03 0.000000000000000D+00 0.000000000000000D+00 0.235170438858967D+03
 0.235170438858967D+03 -.000000000000000D+00 -.000000000000000D+00 -.235170438858967D+03
 0.725534795853958D+02 -.254328860559160D+02 0.381084389384701D+02 0.257860929279358D+02
 0.205256972034158D+03 0.684373353171290D+02 0.660607080124990D+02 -.181886609073371D+03
 0.192530426098381D+03 -.430044492612130D+02 -.104169146950969D+03 0.156100516145435D+03
 0.000000000000000D+00 0.000000000000000D+00 0.000000000000000D+00 0.000000000000000D+00
 0.235170438858967D+03 0.000000000000000D+00 0.000000000000000D+00 0.235170438858967D+03
 0.235170438858967D+03 -.000000000000000D+00 -.000000000000000D+00 -.235170438858967D+03
 0.732414366586505D+02 -.267037972536482D+02 0.350299264219151D+02 0.303993340541265D+02
 0.190366078386231D+03 0.649886432926512D+02 0.577069838639962D+02 -.169368308890576D+03
 0.247004876867066D+02 -.193094982146597D+02 0.133004990916734D+02 -.776878977522195D+01
 0.182032874986346D+03 -.189753478243433D+02 -.106037409377585D+03 0.146737764611672D+03
0.168790601420D-03 0.000000000000D+00 0.000000000000D+00 0.278094454856D-08 0.000000000000D+00  6 -4 22 9900012 11 -3 21 0 0.13823466D-01 0.94693858D-01 0.18993359D+05 0.18993359D+05 0.18993359D+05 0.11814721D+01  1  2  2  2  6  5       -3 0.500896351535D-03 0.100000000000D+01
-.758802984049D-06 0.000000000000D+00 -.324100176520D-06 0.278094454856D-08 0.000000000000D+00  6 -4 22 9900012 11 -3 21 2 0.13823466D-01 0.94693858D-01 0.18993359D+05 0.18993359D+05 0.18993359D+05 0.11814721D+01  1  2  3  2  6  5       -3 -.314322558835D-05 0.100000000000D+01
-.260885614346D-04 0.000000000000D+00 0.000000000000D+00 0.278094454856D-08 0.000000000000D+00  6 -4 22 9900012 11 -3 21 2 0.13823466D-01 0.94693858D-01 0.18993359D+05 0.18993359D+05 0.18993359D+05 0.11814721D+01  1  2 15  2  6  5       -3 -.108067885325D-03 0.100000000000D+01
0.226157504583D-04 0.000000000000D+00 0.000000000000D+00 0.278094454856D-08 0.000000000000D+00  6 -4 22 9900012 11 -3 21 2 0.13823466D-01 0.94693858D-01 0.20265673D+05 0.20265673D+05 0.20265673D+05 0.11787664D+01  1  2 12  2  6  5       -3 0.937804886182D-04 0.100000000000D+01
  </mgrwgt>
  </event>
  <event>
  7     66 -.85654518E-06 0.24202355E+02 0.78161638E-02 0.12698396E+00
       -2 -1    0    0    0  502 0.00000000E+00 0.00000000E+00 0.21717910E+02 0.21717910E+02 0.00000000E+00 0.0000E+00 0.9000E+01
       22 -1    0    0    0    0 0.00000000E+00 0.00000000E+00 -.35103163E+03 0.35103163E+03 0.00000000E+00 0.0000E+00 0.9000E+01
      -24  2    1    2    0    0 0.30793772E+02 0.18800262E+01 -.32769103E+03 0.33873152E+03 0.80036530E+02 0.0000E+00 0.0000E+00
  9900012  1    3    3    0    0 0.19572256E+01 0.98036237E+01 -.14723405E+03 0.15581337E+03 0.50000000E+02 0.0000E+00 0.9000E+01
       11  1    3    3    0    0 0.28836547E+02 -.79235975E+01 -.18045698E+03 0.18291815E+03 0.00000000E+00 0.0000E+00 0.9000E+01
       -1  1    1    2    0  501 -.16605395E+02 -.73972998E+01 0.22297497E+01 0.18314774E+02 0.00000000E+00 0.0000E+00 0.9000E+01
       21  1    1    2  501  502 -.14188378E+02 0.55172736E+01 -.38524384E+01 0.15703237E+02 0.00000000E+00 0.0000E+00 0.9000E+01
#aMCatNLO 2  0  0  1  5 0.15981568D+02 0.00000000D+00  -5  6  0 0.00000000D+00 0.00000000D+00 0.00000000D+00 0.00000000D+00 0.00000000D+00
  <mgrwgt>
 -.2104075860D-04    2    2    0
 0.730158657146076D+02 0.000000000000000D+00 0.000000000000000D+00 0.730158657146076D+02
 0.730158657146076D+02 0.000000000000000D+00 0.000000000000000D+00 -.730158657146076D+02
 0.530016705888886D+02 -.315595268588669D+01 0.117919273952890D+02 -.126557297759449D+02
 0.419472574384856D+02 0.246335020844754D+02 -.628920726936282D+01 -.333647846327191D+02
 0.510828034018410D+02 -.214775493985887D+02 -.550272012592620D+01 0.460205144086640D+02
 0.000000000000000D+00 -.000000000000000D+00 0.000000000000000D+00 0.000000000000000D+00
 0.100955778320835D+03 0.000000000000000D+00 0.000000000000000D+00 0.100955778320835D+03
 0.755149780367436D+02 0.000000000000000D+00 0.000000000000000D+00 -.755149780367436D+02
 0.525367420622141D+02 0.195722556664717D+01 0.980362373977804D+01 -.126557297759449D+02
 0.448055651791577D+02 0.288365465951115D+02 -.792359753546232D+01 -.333647846327191D+02
 0.494807732058320D+02 -.166053945121280D+02 -.739729975771683D+01 0.460205144086640D+02
 0.296476759103751D+02 -.141883776496306D+02 0.551727355340112D+01 0.254408002840916D+02
-.189581394585D-06 0.000000000000D+00 0.000000000000D+00 0.778968947089D-06 0.000000000000D+00  6 -2 22 9900012 11 -1 21 2 0.34555767D-02 0.52217614D-01 0.32659429D+04 0.32659429D+04 0.32659429D+04 0.12632211D+01  1  2 13  1  6  1       -2 -.272792271949D-04 0.100000000000D+01
0.437090770659D-07 0.000000000000D+00 0.000000000000D+00 0.778968947089D-06 0.591053734626D-07  6 -2 22 9900012 11 -1 21 2 0.33412170D-02 0.54004865D-01 0.32659429D+04 0.32659429D+04 0.32659429D+04 0.12632211D+01  1  2  1  1  6  1       -2 0.623846859782D-05 0.100000000000D+01
  </mgrwgt>
  </event>
  <event>
  6     66 0.85654518E-06 0.27281390E+02 0.78161638E-02 0.10259079E+00
       -4 -1    0    0    0  501 0.00000000E+00 0.00000000E+00 0.64891940E+03 0.64891940E+03 0.00000000E+00 0.0000E+00 0.9000E+01
       22 -1    0    0    0    0 0.00000000E+00 0.00000000E+00 -.23625702E+02 0.23625702E+02 0.00000000E+00 0.0000E+00 0.9000E+01
      -24  2    1    2    0    0 -.27268315E+02 0.84453580E+00 0.51946619E+02 0.98549328E+02 0.79178562E+02 0.0000E+00 0.0000E+00
  9900012  1    3    3    0    0 -.97952898E+01 0.17491973E+02 0.17798123E+02 0.56733500E+02 0.50000000E+02 0.0000E+00 0.9000E+01
       11  1    3    3    0    0 -.17473025E+02 -.16647437E+02 0.34148496E+02 0.41815829E+02 0.00000000E+00 0.0000E+00 0.9000E+01
       -3  1    1    2    0  501 0.27268315E+02 -.84453580E+00 0.57334708E+03 0.57399578E+03 0.00000000E+00 0.0000E+00 0.9000E+01
#aMCatNLO 1  0  0  1  5 0.17188616D+03 0.00000000D+00  -5  6  0 0.00000000D+00 0.00000000D+00 0.00000000D+00 0.00000000D+00 0.00000000D+00
  <mgrwgt>
 0.1467125074D-04    5    4    0
 0.123819126946578D+03 0.000000000000000D+00 0.000000000000000D+00 0.123819126946578D+03
 0.123819126946578D+03 0.000000000000000D+00 0.000000000000000D+00 -.123819126946578D+03
 0.109138159821373D+03 -.979528979487218D+01 0.174919725959388D+02 -.949169169417808D+02
 0.273390370854286D+02 -.174730248390477D+02 -.166474367950152D+02 -.128444229099027D+02
 0.111161056986354D+03 0.272683146339199D+02 -.844535800923603D+00 0.107761339851684D+03
 0.000000000000000D+00 -.000000000000000D+00 0.000000000000000D+00 0.000000000000000D+00
 0.542190585429962D+03 0.000000000000000D+00 0.000000000000000D+00 0.542190585429962D+03
 0.207100787409877D+03 0.000000000000000D+00 0.000000000000000D+00 -.207100787409877D+03
 0.132534627365643D+03 0.648538667003951D+02 -.430137455149447D+02 -.949169169417808D+02
 0.346861339148743D+02 0.168563489480281D+01 -.321761918361012D+02 -.128444229099027D+02
 0.173419149954277D+03 0.115170939710725D+03 -.720926476860328D+02 0.107761339851684D+03
 0.408651461605044D+03 -.181710441305923D+03 0.147282585037079D+03 0.335089798020085D+03
 0.123819126946578D+03 0.000000000000000D+00 0.000000000000000D+00 0.123819126946578D+03
 0.123819126946578D+03 0.000000000000000D+00 0.000000000000000D+00 -.123819126946578D+03
 0.109138159821373D+03 -.979528979487218D+01 0.174919725959388D+02 -.949169169417808D+02
 0.273390370854286D+02 -.174730248390477D+02 -.166474367950152D+02 -.128444229099027D+02
 0.000000000000000D+00 -.000000000000000D+00 0.000000000000000D+00 0.000000000000000D+00
 0.111161056986354D+03 0.272683146339199D+02 -.844535800923603D+00 0.107761339851684D+03
 0.542190585429962D+03 0.000000000000000D+00 0.000000000000000D+00 0.542190585429962D+03
 0.207100787409877D+03 0.000000000000000D+00 0.000000000000000D+00 -.207100787409877D+03
 0.132534627365643D+03 0.648538667003951D+02 -.430137455149447D+02 -.949169169417808D+02
 0.346861339148743D+02 0.168563489480281D+01 -.321761918361012D+02 -.128444229099027D+02
 0.408651461605044D+03 -.181710441305923D+03 0.147282585037079D+03 0.335089798020085D+03
 0.173419149954277D+03 0.115170939710725D+03 -.720926476860328D+02 0.107761339851684D+03
0.272191533790D-05 0.000000000000D+00 0.000000000000D+00 0.354573281126D-05 0.000000000000D+00  6 -4 22 9900012 11 -3 21 0 0.99833754D-01 0.36347233D-02 0.27712172D+04 0.27712172D+04 0.27712172D+04 0.12717801D+01  1  2  2  1  6  1       -4 0.171338648126D-04 0.100000000000D+01
0.204768129911D-06 0.000000000000D+00 -.522643579714D-08 0.354573281126D-05 0.000000000000D+00  6 -4 22 9900012 11 -3 21 2 0.99833754D-01 0.36347233D-02 0.27712172D+04 0.27712172D+04 0.27712172D+04 0.12717801D+01  1  2  3  1  6  1       -4 0.208481304738D-05 0.100000000000D+01
-.469975801085D-06 0.000000000000D+00 0.000000000000D+00 0.354573281126D-05 0.000000000000D+00  6 -4 22 9900012 11 -3 21 2 0.99833754D-01 0.36347233D-02 0.27712172D+04 0.27712172D+04 0.27712172D+04 0.12717801D+01  1  2 15  1  6  1       -4 -.478498134685D-05 0.100000000000D+01
0.165329256600D-05 0.000000000000D+00 -.920169365116D-06 0.354573281126D-05 0.000000000000D+00  6 -4 22 9900012 11 -3 21 2 0.51160699D+00 0.36347233D-02 0.27712172D+04 0.27712172D+04 0.27712172D+04 0.12717801D+01  1  2  5  1  6  1       -4 0.314582343653D-07 0.100000000000D+01
0.299229116065D-06 0.000000000000D+00 -.183501631667D-06 0.354573281126D-05 0.000000000000D+00  6 21 22 9900012 11 4 -3 2 0.51160699D+00 0.36347233D-02 0.27712172D+04 0.27712172D+04 0.27712172D+04 0.12717801D+01  3  4  5  3  5  1       -4 0.206095993414D-06 0.100000000000D+01
  </mgrwgt>
  </event>
  <event>
  6     66 0.85654518E-06 0.21546469E+02 0.78161638E-02 0.12980124E+00
       -4 -1    0    0    0  501 0.00000000E+00 0.00000000E+00 0.17697982E+02 0.17697982E+02 0.00000000E+00 0.0000E+00 0.9000E+01
       22 -1    0    0    0    0 0.00000000E+00 0.00000000E+00 -.21302501E+03 0.21302501E+03 0.00000000E+00 0.0000E+00 0.9000E+01
      -24  2    1    2    0    0 0.19831890E+02 0.84229727E+01 -.19244333E+03 0.20898441E+03 0.78586221E+02 0.0000E+00 0.0000E+00
  9900012  1    3    3    0    0 0.12712485E+02 -.15194479E+02 -.15571762E+03 0.16474361E+03 0.50000000E+02 0.0000E+00 0.9000E+01
       11  1    3    3    0    0 0.71194049E+01 0.23617452E+02 -.36725718E+02 0.44240800E+02 0.00000000E+00 0.0000E+00 0.9000E+01
       -3  1    1    2    0  501 -.19831890E+02 -.84229727E+01 -.28836885E+01 0.21738583E+02 0.00000000E+00 0.0000E+00 0.9000E+01
#aMCatNLO 1  0  0  1  5 0.41187890D+01 0.00000000D+00  -5  6  0 0.00000000D+00 0.00000000D+00 0.00000000D+00 0.00000000D+00 0.00000000D+00
  <mgrwgt>
 0.3880940564D-02   10    4    0
 0.614012439172501D+02 0.000000000000000D+00 0.000000000000000D+00 0.614012439172501D+02
 0.614012439172501D+02 0.000000000000000D+00 0.000000000000000D+00 -.614012439172501D+02
 0.618414047939743D+02 0.127124846394667D+02 -.151944793542827D+02 -.305267076235841D+02
 0.247050714388067D+02 0.711940490326248D+01 0.236174520486325D+02 0.136769417286495D+01
 0.362560116017192D+02 -.198318895427292D+02 -.842297269434983D+01 0.291590134507192D+02
 0.000000000000000D+00 -.000000000000000D+00 0.000000000000000D+00 -.000000000000000D+00
 0.614020464591692D+02 0.000000000000000D+00 0.000000000000000D+00 0.614020464591692D+02
 0.634950489638475D+02 0.000000000000000D+00 0.000000000000000D+00 -.634950489638475D+02
 0.618545028547670D+02 0.127408283715079D+02 -.152240250092532D+02 -.305267076235841D+02
 0.246970571423268D+02 0.713072492767871D+01 0.236056519957964D+02 0.136769417286495D+01
 0.362509547454192D+02 -.198152752661186D+02 -.844029150344683D+01 0.291590134507192D+02
 0.209458068050366D+01 -.562780330680002D-01 0.586645169035805D-01 -.209300250467830D+01
 0.614012439172501D+02 0.000000000000000D+00 0.000000000000000D+00 0.614012439172501D+02
 0.614012439172501D+02 0.000000000000000D+00 0.000000000000000D+00 -.614012439172501D+02
 0.618414047939743D+02 0.127124846394667D+02 -.151944793542827D+02 -.305267076235841D+02
 0.247050714388067D+02 0.711940490326248D+01 0.236174520486325D+02 0.136769417286495D+01
 0.000000000000000D+00 -.000000000000000D+00 0.000000000000000D+00 -.000000000000000D+00
 0.362560116017192D+02 -.198318895427292D+02 -.842297269434983D+01 0.291590134507192D+02
 0.614020464591692D+02 0.000000000000000D+00 0.000000000000000D+00 0.614020464591692D+02
 0.634950489638475D+02 0.000000000000000D+00 0.000000000000000D+00 -.634950489638475D+02
 0.618545028547670D+02 0.127408283715079D+02 -.152240250092532D+02 -.305267076235841D+02
 0.246970571423268D+02 0.713072492767871D+01 0.236056519957964D+02 0.136769417286495D+01
 0.209458068050366D+01 -.562780330680002D-01 0.586645169035805D-01 -.209300250467830D+01
 0.362509547454192D+02 -.198152752661186D+02 -.844029150344683D+01 0.291590134507192D+02
0.225488282821D-07 0.000000000000D+00 0.000000000000D+00 0.590284520985D-07 0.000000000000D+00  6 -4 22 9900012 11 -3 21 0 0.27227665D-02 0.32773078D-01 0.24997715D+04 0.24997715D+04 0.24997715D+04 0.12772423D+01  1  2  2  1  6  1       -4 0.406170011367D-05 0.100000000000D+01
0.106116174923D-08 0.000000000000D+00 -.432967189231D-10 0.590284520985D-07 0.000000000000D+00  6 -4 22 9900012 11 -3 21 2 0.27227665D-02 0.32773078D-01 0.24997715D+04 0.24997715D+04 0.24997715D+04 0.12772423D+01  1  2  3  1  6  1       -4 0.311825785201D-06 0.100000000000D+01
-.331724571489D-08 0.000000000000D+00 0.000000000000D+00 0.590284520985D-07 0.000000000000D+00  6 -4 22 9900012 11 -3 21 2 0.27227665D-02 0.32773078D-01 0.24997715D+04 0.24997715D+04 0.24997715D+04 0.12772423D+01  1  2 15  1  6  1       -4 -.974783298115D-06 0.100000000000D+01
0.919787585831D-09 0.000000000000D+00 0.000000000000D+00 0.590284520985D-07 0.000000000000D+00  6 -4 22 9900012 11 -3 21 2 0.28156506D-02 0.32773078D-01 0.25037638D+04 0.25037638D+04 0.25037638D+04 0.12771572D+01  1  2 12  1  6  1       -4 0.257304925719D-06 0.100000000000D+01
-.102641862816D-08 0.000000000000D+00 0.000000000000D+00 0.590284520985D-07 0.000000000000D+00  6 -4 22 9900012 11 -3 21 2 0.27227665D-02 0.32773078D-01 0.24997715D+04 0.24997715D+04 0.24997715D+04 0.12772423D+01  1  2  4  1  6  1       -4 -.301616407587D-06 0.100000000000D+01
0.379556078904D-08 0.000000000000D+00 0.000000000000D+00 0.590284520985D-07 0.000000000000D+00  6 -4 22 9900012 11 -3 21 2 0.28186181D-02 0.32773078D-01 0.24997715D+04 0.24997715D+04 0.24997715D+04 0.12772423D+01  1  2  5  1  6  1       -4 0.106000012765D-05 0.100000000000D+01
-.379329020111D-08 0.000000000000D+00 0.000000000000D+00 0.590284520985D-07 0.000000000000D+00  6 -4 22 9900012 11 -3 21 2 0.27227665D-02 0.32773078D-01 0.24997715D+04 0.24997715D+04 0.24997715D+04 0.12772423D+01  1  2  6  1  6  1       -4 -.111467049798D-05 0.100000000000D+01
0.983581678222D-09 0.000000000000D+00 0.000000000000D+00 0.590284520985D-07 0.325110684276D-08  6 -4 22 9900012 11 -3 21 2 0.27228021D-02 0.33890652D-01 0.25037638D+04 0.25037638D+04 0.25037638D+04 0.12771572D+01  1  2 11  1  6  1       -4 0.274388426930D-06 0.100000000000D+01
0.282200495258D-10 0.000000000000D+00 0.000000000000D+00 0.590284520985D-07 0.000000000000D+00  6 21 22 9900012 11 4 -3 2 0.28156506D-02 0.32773078D-01 0.25037638D+04 0.25037638D+04 0.25037638D+04 0.12771572D+01  3  4 12  3  5  1       -4 0.194713760052D-06 0.100000000000D+01
0.562802961425D-06 0.000000000000D+00 0.000000000000D+00 0.590284520985D-07 0.753319022902D-06  6 21 22 9900012 11 4 -3 2 0.27228021D-02 0.33890652D-01 0.25037638D+04 0.25037638D+04 0.25037638D+04 0.12771572D+01  3  4 11  3  5  1       -4 0.387717170088D-02 0.100000000000D+01
  </mgrwgt>
  </event>
  <event>
  6     66 0.85654518E-06 0.74824485E+02 0.78161638E-02 0.90843874E-01
       -4 -1    0    0    0  501 0.00000000E+00 0.00000000E+00 0.50470774E+03 0.50470774E+03 0.00000000E+00 0.0000E+00 0.9000E+01
       22 -1    0    0    0    0 0.00000000E+00 0.00000000E+00 -.15833083E+03 0.15833083E+03 0.00000000E+00 0.0000E+00 0.9000E+01
      -24  2    1    2    0    0 0.48251264E+02 0.57188452E+02 -.13609704E+03 0.17479702E+03 0.80205301E+02 0.0000E+00 0.0000E+00
  9900012  1    3    3    0    0 0.81837374E+01 0.44175998E+02 -.90273630E+02 0.11255141E+03 0.50000000E+02 0.0000E+00 0.9000E+01
       11  1    3    3    0    0 0.40067527E+02 0.13012455E+02 -.45823409E+02 0.62245606E+02 0.00000000E+00 0.0000E+00 0.9000E+01
       -3  1    1    2    0  501 -.48251264E+02 -.57188452E+02 0.48247395E+03 0.48824156E+03 0.00000000E+00 0.0000E+00 0.9000E+01
#aMCatNLO 1  0  0  1  5 0.37003465D+03 0.00000000D+00  -5  6  0 0.00000000D+00 0.00000000D+00 0.00000000D+00 0.00000000D+00 0.00000000D+00
  <mgrwgt>
 0.4866928905D-04    3    2    0
 0.282684977423454D+03 0.000000000000000D+00 0.000000000000000D+00 0.282684977423454D+03
 0.282684977423454D+03 0.000000000000000D+00 0.000000000000000D+00 -.282684977423454D+03
 0.187301480429911D+03 0.818373736715268D+01 0.441759977668737D+02 -.174823774799777D+03
 0.101072595171305D+03 0.400675266058487D+02 0.130124545937516D+02 -.918745820768602D+02
 0.276995879245692D+03 -.482512639730013D+02 -.571884523606253D+02 0.266698356876637D+03
 0.000000000000000D+00 0.000000000000000D+00 0.000000000000000D+00 -.000000000000000D+00
 0.632834109382149D+03 0.000000000000000D+00 0.000000000000000D+00 0.632834109382149D+03
 0.980931173314733D+03 0.000000000000000D+00 0.000000000000000D+00 -.980931173314733D+03
 0.235429765532484D+03 -.401999501748375D+02 -.144040918732762D+03 -.174823774799777D+03
 0.128919678266082D+03 0.137437703154125D+02 -.893893359968043D+02 -.918745820768602D+02
 0.504026533059432D+03 -.137643152368268D+03 -.404930975690102D+03 0.266698356876637D+03
 0.745389305838884D+03 0.164099332227693D+03 0.638361230419668D+03 -.348097063932584D+03
0.685917371988D-04 0.000000000000D+00 0.000000000000D+00 0.523497864939D-04 0.000000000000D+00  6 -4 22 9900012 11 -3 21 0 0.77647345D-01 0.24358589D-01 0.84798101D+04 0.84798101D+04 0.84798101D+04 0.12168263D+01  1  2  2  1  6  1       -4 0.604672878883D-04 0.100000000000D+01
0.163974167003D-05 0.000000000000D+00 -.131705165731D-06 0.523497864939D-04 0.000000000000D+00  6 -4 22 9900012 11 -3 21 2 0.77647345D-01 0.24358589D-01 0.84798101D+04 0.84798101D+04 0.84798101D+04 0.12168263D+01  1  2  3  1  6  1       -4 0.214033264864D-05 0.100000000000D+01
-.106783695335D-04 0.000000000000D+00 0.000000000000D+00 0.523497864939D-04 0.000000000000D+00  6 -4 22 9900012 11 -3 21 2 0.77647345D-01 0.24358589D-01 0.84798101D+04 0.84798101D+04 0.84798101D+04 0.12168263D+01  1  2 15  1  6  1       -4 -.139383314851D-04 0.100000000000D+01
  </mgrwgt>
  </event>
  <event>
  6     66 0.85654518E-06 0.34426409E+02 0.78161638E-02 0.10928212E+00
       -2 -1    0    0    0  501 0.00000000E+00 0.00000000E+00 0.10051047E+04 0.10051047E+04 0.00000000E+00 0.0000E+00 0.9000E+01
       22 -1    0    0    0    0 0.00000000E+00 0.00000000E+00 -.68067906E+01 0.68067906E+01 0.00000000E+00 0.0000E+00 0.9000E+01
      -24  2    1    2    0    0 0.26497076E+02 -.21979140E+02 0.29048086E+03 0.30325773E+03 0.80005892E+02 0.0000E+00 0.0000E+00
  9900012  1    3    3    0    0 -.34884936E+01 -.72941371E+01 0.21206397E+03 0.21802867E+03 0.50000000E+02 0.0000E+00 0.9000E+01
       11  1    3    3    0    0 0.29985570E+02 -.14685003E+02 0.78416885E+02 0.85229053E+02 0.00000000E+00 0.0000E+00 0.9000E+01
       -1  1    1    2    0  501 -.26497076E+02 0.21979140E+02 0.70781702E+03 0.70865373E+03 0.00000000E+00 0.0000E+00 0.9000E+01
#aMCatNLO 1  0  0  1  5 0.37003465D+03 0.00000000D+00  -5  6  0 0.00000000D+00 0.00000000D+00 0.00000000D+00 0.00000000D+00 0.00000000D+00
  <mgrwgt>
 0.1159645638D-03    5    4    0
 0.827135842489658D+02 0.000000000000000D+00 0.000000000000000D+00 0.827135842489658D+02
 0.827135842489658D+02 0.000000000000000D+00 0.000000000000000D+00 -.827135842489658D+02
 0.539373274944154D+02 -.348849360078803D+01 -.729413714471224D+01 -.185434967832716D+02
 0.481229663862916D+02 0.299855699324281D+02 -.146850029329286D+02 -.346559688726704D+02
 0.633668746172246D+02 -.264970763316400D+02 0.219791400776408D+02 0.531994656559420D+02
 0.000000000000000D+00 -.000000000000000D+00 -.000000000000000D+00 0.000000000000000D+00
 0.252981373989182D+03 0.000000000000000D+00 0.000000000000000D+00 0.252981373989182D+03
 0.136425947712200D+03 0.000000000000000D+00 0.000000000000000D+00 -.136425947712200D+03
 0.644058190155278D+02 0.350502988761285D+02 0.870199970143543D+01 -.185434967832716D+02
 0.795559234578370D+02 0.715645745854143D+02 0.257302217914916D+01 -.346559688726704D+02
 0.684367329257830D+02 0.164251547278674D+02 0.397946926064621D+02 0.531994656559420D+02
 0.177008846302235D+03 -.123040028189410D+03 -.510697144870467D+02 0.116555426276982D+03
 0.827135842489658D+02 0.000000000000000D+00 0.000000000000000D+00 0.827135842489658D+02
 0.827135842489658D+02 0.000000000000000D+00 0.000000000000000D+00 -.827135842489658D+02
 0.539373274944154D+02 -.348849360078803D+01 -.729413714471224D+01 -.185434967832716D+02
 0.481229663862916D+02 0.299855699324281D+02 -.146850029329286D+02 -.346559688726704D+02
 0.000000000000000D+00 -.000000000000000D+00 -.000000000000000D+00 0.000000000000000D+00
 0.633668746172246D+02 -.264970763316400D+02 0.219791400776408D+02 0.531994656559420D+02
 0.252981373989182D+03 0.000000000000000D+00 0.000000000000000D+00 0.252981373989182D+03
 0.136425947712200D+03 0.000000000000000D+00 0.000000000000000D+00 -.136425947712200D+03
 0.644058190155278D+02 0.350502988761285D+02 0.870199970143543D+01 -.185434967832716D+02
 0.795559234578370D+02 0.715645745854143D+02 0.257302217914916D+01 -.346559688726704D+02
 0.177008846302235D+03 -.123040028189410D+03 -.510697144870467D+02 0.116555426276982D+03
 0.684367329257830D+02 0.164251547278674D+02 0.397946926064621D+02 0.531994656559420D+02
0.500072413860D-05 0.000000000000D+00 0.000000000000D+00 0.944746151716D-06 0.000000000000D+00  6 -2 22 9900012 11 -1 21 0 0.15463149D+00 0.10471986D-02 0.35084480D+04 0.35084480D+04 0.35084480D+04 0.12595468D+01  1  2  2  1  6  1       -2 0.142663206351D-03 0.100000000000D+01
0.158435511072D-06 0.000000000000D+00 -.960204870657D-08 0.944746151716D-06 0.000000000000D+00  6 -2 22 9900012 11 -1 21 2 0.15463149D+00 0.10471986D-02 0.35084480D+04 0.35084480D+04 0.35084480D+04 0.12595468D+01  1  2  3  1  6  1       -2 0.717067810151D-05 0.100000000000D+01
-.758841366697D-06 0.000000000000D+00 0.000000000000D+00 0.944746151716D-06 0.000000000000D+00  6 -2 22 9900012 11 -1 21 2 0.15463149D+00 0.10471986D-02 0.35084480D+04 0.35084480D+04 0.35084480D+04 0.12595468D+01  1  2 15  1  6  1       -2 -.343446184122D-04 0.100000000000D+01
0.808190141537D-06 0.000000000000D+00 -.128035700119D-05 0.944746151716D-06 0.000000000000D+00  6 -2 22 9900012 11 -1 21 2 0.54803827D+00 0.10471986D-02 0.35084480D+04 0.35084480D+04 0.35084480D+04 0.12595468D+01  1  2  5  1  6  1       -2 0.140232592966D-06 0.100000000000D+01
0.158555363080D-06 0.000000000000D+00 -.189923889435D-06 0.944746151716D-06 0.000000000000D+00  6 21 22 9900012 11 2 -1 2 0.54803827D+00 0.10471986D-02 0.35084480D+04 0.35084480D+04 0.35084480D+04 0.12595468D+01  3  4  5  3  5  1       -2 0.335065209682D-06 0.100000000000D+01
  </mgrwgt>
  </event>
  <event>
  7     66 -.85654518E-06 0.11561011E+03 0.78161638E-02 0.11154866E+00
       -2 -1    0    0    0  502 0.00000000E+00 0.00000000E+00 0.28827375E+02 0.28827375E+02 0.00000000E+00 0.0000E+00 0.9000E+01
       22 -1    0    0    0    0 0.00000000E+00 0.00000000E+00 -.10363477E+04 0.10363477E+04 0.00000000E+00 0.0000E+00 0.9000E+01
      -24  2    1    2    0    0 0.93816549E+02 0.78572728E+02 -.85319833E+03 0.86565160E+03 0.80187873E+02 0.0000E+00 0.0000E+00
  9900012  1    3    3    0    0 0.86031695E+02 0.42318761E+02 -.58603486E+03 0.59592717E+03 0.50000000E+02 0.0000E+00 0.9000E+01
       11  1    3    3    0    0 0.77848538E+01 0.36253967E+02 -.26716347E+03 0.26972444E+03 0.00000000E+00 0.0000E+00 0.9000E+01
       -1  1    1    2    0  501 -.79319408E+02 -.65863898E+02 -.10780450E+03 0.14916914E+03 0.00000000E+00 0.0000E+00 0.9000E+01
       21  1    1    2  501  502 -.14497141E+02 -.12708829E+02 -.46517529E+02 0.50354364E+02 0.00000000E+00 0.0000E+00 0.9000E+01
#aMCatNLO 2  0  0  1  5 0.25153813D+02 0.00000000D+00  -5  6  0 0.00000000D+00 0.00000000D+00 0.00000000D+00 0.00000000D+00 0.00000000D+00
  <mgrwgt>
 -.1317269553D-04    2    2    0
 0.162759809901817D+03 0.000000000000000D+00 0.000000000000000D+00 0.162759809901817D+03
 0.162759809901817D+03 0.000000000000000D+00 0.000000000000000D+00 -.162759809901817D+03
 0.122244723712305D+03 0.804752150056513D+02 0.374477065456078D+02 -.675661270146966D+02
 0.503917490002409D+02 0.550542822544811D+01 0.342557223645949D+02 -.365453706047362D+02
 0.152883147091088D+03 -.859806432310994D+02 -.717034289102026D+02 0.104111497619433D+03
 0.000000000000000D+00 -.000000000000000D+00 -.000000000000000D+00 0.000000000000000D+00
 0.174668962529908D+03 0.000000000000000D+00 0.000000000000000D+00 0.174668962529908D+03
 0.171038883614946D+03 0.000000000000000D+00 0.000000000000000D+00 -.171038883614946D+03
 0.127504947523607D+03 0.860316953509396D+02 0.423187608310399D+02 -.675661270146966D+02
 0.520626369414857D+02 0.778485377566650D+01 0.362539667395849D+02 -.365453706047362D+02
 0.146522440399164D+03 -.793194081875201D+02 -.658638982200937D+02 0.104111497619433D+03
 0.196178212805982D+02 -.144971409390860D+02 -.127088293505311D+02 0.363007891496140D+01
-.118002841430D-05 0.000000000000D+00 0.000000000000D+00 0.154246759223D-05 0.000000000000D+00  6 -2 22 9900012 11 -1 21 2 0.46605741D-02 0.15172057D+00 0.17901175D+05 0.17901175D+05 0.17901175D+05 0.11839602D+01  1  2 13  1  6  1       -2 -.150944318674D-04 0.100000000000D+01
0.156041157674D-06 0.000000000000D+00 0.000000000000D+00 0.154246759223D-05 0.330265599511D-07  6 -2 22 9900012 11 -1 21 2 0.44349807D-02 0.15943811D+00 0.17901175D+05 0.17901175D+05 0.17901175D+05 0.11839602D+01  1  2  1  1  6  1       -2 0.192173633406D-05 0.100000000000D+01
  </mgrwgt>
  </event>
  <event>
  6     66 0.85654518E-06 0.20494328E+03 0.78161638E-02 0.95532247E-01
       -2 -1    0    0    0  501 0.00000000E+00 0.00000000E+00 0.10369950E+03 0.10369950E+03 0.00000000E+00 0.0000E+00 0.9000E+01
       22 -1    0    0    0    0 0.00000000E+00 0.00000000E+00 -.86462891E+03 0.86462891E+03 0.00000000E+00 0.0000E+00 0.9000E+01
      -24  2    1    2    0    0 0.17459689E+03 0.10732042E+03 -.72828691E+03 0.76080184E+03 0.80099060E+02 0.0000E+00 0.0000E+00
  9900012  1    3    3    0    0 0.16972860E+03 0.86507987E+02 -.62392208E+03 0.65427073E+03 0.50000000E+02 0.0000E+00 0.9000E+01
       11  1    3    3    0    0 0.48682904E+01 0.20812437E+02 -.10436484E+03 0.10653111E+03 0.00000000E+00 0.0000E+00 0.9000E+01
       -1  1    1    2    0  501 -.17459689E+03 -.10732042E+03 -.32642490E+02 0.20752657E+03 0.00000000E+00 0.0000E+00 0.9000E+01
#aMCatNLO 1  0  0  1  5 0.47700630D+03 0.00000000D+00  -5  6  0 0.00000000D+00 0.00000000D+00 0.00000000D+00 0.00000000D+00 0.00000000D+00
  <mgrwgt>
 0.2872282547D-04    5    4    0
 0.299435448883186D+03 0.000000000000000D+00 0.000000000000000D+00 0.299435448883186D+03
 0.299435448883186D+03 0.000000000000000D+00 0.000000000000000D+00 -.299435448883186D+03
 0.265146096058758D+03 0.169728597274319D+03 0.865079872370325D+02 -.177513446439107D+03
 0.396459826434666D+02 0.486829044193505D+01 0.208124365456834D+02 -.333908097082254D+02
 0.294078819064147D+03 -.174596887716254D+03 -.107320423782716D+03 0.210904256147333D+03
 0.000000000000000D+00 -.000000000000000D+00 -.000000000000000D+00 0.000000000000000D+00
 0.520185309216400D+03 0.000000000000000D+00 0.000000000000000D+00 0.520185309216400D+03
 0.509732333414372D+03 0.000000000000000D+00 0.000000000000000D+00 -.509732333414372D+03
 0.360111558950168D+03 0.179878476924175D+03 0.251620835310332D+03 -.177513446439107D+03
 0.576031739719655D+02 0.644694722092738D+01 0.464931860620906D+02 -.333908097082254D+02
 0.271305135921555D+03 -.165418944746514D+03 0.419814749062382D+02 0.210904256147333D+03
 0.340897773787085D+03 -.209064793985881D+02 -.340095496278661D+03 0.104529758020287D+02
 0.299435448883186D+03 0.000000000000000D+00 0.000000000000000D+00 0.299435448883186D+03
 0.299435448883186D+03 0.000000000000000D+00 0.000000000000000D+00 -.299435448883186D+03
 0.265146096058758D+03 0.169728597274319D+03 0.865079872370325D+02 -.177513446439107D+03
 0.396459826434666D+02 0.486829044193505D+01 0.208124365456834D+02 -.333908097082254D+02
 0.000000000000000D+00 -.000000000000000D+00 -.000000000000000D+00 0.000000000000000D+00
 0.294078819064147D+03 -.174596887716254D+03 -.107320423782716D+03 0.210904256147333D+03
 0.520185309216400D+03 0.000000000000000D+00 0.000000000000000D+00 0.520185309216400D+03
 0.509732333414372D+03 0.000000000000000D+00 0.000000000000000D+00 -.509732333414372D+03
 0.360111558950168D+03 0.179878476924175D+03 0.251620835310332D+03 -.177513446439107D+03
 0.576031739719655D+02 0.644694722092738D+01 0.464931860620906D+02 -.333908097082254D+02
 0.340897773787085D+03 -.209064793985881D+02 -.340095496278661D+03 0.104529758020287D+02
 0.271305135921555D+03 -.165418944746514D+03 0.419814749062382D+02 0.210904256147333D+03
0.152256844693D-04 0.000000000000D+00 0.000000000000D+00 0.390629523172D-05 0.000000000000D+00  6 -2 22 9900012 11 -1 21 0 0.15953770D-01 0.13301983D+00 0.44789988D+05 0.44789988D+05 0.44789988D+05 0.11471383D+01  1  2  2  1  6  1       -2 0.297924866623D-04 0.100000000000D+01
-.126245919057D-06 0.000000000000D+00 -.292353186885D-07 0.390629523172D-05 0.000000000000D+00  6 -2 22 9900012 11 -1 21 2 0.15953770D-01 0.13301983D+00 0.44789988D+05 0.44789988D+05 0.44789988D+05 0.11471383D+01  1  2  3  1  6  1       -2 -.325071449807D-06 0.100000000000D+01
-.220283198454D-05 0.000000000000D+00 0.000000000000D+00 0.390629523172D-05 0.000000000000D+00  6 -2 22 9900012 11 -1 21 2 0.15953770D-01 0.13301983D+00 0.44789988D+05 0.44789988D+05 0.44789988D+05 0.11471383D+01  1  2 15  1  6  1       -2 -.567208660876D-05 0.100000000000D+01
0.434084129184D-05 0.000000000000D+00 -.424137350072D-05 0.390629523172D-05 0.000000000000D+00  6 -2 22 9900012 11 -1 21 2 0.47278975D-01 0.13301983D+00 0.44789988D+05 0.44789988D+05 0.44789988D+05 0.11471383D+01  1  2  5  1  6  1       -2 0.171409089162D-05 0.100000000000D+01
0.752214802443D-06 0.000000000000D+00 -.523046242885D-06 0.390629523172D-05 0.000000000000D+00  6 21 22 9900012 11 2 -1 2 0.47278975D-01 0.13301983D+00 0.44789988D+05 0.44789988D+05 0.44789988D+05 0.11471383D+01  3  4  5  3  5  1       -2 0.321340597050D-05 0.100000000000D+01
  </mgrwgt>
  </event>
  <event>
  7     66 0.85654518E-06 0.27182759E+02 0.78161638E-02 0.12299627E+00
       -2 -1    0    0    0  502 0.00000000E+00 0.00000000E+00 0.23146367E+03 0.23146367E+03 0.00000000E+00 0.0000E+00 0.9000E+01
       22 -1    0    0    0    0 0.00000000E+00 0.00000000E+00 -.16761086E+03 0.16761086E+03 0.00000000E+00 0.0000E+00 0.9000E+01
      -24  2    1    2    0    0 -.76966655E+01 -.22939943E+02 -.15239234E+03 0.17385071E+03 0.80094712E+02 0.0000E+00 0.0000E+00
  9900012  1    3    3    0    0 0.17367063E+02 -.22032036E+02 -.11897776E+03 0.13207094E+03 0.50000000E+02 0.0000E+00 0.9000E+01
       11  1    3    3    0    0 -.25063729E+02 -.90790698E+00 -.33414586E+02 0.41779772E+02 0.00000000E+00 0.0000E+00 0.9000E+01
       -1  1    1    2    0  501 -.19793403E+02 -.20199676E+01 0.12720824E+03 0.12875478E+03 0.00000000E+00 0.0000E+00 0.9000E+01
       21  1    1    2  501  502 0.27490068E+02 0.24959911E+02 0.89036926E+02 0.96469037E+02 0.00000000E+00 0.0000E+00 0.9000E+01
#aMCatNLO 2  0  0  1  5 0.15995863D+03 0.00000000D+00  -5  6  0 0.00000000D+00 0.00000000D+00 0.00000000D+00 0.00000000D+00 0.00000000D+00
  <mgrwgt>
 0.1875280337D-05    1    2    0
 0.149630498211946D+03 0.000000000000000D+00 0.000000000000000D+00 0.149630498211946D+03
 0.149630498211946D+03 0.000000000000000D+00 0.000000000000000D+00 -.149630498211946D+03
 0.123292199054043D+03 0.286174820543338D+02 -.118170943842731D+02 -.108362181358465D+03
 0.370566403299843D+02 -.215776352913156D+02 0.225733021898810D+01 -.300417161304616D+02
 0.138912157039864D+03 -.703984676301824D+01 0.955976416528500D+01 0.138403897488926D+03
 0.000000000000000D+00 0.000000000000000D+00 0.000000000000000D+00 0.000000000000000D+00
 0.251599897308239D+03 0.000000000000000D+00 0.000000000000000D+00 0.251599897308239D+03
 0.154196503612288D+03 0.000000000000000D+00 0.000000000000000D+00 -.154196503612288D+03
 0.122594403863803D+03 0.173670634445248D+02 -.220320361580649D+02 -.108362181358465D+03
 0.391346331367344D+02 -.250637289244910D+02 -.907906979370426D+00 -.300417161304616D+02
 0.139826670888942D+03 -.197934025069818D+02 -.201996756308020D+01 0.138403897488926D+03
 0.104240693031048D+03 0.274900679869479D+02 0.249599107005155D+02 0.974033936959511D+02
0.151626060734D-06 0.000000000000D+00 0.000000000000D+00 0.144527753203D-04 0.109540053504D-07  6 -2 22 9900012 11 -1 21 2 0.35609796D-01 0.25786285D-01 0.48608661D+04 0.48608661D+04 0.48608661D+04 0.12432283D+01  1  2  1  1  6  1       -2 0.187528033655D-05 0.100000000000D+01
  </mgrwgt>
  </event>
  <event>
  6     66 0.85654518E-06 0.79317256E+02 0.78161638E-02 0.11686483E+00
       -2 -1    0    0    0  501 0.00000000E+00 0.00000000E+00 0.28538431E+02 0.28538431E+02 0.00000000E+00 0.0000E+00 0.9000E+01
       22 -1    0    0    0    0 -.00000000E+00 -.00000000E+00 -.43129326E+03 0.43129326E+03 0.00000000E+00 0.0000E+00 0.9000E+01
      -24  2    1    2    0    0 -.75883945E+02 -.27298781E+02 -.33834485E+03 0.35662199E+03 0.78729985E+02 0.0000E+00 0.0000E+00
  9900012  1    3    3    0    0 -.43525430E+02 0.40485821E+01 -.22674763E+03 0.23627387E+03 0.50000000E+02 0.0000E+00 0.9000E+01
       11  1    3    3    0    0 -.32358515E+02 -.31347363E+02 -.11159722E+03 0.12034812E+03 0.00000000E+00 0.0000E+00 0.9000E+01
       -1  1    1    2    0  501 0.75883945E+02 0.27298781E+02 -.64409974E+02 0.10320970E+03 0.00000000E+00 0.0000E+00 0.9000E+01
#aMCatNLO 1  0  0  5  1 0.20964739D+02 0.00000000D+00  -5  6  0 0.00000000D+00 0.00000000D+00 0.00000000D+00 0.00000000D+00 0.00000000D+00
  <mgrwgt>
 0.3191412282D-04    7    2    0
 0.110943377664970D+03 0.000000000000000D+00 0.000000000000000D+00 0.110943377664970D+03
 0.110943377664970D+03 -.000000000000000D+00 -.000000000000000D+00 -.110943377664970D+03
 0.780691513322838D+02 -.435254298074779D+02 0.404858214078674D+01 -.410358176775685D+02
 0.468417353272423D+02 -.323585153531858D+02 -.313473628159176D+02 -.128225386368022D+02
 0.969758686704132D+02 0.758839451606637D+02 0.272987806751308D+02 0.538583563143707D+02
 0.000000000000000D+00 0.000000000000000D+00 0.000000000000000D+00 0.000000000000000D+00
 0.110943377664970D+03 0.000000000000000D+00 0.000000000000000D+00 0.110943377664970D+03
 0.110943377664970D+03 -.000000000000000D+00 -.000000000000000D+00 -.110943377664970D+03
 0.757795262413863D+02 -.409770262265960D+02 0.496535459217839D+01 -.392270974298091D+02
 0.451358658671071D+02 -.308349660322476D+02 -.307992753558893D+02 -.117412050027130D+02
 0.458400627948531D+02 0.285514449525070D+02 0.314385804855145D+02 0.172552022652840D+02
 0.551313004265928D+02 0.432605473063367D+02 -.560465972180367D+01 0.337131001672382D+02
0.527599578263D-06 0.000000000000D+00 0.000000000000D+00 0.191311402923D-06 0.000000000000D+00  6 -2 22 9900012 11 -1 21 0 0.43905279D-02 0.66352809D-01 0.92267237D+04 0.92267237D+04 0.92267237D+04 0.12129700D+01  1  2  2  2  6  5       -1 0.249454067114D-04 0.100000000000D+01
-.647949118416D-08 0.000000000000D+00 -.101306065034D-08 0.191311402923D-06 0.000000000000D+00  6 -2 22 9900012 11 -1 21 2 0.43905279D-02 0.66352809D-01 0.92267237D+04 0.92267237D+04 0.92267237D+04 0.12129700D+01  1  2  3  2  6  5       -1 -.450741080100D-06 0.100000000000D+01
-.773544026833D-07 0.000000000000D+00 0.000000000000D+00 0.191311402923D-06 0.000000000000D+00  6 -2 22 9900012 11 -1 21 2 0.43905279D-02 0.66352809D-01 0.92267237D+04 0.92267237D+04 0.92267237D+04 0.12129700D+01  1  2 15  2  6  5       -1 -.538110262441D-05 0.100000000000D+01
0.284982616611D-06 0.000000000000D+00 0.000000000000D+00 0.191311402923D-06 0.000000000000D+00  6 -2 22 9900012 11 -1 21 2 0.43905279D-02 0.66352809D-01 0.94584418D+04 0.94584418D+04 0.94584418D+04 0.12118444D+01  1  2 12  2  6  5       -1 0.198350793456D-04 0.100000000000D+01
-.280394820049D-06 0.000000000000D+00 0.000000000000D+00 0.191311402923D-06 0.000000000000D+00  6 -2 22 9900012 11 -1 21 2 0.43905279D-02 0.66352809D-01 0.92267237D+04 0.92267237D+04 0.92267237D+04 0.12129700D+01  1  2  4  2  6  5       -1 -.195054612239D-04 0.100000000000D+01
-.261301627775D-06 0.000000000000D+00 0.000000000000D+00 0.191311402923D-06 0.000000000000D+00  6 -2 22 9900012 11 -1 21 2 0.43905279D-02 0.66352809D-01 0.92267237D+04 0.92267237D+04 0.92267237D+04 0.12129700D+01  1  2  5  2  6  5       -1 -.181772572240D-04 0.100000000000D+01
0.440573853634D-06 0.000000000000D+00 -.000000000000D+00 0.191311402923D-06 0.000000000000D+00  6 -2 22 9900012 11 -1 21 2 0.43905279D-02 0.66352809D-01 0.92267237D+04 0.92267237D+04 0.92267237D+04 0.12129700D+01  1  2  6  2  6  5       -1 0.306481989104D-04 0.100000000000D+01
  </mgrwgt>
  </event>
  <event>
  6     66 0.85654518E-06 0.89333913E+02 0.78161638E-02 0.10475973E+00
       -4 -1    0    0    0  501 0.00000000E+00 0.00000000E+00 0.42350151E+02 0.42350151E+02 0.00000000E+00 0.0000E+00 0.9000E+01
       22 -1    0    0    0    0 0.00000000E+00 0.00000000E+00 -.26412313E+03 0.26412313E+03 0.00000000E+00 0.0000E+00 0.9000E+01
      -24  2    1    2    0    0 -.66906462E+02 0.59195214E+02 -.14598519E+03 0.18932237E+03 0.80936605E+02 0.0000E+00 0.0000E+00
  9900012  1    3    3    0    0 -.77902903E+02 0.47809027E+02 -.13229664E+03 0.16839527E+03 0.50000000E+02 0.0000E+00 0.9000E+01
       11  1    3    3    0    0 0.10996441E+02 0.11386187E+02 -.13688550E+02 0.20927097E+02 0.00000000E+00 0.0000E+00 0.9000E+01
       -3  1    1    2    0  501 0.66906462E+02 -.59195214E+02 -.75787784E+02 0.11715091E+03 0.00000000E+00 0.0000E+00 0.9000E+01
#aMCatNLO 1  0  0  1  5 0.17107812D+02 0.00000000D+00  -5  6  0 0.00000000D+00 0.00000000D+00 0.00000000D+00 0.00000000D+00 0.00000000D+00
  <mgrwgt>
 0.3911859114D-04    3    2    0
 0.105762254321472D+03 0.000000000000000D+00 0.000000000000000D+00 0.105762254321472D+03
 0.105762254321472D+03 0.000000000000000D+00 0.000000000000000D+00 -.105762254321472D+03
 0.105277779147797D+03 -.779029034786374D+02 0.478090270587791D+02 -.151276350955223D+02
 0.159690498366228D+02 0.109964411143641D+02 0.113861868492368D+02 0.210798115198718D+01
 0.902776796585241D+02 0.669064623642734D+02 -.591952139080159D+02 0.130196539435351D+02
 0.000000000000000D+00 -.000000000000000D+00 -.000000000000000D+00 -.000000000000000D+00
 0.135407799649863D+03 0.000000000000000D+00 0.000000000000000D+00 0.135407799649863D+03
 0.220275717142843D+04 0.000000000000000D+00 0.000000000000000D+00 -.220275717142843D+04
 0.106923483827425D+03 -.215002646370071D+02 0.907828434823952D+02 -.151276350955223D+02
 0.317553828960911D+02 0.236814925867450D+02 0.210510728278670D+02 0.210798115198718D+01
 0.126021152319646D+03 0.124398226225056D+03 -.153915806602824D+02 0.130196539435351D+02
 0.207346495203513D+04 -.126579454174793D+03 -.964423356499797D+02 -.206734937177857D+04
0.123513362334D-05 0.000000000000D+00 0.000000000000D+00 0.130803808511D-06 0.000000000000D+00  6 -4 22 9900012 11 -3 21 0 0.65154079D-02 0.40634328D-01 0.10956695D+05 0.10956695D+05 0.10956695D+05 0.12052392D+01  1  2  2  1  6  1       -4 0.518533259652D-04 0.100000000000D+01
-.428729606685D-07 0.000000000000D+00 -.237161916590D-08 0.130803808511D-06 0.000000000000D+00  6 -4 22 9900012 11 -3 21 2 0.65154079D-02 0.40634328D-01 0.10956695D+05 0.10956695D+05 0.10956695D+05 0.12052392D+01  1  2  3  1  6  1       -4 -.261452411805D-05 0.100000000000D+01
-.165951192695D-06 0.000000000000D+00 0.000000000000D+00 0.130803808511D-06 0.000000000000D+00  6 -4 22 9900012 11 -3 21 2 0.65154079D-02 0.40634328D-01 0.10956695D+05 0.10956695D+05 0.10956695D+05 0.12052392D+01  1  2 15  1  6  1       -4 -.101202107098D-04 0.100000000000D+01
  </mgrwgt>
  </event>
  <event>
  6     66 0.85654518E-06 0.45859357E+02 0.78161638E-02 0.11776600E+00
       -2 -1    0    0    0  501 0.00000000E+00 0.00000000E+00 0.89869983E+02 0.89869983E+02 0.00000000E+00 0.0000E+00 0.9000E+01
       22 -1    0    0    0    0 0.00000000E+00 0.00000000E+00 -.44581845E+03 0.44581845E+03 0.00000000E+00 0.0000E+00 0.9000E+01
      -24  2    1    2    0    0 -.52438831E+02 0.23612072E+02 -.43038295E+03 0.44162540E+03 0.80598731E+02 0.0000E+00 0.0000E+00
  9900012  1    3    3    0    0 -.32413098E+02 -.92518503E+01 -.27707767E+03 0.28356347E+03 0.50000000E+02 0.0000E+00 0.9000E+01
       11  1    3    3    0    0 -.20025732E+02 0.32863922E+02 -.15330527E+03 0.15806193E+03 0.00000000E+00 0.0000E+00 0.9000E+01
       -1  1    1    2    0  501 0.52438831E+02 -.23612072E+02 0.74434483E+02 0.94063027E+02 0.00000000E+00 0.0000E+00 0.9000E+01
#aMCatNLO 1  0  0  1  5 0.44125375D+02 0.00000000D+00  -5  6  0 0.00000000D+00 0.00000000D+00 0.00000000D+00 0.00000000D+00 0.00000000D+00
  <mgrwgt>
 0.4299990861D-04    9    4    0
 0.200164173939592D+03 0.000000000000000D+00 0.000000000000000D+00 0.200164173939592D+03
 0.200164173939592D+03 0.000000000000000D+00 0.000000000000000D+00 -.200164173939592D+03
 0.133081505350044D+03 -.324130981553937D+02 -.925185028219367D+01 -.118635919520854D+03
 0.751962026690239D+02 -.200257324137142D+02 0.328639220559968D+02 -.646018696651467D+02
 0.192050639860116D+03 0.524388305691079D+02 -.236120717738031D+02 0.183237789186001D+03
 0.000000000000000D+00 0.000000000000000D+00 -.000000000000000D+00 0.000000000000000D+00
 0.217680060260158D+03 0.000000000000000D+00 0.000000000000000D+00 0.217680060260158D+03
 0.215945032284808D+03 0.000000000000000D+00 0.000000000000000D+00 -.215945032284808D+03
 0.134399423996765D+03 -.385800548898612D+02 -.550576787520646D+00 -.118635919520854D+03
 0.785021214618972D+02 -.235693529529064D+02 0.378637968403484D+02 -.646018696651467D+02
 0.188701708903417D+03 0.436603233794340D+02 -.112260286700159D+02 0.183237789186001D+03
 0.320218381828867D+02 0.184890844633336D+02 -.260871913828118D+02 0.173502797534948D+01
 0.200164173939592D+03 0.000000000000000D+00 0.000000000000000D+00 0.200164173939592D+03
 0.200164173939592D+03 0.000000000000000D+00 0.000000000000000D+00 -.200164173939592D+03
 0.133081505350044D+03 -.324130981553937D+02 -.925185028219367D+01 -.118635919520854D+03
 0.751962026690239D+02 -.200257324137142D+02 0.328639220559968D+02 -.646018696651467D+02
 0.000000000000000D+00 0.000000000000000D+00 -.000000000000000D+00 0.000000000000000D+00
 0.192050639860116D+03 0.524388305691079D+02 -.236120717738031D+02 0.183237789186001D+03
 0.217680060260158D+03 0.000000000000000D+00 0.000000000000000D+00 0.217680060260158D+03
 0.215945032284808D+03 0.000000000000000D+00 0.000000000000000D+00 -.215945032284808D+03
 0.134399423996765D+03 -.385800548898612D+02 -.550576787520646D+00 -.118635919520854D+03
 0.785021214618972D+02 -.235693529529064D+02 0.378637968403484D+02 -.646018696651467D+02
 0.320218381828867D+02 0.184890844633336D+02 -.260871913828118D+02 0.173502797534948D+01
 0.188701708903417D+03 0.436603233794340D+02 -.112260286700159D+02 0.183237789186001D+03
0.348162475802D-05 0.000000000000D+00 0.000000000000D+00 0.147470133886D-04 0.000000000000D+00  6 -2 22 9900012 11 -1 21 0 0.13826151D-01 0.68587454D-01 0.61070517D+04 0.61070517D+04 0.61070517D+04 0.12321868D+01  1  2  2  1  6  1       -2 0.268817118681D-04 0.100000000000D+01
0.114388175695D-06 0.000000000000D+00 -.668517790182D-08 0.147470133886D-04 0.000000000000D+00  6 -2 22 9900012 11 -1 21 2 0.13826151D-01 0.68587454D-01 0.61070517D+04 0.61070517D+04 0.61070517D+04 0.12321868D+01  1  2  3  1  6  1       -2 0.134093949776D-05 0.100000000000D+01
-.522197921328D-06 0.000000000000D+00 0.000000000000D+00 0.147470133886D-04 0.000000000000D+00  6 -2 22 9900012 11 -1 21 2 0.13826151D-01 0.68587454D-01 0.61070517D+04 0.61070517D+04 0.61070517D+04 0.12321868D+01  1  2 15  1  6  1       -2 -.612157518992D-05 0.100000000000D+01
0.141815810958D-05 0.000000000000D+00 0.000000000000D+00 0.147470133886D-04 0.000000000000D+00  6 -2 22 9900012 11 -1 21 2 0.16221480D-01 0.68587454D-01 0.85388541D+04 0.85388541D+04 0.85388541D+04 0.12165078D+01  1  2 12  1  6  1       -2 0.129505196647D-04 0.100000000000D+01
-.686973448615D-07 0.000000000000D+00 0.000000000000D+00 0.147470133886D-04 0.000000000000D+00  6 -2 22 9900012 11 -1 21 2 0.13826151D-01 0.68587454D-01 0.61070517D+04 0.61070517D+04 0.61070517D+04 0.12321868D+01  1  2  4  1  6  1       -2 -.805319103624D-06 0.100000000000D+01
-.581638730580D-05 0.000000000000D+00 -.270142443692D-05 0.147470133886D-04 0.000000000000D+00  6 -2 22 9900012 11 -1 21 2 0.16194521D-01 0.68587454D-01 0.61070517D+04 0.61070517D+04 0.61070517D+04 0.12321868D+01  1  2  5  1  6  1       -2 -.533387856418D-04 0.100000000000D+01
0.619928119104D-05 0.000000000000D+00 0.266800598150D-05 0.147470133886D-04 0.000000000000D+00  6 -2 22 9900012 11 -1 21 2 0.13826151D-01 0.68587454D-01 0.61070517D+04 0.61070517D+04 0.61070517D+04 0.12321868D+01  1  2  6  1  6  1       -2 0.726723803074D-04 0.100000000000D+01
0.340357046633D-07 0.000000000000D+00 0.000000000000D+00 0.147470133886D-04 0.000000000000D+00  6 21 22 9900012 11 2 -1 2 0.16221480D-01 0.68587454D-01 0.85388541D+04 0.85388541D+04 0.85388541D+04 0.12165078D+01  3  4 12  3  5  1       -2 0.424114807818D-05 0.100000000000D+01
-.117824677964D-06 0.000000000000D+00 -.642928292513D-07 0.147470133886D-04 0.000000000000D+00  6 21 22 9900012 11 2 -1 2 0.16194521D-01 0.68587454D-01 0.61070517D+04 0.61070517D+04 0.61070517D+04 0.12321868D+01  3  4  5  3  5  1       -2 -.148211108690D-04 0.100000000000D+01
  </mgrwgt>
  </event>
  <event>
  6     66 0.85654518E-06 0.10167128E+03 0.78161638E-02 0.10356649E+00
       -2 -1    0    0    0  501 0.00000000E+00 0.00000000E+00 0.29325247E+03 0.29325247E+03 0.00000000E+00 0.0000E+00 0.9000E+01
       22 -1    0    0    0    0 0.00000000E+00 0.00000000E+00 -.45922020E+03 0.45922020E+03 0.00000000E+00 0.0000E+00 0.9000E+01
      -24  2    1    2    0    0 0.97745876E+02 -.27978444E+02 -.43962467E+03 0.46053917E+03 0.92138104E+02 0.0000E+00 0.0000E+00
  9900012  1    3    3    0    0 0.44823121E+02 -.67745994E+01 -.13854924E+03 0.15411327E+03 0.50000000E+02 0.0000E+00 0.9000E+01
       11  1    3    3    0    0 0.52922754E+02 -.21203845E+02 -.30107543E+03 0.30642591E+03 0.00000000E+00 0.0000E+00 0.9000E+01
       -1  1    1    2    0  501 -.97745876E+02 0.27978444E+02 0.27365694E+03 0.29193350E+03 0.00000000E+00 0.0000E+00 0.9000E+01
#aMCatNLO 1  0  0  1  5 0.21184930D+02 0.00000000D+00  -5  6  0 0.00000000D+00 0.00000000D+00 0.00000000D+00 0.00000000D+00 0.00000000D+00
  <mgrwgt>
 0.8185202093D-04    3    2    0
 0.366970653867789D+03 0.000000000000000D+00 0.000000000000000D+00 0.366970653867789D+03
 0.366970653867789D+03 0.000000000000000D+00 0.000000000000000D+00 -.366970653867789D+03
 0.126674052313831D+03 0.448231210833388D+02 -.677459936586433D+01 -.107197519324785D+03
 0.246080054568353D+03 0.529227544297370D+02 -.212038446302708D+02 -.239384569872055D+03
 0.361187200853393D+03 -.977458755130757D+02 0.279784439961351D+02 0.346582089196840D+03
 0.000000000000000D+00 -.000000000000000D+00 0.000000000000000D+00 -.000000000000000D+00
 0.385222805785202D+03 0.000000000000000D+00 0.000000000000000D+00 0.385222805785202D+03
 0.136809017670072D+04 0.000000000000000D+00 0.000000000000000D+00 -.136809017670072D+04
 0.133196545413572D+03 0.485707786122013D+02 -.372946514359179D+02 -.107197519324785D+03
 0.259667899314172D+03 0.602162695239796D+02 -.806005367601323D+02 -.239384569872055D+03
 0.361920358494108D+03 -.873177643197935D+02 -.569456703766845D+02 0.346582089196840D+03
 0.998528179264074D+03 -.214692838163875D+02 0.174840858572735D+03 -.982867370915520D+03
0.946017042676D-04 0.000000000000D+00 0.000000000000D+00 0.119481071902D-05 0.000000000000D+00  6 -2 22 9900012 11 -1 21 0 0.45115765D-01 0.70649262D-01 0.12788731D+05 0.12788731D+05 0.12788731D+05 0.11984125D+01  1  2  2  1  6  1       -2 0.100887610205D-03 0.100000000000D+01
0.120960191877D-05 0.000000000000D+00 -.181647726794D-06 0.119481071902D-05 0.000000000000D+00  6 -2 22 9900012 11 -1 21 2 0.45115765D-01 0.70649262D-01 0.12788731D+05 0.12788731D+05 0.12788731D+05 0.11984125D+01  1  2  3  1  6  1       -2 0.185265250664D-05 0.100000000000D+01
-.136379905312D-04 0.000000000000D+00 0.000000000000D+00 0.119481071902D-05 0.000000000000D+00  6 -2 22 9900012 11 -1 21 2 0.45115765D-01 0.70649262D-01 0.12788731D+05 0.12788731D+05 0.12788731D+05 0.11984125D+01  1  2 15  1  6  1       -2 -.208882417853D-04 0.100000000000D+01
  </mgrwgt>
  </event>
  <event>
  6     66 0.85654518E-06 0.37650625E+02 0.78161638E-02 0.11668443E+00
       -4 -1    0    0    0  501 0.00000000E+00 0.00000000E+00 0.26453475E+03 0.26453475E+03 0.00000000E+00 0.0000E+00 0.9000E+01
       22 -1    0    0    0    0 0.00000000E+00 0.00000000E+00 -.79522289E+02 0.79522289E+02 0.00000000E+00 0.0000E+00 0.9000E+01
      -24  2    1    2    0    0 0.72929585E+02 0.37770629E+02 -.26226751E+02 0.11741338E+03 0.79703914E+02 0.0000E+00 0.0000E+00
  9900012  1    3    3    0    0 0.40136191E+02 0.22609379E+02 0.69787658E+01 0.68343259E+02 0.50000000E+02 0.0000E+00 0.9000E+01
       11  1    3    3    0    0 0.32793394E+02 0.15161250E+02 -.33205517E+02 0.49070119E+02 0.00000000E+00 0.0000E+00 0.9000E+01
       -3  1    1    2    0  501 -.72929585E+02 -.37770629E+02 0.21123921E+03 0.22664366E+03 0.00000000E+00 0.0000E+00 0.9000E+01
#aMCatNLO 1  0  0  5  1 0.32243056D+02 0.00000000D+00  -5  6  0 0.00000000D+00 0.00000000D+00 0.00000000D+00 0.00000000D+00 0.00000000D+00
  <mgrwgt>
 0.2270287746D-04    5    2    0
 0.145039336202583D+03 0.000000000000000D+00 0.000000000000000D+00 0.145039336202583D+03
 0.145039336202583D+03 -.000000000000000D+00 -.000000000000000D+00 -.145039336202583D+03
 0.766096334369118D+02 0.401361912442914D+02 0.226093785773821D+02 -.353120105358542D+02
 0.793796872351160D+02 0.327933941849693D+02 0.151612501702485D+02 -.706814299278756D+02
 0.134089351733139D+03 -.729295854292607D+02 -.377706287476305D+02 0.105993440463730D+03
 0.000000000000000D+00 -.000000000000000D+00 0.000000000000000D+00 0.000000000000000D+00
 0.145039336202583D+03 0.000000000000000D+00 0.000000000000000D+00 0.145039336202583D+03
 0.145039336202583D+03 -.000000000000000D+00 -.000000000000000D+00 -.145039336202583D+03
 0.735310487039983D+02 0.378071623669632D+02 0.214031618609385D+02 -.319270772170319D+02
 0.750572674073651D+02 0.303977201946820D+02 0.139205175875127D+02 -.671996368124284D+02
 0.581875079836640D+02 -.105320930305155D+01 -.294301700613549D+02 0.501850767227934D+02
 0.833028483101391D+02 -.671516732585936D+02 -.589350938709626D+01 0.489416373066670D+02
0.283010151576D-05 0.000000000000D+00 0.000000000000D+00 0.288529907895D-05 0.000000000000D+00  6 -4 22 9900012 11 -3 21 0 0.40697654D-01 0.12234198D-01 0.86717613D+04 0.86717613D+04 0.86717613D+04 0.12157998D+01  1  2  2  2  6  5       -3 0.285499644349D-04 0.100000000000D+01
-.279631787379D-08 0.000000000000D+00 -.543416750168D-08 0.288529907895D-05 0.000000000000D+00  6 -4 22 9900012 11 -3 21 2 0.40697654D-01 0.12234198D-01 0.86717613D+04 0.86717613D+04 0.86717613D+04 0.12157998D+01  1  2  3  2  6  5       -3 -.416979064107D-07 0.100000000000D+01
-.424432670609D-06 0.000000000000D+00 0.000000000000D+00 0.288529907895D-05 0.000000000000D+00  6 -4 22 9900012 11 -3 21 2 0.40697654D-01 0.12234198D-01 0.86717613D+04 0.86717613D+04 0.86717613D+04 0.12157998D+01  1  2 15  2  6  5       -3 -.632902072491D-05 0.100000000000D+01
0.101209462571D-05 0.000000000000D+00 0.000000000000D+00 0.288529907895D-05 0.000000000000D+00  6 -4 22 9900012 11 -3 21 2 0.40697654D-01 0.12234198D-01 0.96560483D+04 0.96560483D+04 0.96560483D+04 0.12109086D+01  1  2 12  2  6  5       -3 0.151266538929D-04 0.100000000000D+01
-.979298377624D-06 0.000000000000D+00 0.000000000000D+00 0.288529907895D-05 0.000000000000D+00  6 -4 22 9900012 11 -3 21 2 0.40697654D-01 0.12234198D-01 0.86717613D+04 0.86717613D+04 0.86717613D+04 0.12157998D+01  1  2  5  2  6  5       -3 -.146030222390D-04 0.100000000000D+01
  </mgrwgt>
  </event>
  <event>
  6     66 0.85654518E-06 0.54244672E+02 0.78161638E-02 0.12320310E+00
       -4 -1    0    0    0  501 0.00000000E+00 0.00000000E+00 0.69927154E+02 0.69927154E+02 0.00000000E+00 0.0000E+00 0.9000E+01
       22 -1    0    0    0    0 -.00000000E+00 -.00000000E+00 -.18721398E+03 0.18721398E+03 0.00000000E+00 0.0000E+00 0.9000E+01
      -24  2    1    2    0    0 0.30266175E+02 0.45016031E+02 -.16086651E+03 0.18755900E+03 0.79736195E+02 0.0000E+00 0.0000E+00
  9900012  1    3    3    0    0 0.11074072E+02 0.42277057E+02 -.77930276E+02 0.10238707E+03 0.50000000E+02 0.0000E+00 0.9000E+01
       11  1    3    3    0    0 0.19192104E+02 0.27389741E+01 -.82936230E+02 0.85171926E+02 0.00000000E+00 0.0000E+00 0.9000E+01
       -3  1    1    2    0  501 -.30266175E+02 -.45016031E+02 0.43579682E+02 0.69582133E+02 0.00000000E+00 0.0000E+00 0.9000E+01
#aMCatNLO 1  0  0  5  5 0.42494805D+02 0.00000000D+00  -5  6  0 0.00000000D+00 0.00000000D+00 0.00000000D+00 0.00000000D+00 0.00000000D+00
  <mgrwgt>
 0.3970723841D-04    3    2    0
 0.114417396318992D+03 0.000000000000000D+00 0.000000000000000D+00 0.114417396318992D+03
 0.114417396318992D+03 -.000000000000000D+00 -.000000000000000D+00 -.114417396318992D+03
 0.751097890814353D+02 0.110740715437872D+02 0.422770572483745D+02 -.350926742457517D+02
 0.531994213487451D+02 0.191921039097379D+02 0.273897413272823D+01 -.495412918691004D+02
 0.100525582207804D+03 -.302661754535251D+02 -.450160313811028D+02 0.846339661148521D+02
 0.000000000000000D+00 0.000000000000000D+00 0.000000000000000D+00 0.000000000000000D+00
 0.114417396318992D+03 0.000000000000000D+00 0.000000000000000D+00 0.114417396318992D+03
 0.114417396318992D+03 -.000000000000000D+00 -.000000000000000D+00 -.114417396318992D+03
 0.650774693504666D+02 0.623809550797308D+01 0.350843265605890D+02 -.215697290498577D+02
 0.433032492710944D+02 0.158630952128719D+02 -.221238684104924D+01 -.402323122895944D+02
 0.327568745080854D+02 -.266226198408859D+02 0.742484177435259D+00 -.190708588582786D+02
 0.876971995083378D+02 0.452142912004095D+01 -.336144238969751D+02 0.808729001977308D+02
0.174371542144D-05 0.000000000000D+00 0.000000000000D+00 0.216474165333D-05 0.000000000000D+00  6 -4 22 9900012 11 -3 21 0 0.10758024D-01 0.28802150D-01 0.49027269D+04 0.49027269D+04 0.49027269D+04 0.12428077D+01  1  2  2  2  6  5       -3 0.510928893146D-04 0.100000000000D+01
0.175985643745D-07 0.000000000000D+00 -.334816317458D-08 0.216474165333D-05 0.000000000000D+00  6 -4 22 9900012 11 -3 21 2 0.10758024D-01 0.28802150D-01 0.49027269D+04 0.49027269D+04 0.49027269D+04 0.12428077D+01  1  2  3  2  6  5       -3 0.796470934395D-06 0.100000000000D+01
-.269172227231D-06 0.000000000000D+00 0.000000000000D+00 0.216474165333D-05 0.000000000000D+00  6 -4 22 9900012 11 -3 21 2 0.10758024D-01 0.28802150D-01 0.49027269D+04 0.49027269D+04 0.49027269D+04 0.12428077D+01  1  2 15  2  6  5       -3 -.121821218353D-04 0.100000000000D+01
  </mgrwgt>
  </event>
  <event>
  7     66 -.85654518E-06 0.37242747E+02 0.78161638E-02 0.12074702E+00
       -4 -1    0    0    0  501 0.00000000E+00 0.00000000E+00 0.25135569E+02 0.25135569E+02 0.00000000E+00 0.0000E+00 0.9000E+01
       22 -1    0    0    0    0 -.00000000E+00 -.00000000E+00 -.30907594E+03 0.30907594E+03 0.00000000E+00 0.0000E+00 0.9000E+01
      -24  2    1    2    0    0 0.20688645E+02 -.51945672E+02 -.21336767E+03 0.23462143E+03 0.79969237E+02 0.0000E+00 0.0000E+00
  9900012  1    3    3    0    0 0.31345272E+02 -.40964297E+02 -.20491001E+03 0.21713754E+03 0.50000000E+02 0.0000E+00 0.9000E+01
       11  1    3    3    0    0 -.10656628E+02 -.10981375E+02 -.84576632E+01 0.17483889E+02 0.00000000E+00 0.0000E+00 0.9000E+01
       -3  1    1    2    0  502 0.65444061E+00 0.48083179E+02 -.43002732E+02 0.64510893E+02 0.00000000E+00 0.0000E+00 0.9000E+01
       21  1    1    2  502  501 -.21343085E+02 0.38624933E+01 -.27569963E+02 0.35079182E+02 0.00000000E+00 0.0000E+00 0.9000E+01
#aMCatNLO 2  0  0  5  1 0.19391767D+02 0.00000000D+00  -5  6  0 0.00000000D+00 0.00000000D+00 0.00000000D+00 0.00000000D+00 0.00000000D+00
  <mgrwgt>
 -.1662640932D-04    2    2    0
 0.881407933986076D+02 0.000000000000000D+00 0.000000000000000D+00 0.881407933986076D+02
 0.881407933986076D+02 -.000000000000000D+00 -.000000000000000D+00 -.881407933986076D+02
 0.866613035109672D+02 0.335346543033852D+02 -.464614628531651D+02 -.415564791159739D+02
 0.196183069340823D+02 -.101473595890509D+02 -.122600610448837D+02 0.114717027291541D+02
 0.700019763521659D+02 -.233872947143343D+02 0.587215238980488D+02 0.300847763868198D+02
 0.000000000000000D+00 -.000000000000000D+00 0.000000000000000D+00 0.000000000000000D+00
 0.881407933986076D+02 0.000000000000000D+00 0.000000000000000D+00 0.881407933986076D+02
 0.881407933986076D+02 -.000000000000000D+00 -.000000000000000D+00 -.881407933986076D+02
 0.816173785949802D+02 0.313452724568510D+02 -.409642969776944D+02 -.387401181779996D+02
 0.195246989784060D+02 -.106566278189366D+02 -.109813750362186D+02 0.121268114539623D+02
 0.530405434172906D+02 0.654440605341708D+00 0.480831787357017D+02 0.223803234151371D+02
 0.220989658065384D+02 -.213430852432561D+02 0.386249327821127D+01 0.423298330890014D+01
-.295913089835D-06 0.000000000000D+00 0.000000000000D+00 0.271648872973D-06 0.000000000000D+00  6 -4 22 9900012 11 -3 21 2 0.38670106D-02 0.47550144D-01 0.61557220D+04 0.61557220D+04 0.61557220D+04 0.12318084D+01  1  2 13  2  6  5       -3 -.303231165574D-04 0.100000000000D+01
0.133661556610D-06 0.000000000000D+00 0.000000000000D+00 0.271648872973D-06 0.182087394283D-08  6 -4 22 9900012 11 -3 21 2 0.38670106D-02 0.47550144D-01 0.61557220D+04 0.61557220D+04 0.61557220D+04 0.12318084D+01  1  2  1  2  6  5       -3 0.136967072413D-04 0.100000000000D+01
  </mgrwgt>
  </event>
  <event>
  6     66 0.85654518E-06 0.27955060E+02 0.78161638E-02 0.12456224E+00
       -2 -1    0    0    0  501 0.00000000E+00 0.00000000E+00 0.10138022E+03 0.10138022E+03 0.00000000E+00 0.0000E+00 0.9000E+01
       22 -1    0    0    0    0 0.00000000E+00 0.00000000E+00 -.42966033E+02 0.42966033E+02 0.00000000E+00 0.0000E+00 0.9000E+01
      -24  2    1    2    0    0 0.54078684E+01 -.40754088E+02 0.30640602E+02 0.94732616E+02 0.79657274E+02 0.0000E+00 0.0000E+00
  9900012  1    3    3    0    0 -.38486429E+01 -.35305644E+01 0.10301761E+02 0.51316695E+02 0.50000000E+02 0.0000E+00 0.9000E+01
       11  1    3    3    0    0 0.92565113E+01 -.37223524E+02 0.20338841E+02 0.43415921E+02 0.00000000E+00 0.0000E+00 0.9000E+01
       -1  1    1    2    0  501 -.54078684E+01 0.40754088E+02 0.27773581E+02 0.49613632E+02 0.00000000E+00 0.0000E+00 0.9000E+01
#aMCatNLO 1  0  0  5  1 0.33336299D+01 0.00000000D+00  -5  6  0 0.00000000D+00 0.00000000D+00 0.00000000D+00 0.00000000D+00 0.00000000D+00
  <mgrwgt>
 0.1895514015D-04    6    2    0
 0.659992853967548D+02 0.000000000000000D+00 0.000000000000000D+00 0.659992853967548D+02
 0.659992853967548D+02 -.000000000000000D+00 -.000000000000000D+00 -.659992853967548D+02
 0.515581605494510D+02 -.384864286289939D+01 -.353056442046813D+01 -.114440806633708D+02
 0.384765415751285D+02 0.925651127534283D+01 -.372235236450614D+02 0.302828962247713D+01
 0.419638686689302D+02 -.540786841244344D+01 0.407540880655295D+02 0.841579104089370D+01
 0.000000000000000D+00 0.000000000000000D+00 0.000000000000000D+00 0.000000000000000D+00
 0.659992853967548D+02 0.000000000000000D+00 0.000000000000000D+00 0.659992853967548D+02
 0.659992853967548D+02 -.000000000000000D+00 -.000000000000000D+00 -.659992853967548D+02
 0.515082787712886D+02 -.391530643662033D+01 -.302818290024941D+01 -.113403379936743D+02
 0.381097122082171D+02 0.920697513720955D+01 -.368502157200267D+02 0.310537836719274D+01
 0.483217571603323D+01 -.173144148550529D+01 0.279503773898282D+01 0.354115751846125D+01
 0.375484040979709D+02 -.356022721508393D+01 0.370833608812933D+02 0.469380210802026D+01
0.148618089801D-06 0.000000000000D+00 0.000000000000D+00 0.695835678186D-07 0.000000000000D+00  6 -2 22 9900012 11 -1 21 0 0.15596956D-01 0.66101589D-02 0.42081517D+04 0.42081517D+04 0.42081517D+04 0.12503665D+01  1  2  2  2  6  5       -1 0.318125067535D-04 0.100000000000D+01
-.268256660660D-08 0.000000000000D+00 -.285366298438D-09 0.695835678186D-07 0.000000000000D+00  6 -2 22 9900012 11 -1 21 2 0.15596956D-01 0.66101589D-02 0.42081517D+04 0.42081517D+04 0.42081517D+04 0.12503665D+01  1  2  3  2  6  5       -1 -.897741729363D-06 0.100000000000D+01
-.198251192024D-07 0.000000000000D+00 0.000000000000D+00 0.695835678186D-07 0.000000000000D+00  6 -2 22 9900012 11 -1 21 2 0.15596956D-01 0.66101589D-02 0.42081517D+04 0.42081517D+04 0.42081517D+04 0.12503665D+01  1  2 15  2  6  5       -1 -.663462996736D-05 0.100000000000D+01
0.159883098042D-08 0.000000000000D+00 0.000000000000D+00 0.695835678186D-07 0.000000000000D+00  6 -2 22 9900012 11 -1 21 2 0.15596956D-01 0.66101589D-02 0.41453718D+04 0.41453718D+04 0.41453718D+04 0.12511176D+01  1  2 12  2  6  5       -1 0.534831338368D-06 0.100000000000D+01
-.461258847282D-07 0.000000000000D+00 0.000000000000D+00 0.695835678186D-07 0.000000000000D+00  6 -2 22 9900012 11 -1 21 2 0.15596956D-01 0.66101589D-02 0.42081517D+04 0.42081517D+04 0.42081517D+04 0.12503665D+01  1  2  5  2  6  5       -1 -.154363852224D-04 0.100000000000D+01
0.286282760294D-07 0.000000000000D+00 0.000000000000D+00 0.695835678186D-07 0.175424184047D-08  6 -2 22 9900012 11 -1 21 2 0.15596956D-01 0.66101589D-02 0.41453718D+04 0.41453718D+04 0.41453718D+04 0.12511176D+01  1  2 11  2  6  5       -1 0.957655898059D-05 0.100000000000D+01
  </mgrwgt>
  </event>
  <event>
  7     66 -.85654518E-06 0.65043169E+02 0.78161638E-02 0.11737372E+00
       -2 -1    0    0    0  502 0.00000000E+00 0.00000000E+00 0.20642972E+03 0.20642972E+03 0.00000000E+00 0.0000E+00 0.9000E+01
       22 -1    0    0    0    0 0.00000000E+00 0.00000000E+00 -.50412242E+02 0.50412242E+02 0.00000000E+00 0.0000E+00 0.9000E+01
      -24  2    1    2    0    0 0.95945093E+01 0.70751480E+02 0.43978753E+02 0.11463109E+03 0.78155806E+02 0.0000E+00 0.0000E+00
  9900012  1    3    3    0    0 -.15518884E+02 0.45388160E+02 0.21925961E+02 0.72675089E+02 0.50000000E+02 0.0000E+00 0.9000E+01
       11  1    3    3    0    0 0.25113394E+02 0.25363320E+02 0.22052793E+02 0.41956003E+02 0.00000000E+00 0.0000E+00 0.9000E+01
       -1  1    1    2    0  501 -.21889614E+02 -.67911927E+02 0.77038174E+02 0.10500507E+03 0.00000000E+00 0.0000E+00 0.9000E+01
       21  1    1    2  501  502 0.12295105E+02 -.28395533E+01 0.35000547E+02 0.37205793E+02 0.00000000E+00 0.0000E+00 0.9000E+01
#aMCatNLO 2  0  0  1  5 0.13384554D+02 0.00000000D+00  -5  6  0 0.00000000D+00 0.00000000D+00 0.00000000D+00 0.00000000D+00 0.00000000D+00
  <mgrwgt>
 -.8692895302D-05    2    2    0
 0.914271784274329D+02 0.000000000000000D+00 0.000000000000000D+00 0.914271784274329D+02
 0.914271784274329D+02 0.000000000000000D+00 0.000000000000000D+00 -.914271784274329D+02
 0.710345510353454D+02 -.106952930654068D+02 0.442741522901730D+02 -.217098499770201D+02
 0.370953469127334D+02 0.275583874300732D+02 0.247986491717209D+02 -.127555638367422D+01
 0.747244589067870D+02 -.168630943646664D+02 -.690728014618939D+02 0.229854063606943D+02
 0.000000000000000D+00 0.000000000000000D+00 -.000000000000000D+00 0.000000000000000D+00
 0.111070025003717D+03 0.000000000000000D+00 0.000000000000000D+00 0.111070025003717D+03
 0.936939083458411D+02 0.000000000000000D+00 0.000000000000000D+00 -.936939083458411D+02
 0.726101814064667D+02 -.155188843125683D+02 0.453881602133024D+02 -.217098499770201D+02
 0.357156491874116D+02 0.251133936073582D+02 0.253633202541037D+02 -.127555638367422D+01
 0.749634175749881D+02 -.218896144363033D+02 -.679119271467521D+02 0.229854063606943D+02
 0.214746851806913D+02 0.122951051415133D+02 -.283955332065391D+01 0.173761166578756D+02
-.421244642995D-06 0.000000000000D+00 0.000000000000D+00 0.410943359749D-07 0.000000000000D+00  6 -2 22 9900012 11 -1 21 2 0.32545796D-01 0.75680957D-02 0.89257926D+04 0.89257926D+04 0.89257926D+04 0.12144800D+01  1  2 13  1  6  1       -2 -.358005901921D-04 0.100000000000D+01
0.316484055191D-06 0.000000000000D+00 0.000000000000D+00 0.410943359749D-07 0.167710632105D-08  6 -2 22 9900012 11 -1 21 2 0.31758418D-01 0.77557295D-02 0.89257926D+04 0.89257926D+04 0.89257926D+04 0.12144800D+01  1  2  1  1  6  1       -2 0.271076948897D-04 0.100000000000D+01
  </mgrwgt>
  </event>
  <event>
  7     66 0.85654518E-06 0.82711773E+02 0.78161638E-02 0.11501182E+00
       -4 -1    0    0    0  502 0.00000000E+00 0.00000000E+00 0.26486051E+03 0.26486051E+03 0.00000000E+00 0.0000E+00 0.9000E+01
       22 -1    0    0    0    0 0.00000000E+00 0.00000000E+00 -.10408633E+03 0.10408633E+03 0.00000000E+00 0.0000E+00 0.9000E+01
      -24  2    1    2    0    0 0.83749255E+02 -.41328207E+02 -.51714188E+02 0.13328364E+03 0.79801082E+02 0.0000E+00 0.0000E+00
  9900012  1    3    3    0    0 0.46010915E+02 -.45842633E+02 -.48262013E+02 0.95119783E+02 0.50000000E+02 0.0000E+00 0.9000E+01
       11  1    3    3    0    0 0.37738340E+02 0.45144258E+01 -.34521753E+01 0.38163856E+02 0.00000000E+00 0.0000E+00 0.9000E+01
       -3  1    1    2    0  501 -.75070173E+02 0.44690015E+02 0.15946437E+03 0.18182853E+03 0.00000000E+00 0.0000E+00 0.9000E+01
       21  1    1    2  501  502 -.86790818E+01 -.33618079E+01 0.53023994E+02 0.53834674E+02 0.00000000E+00 0.0000E+00 0.9000E+01
#aMCatNLO 2  0  0  1  5 0.93968370D+01 0.00000000D+00  -5  6  0 0.00000000D+00 0.00000000D+00 0.00000000D+00 0.00000000D+00 0.00000000D+00
  <mgrwgt>
 0.1206681380D-04    2    2    0
 0.147985597244803D+03 0.000000000000000D+00 0.000000000000000D+00 0.147985597244803D+03
 0.147985597244803D+03 0.000000000000000D+00 0.000000000000000D+00 -.147985597244803D+03
 0.118012914575423D+03 0.425398662167584D+02 -.471871294073698D+02 -.859696609690800D+02
 0.407308456635146D+02 0.365275712277645D+02 0.404543913917066D+01 -.175605452887118D+02
 0.137227434250669D+03 -.790674374445229D+02 0.431416902681991D+02 0.103530206257792D+03
 0.000000000000000D+00 -.000000000000000D+00 -.000000000000000D+00 0.000000000000000D+00
 0.185473672007228D+03 0.000000000000000D+00 0.000000000000000D+00 0.185473672007228D+03
 0.148637586678180D+03 0.000000000000000D+00 0.000000000000000D+00 -.148637586678180D+03
 0.118782716946084D+03 0.460109148118051D+02 -.458426325175127D+02 -.859696609690800D+02
 0.418680680780949D+02 0.377383403692939D+02 0.451442575821259D+01 -.175605452887118D+02
 0.135466718983514D+03 -.750701734266899D+02 0.446900146124862D+02 0.103530206257792D+03
 0.379937546777148D+02 -.867908175440907D+01 -.336180785318611D+01 0.368360853290482D+02
-.333722940360D-05 0.000000000000D+00 0.000000000000D+00 0.187285884396D-05 0.000000000000D+00  6 -4 22 9900012 11 -3 21 2 0.40927296D-01 0.15943041D-01 0.11733990D+05 0.11733990D+05 0.11733990D+05 0.12021985D+01  1  2 13  1  6  1       -4 -.337176130265D-04 0.100000000000D+01
0.452007587975D-05 0.000000000000D+00 0.000000000000D+00 0.187285884396D-05 0.257138148200D-06  6 -4 22 9900012 11 -3 21 2 0.40747771D-01 0.16013282D-01 0.11733990D+05 0.11733990D+05 0.11733990D+05 0.12021985D+01  1  2  1  1  6  1       -4 0.457844268241D-04 0.100000000000D+01
  </mgrwgt>
  </event>
  <event>
  6     66 0.85654518E-06 0.46282333E+02 0.78161638E-02 0.12142173E+00
       -2 -1    0    0    0  501 0.00000000E+00 0.00000000E+00 0.71468672E+03 0.71468672E+03 0.00000000E+00 0.0000E+00 0.9000E+01
       22 -1    0    0    0    0 0.00000000E+00 0.00000000E+00 -.48871302E+02 0.48871302E+02 0.00000000E+00 0.0000E+00 0.9000E+01
      -24  2    1    2    0    0 0.16541906E+01 -.51442282E+02 0.38919614E+01 0.99636560E+02 0.85224714E+02 0.0000E+00 0.0000E+00
  9900012  1    3    3    0    0 0.18211705E+02 -.60417971E+02 0.57537401E+00 0.80512909E+02 0.50000000E+02 0.0000E+00 0.9000E+01
       11  1    3    3    0    0 -.16557514E+02 0.89756890E+01 0.33165874E+01 0.19123651E+02 0.00000000E+00 0.0000E+00 0.9000E+01
       -1  1    1    2    0  501 -.16541906E+01 0.51442282E+02 0.66192346E+03 0.66392146E+03 0.00000000E+00 0.0000E+00 0.9000E+01
#aMCatNLO 1  0  0  1  5 0.48993766D+00 0.00000000D+00  -5  6  0 0.00000000D+00 0.00000000D+00 0.00000000D+00 0.00000000D+00 0.00000000D+00
  <mgrwgt>
 0.4258613152D-04    9    4    0
 0.186889459980952D+03 0.000000000000000D+00 0.000000000000000D+00 0.186889459980952D+03
 0.186889459980952D+03 0.000000000000000D+00 0.000000000000000D+00 -.186889459980952D+03
 0.163447378268126D+03 0.182117047232700D+02 -.604179711692658D+02 -.142242919098232D+03
 0.331580548696880D+02 -.165575141602597D+02 0.897568899205593D+01 -.272899676564837D+02
 0.177173486824089D+03 -.165419056301025D+01 0.514422821772099D+02 0.169532886754715D+03
 0.000000000000000D+00 0.000000000000000D+00 -.000000000000000D+00 0.000000000000000D+00
 0.221017242996275D+03 0.000000000000000D+00 0.000000000000000D+00 0.221017242996275D+03
 0.186891378804403D+03 0.000000000000000D+00 0.000000000000000D+00 -.186891378804403D+03
 0.163366795290111D+03 0.181066903201932D+02 -.602313002966369D+02 -.142242919098232D+03
 0.331789776644499D+02 -.165788300774907D+02 0.901357961233087D+01 -.272899676564837D+02
 0.177233468085088D+03 -.176807128737063D+01 0.516447135920361D+02 0.169532886754715D+03
 0.341293807610292D+02 0.240211044668079D+00 -.426992907730131D+00 0.341258641918718D+02
 0.186889459980952D+03 0.000000000000000D+00 0.000000000000000D+00 0.186889459980952D+03
 0.186889459980952D+03 0.000000000000000D+00 0.000000000000000D+00 -.186889459980952D+03
 0.163447378268126D+03 0.182117047232700D+02 -.604179711692658D+02 -.142242919098232D+03
 0.331580548696880D+02 -.165575141602597D+02 0.897568899205593D+01 -.272899676564837D+02
 0.000000000000000D+00 0.000000000000000D+00 -.000000000000000D+00 0.000000000000000D+00
 0.177173486824089D+03 -.165419056301025D+01 0.514422821772099D+02 0.169532886754715D+03
 0.221017242996275D+03 0.000000000000000D+00 0.000000000000000D+00 0.221017242996275D+03
 0.186891378804403D+03 0.000000000000000D+00 0.000000000000000D+00 -.186891378804403D+03
 0.163366795290111D+03 0.181066903201932D+02 -.602313002966369D+02 -.142242919098232D+03
 0.331789776644499D+02 -.165788300774907D+02 0.901357961233087D+01 -.272899676564837D+02
 0.341293807610292D+02 0.240211044668079D+00 -.426992907730131D+00 0.341258641918718D+02
 0.177233468085088D+03 -.176807128737063D+01 0.516447135920361D+02 0.169532886754715D+03
0.427637645572D-07 0.000000000000D+00 0.000000000000D+00 0.512630673383D-06 0.000000000000D+00  6 -2 22 9900012 11 -1 21 0 0.10995180D+00 0.75186618D-02 0.56861843D+04 0.56861843D+04 0.56861843D+04 0.12356074D+01  1  2  2  1  6  1       -2 0.210813709420D-06 0.100000000000D+01
0.176798964501D-08 0.000000000000D+00 -.821120579287D-10 0.512630673383D-06 0.000000000000D+00  6 -2 22 9900012 11 -1 21 2 0.10995180D+00 0.75186618D-02 0.56861843D+04 0.56861843D+04 0.56861843D+04 0.12356074D+01  1  2  3  1  6  1       -2 0.133064933513D-07 0.100000000000D+01
-.677036476588D-08 0.000000000000D+00 0.000000000000D+00 0.512630673383D-06 0.000000000000D+00  6 -2 22 9900012 11 -1 21 2 0.10995180D+00 0.75186618D-02 0.56861843D+04 0.56861843D+04 0.56861843D+04 0.12356074D+01  1  2 15  1  6  1       -2 -.509560754482D-07 0.100000000000D+01
-.209724944629D-03 0.000000000000D+00 0.000000000000D+00 0.512630673383D-06 0.000000000000D+00  6 -2 22 9900012 11 -1 21 2 0.10995180D+00 0.75186618D-02 0.56861843D+04 0.56861843D+04 0.56861843D+04 0.12356074D+01  1  2  4  1  6  1       -2 -.157846149675D-02 0.100000000000D+01
-.233153967095D-03 0.000000000000D+00 -.284060604917D-07 0.512630673383D-06 0.000000000000D+00  6 -2 22 9900012 11 -1 21 2 0.13003057D+00 0.75186618D-02 0.56861843D+04 0.56861843D+04 0.56861843D+04 0.12356074D+01  1  2  5  1  6  1       -2 -.115801947314D-02 0.100000000000D+01
0.229917459582D-03 0.000000000000D+00 0.280111242601D-07 0.512630673383D-06 0.000000000000D+00  6 -2 22 9900012 11 -1 21 2 0.10995180D+00 0.75186618D-02 0.56861843D+04 0.56861843D+04 0.56861843D+04 0.12356074D+01  1  2  6  1  6  1       -2 0.173043725448D-02 0.100000000000D+01
0.211988356218D-03 0.000000000000D+00 0.000000000000D+00 0.512630673383D-06 0.160285603956D-04  6 -2 22 9900012 11 -1 21 2 0.13003004D+00 0.75187390D-02 0.57291802D+04 0.57291802D+04 0.57291802D+04 0.12352451D+01  1  2 11  1  6  1       -2 0.105262757855D-02 0.100000000000D+01
-.581621928427D-05 0.000000000000D+00 -.708642077615D-09 0.512630673383D-06 0.000000000000D+00  6 21 22 9900012 11 2 -1 2 0.13003057D+00 0.75186618D-02 0.56861843D+04 0.56861843D+04 0.56861843D+04 0.12356074D+01  3  4  5  3  5  1       -2 -.285543962451D-03 0.100000000000D+01
0.573409297256D-05 0.000000000000D+00 0.000000000000D+00 0.512630673383D-06 0.433500819075D-06  6 21 22 9900012 11 2 -1 2 0.13003004D+00 0.75187390D-02 0.57291802D+04 0.57291802D+04 0.57291802D+04 0.12352451D+01  3  4 11  3  5  1       -2 0.281373066694D-03 0.100000000000D+01
  </mgrwgt>
  </event>
</LesHouchesEvents>
