<LesHouchesEvents version="3.0">
  <!--
  <scalesfunctionalform>
    muR  H_T/2 := sum_i mT(i)/2, i=final state
    muF1 H_T/2 := sum_i mT(i)/2, i=final state
    muF2 H_T/2 := sum_i mT(i)/2, i=final state
    QES  H_T/2 := sum_i mT(i)/2, i=final state
  </scalesfunctionalform>
PYTHIA8   
  -->
  <header>
       57
  </header>
  <init>
   2212   2212 0.65000000D+04 0.65000000D+04 -1 -1  82200  82200 -4   1
 0.97767116D-04 0.16181346D-05 0.21666229D-05     66
  </init>
  <event>
  7     66 0.21666229E-05 0.10542555E+02 0.78161638E-02 0.13095376E+00
       22 -1    0    0    0    0 0.00000000E+00 0.00000000E+00 0.92115739E+03 0.92115739E+03 0.00000000E+00 0.0000E+00 0.9000E+01
        1 -1    0    0  501    0 0.00000000E+00 0.00000000E+00 -.10141455E+03 0.10141455E+03 0.00000000E+00 0.0000E+00 0.9000E+01
      -24  2    1    2    0    0 -.19935222E+01 0.51511057E+01 -.86525508E+02 0.11581803E+03 0.76789608E+02 0.0000E+00 0.0000E+00
  9900012  1    3    3    0    0 0.30160920E+01 -.11289781E+02 -.36708432E+02 0.63119450E+02 0.50000000E+02 0.0000E+00 0.9000E+01
       13  1    3    3    0    0 -.50096142E+01 0.16440887E+02 -.49817076E+02 0.52698577E+02 0.00000000E+00 0.0000E+00 0.9000E+01
        2  1    1    2  502    0 0.16570318E+00 0.10572431E+02 0.17815159E+03 0.17846510E+03 0.00000000E+00 0.0000E+00 0.9000E+01
       21  1    1    2  501  502 0.18278190E+01 -.15723536E+02 0.72811676E+03 0.72828881E+03 0.00000000E+00 0.0000E+00 0.9000E+01
#aMCatNLO 2  0  0  5  2 0.70484077D+01 0.00000000D+00  -5  6  0 0.00000000D+00 0.00000000D+00 0.00000000D+00 0.00000000D+00 0.00000000D+00
  <mgrwgt>
 0.8433696897D-03    1    2    0
 0.305644825113031D+03 0.000000000000000D+00 0.000000000000000D+00 0.305644825113031D+03
 0.305644825113031D+03 -.000000000000000D+00 -.000000000000000D+00 -.305644825113031D+03
 0.155150852270582D+03 0.301371026824680D+01 -.112836267452126D+02 -.146408279404485D+03
 0.155317090513330D+03 -.501199828089297D+01 0.164470470120794D+02 -.154362473170589D+03
 0.300821707442149D+03 0.199828801264637D+01 -.516342026686726D+01 0.300770752575074D+03
 0.000000000000000D+00 0.000000000000000D+00 -.000000000000000D+00 0.000000000000000D+00
 0.305644825113031D+03 0.000000000000000D+00 0.000000000000000D+00 0.305644825113031D+03
 0.305644825113031D+03 -.000000000000000D+00 -.000000000000000D+00 -.305644825113031D+03
 0.154813110519154D+03 0.301609198569392D+01 -.112897809172132D+02 -.146049797071379D+03
 0.154959726175185D+03 -.500961415952256D+01 0.164408866285287D+02 -.154003629012855D+03
 0.596360725965070D+02 0.165703182883974D+00 0.105724305422671D+02 0.586912038521957D+02
 0.241880740935216D+03 0.182781899094486D+01 -.157235362535831D+02 0.241362222232038D+03
0.243957052483D-03 0.000000000000D+00 0.000000000000D+00 0.466153833782D-04 0.276826115217D-06  6 22 1 9900012 13 2 21 2 0.14171652D+00 0.15602238D-01 0.22532930D+04 0.22532930D+04 0.22532930D+04 0.12828147D+01  1  2  1  2  6  5        2 0.843369689680D-03 0.100000000000D+01
  </mgrwgt>
  </event>
  <event>
  6     66 0.21666229E-05 0.15086184E+02 0.78161638E-02 0.13171751E+00
       22 -1    0    0    0    0 0.00000000E+00 0.00000000E+00 0.20640706E+03 0.20640706E+03 0.00000000E+00 0.0000E+00 0.9000E+01
        3 -1    0    0  501    0 0.00000000E+00 0.00000000E+00 -.11684870E+02 0.11684870E+02 0.00000000E+00 0.0000E+00 0.9000E+01
      -24  2    1    2    0    0 0.99058315E+01 -.11378376E+02 0.17953048E+03 0.19668210E+03 0.78899060E+02 0.0000E+00 0.0000E+00
  9900012  1    3    3    0    0 0.23115822E+02 0.84819455E+01 0.13730333E+03 0.14818397E+03 0.50000000E+02 0.0000E+00 0.9000E+01
       13  1    3    3    0    0 -.13209991E+02 -.19860321E+02 0.42227144E+02 0.48498123E+02 0.00000000E+00 0.0000E+00 0.9000E+01
        4  1    1    2  501    0 -.99058315E+01 0.11378376E+02 0.15191717E+02 0.21409839E+02 0.00000000E+00 0.0000E+00 0.9000E+01
#aMCatNLO 1  0  0  5  2 0.55034673D+01 0.00000000D+00  -5  6  0 0.00000000D+00 0.00000000D+00 0.00000000D+00 0.00000000D+00 0.00000000D+00
  <mgrwgt>
 0.3467788175D-04    8    2    0
 0.491104855138030D+02 0.000000000000000D+00 0.000000000000000D+00 0.491104855138030D+02
 0.491104855138030D+02 -.000000000000000D+00 -.000000000000000D+00 -.491104855138030D+02
 0.568282220164037D+02 0.231158221573788D+02 0.848194550831020D+01 0.110978459138773D+02
 0.239713296905038D+02 -.132099906352745D+02 -.198603212470795D+02 -.238504392194155D+01
 0.174214193206985D+02 -.990583152210428D+01 0.113783757387693D+02 -.871280199193579D+01
 0.000000000000000D+00 0.000000000000000D+00 0.000000000000000D+00 -.000000000000000D+00
 0.491104855138030D+02 0.000000000000000D+00 0.000000000000000D+00 0.491104855138030D+02
 0.491104855138030D+02 -.000000000000000D+00 -.000000000000000D+00 -.491104855138030D+02
 0.563593725837810D+02 0.218641305533327D+02 0.991970642198194D+01 0.999690440516236D+01
 0.238234224150814D+02 -.137385316837820D+02 -.192532103114794D+02 -.284992902421490D+01
 0.896550619899432D+01 -.496658177589887D+01 0.737808895080608D+01 0.113011959610833D+01
 0.907266982974934D+01 -.315901709365183D+01 0.195541493869137D+01 -.827709497705579D+01
0.403409387455D-07 0.000000000000D+00 0.000000000000D+00 0.101138623767D-06 0.000000000000D+00  6 22 3 9900012 13 4 21 0 0.31754933D-01 0.17976724D-02 0.22407262D+04 0.22407262D+04 0.22407262D+04 0.12831170D+01  1  2  2  2  6  5        4 0.175066843745D-04 0.100000000000D+01
0.199689043426D-08 0.000000000000D+00 -.774599133979D-10 0.101138623767D-06 0.000000000000D+00  6 22 3 9900012 13 4 21 2 0.31754933D-01 0.17976724D-02 0.22407262D+04 0.22407262D+04 0.22407262D+04 0.12831170D+01  1  2  3  2  6  5        4 0.142673946758D-05 0.100000000000D+01
-.640936355142D-11 0.000000000000D+00 0.000000000000D+00 0.101138623767D-06 0.000000000000D+00  6 22 3 9900012 13 4 21 2 0.31754933D-01 0.17976724D-02 0.22407262D+04 0.22407262D+04 0.22407262D+04 0.12831170D+01  1  2 15  2  6  5        4 -.457936589007D-08 0.100000000000D+01
0.640809977418D-08 0.000000000000D+00 0.000000000000D+00 0.101138623767D-06 0.000000000000D+00  6 22 3 9900012 13 4 21 2 0.31754933D-01 0.17976724D-02 0.21034723D+04 0.21034723D+04 0.21034723D+04 0.12865501D+01  1  2 12  2  6  5        4 0.455970706643D-05 0.100000000000D+01
-.143820741896D-07 0.000000000000D+00 0.000000000000D+00 0.101138623767D-06 0.000000000000D+00  6 22 3 9900012 13 4 21 2 0.31754933D-01 0.17976724D-02 0.22407262D+04 0.22407262D+04 0.22407262D+04 0.12831170D+01  1  2  4  2  6  5        4 -.102757129385D-04 0.100000000000D+01
-.972210015083D-08 0.000000000000D+00 0.000000000000D+00 0.101138623767D-06 0.000000000000D+00  6 22 3 9900012 13 4 21 2 0.31754933D-01 0.17976724D-02 0.22407262D+04 0.22407262D+04 0.22407262D+04 0.12831170D+01  1  2  5  2  6  5        4 -.694625190995D-05 0.100000000000D+01
0.186391524993D-07 0.000000000000D+00 -.000000000000D+00 0.101138623767D-06 0.000000000000D+00  6 22 3 9900012 13 4 21 2 0.31754933D-01 0.17976724D-02 0.22407262D+04 0.22407262D+04 0.22407262D+04 0.12831170D+01  1  2  6  2  6  5        4 0.133173127863D-04 0.100000000000D+01
0.212127101504D-07 0.000000000000D+00 0.000000000000D+00 0.101138623767D-06 0.131225200415D-06  6 22 3 9900012 13 4 21 2 0.31754933D-01 0.17976724D-02 0.21034723D+04 0.21034723D+04 0.21034723D+04 0.12865501D+01  1  2 11  2  6  5        4 0.150939822693D-04 0.100000000000D+01
  </mgrwgt>
  </event>
  <event>
  6     66 0.21666229E-05 0.83700548E+01 0.78161638E-02 0.12166382E+00
       22 -1    0    0    0    0 0.00000000E+00 0.00000000E+00 0.30932540E+01 0.30932540E+01 0.00000000E+00 0.0000E+00 0.9000E+01
        1 -1    0    0  501    0 0.00000000E+00 0.00000000E+00 -.12085504E+04 0.12085504E+04 0.00000000E+00 0.0000E+00 0.9000E+01
      -24  2    1    2    0    0 -.21708947E+01 0.80836275E+01 -.11970814E+04 0.11998026E+04 0.80326143E+02 0.0000E+00 0.0000E+00
  9900012  1    3    3    0    0 0.12338004E+02 0.12546872E+01 -.52311056E+03 0.52564100E+03 0.50000000E+02 0.0000E+00 0.9000E+01
       13  1    3    3    0    0 -.14508899E+02 0.68289403E+01 -.67397085E+03 0.67416159E+03 0.00000000E+00 0.0000E+00 0.9000E+01
        2  1    1    2  501    0 0.21708947E+01 -.80836275E+01 -.83757240E+01 0.11841054E+02 0.00000000E+00 0.0000E+00 0.9000E+01
#aMCatNLO 1  0  0  2  5 0.11778093D+02 0.00000000D+00  -5  6  0 0.00000000D+00 0.00000000D+00 0.00000000D+00 0.00000000D+00 0.00000000D+00
  <mgrwgt>
 0.3450457136D-03    3    2    0
 0.611420753110776D+02 0.000000000000000D+00 0.000000000000000D+00 0.611420753110776D+02
 0.611420753110776D+02 0.000000000000000D+00 0.000000000000000D+00 -.611420753110776D+02
 0.515374767840084D+02 0.123380038433647D+02 0.125468724955928D+01 -.152017575599479D+01
 0.359869599503317D+02 -.145088985140805D+02 0.682894027053577D+01 -.322167460361276D+02
 0.347597138878151D+02 0.217089467071578D+01 -.808362752009505D+01 0.337369217921224D+02
 0.000000000000000D+00 -.000000000000000D+00 -.000000000000000D+00 0.000000000000000D+00
 0.176629730608290D+03 0.000000000000000D+00 0.000000000000000D+00 0.176629730608290D+03
 0.746335367776872D+02 0.000000000000000D+00 0.000000000000000D+00 -.746335367776872D+02
 0.615427650504699D+02 0.315805841883012D+02 0.169666643172384D+02 -.152017575599479D+01
 0.364424177401447D+02 -.218377347956899D+01 0.168926676099661D+02 -.322167460361276D+02
 0.367010771212998D+02 0.143311977457516D+02 0.184551917572569D+01 0.337369217921224D+02
 0.116577007474063D+03 -.437280084544838D+02 -.357048511029301D+02 0.101996193830603D+03
0.986051591570D-06 0.000000000000D+00 0.000000000000D+00 0.272000650689D-05 0.000000000000D+00  6 22 1 9900012 13 2 21 0 0.47588524D-03 0.18593083D+00 0.14409909D+04 0.14409909D+04 0.14409909D+04 0.13077174D+01  1  2  2  1  6  2        1 0.330993352128D-03 0.100000000000D+01
-.522015651140D-07 0.000000000000D+00 -.189334887249D-08 0.272000650689D-05 0.000000000000D+00  6 22 1 9900012 13 2 21 2 0.47588524D-03 0.18593083D+00 0.14409909D+04 0.14409909D+04 0.14409909D+04 0.13077174D+01  1  2  3  1  6  2        1 -.299661492109D-04 0.100000000000D+01
0.766810288164D-07 0.000000000000D+00 0.000000000000D+00 0.272000650689D-05 0.000000000000D+00  6 22 1 9900012 13 2 21 2 0.47588524D-03 0.18593083D+00 0.14409909D+04 0.14409909D+04 0.14409909D+04 0.13077174D+01  1  2 15  1  6  2        1 0.440185106737D-04 0.100000000000D+01
  </mgrwgt>
  </event>
  <event>
  6     66 0.21666229E-05 0.19335586E+02 0.78161638E-02 0.12938763E+00
       22 -1    0    0    0    0 0.00000000E+00 0.00000000E+00 0.99618921E+00 0.99618921E+00 0.00000000E+00 0.0000E+00 0.9000E+01
        1 -1    0    0  501    0 0.00000000E+00 0.00000000E+00 -.27585163E+04 0.27585163E+04 0.00000000E+00 0.0000E+00 0.9000E+01
      -24  2    1    2    0    0 0.17710434E+02 -.77592165E+01 -.19152291E+04 0.19169996E+04 0.80068705E+02 0.0000E+00 0.0000E+00
  9900012  1    3    3    0    0 -.10139220E+02 -.61709680E+01 -.14696249E+04 0.14705231E+04 0.50000000E+02 0.0000E+00 0.9000E+01
       13  1    3    3    0    0 0.27849654E+02 -.15882485E+01 -.44560418E+03 0.44647644E+03 0.00000000E+00 0.0000E+00 0.9000E+01
        2  1    1    2  501    0 -.17710434E+02 0.77592165E+01 -.84229101E+03 0.84251291E+03 0.00000000E+00 0.0000E+00 0.9000E+01
#aMCatNLO 1  0  0  2  5 0.45932557D+01 0.00000000D+00  -5  6  0 0.00000000D+00 0.00000000D+00 0.00000000D+00 0.00000000D+00 0.00000000D+00
  <mgrwgt>
 0.1398658856D-03   11    2    0
 0.524214094033536D+02 0.000000000000000D+00 0.000000000000000D+00 0.524214094033536D+02
 0.524214094033536D+02 0.000000000000000D+00 0.000000000000000D+00 -.524214094033536D+02
 0.515694266611115D+02 -.101392204554478D+02 -.617096801179006D+01 -.430361807193083D+01
 0.314263110563604D+02 0.278496541614298D+02 -.158824845649274D+01 0.144736746039257D+02
 0.218470810892353D+02 -.177104337059820D+02 0.775921646828279D+01 -.101700565319948D+02
 0.000000000000000D+00 0.000000000000000D+00 0.000000000000000D+00 -.000000000000000D+00
 0.539992173040711D+02 0.000000000000000D+00 0.000000000000000D+00 0.539992173040711D+02
 0.542913725053825D+02 0.000000000000000D+00 0.000000000000000D+00 -.542913725053825D+02
 0.519786872559237D+02 -.115309581141636D+02 -.709223556500180D+01 -.430361807193083D+01
 0.307220925771467D+02 0.270143490023699D+02 -.214118279383210D+01 0.144736746039257D+02
 0.221965301821828D+02 -.183024015372974D+02 0.736736046573755D+01 -.101700565319948D+02
 0.339327979420046D+01 0.281901064909104D+01 0.186605789309634D+01 -.292155201311380D+00
0.206096331188D-06 0.000000000000D+00 0.000000000000D+00 0.117694524363D-06 0.000000000000D+00  6 22 1 9900012 13 2 21 0 0.15325988D-03 0.42438712D+00 0.24314776D+04 0.24314776D+04 0.24314776D+04 0.12787220D+01  1  2  2  1  6  2        1 0.314246432881D-04 0.100000000000D+01
0.568822411400D-08 0.000000000000D+00 -.395732089085D-09 0.117694524363D-06 0.000000000000D+00  6 22 1 9900012 13 2 21 2 0.15325988D-03 0.42438712D+00 0.24314776D+04 0.24314776D+04 0.24314776D+04 0.12787220D+01  1  2  3  1  6  2        1 0.141817246704D-05 0.100000000000D+01
0.220791744727D-08 0.000000000000D+00 0.000000000000D+00 0.117694524363D-06 0.000000000000D+00  6 22 1 9900012 13 2 21 2 0.15325988D-03 0.42438712D+00 0.24314776D+04 0.24314776D+04 0.24314776D+04 0.12787220D+01  1  2 15  1  6  2        1 0.550471934732D-06 0.100000000000D+01
0.637069210196D-07 0.000000000000D+00 0.000000000000D+00 0.117694524363D-06 0.000000000000D+00  6 22 1 9900012 13 2 21 2 0.15325988D-03 0.45275483D+00 0.26014866D+04 0.26014866D+04 0.26014866D+04 0.12751208D+01  1  2 12  1  6  2        1 0.117779668289D-04 0.100000000000D+01
-.418870477863D-07 0.000000000000D+00 0.000000000000D+00 0.117694524363D-06 0.000000000000D+00  6 22 1 9900012 13 2 21 2 0.15325988D-03 0.42438712D+00 0.24314776D+04 0.24314776D+04 0.24314776D+04 0.12787220D+01  1  2  4  1  6  2        1 -.104431641064D-04 0.100000000000D+01
-.205370221590D-05 0.000000000000D+00 -.319710890039D-06 0.117694524363D-06 0.000000000000D+00  6 22 1 9900012 13 2 21 2 0.15325988D-03 0.44445555D+00 0.24314776D+04 0.24314776D+04 0.24314776D+04 0.12787220D+01  1  2  5  1  6  2        1 -.415284604010D-03 0.100000000000D+01
0.206660879163D-05 0.000000000000D+00 0.319369932589D-06 0.117694524363D-06 0.000000000000D+00  6 22 1 9900012 13 2 21 2 0.15325988D-03 0.42438712D+00 0.24314776D+04 0.24314776D+04 0.24314776D+04 0.12787220D+01  1  2  6  1  6  2        1 0.515241247480D-03 0.100000000000D+01
0.319436932141D-07 0.000000000000D+00 0.000000000000D+00 0.117694524363D-06 0.170185617012D-07  6 22 1 9900012 13 2 21 2 0.15787278D-03 0.43952575D+00 0.26014866D+04 0.26014866D+04 0.26014866D+04 0.12751208D+01  1  2 11  1  6  2        1 0.653950256177D-05 0.100000000000D+01
0.952999473707D-09 0.000000000000D+00 0.000000000000D+00 0.117694524363D-06 0.000000000000D+00  6 22 21 9900012 13 2 -1 2 0.15325988D-03 0.45275483D+00 0.26014866D+04 0.26014866D+04 0.26014866D+04 0.12751208D+01  1  2 12  3  6  2        1 0.896598168266D-07 0.100000000000D+01
-.163798606626D-07 0.000000000000D+00 -.258752310994D-08 0.117694524363D-06 0.000000000000D+00  6 22 21 9900012 13 2 -1 2 0.15325988D-03 0.44445555D+00 0.24314776D+04 0.24314776D+04 0.24314776D+04 0.12787220D+01  1  2  5  3  6  2        1 -.172378606824D-05 0.100000000000D+01
0.257501969388D-08 0.000000000000D+00 0.000000000000D+00 0.117694524363D-06 0.537122877466D-09  6 22 21 9900012 13 2 -1 2 0.15787278D-03 0.43952575D+00 0.26014866D+04 0.26014866D+04 0.26014866D+04 0.12751208D+01  1  2 11  3  6  2        1 0.275775413603D-06 0.100000000000D+01
  </mgrwgt>
  </event>
  <event>
  6     66 0.21666229E-05 0.97834104E+01 0.78161638E-02 0.12099100E+00
       22 -1    0    0    0    0 0.00000000E+00 0.00000000E+00 0.20931907E+02 0.20931907E+02 0.00000000E+00 0.0000E+00 0.9000E+01
        3 -1    0    0  501    0 0.00000000E+00 0.00000000E+00 -.10971433E+03 0.10971433E+03 0.00000000E+00 0.0000E+00 0.9000E+01
      -24  2    1    2    0    0 0.70898033E+00 -.97576876E+01 -.60502053E+02 0.10072142E+03 0.79928666E+02 0.0000E+00 0.0000E+00
  9900012  1    3    3    0    0 0.36159859E+01 0.14494200E+02 -.25609417E+02 0.58129161E+02 0.50000000E+02 0.0000E+00 0.9000E+01
       13  1    3    3    0    0 -.29070056E+01 -.24251887E+02 -.34892636E+02 0.42592262E+02 0.00000000E+00 0.0000E+00 0.9000E+01
        4  1    1    2  501    0 -.70898033E+00 0.97576876E+01 -.28280373E+02 0.29924816E+02 0.00000000E+00 0.0000E+00 0.9000E+01
#aMCatNLO 1  0  0  2  5 0.78907324D+01 0.00000000D+00  -5  6  0 0.00000000D+00 0.00000000D+00 0.00000000D+00 0.00000000D+00 0.00000000D+00
  <mgrwgt>
 0.3108055802D-04    5    2    0
 0.479221262033633D+02 0.000000000000000D+00 0.000000000000000D+00 0.479221262033633D+02
 0.479221262033633D+02 0.000000000000000D+00 0.000000000000000D+00 -.479221262033633D+02
 0.555139203660423D+02 0.361598590066631D+01 0.144941996525518D+02 0.189377447655584D+02
 0.257361907605344D+02 -.290700557359986D+01 -.242518872068232D+02 -.810844006977917D+01
 0.145941412801499D+02 -.708980327066449D+00 0.975768755427143D+01 -.108293046957792D+02
 0.000000000000000D+00 0.000000000000000D+00 -.000000000000000D+00 -.000000000000000D+00
 0.787929474587716D+02 0.000000000000000D+00 0.000000000000000D+00 0.787929474587716D+02
 0.837188804137207D+02 0.000000000000000D+00 0.000000000000000D+00 -.837188804137207D+02
 0.687976048029184D+02 -.147177948951640D+02 0.407168118009869D+02 0.189377447655584D+02
 0.193489339966077D+02 -.955627476506572D+01 -.147415080318958D+02 -.810844006977917D+01
 0.212976492576539D+02 -.600239313972056D+01 0.173287997364000D+02 -.108293046957792D+02
 0.530676398153123D+02 0.302764627999502D+02 -.433041035054912D+02 -.492593295494917D+01
0.644553298095D-07 0.000000000000D+00 0.000000000000D+00 0.274289256744D-06 0.000000000000D+00  6 22 3 9900012 13 4 21 0 0.32202933D-02 0.16879128D-01 0.18659282D+04 0.18659282D+04 0.18659282D+04 0.12931399D+01  1  2  2  1  6  2        3 0.233361180961D-04 0.100000000000D+01
0.616468988058D-08 0.000000000000D+00 -.123762718973D-09 0.274289256744D-06 0.000000000000D+00  6 22 3 9900012 13 4 21 2 0.32202933D-02 0.16879128D-01 0.18659282D+04 0.18659282D+04 0.18659282D+04 0.12931399D+01  1  2  3  1  6  2        3 0.373226097806D-05 0.100000000000D+01
0.770613494373D-09 0.000000000000D+00 0.000000000000D+00 0.274289256744D-06 0.000000000000D+00  6 22 3 9900012 13 4 21 2 0.32202933D-02 0.16879128D-01 0.18659282D+04 0.18659282D+04 0.18659282D+04 0.12931399D+01  1  2 15  1  6  2        3 0.466549125736D-06 0.100000000000D+01
0.629707551725D-08 0.000000000000D+00 -.188940323915D-07 0.274289256744D-06 0.000000000000D+00  6 22 3 9900012 13 4 21 2 0.32202933D-02 0.47024711D-01 0.18659282D+04 0.18659282D+04 0.18659282D+04 0.12931399D+01  1  2  5  1  6  2        3 0.620872603971D-06 0.100000000000D+01
0.178488314215D-08 0.000000000000D+00 -.217195192545D-08 0.274289256744D-06 0.000000000000D+00  6 22 21 9900012 13 4 -3 2 0.32202933D-02 0.47024711D-01 0.18659282D+04 0.18659282D+04 0.18659282D+04 0.12931399D+01  1  2  5  3  6  2        3 0.292475721382D-05 0.100000000000D+01
  </mgrwgt>
  </event>
  <event>
  7     66 0.21666229E-05 0.61174543E+01 0.78161638E-02 0.12938556E+00
       22 -1    0    0    0    0 0.00000000E+00 0.00000000E+00 0.23996947E+03 0.23996947E+03 0.00000000E+00 0.0000E+00 0.9000E+01
        3 -1    0    0  502    0 0.00000000E+00 0.00000000E+00 -.54853958E+02 0.54853958E+02 0.00000000E+00 0.0000E+00 0.9000E+01
      -24  2    1    2    0    0 0.18423792E+01 0.60484694E+01 -.14098852E+02 0.81877819E+02 0.80406600E+02 0.0000E+00 0.0000E+00
  9900012  1    3    3    0    0 -.13648808E+02 0.23530489E+02 -.13559593E+02 0.58513558E+02 0.50000000E+02 0.0000E+00 0.9000E+01
       13  1    3    3    0    0 0.15491187E+02 -.17482020E+02 -.53925959E+00 0.23364261E+02 0.00000000E+00 0.0000E+00 0.9000E+01
        4  1    1    2  501    0 0.93801136E+01 -.45270321E+01 0.20118146E+03 0.20145089E+03 0.00000000E+00 0.0000E+00 0.9000E+01
       21  1    1    2  502  501 -.11222493E+02 -.15214372E+01 -.19670960E+01 0.11494720E+02 0.00000000E+00 0.0000E+00 0.9000E+01
#aMCatNLO 2  0  0  2  2 0.16604574D+02 0.00000000D+00  -5  6  0 0.00000000D+00 0.00000000D+00 0.00000000D+00 0.00000000D+00 0.00000000D+00
  <mgrwgt>
 0.6850504086D-04    1    2    0
 0.106239111817007D+03 0.000000000000000D+00 0.000000000000000D+00 0.106239111817007D+03
 0.106239111817007D+03 0.000000000000000D+00 0.000000000000000D+00 -.106239111817007D+03
 0.905161382283134D+02 -.184082783086743D+02 0.228852463753731D+02 -.695023169960253D+02
 0.309368180664345D+02 0.138412462560668D+02 -.177057031053527D+02 -.212606371423740D+02
 0.910252673392654D+02 0.456703205260751D+01 -.517954327002040D+01 0.907629541383993D+02
 0.000000000000000D+00 -.000000000000000D+00 -.000000000000000D+00 -.000000000000000D+00
 0.108544714945685D+03 0.000000000000000D+00 0.000000000000000D+00 0.108544714945685D+03
 0.121270531032535D+03 0.000000000000000D+00 0.000000000000000D+00 -.121270531032535D+03
 0.898362174297278D+02 -.136488081153846D+02 0.235304893976887D+02 -.695023169960253D+02
 0.315850059432224D+02 0.154911873212574D+02 -.174820200237678D+02 -.212606371423740D+02
 0.913586032902640D+02 0.938011360527615D+01 -.452703213714802D+01 0.907629541383993D+02
 0.170354193150057D+02 -.112224928111490D+02 -.152143723677293D+01 -.127258160868503D+02
0.117437350850D-05 0.000000000000D+00 0.000000000000D+00 0.705982580382D-05 0.173113243595D-06  6 22 3 9900012 13 4 21 2 0.36918380D-01 0.84390704D-02 0.26019874D+04 0.26019874D+04 0.26019874D+04 0.12751105D+01  1  2  1  1  6  2        3 0.685050408556D-04 0.100000000000D+01
  </mgrwgt>
  </event>
  <event>
  7     66 0.21666229E-05 0.80557009E+01 0.78161638E-02 0.13281010E+00
       22 -1    0    0    0    0 0.00000000E+00 0.00000000E+00 0.77260859E+03 0.77260859E+03 0.00000000E+00 0.0000E+00 0.9000E+01
        3 -1    0    0  502    0 0.00000000E+00 0.00000000E+00 -.10532592E+02 0.10532592E+02 0.00000000E+00 0.0000E+00 0.9000E+01
      -24  2    1    2    0    0 -.92248014E+01 -.20254460E+01 0.22015648E+03 0.23449417E+03 0.80183776E+02 0.0000E+00 0.0000E+00
  9900012  1    3    3    0    0 0.35976548E+01 -.21504943E+02 0.12256761E+03 0.13415746E+03 0.50000000E+02 0.0000E+00 0.9000E+01
       13  1    3    3    0    0 -.12822456E+02 0.19479497E+02 0.97588871E+02 0.10033670E+03 0.00000000E+00 0.0000E+00 0.9000E+01
        4  1    1    2  501    0 0.96300826E+00 -.14778153E+00 0.53985810E+03 0.53985898E+03 0.00000000E+00 0.0000E+00 0.9000E+01
       21  1    1    2  502  501 0.82617931E+01 0.21732275E+01 0.20614137E+01 0.87880356E+01 0.00000000E+00 0.0000E+00 0.9000E+01
#aMCatNLO 2  0  0  2  5 0.90791721D+01 0.00000000D+00  -5  6  0 0.00000000D+00 0.00000000D+00 0.00000000D+00 0.00000000D+00 0.00000000D+00
  <mgrwgt>
 0.2411901230D-02    1    2    0
 0.740399358840567D+02 0.000000000000000D+00 0.000000000000000D+00 0.740399358840567D+02
 0.740399358840567D+02 0.000000000000000D+00 0.000000000000000D+00 -.740399358840567D+02
 0.723600702895331D+02 0.763132220219692D+01 -.204439045578256D+02 -.475372428752756D+02
 0.233892236208585D+02 -.115077194600412D+02 0.198253322115413D+02 -.464589895688009D+01
 0.523305778577218D+02 0.387639725784429D+01 0.618572346284298D+00 0.521831418321557D+02
 0.000000000000000D+00 0.000000000000000D+00 0.000000000000000D+00 -.000000000000000D+00
 0.746874480591119D+02 0.000000000000000D+00 0.000000000000000D+00 0.746874480591119D+02
 0.108955007274355D+03 0.000000000000000D+00 0.000000000000000D+00 -.108955007274355D+03
 0.723546483498762D+02 0.359765478739985D+01 -.215049426337760D+02 -.475372428752756D+02
 0.237792041086843D+02 -.128224561483939D+02 0.194794966374248D+02 -.464589895688009D+01
 0.521922361636795D+02 0.963008260616143D+00 -.147781529291660D+00 0.521831418321557D+02
 0.353163667112266D+02 0.826179310037790D+01 0.217322752564288D+01 -.342675592152427D+02
0.289787777610D-04 0.000000000000D+00 0.000000000000D+00 0.569438218693D-05 0.109491732770D-04  6 22 3 9900012 13 4 21 2 0.11886286D+00 0.16203988D-02 0.19090494D+04 0.19090494D+04 0.19090494D+04 0.12918750D+01  1  2  1  1  6  2        3 0.241190122984D-02 0.100000000000D+01
  </mgrwgt>
  </event>
  <event>
  7     66 0.21666229E-05 0.16535471E+02 0.78161638E-02 0.13315085E+00
       22 -1    0    0    0    0 0.00000000E+00 0.00000000E+00 0.79779696E+02 0.79779696E+02 0.00000000E+00 0.0000E+00 0.9000E+01
       21 -1    0    0  501  502 0.00000000E+00 0.00000000E+00 -.82648906E+02 0.82648906E+02 0.00000000E+00 0.0000E+00 0.9000E+01
      -24  2    1    2    0    0 -.15737143E+02 -.12008604E+02 -.48748448E+02 0.95977323E+02 0.80270611E+02 0.0000E+00 0.0000E+00
  9900012  1    3    3    0    0 -.54318251E+01 -.46681413E+01 -.53742808E+01 0.50795464E+02 0.50000000E+02 0.0000E+00 0.9000E+01
       13  1    3    3    0    0 -.10305318E+02 -.73404628E+01 -.43374167E+02 0.45181859E+02 0.00000000E+00 0.0000E+00 0.9000E+01
        4  1    1    2  501    0 0.36429552E+01 -.22088500E+01 0.47522853E+02 0.47713433E+02 0.00000000E+00 0.0000E+00 0.9000E+01
       -3  1    1    2    0  502 0.12094188E+02 0.14217454E+02 -.16436144E+01 0.18737846E+02 0.00000000E+00 0.0000E+00 0.9000E+01
#aMCatNLO 2  0  0  2  2 0.25517196D+02 0.00000000D+00  -5  6  0 0.00000000D+00 0.00000000D+00 0.00000000D+00 0.00000000D+00 0.00000000D+00
  <mgrwgt>
 0.5446606682D-04    1    2    0
 0.712339908837042D+02 0.000000000000000D+00 0.000000000000000D+00 0.712339908837042D+02
 0.712339908837042D+02 0.000000000000000D+00 0.000000000000000D+00 -.712339908837042D+02
 0.502582350669902D+02 -.116268168516118D+01 0.350496602934168D+00 -.494120587297928D+01
 0.435891563142609D+02 -.656900624102750D+01 -.294820082790831D+01 -.429903572568632D+02
 0.486205903861574D+02 0.773168792618869D+01 0.259770422497414D+01 0.479315631298425D+02
 0.000000000000000D+00 0.000000000000000D+00 0.000000000000000D+00 -.000000000000000D+00
 0.804630953609227D+02 0.000000000000000D+00 0.000000000000000D+00 0.804630953609227D+02
 0.819469412356242D+02 0.000000000000000D+00 0.000000000000000D+00 -.819469412356242D+02
 0.507514707485767D+02 -.543182510999441D+01 -.466814134735740D+01 -.494120587297928D+01
 0.448135335938290D+02 -.103053181064218D+02 -.734046284766586D+01 -.429903572568632D+02
 0.481205245683820D+02 0.364295515061458D+01 -.220885002587041D+01 0.479315631298425D+02
 0.187245076857592D+02 0.120941880658016D+02 0.142174542208937D+02 -.148384587470144D+01
0.199647135021D-07 0.000000000000D+00 0.000000000000D+00 0.606375935008D-05 0.108118266114D-07  6 22 21 9900012 13 4 -3 2 0.12273799D-01 0.12715216D-01 0.18528129D+04 0.18528129D+04 0.18528129D+04 0.12935312D+01  1  2  1  3  6  2        3 0.544660668219D-04 0.100000000000D+01
  </mgrwgt>
  </event>
  <event>
  7     66 0.21666229E-05 0.48728830E+01 0.78161638E-02 0.13427653E+00
       22 -1    0    0    0    0 0.00000000E+00 0.00000000E+00 0.37753391E+01 0.37753391E+01 0.00000000E+00 0.0000E+00 0.9000E+01
        1 -1    0    0  501    0 -.00000000E+00 -.00000000E+00 -.22147785E+04 0.22147785E+04 0.00000000E+00 0.0000E+00 0.9000E+01
      -24  2    1    2    0    0 -.18029599E+01 -.84298182E+01 -.21605623E+04 0.21620274E+04 0.79111382E+02 0.0000E+00 0.0000E+00
  9900012  1    3    3    0    0 0.12010182E+02 0.75300995E+01 -.10705542E+04 0.10718149E+04 0.50000000E+02 0.0000E+00 0.9000E+01
       13  1    3    3    0    0 -.13813142E+02 -.15959918E+02 -.10900082E+04 0.10902125E+04 0.00000000E+00 0.0000E+00 0.9000E+01
        2  1    1    2  502    0 0.15222779E+01 0.22181440E+01 0.22272432E+01 0.34925786E+01 0.00000000E+00 0.0000E+00 0.9000E+01
       21  1    1    2  501  502 0.28068206E+00 0.62116742E+01 -.52668084E+02 0.53033864E+02 0.00000000E+00 0.0000E+00 0.9000E+01
#aMCatNLO 2  0  0  5  2 0.67714934D+01 0.00000000D+00  -5  6  0 0.00000000D+00 0.00000000D+00 0.00000000D+00 0.00000000D+00 0.00000000D+00
  <mgrwgt>
 0.1682655892D-02    3    2    0
 0.914414558878390D+02 0.000000000000000D+00 0.000000000000000D+00 0.914414558878390D+02
 0.914414558878390D+02 -.000000000000000D+00 -.000000000000000D+00 -.914414558878390D+02
 0.601016981005517D+02 0.119779223537825D+02 0.737926640327126D+01 -.302372273531513D+02
 0.484507351861037D+02 -.138390194674533D+02 -.160809074477336D+02 -.435586925413380D+02
 0.743304784890228D+02 0.186109711367076D+01 0.870164104446237D+01 0.737959198944893D+02
 0.000000000000000D+00 0.000000000000000D+00 0.000000000000000D+00 0.000000000000000D+00
 0.914414558878390D+02 0.000000000000000D+00 0.000000000000000D+00 0.914414558878390D+02
 0.914414558878390D+02 -.000000000000000D+00 -.000000000000000D+00 -.914414558878390D+02
 0.594938320160894D+02 0.120101823609217D+02 0.753009947917819D+01 -.289580587997494D+02
 0.474820520819522D+02 -.138131423096772D+02 -.159599176635013D+02 -.425326156921966D+02
 0.692952409796105D+02 0.152227789317903D+01 0.221814397921531D+01 0.692429991387267D+02
 0.661178669802600D+01 0.280682055576511D+00 0.621167420510777D+01 0.224767535321930D+01
-.188490212097D-05 0.000000000000D+00 0.000000000000D+00 0.603725646615D-05 0.000000000000D+00  6 22 1 9900012 13 2 21 2 0.58082140D-03 0.34073516D+00 0.16804381D+04 0.16804381D+04 0.16804381D+04 0.12989875D+01  1  2 13  2  6  5        2 -.194904837076D-03 0.100000000000D+01
-.370691963983D-06 0.000000000000D+00 0.000000000000D+00 0.603725646615D-05 0.000000000000D+00  6 22 1 9900012 13 2 21 2 0.58082140D-03 0.34073516D+00 0.16832918D+04 0.16832918D+04 0.16832918D+04 0.12988921D+01  1  2  8  2  6  5        2 -.383286086618D-04 0.100000000000D+01
0.185283440387D-04 0.000000000000D+00 0.000000000000D+00 0.603725646615D-05 0.100908181726D-04  6 22 1 9900012 13 2 21 2 0.58082140D-03 0.34073516D+00 0.16804381D+04 0.16804381D+04 0.16804381D+04 0.12989875D+01  1  2  1  2  6  5        2 0.191588933768D-02 0.100000000000D+01
  </mgrwgt>
  </event>
  <event>
  7     66 0.21666229E-05 0.51938800E+01 0.78161638E-02 0.13634183E+00
       22 -1    0    0    0    0 0.00000000E+00 0.00000000E+00 0.24731148E+01 0.24731148E+01 0.00000000E+00 0.0000E+00 0.9000E+01
        1 -1    0    0  501    0 -.00000000E+00 -.00000000E+00 -.91180543E+03 0.91180543E+03 0.00000000E+00 0.0000E+00 0.9000E+01
      -24  2    1    2    0    0 -.40436129E+01 0.32606881E+01 -.83009042E+03 0.83388717E+03 0.79314074E+02 0.0000E+00 0.0000E+00
  9900012  1    3    3    0    0 -.19767721E+02 0.53186325E+01 -.41607892E+03 0.41957207E+03 0.50000000E+02 0.0000E+00 0.9000E+01
       13  1    3    3    0    0 0.15724108E+02 -.20579444E+01 -.41401150E+03 0.41431510E+03 0.00000000E+00 0.0000E+00 0.9000E+01
        2  1    1    2  502    0 0.46118706E-02 0.24527325E-01 0.48952070E+00 0.49015648E+00 0.00000000E+00 0.0000E+00 0.9000E+01
       21  1    1    2  501  502 0.40390010E+01 -.32852154E+01 -.79731416E+02 0.79901220E+02 0.00000000E+00 0.0000E+00 0.9000E+01
#aMCatNLO 2  0  0  5  2 0.60752375D+01 0.00000000D+00  -5  6  0 0.00000000D+00 0.00000000D+00 0.00000000D+00 0.00000000D+00 0.00000000D+00
  <mgrwgt>
 0.2503866410D+00    2    2    0
 0.474868352785961D+02 0.000000000000000D+00 0.000000000000000D+00 0.474868352785961D+02
 0.474868352785961D+02 -.000000000000000D+00 -.000000000000000D+00 -.474868352785961D+02
 0.555744425642911D+02 -.216319318368822D+02 0.682189440522082D+01 0.860464688759454D+01
 0.250306368007557D+02 0.148915519878741D+02 -.138658772563171D+01 -.200711691867443D+02
 0.143685911921454D+02 0.674037984900807D+01 -.543530667958910D+01 0.114665222991497D+02
 0.000000000000000D+00 0.000000000000000D+00 0.000000000000000D+00 -.000000000000000D+00
 0.474868352785961D+02 0.000000000000000D+00 0.000000000000000D+00 0.474868352785961D+02
 0.474868352785961D+02 -.000000000000000D+00 -.000000000000000D+00 -.474868352785961D+02
 0.552966946417440D+02 -.197677212225749D+02 0.531863247769066D+01 0.117759833787289D+02
 0.244844065740950D+02 0.157241083389085D+02 -.205794441431701D+01 -.186548504957675D+02
 0.940551779150348D+01 0.461187057499668D-02 0.245273248436395D-01 0.940548468008291D+01
 0.578705154984970D+01 0.403900101309146D+01 -.328521538821728D+01 -.252661756304439D+01
-.106863453428D-08 0.000000000000D+00 0.000000000000D+00 0.668535686995D-06 0.000000000000D+00  6 22 1 9900012 13 2 21 2 0.38047920D-03 0.14027776D+00 0.14106695D+04 0.14106695D+04 0.14106695D+04 0.13089392D+01  1  2 13  2  6  5        2 -.131081985947D-05 0.100000000000D+01
0.204126608478D-03 0.000000000000D+00 0.000000000000D+00 0.668535686995D-06 0.174038421794D-01  6 22 1 9900012 13 2 21 2 0.38047920D-03 0.14027776D+00 0.14106695D+04 0.14106695D+04 0.14106695D+04 0.13089392D+01  1  2  1  2  6  5        2 0.250387951780D+00 0.100000000000D+01
  </mgrwgt>
  </event>
  <event>
  7     66 0.21666229E-05 0.77885253E+02 0.78161638E-02 0.11346432E+00
       22 -1    0    0    0    0 0.00000000E+00 0.00000000E+00 0.54451837E+02 0.54451837E+02 0.00000000E+00 0.0000E+00 0.9000E+01
        1 -1    0    0  501    0 -.00000000E+00 -.00000000E+00 -.35593501E+03 0.35593501E+03 0.00000000E+00 0.0000E+00 0.9000E+01
      -24  2    1    2    0    0 -.59637826E+02 0.74966182E+02 -.24883528E+03 0.27784895E+03 0.78130935E+02 0.0000E+00 0.0000E+00
  9900012  1    3    3    0    0 -.37712661E+02 0.24639618E+02 -.11586277E+03 0.13399081E+03 0.50000000E+02 0.0000E+00 0.9000E+01
       13  1    3    3    0    0 -.21925166E+02 0.50326563E+02 -.13297251E+03 0.14385814E+03 0.00000000E+00 0.0000E+00 0.9000E+01
        2  1    1    2  502    0 0.23757482E+02 0.80355982E+01 0.46229740E+01 0.25502170E+02 0.00000000E+00 0.0000E+00 0.9000E+01
       21  1    1    2  501  502 0.35880344E+02 -.83001780E+02 -.57270862E+02 0.10703572E+03 0.00000000E+00 0.0000E+00 0.9000E+01
#aMCatNLO 2  0  0  5  2 0.34599506D+02 0.00000000D+00  -5  6  0 0.00000000D+00 0.00000000D+00 0.00000000D+00 0.00000000D+00 0.00000000D+00
  <mgrwgt>
 0.1463045471D-04    2    2    0
 0.139216791863727D+03 0.000000000000000D+00 0.000000000000000D+00 0.139216791863727D+03
 0.139216791863727D+03 -.000000000000000D+00 -.000000000000000D+00 -.139216791863727D+03
 0.763973016964763D+02 -.408534170056787D+02 0.285876247497676D+02 -.291597965807209D+02
 0.737816072359335D+02 -.249263080304933D+02 0.540990712218862D+02 -.435395823041035D+02
 0.128254674795043D+03 0.657797250361720D+02 -.826866959716538D+02 0.726993788848244D+02
 0.000000000000000D+00 0.000000000000000D+00 -.000000000000000D+00 0.000000000000000D+00
 0.139216791863727D+03 0.000000000000000D+00 0.000000000000000D+00 0.139216791863727D+03
 0.139216791863727D+03 -.000000000000000D+00 -.000000000000000D+00 -.139216791863727D+03
 0.720365345969495D+02 -.377126605498853D+02 0.246396183687985D+02 -.256886503660001D+02
 0.680539819192689D+02 -.219251658824196D+02 0.503265633825935D+02 -.402227370301222D+02
 0.425936547762235D+02 0.237574819928352D+02 0.803559818173726D+01 0.344271787751753D+02
 0.957494124350114D+02 0.358803444394698D+02 -.830017799331292D+02 0.314842086209470D+02
-.261210882292D-06 0.000000000000D+00 0.000000000000D+00 0.872094904724D-07 0.000000000000D+00  6 22 1 9900012 13 2 21 2 0.83772058D-02 0.54759232D-01 0.14125364D+05 0.14125364D+05 0.14125364D+05 0.11940832D+01  1  2 13  2  6  5        2 -.188476600898D-04 0.100000000000D+01
0.463975255440D-06 0.000000000000D+00 0.000000000000D+00 0.872094904724D-07 0.152059940184D-09  6 22 1 9900012 13 2 21 2 0.83772058D-02 0.54759232D-01 0.14125364D+05 0.14125364D+05 0.14125364D+05 0.11940832D+01  1  2  1  2  6  5        2 0.334781148009D-04 0.100000000000D+01
  </mgrwgt>
  </event>
  <event>
  7     66 0.21666229E-05 0.27559947E+02 0.78161638E-02 0.12720696E+00
       22 -1    0    0    0    0 0.00000000E+00 0.00000000E+00 0.23879758E+03 0.23879758E+03 0.00000000E+00 0.0000E+00 0.9000E+01
        1 -1    0    0  501    0 0.00000000E+00 0.00000000E+00 -.15406570E+03 0.15406570E+03 0.00000000E+00 0.0000E+00 0.9000E+01
      -24  2    1    2    0    0 -.21989892E+02 -.16628588E+02 -.14003820E+03 0.16422997E+03 0.81244813E+02 0.0000E+00 0.0000E+00
  9900012  1    3    3    0    0 -.28568644E+02 0.96277661E+01 -.88661222E+02 0.10615872E+03 0.50000000E+02 0.0000E+00 0.9000E+01
       13  1    3    3    0    0 0.65787519E+01 -.26256354E+02 -.51376981E+02 0.58071252E+02 0.00000000E+00 0.0000E+00 0.9000E+01
        2  1    1    2  502    0 -.33273161E-01 0.25016733E-01 0.12824757E+03 0.12824758E+03 0.00000000E+00 0.0000E+00 0.9000E+01
       21  1    1    2  501  502 0.22023165E+02 0.16603571E+02 0.96522517E+02 0.10038573E+03 0.00000000E+00 0.0000E+00 0.9000E+01
#aMCatNLO 2  0  0  5  2 0.15636766D+02 0.00000000D+00  -5  6  0 0.00000000D+00 0.00000000D+00 0.00000000D+00 0.00000000D+00 0.00000000D+00
  <mgrwgt>
 0.7691469835D+00    2    2    0
 0.191808539660951D+03 0.000000000000000D+00 0.000000000000000D+00 0.191808539660951D+03
 0.191808539660951D+03 -.000000000000000D+00 -.000000000000000D+00 -.191808539660951D+03
 0.129121713325364D+03 -.286788963736609D+02 0.954439408743070D+01 -.115147046407497D+03
 0.712900924497999D+02 0.651788749939514D+01 -.263023791198176D+02 -.659392089479669D+02
 0.183205273546738D+03 0.221610088742657D+02 0.167579850323868D+02 0.181086255355464D+03
 0.000000000000000D+00 0.000000000000000D+00 0.000000000000000D+00 0.000000000000000D+00
 0.191808539660951D+03 0.000000000000000D+00 0.000000000000000D+00 0.191808539660951D+03
 0.191808539660951D+03 -.000000000000000D+00 -.000000000000000D+00 -.191808539660951D+03
 0.128300583215278D+03 -.285686439241096D+02 0.962776614462572D+01 -.114246130598731D+03
 0.708188773357507D+02 0.657875193201275D+01 -.262563539024370D+02 -.654418619070631D+02
 0.103011851927717D+03 -.332731613665445D-01 0.250167325904780D-01 0.103011843516354D+03
 0.814857668431561D+02 0.220231651534633D+02 0.166035710252208D+02 0.766761489894408D+02
-.547001022180D-06 0.000000000000D+00 0.000000000000D+00 0.163367162321D-05 0.000000000000D+00  6 22 1 9900012 13 2 21 2 0.36738090D-01 0.23702415D-01 0.31965361D+04 0.31965361D+04 0.31965361D+04 0.12643298D+01  1  2 13  2  6  5        2 -.127639234066D-04 0.100000000000D+01
0.329625268529D-01 0.000000000000D+00 0.000000000000D+00 0.163367162321D-05 0.122762310083D-02  6 22 1 9900012 13 2 21 2 0.36738090D-01 0.23702415D-01 0.31965361D+04 0.31965361D+04 0.31965361D+04 0.12643298D+01  1  2  1  2  6  5        2 0.769159747382D+00 0.100000000000D+01
  </mgrwgt>
  </event>
  <event>
  6     66 0.21666229E-05 0.15124610E+02 0.78161638E-02 0.12960086E+00
       22 -1    0    0    0    0 0.00000000E+00 0.00000000E+00 0.61131436E+02 0.61131436E+02 0.00000000E+00 0.0000E+00 0.9000E+01
        3 -1    0    0  501    0 0.00000000E+00 0.00000000E+00 -.38585814E+02 0.38585814E+02 0.00000000E+00 0.0000E+00 0.9000E+01
      -24  2    1    2    0    0 0.14871407E+02 0.27559149E+01 0.91075564E+01 0.79485210E+02 0.77499660E+02 0.0000E+00 0.0000E+00
  9900012  1    3    3    0    0 -.19606278E+00 0.21907766E+02 0.66646880E+01 0.54994606E+02 0.50000000E+02 0.0000E+00 0.9000E+01
       13  1    3    3    0    0 0.15067470E+02 -.19151851E+02 0.24428684E+01 0.24490604E+02 0.00000000E+00 0.0000E+00 0.9000E+01
        4  1    1    2  501    0 -.14871407E+02 -.27559149E+01 0.13438066E+02 0.20232040E+02 0.00000000E+00 0.0000E+00 0.9000E+01
#aMCatNLO 1  0  0  2  5 0.73679792D+01 0.00000000D+00  -5  6  0 0.00000000D+00 0.00000000D+00 0.00000000D+00 0.00000000D+00 0.00000000D+00
  <mgrwgt>
 0.6572370837D-04   11    2    0
 0.485675429457498D+02 0.000000000000000D+00 0.000000000000000D+00 0.485675429457498D+02
 0.485675429457498D+02 0.000000000000000D+00 0.000000000000000D+00 -.485675429457498D+02
 0.549096275762789D+02 -.196062784093316D+00 0.219077663843845D+02 -.592271322938833D+01
 0.245746391975995D+02 0.150674702158577D+02 -.191518514671603D+02 -.317660484893319D+01
 0.176508191176213D+02 -.148714074317644D+02 -.275591491722423D+01 0.909931807832152D+01
 0.000000000000000D+00 -.000000000000000D+00 -.000000000000000D+00 -.000000000000000D+00
 0.500362396378484D+02 0.000000000000000D+00 0.000000000000000D+00 0.500362396378484D+02
 0.571907829359533D+02 0.000000000000000D+00 0.000000000000000D+00 -.571907829359533D+02
 0.564482355432590D+02 0.130174567837055D+01 0.254878445957778D+02 -.592271322938833D+01
 0.238072882808659D+02 0.157182267801227D+02 -.175964059912990D+02 -.317660484893319D+01
 0.171157884167554D+02 -.144037824476153D+02 -.163819255230891D+01 0.909931807832152D+01
 0.985571033292143D+01 -.261619001087790D+01 -.625324605216997D+01 -.715454329810489D+01
0.908654427922D-07 0.000000000000D+00 0.000000000000D+00 0.284229461860D-07 0.000000000000D+00  6 22 3 9900012 13 4 21 0 0.94048363D-02 0.59362791D-02 0.22128720D+04 0.22128720D+04 0.22128720D+04 0.12837941D+01  1  2  2  1  6  2        3 0.406804489079D-04 0.100000000000D+01
-.461014885301D-09 0.000000000000D+00 -.174473612871D-09 0.284229461860D-07 0.000000000000D+00  6 22 3 9900012 13 4 21 2 0.94048363D-02 0.59362791D-02 0.22128720D+04 0.22128720D+04 0.22128720D+04 0.12837941D+01  1  2  3  1  6  2        3 -.340167398274D-06 0.100000000000D+01
0.224460191504D-08 0.000000000000D+00 0.000000000000D+00 0.284229461860D-07 0.000000000000D+00  6 22 3 9900012 13 4 21 2 0.94048363D-02 0.59362791D-02 0.22128720D+04 0.22128720D+04 0.22128720D+04 0.12837941D+01  1  2 15  1  6  2        3 0.165621635644D-05 0.100000000000D+01
0.203993275821D-06 0.000000000000D+00 0.000000000000D+00 0.284229461860D-07 0.000000000000D+00  6 22 3 9900012 13 4 21 2 0.94048363D-02 0.72016623D-02 0.25505618D+04 0.25505618D+04 0.25505618D+04 0.12761710D+01  1  2 12  1  6  2        3 0.113162196615D-03 0.100000000000D+01
-.173304917590D-06 0.000000000000D+00 0.000000000000D+00 0.284229461860D-07 0.000000000000D+00  6 22 3 9900012 13 4 21 2 0.94048363D-02 0.59362791D-02 0.22128720D+04 0.22128720D+04 0.22128720D+04 0.12837941D+01  1  2  4  1  6  2        3 -.127875877340D-03 0.100000000000D+01
-.369796840640D-06 0.000000000000D+00 -.640118181908D-07 0.284229461860D-07 0.000000000000D+00  6 22 3 9900012 13 4 21 2 0.94048363D-02 0.71928562D-02 0.22128720D+04 0.22128720D+04 0.22128720D+04 0.12837941D+01  1  2  5  1  6  2        3 -.203975452189D-03 0.100000000000D+01
0.376291992341D-06 0.000000000000D+00 0.628497380231D-07 0.284229461860D-07 0.000000000000D+00  6 22 3 9900012 13 4 21 2 0.94048363D-02 0.59362791D-02 0.22128720D+04 0.22128720D+04 0.22128720D+04 0.12837941D+01  1  2  6  1  6  2        3 0.277653221419D-03 0.100000000000D+01
0.355837666258D-08 0.000000000000D+00 0.000000000000D+00 0.284229461860D-07 0.658565957980D-08  6 22 3 9900012 13 4 21 2 0.96892413D-02 0.69902743D-02 0.25505618D+04 0.25505618D+04 0.25505618D+04 0.12761710D+01  1  2 11  1  6  2        3 0.198175379351D-05 0.100000000000D+01
0.568497181971D-08 0.000000000000D+00 0.000000000000D+00 0.284229461860D-07 0.000000000000D+00  6 22 21 9900012 13 4 -3 2 0.94048363D-02 0.72016623D-02 0.25505618D+04 0.25505618D+04 0.25505618D+04 0.12761710D+01  1  2 12  3  6  2        3 0.569395803229D-04 0.100000000000D+01
-.956814024888D-08 0.000000000000D+00 -.177517709290D-08 0.284229461860D-07 0.000000000000D+00  6 22 21 9900012 13 4 -3 2 0.94048363D-02 0.71928562D-02 0.22128720D+04 0.22128720D+04 0.22128720D+04 0.12837941D+01  1  2  5  3  6  2        3 -.954896971073D-04 0.100000000000D+01
0.132188174822D-09 0.000000000000D+00 0.000000000000D+00 0.284229461860D-07 0.143785081755D-09  6 22 21 9900012 13 4 -3 2 0.96892413D-02 0.69902743D-02 0.25505618D+04 0.25505618D+04 0.25505618D+04 0.12761710D+01  1  2 11  3  6  2        3 0.133148498808D-05 0.100000000000D+01
  </mgrwgt>
  </event>
  <event>
  7     66 0.21666229E-05 0.15692512E+02 0.78161638E-02 0.13225533E+00
       22 -1    0    0    0    0 0.00000000E+00 0.00000000E+00 0.10785521E+02 0.10785521E+02 0.00000000E+00 0.0000E+00 0.9000E+01
        1 -1    0    0  501    0 -.00000000E+00 -.00000000E+00 -.37654543E+03 0.37654543E+03 0.00000000E+00 0.0000E+00 0.9000E+01
      -24  2    1    2    0    0 0.15238361E+02 0.16435895E+01 -.35202128E+03 0.36113297E+03 0.79139939E+02 0.0000E+00 0.0000E+00
  9900012  1    3    3    0    0 -.63453158E+01 0.59634901E+01 -.16005912E+03 0.16791292E+03 0.50000000E+02 0.0000E+00 0.9000E+01
       13  1    3    3    0    0 0.21583677E+02 -.43199006E+01 -.19196216E+03 0.19322005E+03 0.00000000E+00 0.0000E+00 0.9000E+01
        2  1    1    2  502    0 0.72712835E+00 0.80251852E-01 0.29492784E+01 0.30386509E+01 0.00000000E+00 0.0000E+00 0.9000E+01
       21  1    1    2  501  502 -.15965490E+02 -.17238413E+01 -.16687911E+02 0.23159337E+02 0.00000000E+00 0.0000E+00 0.9000E+01
#aMCatNLO 2  0  0  5  2 0.80458001D+01 0.00000000D+00  -5  6  0 0.00000000D+00 0.00000000D+00 0.00000000D+00 0.00000000D+00 0.00000000D+00
  <mgrwgt>
 0.1199383038D-02    2    2    0
 0.637278495939280D+02 0.000000000000000D+00 0.000000000000000D+00 0.637278495939280D+02
 0.637278495939280D+02 -.000000000000000D+00 -.000000000000000D+00 -.637278495939280D+02
 0.510231564259335D+02 -.577187497069423D+01 0.602534069145582D+01 -.580889150697837D+01
 0.372745240619928D+02 0.219974564057227D+02 -.427527097219299D+01 -.297863074891927D+02
 0.391580186999296D+02 -.162255814350285D+02 -.175006971926283D+01 0.355951989961711D+02
 0.000000000000000D+00 0.000000000000000D+00 -.000000000000000D+00 0.000000000000000D+00
 0.637278495939280D+02 0.000000000000000D+00 0.000000000000000D+00 0.637278495939280D+02
 0.637278495939280D+02 -.000000000000000D+00 -.000000000000000D+00 -.637278495939280D+02
 0.509562251696208D+02 -.634531580347605D+01 0.596349012287935D+01 -.455089402706474D+01
 0.363109973848284D+02 0.215836772472404D+02 -.431990064408620D+01 -.288785710517885D+02
 0.176978461385382D+02 0.727128345655268D+00 0.802518524576809D-01 0.176827204341553D+02
 0.224906304948687D+02 -.159654897894196D+02 -.172384133125083D+01 0.157467446446980D+02
-.152237943643D-07 0.000000000000D+00 0.000000000000D+00 0.601366462699D-06 0.000000000000D+00  6 22 1 9900012 13 2 21 2 0.16593110D-02 0.57930067D-01 0.20049871D+04 0.20049871D+04 0.20049871D+04 0.12891740D+01  1  2 13  2  6  5        2 -.915553178428D-05 0.100000000000D+01
0.200955478113D-05 0.000000000000D+00 0.000000000000D+00 0.601366462699D-06 0.281893944433D-05  6 22 1 9900012 13 2 21 2 0.16593110D-02 0.57930067D-01 0.20049871D+04 0.20049871D+04 0.20049871D+04 0.12891740D+01  1  2  1  2  6  5        2 0.120853856999D-02 0.100000000000D+01
  </mgrwgt>
  </event>
  <event>
  7     66 0.21666229E-05 0.22392868E+02 0.78161638E-02 0.12649054E+00
       22 -1    0    0    0    0 0.00000000E+00 0.00000000E+00 0.23463400E+03 0.23463400E+03 0.00000000E+00 0.0000E+00 0.9000E+01
        1 -1    0    0  502    0 0.00000000E+00 0.00000000E+00 -.66330853E+02 0.66330853E+02 0.00000000E+00 0.0000E+00 0.9000E+01
      -24  2    1    2    0    0 0.22537629E+02 0.11373148E+02 0.21378220E+03 0.22941142E+03 0.79306236E+02 0.0000E+00 0.0000E+00
  9900012  1    3    3    0    0 0.23045234E+01 0.20085822E+02 0.18757890E+03 0.19517837E+03 0.50000000E+02 0.0000E+00 0.9000E+01
       13  1    3    3    0    0 0.20233106E+02 -.87126739E+01 0.26203301E+02 0.34233058E+02 0.00000000E+00 0.0000E+00 0.9000E+01
        2  1    1    2  501    0 -.51402688E+01 0.11362962E+02 0.50681273E+01 0.13461991E+02 0.00000000E+00 0.0000E+00 0.9000E+01
       21  1    1    2  502  501 -.17397361E+02 -.22736110E+02 -.50547176E+02 0.58091444E+02 0.00000000E+00 0.0000E+00 0.9000E+01
#aMCatNLO 2  0  0  2  5 0.15139814D+02 0.00000000D+00  -5  6  0 0.00000000D+00 0.00000000D+00 0.00000000D+00 0.00000000D+00 0.00000000D+00
  <mgrwgt>
 0.2704204198D-04    1    2    0
 0.506765001934310D+02 0.000000000000000D+00 0.000000000000000D+00 0.506765001934310D+02
 0.506765001934310D+02 0.000000000000000D+00 0.000000000000000D+00 -.506765001934310D+02
 0.577700363519707D+02 -.763543263443995D+01 0.709557922941446D+01 0.269949999813308D+02
 0.239340553709915D+02 0.161564763155495D+02 -.140403041190815D+02 -.107087412803971D+02
 0.196489086638998D+02 -.852104368110952D+01 0.694472488966702D+01 -.162862587009338D+02
 0.000000000000000D+00 -.000000000000000D+00 -.000000000000000D+00 -.000000000000000D+00
 0.535197721880013D+02 0.000000000000000D+00 0.000000000000000D+00 0.535197721880013D+02
 0.290798580446266D+03 0.000000000000000D+00 0.000000000000000D+00 -.290798580446266D+03
 0.603115336690808D+02 0.230452338645279D+01 0.200858219021752D+02 0.269949999813308D+02
 0.244942117352635D+02 0.202331060988290D+02 -.871267389008491D+01 -.107087412803971D+02
 0.205129592840021D+02 -.514026884005789D+01 0.113629623059006D+02 -.162862587009338D+02
 0.238999647945921D+03 -.173973606452239D+02 -.227361103179909D+02 -.237278808258265D+03
0.392068044444D-06 0.000000000000D+00 0.000000000000D+00 0.247254053677D-06 0.731044579015D-08  6 22 1 9900012 13 2 21 2 0.36097539D-01 0.10204747D-01 0.34258953D+04 0.34258953D+04 0.34258953D+04 0.12607645D+01  1  2  1  1  6  2        1 0.270420419836D-04 0.100000000000D+01
  </mgrwgt>
  </event>
  <event>
  6     66 0.21666229E-05 0.48451976E+02 0.78161638E-02 0.12358427E+00
       22 -1    0    0    0    0 0.00000000E+00 0.00000000E+00 0.42982281E+03 0.42982281E+03 0.00000000E+00 0.0000E+00 0.9000E+01
        1 -1    0    0  501    0 0.00000000E+00 0.00000000E+00 -.15667524E+02 0.15667524E+02 0.00000000E+00 0.0000E+00 0.9000E+01
      -24  2    1    2    0    0 -.52506732E+01 -.48482279E+02 0.15688402E+03 0.18363807E+03 0.82050265E+02 0.0000E+00 0.0000E+00
  9900012  1    3    3    0    0 0.12063907E+02 -.24369581E+02 0.13574837E+03 0.14719727E+03 0.50000000E+02 0.0000E+00 0.9000E+01
       13  1    3    3    0    0 -.17314580E+02 -.24112698E+02 0.21135643E+02 0.36440805E+02 0.00000000E+00 0.0000E+00 0.9000E+01
        2  1    1    2  501    0 0.52506732E+01 0.48482279E+02 0.25727127E+03 0.26185226E+03 0.00000000E+00 0.0000E+00 0.9000E+01
#aMCatNLO 1  0  0  5  2 0.35626278D+01 0.00000000D+00  -5  6  0 0.00000000D+00 0.00000000D+00 0.00000000D+00 0.00000000D+00 0.00000000D+00
  <mgrwgt>
 0.2740055246D-04    6    2    0
 0.820625323104688D+02 0.000000000000000D+00 0.000000000000000D+00 0.820625323104688D+02
 0.820625323104688D+02 -.000000000000000D+00 -.000000000000000D+00 -.820625323104688D+02
 0.569934456657109D+02 0.120639072031832D+02 -.243695811826257D+02 -.297296229823771D+01
 0.455785864588367D+02 -.173145804264108D+02 -.241126983101399D+02 -.345859889037046D+02
 0.615530324963900D+02 0.525067322322760D+01 0.484822794927656D+02 0.375589512019423D+02
 0.000000000000000D+00 0.000000000000000D+00 0.000000000000000D+00 0.000000000000000D+00
 0.820625323104688D+02 0.000000000000000D+00 0.000000000000000D+00 0.820625323104688D+02
 0.820625323104688D+02 -.000000000000000D+00 -.000000000000000D+00 -.820625323104688D+02
 0.568747129676929D+02 0.120930173390688D+02 -.241007916990536D+02 -.276473258621302D+01
 0.453302182890994D+02 -.172913397971500D+02 -.238981051264649D+02 -.344197447625825D+02
 0.740839870739922D+01 -.217286926052168D+01 0.665091821252325D+01 0.243480954384541D+01
 0.545117346567462D+02 0.737119171860290D+01 0.413479786129953D+02 0.347496678049501D+02
0.233868618177D-06 0.000000000000D+00 0.000000000000D+00 0.657082732466D-07 0.000000000000D+00  6 22 1 9900012 13 2 21 0 0.66126586D-01 0.24103883D-02 0.45810513D+04 0.45810513D+04 0.45810513D+04 0.12461490D+01  1  2  2  2  6  5        2 0.259466390032D-04 0.100000000000D+01
-.142420241271D-07 0.000000000000D+00 -.449058536411D-09 0.657082732466D-07 0.000000000000D+00  6 22 1 9900012 13 2 21 2 0.66126586D-01 0.24103883D-02 0.45810513D+04 0.45810513D+04 0.45810513D+04 0.12461490D+01  1  2  3  2  6  5        2 -.245369631982D-05 0.100000000000D+01
0.951191120384D-08 0.000000000000D+00 0.000000000000D+00 0.657082732466D-07 0.000000000000D+00  6 22 1 9900012 13 2 21 2 0.66126586D-01 0.24103883D-02 0.45810513D+04 0.45810513D+04 0.45810513D+04 0.12461490D+01  1  2 15  2  6  5        2 0.163876576159D-05 0.100000000000D+01
0.699784254653D-08 0.000000000000D+00 0.000000000000D+00 0.657082732466D-07 0.000000000000D+00  6 22 1 9900012 13 2 21 2 0.66126586D-01 0.24103883D-02 0.45766470D+04 0.45766470D+04 0.45766470D+04 0.12461965D+01  1  2 12  2  6  5        2 0.120558642894D-05 0.100000000000D+01
-.136308307630D-06 0.000000000000D+00 0.000000000000D+00 0.657082732466D-07 0.000000000000D+00  6 22 1 9900012 13 2 21 2 0.66126586D-01 0.24103883D-02 0.45810513D+04 0.45810513D+04 0.45810513D+04 0.12461490D+01  1  2  5  2  6  5        2 -.234839647655D-04 0.100000000000D+01
0.142484680368D-06 0.000000000000D+00 0.000000000000D+00 0.657082732466D-07 0.270006363337D-08  6 22 1 9900012 13 2 21 2 0.66126586D-01 0.24103883D-02 0.45766470D+04 0.45766470D+04 0.45766470D+04 0.12461965D+01  1  2 11  2  6  5        2 0.245472223533D-04 0.100000000000D+01
  </mgrwgt>
  </event>
  <event>
  7     66 0.21666229E-05 0.55902839E+01 0.78161638E-02 0.13470924E+00
       22 -1    0    0    0    0 0.00000000E+00 0.00000000E+00 0.33753277E+03 0.33753277E+03 0.00000000E+00 0.0000E+00 0.9000E+01
        3 -1    0    0  501    0 0.00000000E+00 0.00000000E+00 -.67047388E+01 0.67047388E+01 0.00000000E+00 0.0000E+00 0.9000E+01
      -24  2    1    2    0    0 0.84139354E+01 0.15075936E+01 0.25905002E+03 0.27129191E+03 0.80120672E+02 0.0000E+00 0.0000E+00
  9900012  1    3    3    0    0 0.22810909E+02 0.85720424E+01 0.24013931E+03 0.24649687E+03 0.50000000E+02 0.0000E+00 0.9000E+01
       13  1    3    3    0    0 -.14396973E+02 -.70644488E+01 0.18910703E+02 0.24795039E+02 0.00000000E+00 0.0000E+00 0.9000E+01
        4  1    1    2  502    0 -.20776174E+01 0.56580088E+00 0.52558662E+02 0.52602753E+02 0.00000000E+00 0.0000E+00 0.9000E+01
       21  1    1    2  501  502 -.63363180E+01 -.20733945E+01 0.19219359E+02 0.20342852E+02 0.00000000E+00 0.0000E+00 0.9000E+01
#aMCatNLO 2  0  0  5  2 0.48891784D+01 0.00000000D+00  -5  6  0 0.00000000D+00 0.00000000D+00 0.00000000D+00 0.00000000D+00 0.00000000D+00
  <mgrwgt>
 0.8599922940D-04    2    2    0
 0.475717256604113D+02 0.000000000000000D+00 0.000000000000000D+00 0.475717256604113D+02
 0.475717256604113D+02 -.000000000000000D+00 -.000000000000000D+00 -.475717256604113D+02
 0.574258281739860D+02 0.247135770274314D+02 0.891295909798265D+01 0.103693785780569D+02
 0.238808632824984D+02 -.136004921911440D+02 -.692173683021139D+01 -.183687724829208D+02
 0.138367598643383D+02 -.111130848362874D+02 -.199122226777126D+01 0.799939390486391D+01
 0.000000000000000D+00 0.000000000000000D+00 -.000000000000000D+00 0.000000000000000D+00
 0.475717256604113D+02 0.000000000000000D+00 0.000000000000000D+00 0.475717256604113D+02
 0.475717256604113D+02 -.000000000000000D+00 -.000000000000000D+00 -.475717256604113D+02
 0.568473435814466D+02 0.228109085150885D+02 0.857204242490972D+01 0.117389528344248D+02
 0.239553202106184D+02 -.143969731033725D+02 -.706444882707346D+01 -.177954515150275D+02
 0.756711903509590D+01 -.207761741967052D+01 0.565800876416497D+00 0.725428602393362D+01
 0.677366849366172D+01 -.633631799204552D+01 -.207339447425276D+01 -.119778734333096D+01
-.509016091521D-08 0.000000000000D+00 0.000000000000D+00 0.533694824335D-06 0.000000000000D+00  6 22 3 9900012 13 4 21 2 0.51928119D-01 0.10314983D-02 0.16192219D+04 0.16192219D+04 0.16192219D+04 0.13010789D+01  1  2 13  2  6  5        4 -.353091747212D-05 0.100000000000D+01
0.129066413460D-06 0.000000000000D+00 0.000000000000D+00 0.533694824335D-06 0.179117453465D-05  6 22 3 9900012 13 4 21 2 0.51928119D-01 0.10314983D-02 0.16192219D+04 0.16192219D+04 0.16192219D+04 0.13010789D+01  1  2  1  2  6  5        4 0.895301468735D-04 0.100000000000D+01
  </mgrwgt>
  </event>
  <event>
  6     66 0.21666229E-05 0.21197640E+02 0.78161638E-02 0.12995081E+00
       22 -1    0    0    0    0 0.00000000E+00 0.00000000E+00 0.14751928E+03 0.14751928E+03 0.00000000E+00 0.0000E+00 0.9000E+01
        1 -1    0    0  501    0 0.00000000E+00 0.00000000E+00 -.18666527E+02 0.18666527E+02 0.00000000E+00 0.0000E+00 0.9000E+01
      -24  2    1    2    0    0 -.14807172E+02 -.16548587E+02 0.10393145E+03 0.13280648E+03 0.79641114E+02 0.0000E+00 0.0000E+00
  9900012  1    3    3    0    0 -.53610551E+01 -.93336719E+01 0.10859631E+03 0.12003757E+03 0.50000000E+02 0.0000E+00 0.9000E+01
       13  1    3    3    0    0 -.94461169E+01 -.72149146E+01 -.46648664E+01 0.12768911E+02 0.00000000E+00 0.0000E+00 0.9000E+01
        2  1    1    2  501    0 0.14807172E+02 0.16548587E+02 0.24921304E+02 0.33379327E+02 0.00000000E+00 0.0000E+00 0.9000E+01
#aMCatNLO 1  0  0  2  5 0.14877234D+02 0.00000000D+00  -5  6  0 0.00000000D+00 0.00000000D+00 0.00000000D+00 0.00000000D+00 0.00000000D+00
  <mgrwgt>
 0.4227395203D-04    9    2    0
 0.524754479827223D+02 0.000000000000000D+00 0.000000000000000D+00 0.524754479827223D+02
 0.524754479827223D+02 0.000000000000000D+00 0.000000000000000D+00 -.524754479827223D+02
 0.567465965345213D+02 -.536105512228276D+01 -.933367191660600D+01 0.245828776749335D+02
 0.259463500926147D+02 -.944611692253649D+01 -.721491459042627D+01 -.230635852734815D+02
 0.222579493383087D+02 0.148071720448193D+02 0.165485865070323D+02 -.151929240145205D+01
 0.000000000000000D+00 -.000000000000000D+00 -.000000000000000D+00 -.000000000000000D+00
 0.540946084074851D+02 0.000000000000000D+00 0.000000000000000D+00 0.540946084074851D+02
 0.100468673014678D+03 0.000000000000000D+00 0.000000000000000D+00 -.100468673014678D+03
 0.558840629526055D+02 -.398633015304384D+01 -.167922280265728D+01 0.245828776749335D+02
 0.249778864359154D+02 -.882455597444313D+01 -.375407205474996D+01 -.230635852734815D+02
 0.250944729854403D+02 0.153851368513722D+02 0.197666863454761D+02 -.151929240145205D+01
 0.486068590482022D+02 -.257425072388520D+01 -.143333914880689D+02 -.463740646071932D+02
0.327860786868D-07 0.000000000000D+00 0.000000000000D+00 0.303799843713D-06 0.000000000000D+00  6 22 1 9900012 13 2 21 0 0.22695274D-01 0.28717734D-02 0.18163706D+04 0.18163706D+04 0.18163706D+04 0.12946354D+01  1  2  2  1  6  2        1 0.141235911715D-04 0.100000000000D+01
-.516974026772D-09 0.000000000000D+00 -.629535874650D-10 0.303799843713D-06 0.000000000000D+00  6 22 1 9900012 13 2 21 2 0.22695274D-01 0.28717734D-02 0.18163706D+04 0.18163706D+04 0.18163706D+04 0.12946354D+01  1  2  3  1  6  2        1 -.373266768301D-06 0.100000000000D+01
0.827923449410D-09 0.000000000000D+00 0.000000000000D+00 0.303799843713D-06 0.000000000000D+00  6 22 1 9900012 13 2 21 2 0.22695274D-01 0.28717734D-02 0.18163706D+04 0.18163706D+04 0.18163706D+04 0.12946354D+01  1  2 15  1  6  2        1 0.597779181077D-06 0.100000000000D+01
0.116131764635D-06 0.000000000000D+00 0.000000000000D+00 0.303799843713D-06 0.000000000000D+00  6 22 1 9900012 13 2 21 2 0.22695274D-01 0.56679043D-02 0.24694838D+04 0.24694838D+04 0.24694838D+04 0.12778928D+01  1  2 12  1  6  2        1 0.346435254487D-04 0.100000000000D+01
-.663781183381D-07 0.000000000000D+00 0.000000000000D+00 0.303799843713D-06 0.000000000000D+00  6 22 1 9900012 13 2 21 2 0.22695274D-01 0.28717734D-02 0.18163706D+04 0.18163706D+04 0.18163706D+04 0.12946354D+01  1  2  4  1  6  2        1 -.479264807028D-04 0.100000000000D+01
-.113932119590D-06 0.000000000000D+00 -.100014179261D-07 0.303799843713D-06 0.000000000000D+00  6 22 1 9900012 13 2 21 2 0.22695274D-01 0.56531299D-02 0.18163706D+04 0.18163706D+04 0.18163706D+04 0.12946354D+01  1  2  5  1  6  2        1 -.337441237194D-04 0.100000000000D+01
0.990346565183D-07 0.000000000000D+00 0.807701838206D-08 0.303799843713D-06 0.000000000000D+00  6 22 1 9900012 13 2 21 2 0.22695274D-01 0.28717734D-02 0.18163706D+04 0.18163706D+04 0.18163706D+04 0.12946354D+01  1  2  6  1  6  2        1 0.715052290329D-04 0.100000000000D+01
0.854922993773D-08 0.000000000000D+00 0.000000000000D+00 0.303799843713D-06 0.000000000000D+00  6 22 21 9900012 13 2 -1 2 0.22695274D-01 0.56679043D-02 0.24694838D+04 0.24694838D+04 0.24694838D+04 0.12778928D+01  1  2 12  3  6  2        1 0.352085608925D-04 0.100000000000D+01
-.776445748779D-08 0.000000000000D+00 -.733567213410D-09 0.303799843713D-06 0.000000000000D+00  6 22 21 9900012 13 2 -1 2 0.22695274D-01 0.56531299D-02 0.18163706D+04 0.18163706D+04 0.18163706D+04 0.12946354D+01  1  2  5  3  6  2        1 -.317608625093D-04 0.100000000000D+01
  </mgrwgt>
  </event>
  <event>
  6     66 0.21666229E-05 0.25982836E+02 0.78161638E-02 0.12515760E+00
       22 -1    0    0    0    0 0.00000000E+00 0.00000000E+00 0.55766175E+03 0.55766175E+03 0.00000000E+00 0.0000E+00 0.9000E+01
        1 -1    0    0  501    0 0.00000000E+00 0.00000000E+00 -.14588975E+02 0.14588975E+02 0.00000000E+00 0.0000E+00 0.9000E+01
      -24  2    1    2    0    0 0.21861819E+01 0.39554042E+02 0.51750829E+03 0.52510368E+03 0.79685228E+02 0.0000E+00 0.0000E+00
  9900012  1    3    3    0    0 0.44713113E+01 0.50616860E+02 0.49287368E+03 0.49800253E+03 0.50000000E+02 0.0000E+00 0.9000E+01
       13  1    3    3    0    0 -.22851293E+01 -.11062818E+02 0.24634613E+02 0.27101143E+02 0.00000000E+00 0.0000E+00 0.9000E+01
        2  1    1    2  501    0 -.21861819E+01 -.39554042E+02 0.25564483E+02 0.47147051E+02 0.00000000E+00 0.0000E+00 0.9000E+01
#aMCatNLO 1  0  0  2  5 0.29719216D+01 0.00000000D+00  -5  6  0 0.00000000D+00 0.00000000D+00 0.00000000D+00 0.00000000D+00 0.00000000D+00
  <mgrwgt>
 0.1368486415D-03    9    2    0
 0.901981905145542D+02 0.000000000000000D+00 0.000000000000000D+00 0.901981905145542D+02
 0.901981905145542D+02 0.000000000000000D+00 0.000000000000000D+00 -.901981905145542D+02
 0.959888115459930D+02 0.447131126451878D+01 0.506168598521383D+02 0.642790231436114D+02
 0.118087773816635D+02 -.228512931732139D+01 -.110628179207862D+02 -.344085264205517D+01
 0.725987921014519D+02 -.218618194719739D+01 -.395540419313521D+02 -.608381705015563D+02
 0.000000000000000D+00 -.000000000000000D+00 -.000000000000000D+00 -.000000000000000D+00
 0.902157340970399D+02 0.000000000000000D+00 0.000000000000000D+00 0.902157340970399D+02
 0.506396221717303D+03 0.000000000000000D+00 0.000000000000000D+00 -.506396221717303D+03
 0.966829911837530D+02 0.550378579752361D+01 0.518219674446629D+02 0.642790231436114D+02
 0.116474882602628D+02 -.215943372216129D+01 -.109161056182236D+02 -.344085264205517D+01
 0.720903784814057D+02 -.141083297702176D+01 -.386490521219711D+02 -.608381705015563D+02
 0.416191097888921D+03 -.193351909834056D+01 -.225680970446819D+01 -.416180487620263D+03
0.119082865470D-07 0.000000000000D+00 0.000000000000D+00 0.149535736049D-05 0.000000000000D+00  6 22 1 9900012 13 2 21 0 0.85794116D-01 0.22444578D-02 0.37331693D+04 0.37331693D+04 0.37331693D+04 0.12563892D+01  1  2  2  1  6  2        1 0.890224901169D-06 0.100000000000D+01
0.264681871832D-09 0.000000000000D+00 -.228654779321D-10 0.149535736049D-05 0.000000000000D+00  6 22 1 9900012 13 2 21 2 0.85794116D-01 0.22444578D-02 0.37331693D+04 0.37331693D+04 0.37331693D+04 0.12563892D+01  1  2  3  1  6  2        1 0.312336744425D-07 0.100000000000D+01
-.467505823389D-10 0.000000000000D+00 0.000000000000D+00 0.149535736049D-05 0.000000000000D+00  6 22 1 9900012 13 2 21 2 0.85794116D-01 0.22444578D-02 0.37331693D+04 0.37331693D+04 0.37331693D+04 0.12563892D+01  1  2 15  1  6  2        1 -.551678306740D-08 0.100000000000D+01
0.536198749817D-06 0.000000000000D+00 0.000000000000D+00 0.149535736049D-05 0.000000000000D+00  6 22 1 9900012 13 2 21 2 0.85794116D-01 0.12603423D-01 0.39059254D+04 0.39059254D+04 0.39059254D+04 0.12541040D+01  1  2 12  1  6  2        1 0.652184659989D-05 0.100000000000D+01
-.355506332669D-04 0.000000000000D+00 -.508954120057D-08 0.149535736049D-05 0.000000000000D+00  6 22 1 9900012 13 2 21 2 0.85794116D-01 0.12601355D-01 0.37331693D+04 0.37331693D+04 0.37331693D+04 0.12563892D+01  1  2  5  1  6  2        1 -.432544190264D-03 0.100000000000D+01
0.388561480813D-04 0.000000000000D+00 0.000000000000D+00 0.149535736049D-05 0.456232359242D-05  6 22 1 9900012 13 2 21 2 0.85810803D-01 0.12600973D-01 0.39059254D+04 0.39059254D+04 0.39059254D+04 0.12541040D+01  1  2 11  1  6  2        1 0.472558700730D-03 0.100000000000D+01
0.113293606720D-06 0.000000000000D+00 0.000000000000D+00 0.149535736049D-05 0.000000000000D+00  6 22 21 9900012 13 2 -1 2 0.85794116D-01 0.12603423D-01 0.39059254D+04 0.39059254D+04 0.39059254D+04 0.12541040D+01  1  2 12  3  6  2        1 0.146793229533D-04 0.100000000000D+01
-.751102087481D-05 0.000000000000D+00 -.107526446565D-08 0.149535736049D-05 0.000000000000D+00  6 22 21 9900012 13 2 -1 2 0.85794116D-01 0.12601355D-01 0.37331693D+04 0.37331693D+04 0.37331693D+04 0.12563892D+01  1  2  5  3  6  2        1 -.973962324745D-03 0.100000000000D+01
0.809388328203D-05 0.000000000000D+00 0.000000000000D+00 0.149535736049D-05 0.950338842493D-06  6 22 21 9900012 13 2 -1 2 0.85810803D-01 0.12600973D-01 0.39059254D+04 0.39059254D+04 0.39059254D+04 0.12541040D+01  1  2 11  3  6  2        1 0.104867934441D-02 0.100000000000D+01
  </mgrwgt>
  </event>
  <event>
  7     66 0.21666229E-05 0.70770412E+01 0.78161638E-02 0.13667468E+00
       22 -1    0    0    0    0 0.00000000E+00 0.00000000E+00 0.36480363E+01 0.36480363E+01 0.00000000E+00 0.0000E+00 0.9000E+01
       21 -1    0    0  501  502 0.00000000E+00 0.00000000E+00 -.58979517E+03 0.58979517E+03 0.00000000E+00 0.0000E+00 0.9000E+01
      -24  2    1    2    0    0 0.36608972E+01 -.60622397E+01 -.49962113E+03 0.50596497E+03 0.79555845E+02 0.0000E+00 0.0000E+00
  9900012  1    3    3    0    0 0.18762033E+01 -.19277314E+02 -.23633766E+03 0.24234402E+03 0.50000000E+02 0.0000E+00 0.9000E+01
       13  1    3    3    0    0 0.17846939E+01 0.13215075E+02 -.26328347E+03 0.26362096E+03 0.00000000E+00 0.0000E+00 0.9000E+01
        4  1    1    2  501    0 0.34280140E-01 0.60952239E-02 0.33057004E+00 0.33239860E+00 0.00000000E+00 0.0000E+00 0.9000E+01
       -3  1    1    2    0  502 -.36951773E+01 0.60561445E+01 -.86856577E+02 0.87145833E+02 0.00000000E+00 0.0000E+00 0.9000E+01
#aMCatNLO 2  0  0  2  5 0.21376367D+01 0.00000000D+00  -5  6  0 0.00000000D+00 0.00000000D+00 0.00000000D+00 0.00000000D+00 0.00000000D+00
  <mgrwgt>
 0.1357743047D-01    1    2    0
 0.418199683555496D+02 0.000000000000000D+00 0.000000000000000D+00 0.418199683555496D+02
 0.418199683555496D+02 0.000000000000000D+00 0.000000000000000D+00 -.418199683555496D+02
 0.546784293645756D+02 -.563312598294922D+00 -.152791136461642D+02 0.159988125459700D+02
 0.249771275126921D+02 0.704454431249203D+00 0.149855137289749D+02 -.199698528041215D+02
 0.398437983383155D+01 -.141141832954281D+00 0.293599917189388D+00 0.397104025815153D+01
 0.000000000000000D+00 -.000000000000000D+00 0.000000000000000D+00 -.000000000000000D+00
 0.437027530774043D+02 0.000000000000000D+00 0.000000000000000D+00 0.437027530774043D+02
 0.492324628282130D+02 0.000000000000000D+00 0.000000000000000D+00 -.492324628282130D+02
 0.559562060213195D+02 0.187620328614060D+01 -.192773144044586D+02 0.159988125459700D+02
 0.240128788698896D+02 0.178469389090888D+01 0.132150746618194D+02 -.199698528041215D+02
 0.397119289529338D+01 0.342801402351080D-01 0.609522385979239D-02 0.397104025815153D+01
 0.899493811911482D+01 -.369517731728459D+01 0.605614451877941D+01 -.552970975080867D+01
0.341353034775D-05 0.000000000000D+00 0.000000000000D+00 0.204904511400D-03 0.785972665401D-04  6 22 21 9900012 13 4 -3 2 0.56123635D-03 0.90737718D-01 0.13721318D+04 0.13721318D+04 0.13721318D+04 0.13105360D+01  1  2  1  3  6  2        3 0.135774304684D-01 0.100000000000D+01
  </mgrwgt>
  </event>
  <event>
  7     66 -.21666229E-05 0.30000000E+01 0.78161638E-02 0.13571345E+00
       22 -1    0    0    0    0 0.00000000E+00 0.00000000E+00 0.21696320E+02 0.21696320E+02 0.00000000E+00 0.0000E+00 0.9000E+01
        3 -1    0    0  501    0 -.00000000E+00 -.00000000E+00 -.19124031E+03 0.19124031E+03 0.00000000E+00 0.0000E+00 0.9000E+01
      -24  2    1    2    0    0 -.47109975E+01 0.38318085E+01 -.17585124E+03 0.19208416E+03 0.77044068E+02 0.0000E+00 0.0000E+00
  9900012  1    3    3    0    0 0.13698214E+02 0.10931837E+01 -.86803881E+02 0.10111256E+03 0.50000000E+02 0.0000E+00 0.9000E+01
       13  1    3    3    0    0 -.18409212E+02 0.27386248E+01 -.89047364E+02 0.90971601E+02 0.00000000E+00 0.0000E+00 0.9000E+01
        4  1    1    2  502    0 0.63157416E+00 -.32992756E+01 0.12762789E+02 0.13197457E+02 0.00000000E+00 0.0000E+00 0.9000E+01
       21  1    1    2  501  502 0.40794233E+01 -.53253292E+00 -.64555361E+01 0.76550136E+01 0.00000000E+00 0.0000E+00 0.9000E+01
#aMCatNLO 2  0  0  5  2 0.56062523D+01 0.00000000D+00  -5  6  0 0.00000000D+00 0.00000000D+00 0.00000000D+00 0.00000000D+00 0.00000000D+00
  <mgrwgt>
 -.4447053475D-04    2    2    0
 0.644143694601241D+02 0.000000000000000D+00 0.000000000000000D+00 0.644143694601241D+02
 0.644143694601241D+02 -.000000000000000D+00 -.000000000000000D+00 -.644143694601241D+02
 0.532236842823031D+02 0.134709539313475D+02 0.127803143708247D+01 -.122335851003548D+02
 0.342282017687202D+02 -.185535670067255D+02 0.285603993436379D+01 -.286212854976936D+02
 0.413768528692250D+02 0.508261307537805D+01 -.413407137144627D+01 0.408548705980483D+02
 0.000000000000000D+00 0.000000000000000D+00 0.000000000000000D+00 -.000000000000000D+00
 0.644143694601241D+02 0.000000000000000D+00 0.000000000000000D+00 0.644143694601241D+02
 0.644143694601241D+02 -.000000000000000D+00 -.000000000000000D+00 -.644143694601241D+02
 0.528879783028426D+02 0.136982141032361D+02 0.109318365179151D+01 -.104068308743492D+02
 0.331738147582124D+02 -.184092115844433D+02 0.273862481546344D+01 -.274609331336632D+02
 0.386099895496905D+02 0.631574159824262D+00 -.329927555178674D+01 0.384635826196837D+02
 0.415695630950273D+01 0.407942332138299D+01 -.532532915468222D+00 -.595818611671368D+00
-.140063950976D-06 0.000000000000D+00 0.000000000000D+00 0.607141326738D-06 0.000000000000D+00  6 22 3 9900012 13 4 21 2 0.33378954D-02 0.29421586D-01 0.15186222D+04 0.15186222D+04 0.15186222D+04 0.13047176D+01  1  2 13  2  6  5        4 -.309058237399D-04 0.100000000000D+01
-.615283042822D-07 0.000000000000D+00 0.000000000000D+00 0.607141326738D-06 0.000000000000D+00  6 22 3 9900012 13 4 21 2 0.33378954D-02 0.29421586D-01 0.14869643D+04 0.14869643D+04 0.14869643D+04 0.13059194D+01  1  2  8  2  6  5        4 -.135647110095D-04 0.100000000000D+01
  </mgrwgt>
  </event>
  <event>
  6     66 0.21666229E-05 0.62185961E+01 0.78161638E-02 0.13403565E+00
       22 -1    0    0    0    0 0.00000000E+00 0.00000000E+00 0.13873072E+01 0.13873072E+01 0.00000000E+00 0.0000E+00 0.9000E+01
        1 -1    0    0  501    0 -.00000000E+00 -.00000000E+00 -.18281089E+04 0.18281089E+04 0.00000000E+00 0.0000E+00 0.9000E+01
      -24  2    1    2    0    0 -.16224915E+01 0.60032041E+01 -.18105084E+04 0.18121313E+04 0.76424251E+02 0.0000E+00 0.0000E+00
  9900012  1    3    3    0    0 0.11034861E+02 0.22407186E+02 -.12867712E+04 0.12879844E+04 0.50000000E+02 0.0000E+00 0.9000E+01
       13  1    3    3    0    0 -.12657353E+02 -.16403982E+02 -.52373722E+03 0.52414690E+03 0.00000000E+00 0.0000E+00 0.9000E+01
        2  1    1    2  501    0 0.16224915E+01 -.60032041E+01 -.16213212E+02 0.17364884E+02 0.00000000E+00 0.0000E+00 0.9000E+01
#aMCatNLO 1  0  0  5  2 0.50250745D+00 0.00000000D+00  -5  6  0 0.00000000D+00 0.00000000D+00 0.00000000D+00 0.00000000D+00 0.00000000D+00
  <mgrwgt>
 0.6577605160D-01    8    2    0
 0.503601887505081D+02 0.000000000000000D+00 0.000000000000000D+00 0.503601887505081D+02
 0.503601887505081D+02 -.000000000000000D+00 -.000000000000000D+00 -.503601887505081D+02
 0.574853870516106D+02 0.110348613739281D+02 0.224071862015889D+02 -.134431977393400D+02
 0.218692626521604D+02 -.126573528395326D+02 -.164039821262215D+02 -.699753088220142D+01
 0.213657277972451D+02 0.162249146560446D+01 -.600320407536746D+01 0.204407286215414D+02
 0.000000000000000D+00 0.000000000000000D+00 -.000000000000000D+00 0.000000000000000D+00
 0.503601887505081D+02 0.000000000000000D+00 0.000000000000000D+00 0.503601887505081D+02
 0.503601887505081D+02 -.000000000000000D+00 -.000000000000000D+00 -.503601887505081D+02
 0.574703907911915D+02 0.110384390789739D+02 0.223939487245564D+02 -.133981245297240D+02
 0.218667727229279D+02 -.126559916671115D+02 -.164090184521430D+02 -.698038234450086D+01
 0.166209941961174D+01 0.683246018163097D-02 0.167646370519918D-01 0.166200082584401D+01
 0.197211145672850D+02 0.161072012795592D+01 -.600169490946540D+01 0.187165060483809D+02
0.353116098274D-07 0.000000000000D+00 0.000000000000D+00 0.871406779975D-07 0.000000000000D+00  6 22 1 9900012 13 2 21 0 0.21343187D-03 0.28124752D+00 0.17151835D+04 0.17151835D+04 0.17151835D+04 0.12978383D+01  1  2  2  2  6  5        2 0.137526066333D-04 0.100000000000D+01
-.124669951619D-08 0.000000000000D+00 -.678029397487D-10 0.871406779975D-07 0.000000000000D+00  6 22 1 9900012 13 2 21 2 0.21343187D-03 0.28124752D+00 0.17151835D+04 0.17151835D+04 0.17151835D+04 0.12978383D+01  1  2  3  2  6  5        2 -.817844038948D-06 0.100000000000D+01
0.206857496871D-08 0.000000000000D+00 0.000000000000D+00 0.871406779975D-07 0.000000000000D+00  6 22 1 9900012 13 2 21 2 0.21343187D-03 0.28124752D+00 0.17151835D+04 0.17151835D+04 0.17151835D+04 0.12978383D+01  1  2 15  2  6  5        2 0.135700037203D-05 0.100000000000D+01
0.268808145415D-21 0.000000000000D+00 0.000000000000D+00 0.871406779975D-07 0.000000000000D+00  6 22 1 9900012 13 2 21 2 0.21343187D-03 0.28124752D+00 0.17156864D+04 0.17156864D+04 0.17156864D+04 0.12978219D+01  1  2 12  2  6  5        2 0.176340141846D-18 0.100000000000D+01
-.134479374961D-06 0.000000000000D+00 0.000000000000D+00 0.871406779975D-07 0.000000000000D+00  6 22 1 9900012 13 2 21 2 0.21343187D-03 0.28124752D+00 0.17151835D+04 0.17151835D+04 0.17151835D+04 0.12978383D+01  1  2  4  2  6  5        2 -.882194576524D-04 0.100000000000D+01
-.544422278098D-07 0.000000000000D+00 0.000000000000D+00 0.871406779975D-07 0.000000000000D+00  6 22 1 9900012 13 2 21 2 0.21343187D-03 0.28124752D+00 0.17151835D+04 0.17151835D+04 0.17151835D+04 0.12978383D+01  1  2  5  2  6  5        2 -.357145012917D-04 0.100000000000D+01
0.124655081403D-06 0.000000000000D+00 -.000000000000D+00 0.871406779975D-07 0.000000000000D+00  6 22 1 9900012 13 2 21 2 0.21343187D-03 0.28124752D+00 0.17151835D+04 0.17151835D+04 0.17151835D+04 0.12978383D+01  1  2  6  2  6  5        2 0.817746489238D-04 0.100000000000D+01
0.100309715537D-03 0.000000000000D+00 0.000000000000D+00 0.871406779975D-07 0.220777599525D-03  6 22 1 9900012 13 2 21 2 0.21343187D-03 0.28124752D+00 0.17156864D+04 0.17156864D+04 0.17156864D+04 0.12978219D+01  1  2 11  2  6  5        2 0.658039191448D-01 0.100000000000D+01
  </mgrwgt>
  </event>
  <event>
  6     66 0.21666229E-05 0.34337678E+02 0.78161638E-02 0.12816115E+00
       22 -1    0    0    0    0 0.00000000E+00 0.00000000E+00 0.16173027E+01 0.16173027E+01 0.00000000E+00 0.0000E+00 0.9000E+01
        3 -1    0    0  501    0 -.00000000E+00 -.00000000E+00 -.23403905E+04 0.23403905E+04 0.00000000E+00 0.0000E+00 0.9000E+01
      -24  2    1    2    0    0 0.32542831E+02 -.10956288E+02 -.18541262E+04 0.18561459E+04 0.79464219E+02 0.0000E+00 0.0000E+00
  9900012  1    3    3    0    0 0.22286022E+02 0.58208221E+01 -.82637940E+03 0.82821100E+03 0.50000000E+02 0.0000E+00 0.9000E+01
       13  1    3    3    0    0 0.10256809E+02 -.16777110E+02 -.10277468E+04 0.10279349E+04 0.00000000E+00 0.0000E+00 0.9000E+01
        4  1    1    2  501    0 -.32542831E+02 0.10956288E+02 -.48464703E+03 0.48586194E+03 0.00000000E+00 0.0000E+00 0.9000E+01
#aMCatNLO 1  0  0  5  2 0.15137552D+02 0.00000000D+00  -5  6  0 0.00000000D+00 0.00000000D+00 0.00000000D+00 0.00000000D+00 0.00000000D+00
  <mgrwgt>
 0.1044628336D-04    5    2    0
 0.615233279345502D+02 0.000000000000000D+00 0.000000000000000D+00 0.615233279345502D+02
 0.615233279345502D+02 -.000000000000000D+00 -.000000000000000D+00 -.615233279345502D+02
 0.565853178195125D+02 0.222860220181782D+02 0.582082207860461D+01 0.130900514005771D+02
 0.305972290168323D+02 0.102568092649625D+02 -.167771098991656D+02 -.234417761835997D+02
 0.358641090327556D+02 -.325428312831407D+02 0.109562878205610D+02 0.103517247830226D+02
 0.000000000000000D+00 0.000000000000000D+00 0.000000000000000D+00 -.000000000000000D+00
 0.615233279345502D+02 0.000000000000000D+00 0.000000000000000D+00 0.615233279345502D+02
 0.615233279345502D+02 -.000000000000000D+00 -.000000000000000D+00 -.615233279345502D+02
 0.549220806684764D+02 0.139167970093858D+02 0.863851293142450D+01 0.157522633385743D+02
 0.274877623247530D+02 0.589722085411958D+01 -.153093548352993D+02 -.220550111844620D+02
 0.298403170842836D+02 -.285072724243732D+02 0.769421545016018D+00 0.878566634349541D+01
 0.107964957915874D+02 0.869325456086781D+01 0.590142035885874D+01 -.248291849760772D+01
0.129589824838D-05 0.000000000000D+00 0.000000000000D+00 0.205475319610D-06 0.000000000000D+00  6 22 3 9900012 13 4 21 0 0.24881580D-03 0.36006008D+00 0.29730909D+04 0.29730909D+04 0.29730909D+04 0.12680934D+01  1  2  2  2  6  5        4 0.937309573743D-05 0.100000000000D+01
-.529051846522D-07 0.000000000000D+00 -.248829524581D-08 0.205475319610D-06 0.000000000000D+00  6 22 3 9900012 13 4 21 2 0.24881580D-03 0.36006008D+00 0.29730909D+04 0.29730909D+04 0.29730909D+04 0.12680934D+01  1  2  3  2  6  5        4 -.615336805888D-06 0.100000000000D+01
0.518048092758D-07 0.000000000000D+00 0.000000000000D+00 0.205475319610D-06 0.000000000000D+00  6 22 3 9900012 13 4 21 2 0.24881580D-03 0.36006008D+00 0.29730909D+04 0.29730909D+04 0.29730909D+04 0.12680934D+01  1  2 15  2  6  5        4 0.602538410535D-06 0.100000000000D+01
0.323411899827D-06 0.000000000000D+00 0.000000000000D+00 0.205475319610D-06 0.000000000000D+00  6 22 3 9900012 13 4 21 2 0.24881580D-03 0.36006008D+00 0.29184475D+04 0.29184475D+04 0.29184475D+04 0.12690628D+01  1  2 12  2  6  5        4 0.376087855955D-05 0.100000000000D+01
-.229980853489D-06 0.000000000000D+00 0.000000000000D+00 0.205475319610D-06 0.000000000000D+00  6 22 3 9900012 13 4 21 2 0.24881580D-03 0.36006008D+00 0.29730909D+04 0.29730909D+04 0.29730909D+04 0.12680934D+01  1  2  4  2  6  5        4 -.267489254090D-05 0.100000000000D+01
  </mgrwgt>
  </event>
  <event>
  7     66 0.21666229E-05 0.14958202E+02 0.78161638E-02 0.13646574E+00
       22 -1    0    0    0    0 0.00000000E+00 0.00000000E+00 0.94577780E+01 0.94577780E+01 0.00000000E+00 0.0000E+00 0.9000E+01
        1 -1    0    0  501    0 -.00000000E+00 -.00000000E+00 -.30888077E+03 0.30888077E+03 0.00000000E+00 0.0000E+00 0.9000E+01
      -24  2    1    2    0    0 -.95699683E+01 0.11479279E+02 -.28044727E+03 0.29200538E+03 0.79956950E+02 0.0000E+00 0.0000E+00
  9900012  1    3    3    0    0 -.33544824E+01 0.15334124E+02 -.11479175E+03 0.12618849E+03 0.50000000E+02 0.0000E+00 0.9000E+01
       13  1    3    3    0    0 -.62154859E+01 -.38548453E+01 -.16565552E+03 0.16581690E+03 0.00000000E+00 0.0000E+00 0.9000E+01
        2  1    1    2  502    0 -.32959011E-01 0.12398740E-01 0.12034812E+01 0.12039963E+01 0.00000000E+00 0.0000E+00 0.9000E+01
       21  1    1    2  501  502 0.96029274E+01 -.11491677E+02 -.20179198E+02 0.25129164E+02 0.00000000E+00 0.0000E+00 0.9000E+01
#aMCatNLO 2  0  0  5  2 0.46846856D+01 0.00000000D+00  -5  6  0 0.00000000D+00 0.00000000D+00 0.00000000D+00 0.00000000D+00 0.00000000D+00
  <mgrwgt>
 0.4994304536D-01    2    2    0
 0.540492896934070D+02 0.000000000000000D+00 0.000000000000000D+00 0.540492896934070D+02
 0.540492896934070D+02 -.000000000000000D+00 -.000000000000000D+00 -.540492896934070D+02
 0.536730667540534D+02 -.384307369869780D+01 0.159201943675790D+02 0.106101974830797D+02
 0.299469812248311D+02 -.648595136847552D+01 -.353041916416157D+01 -.290222373336633D+02
 0.244785314079295D+02 0.103290250671733D+02 -.123897752034175D+02 0.184120398505836D+02
 0.000000000000000D+00 0.000000000000000D+00 0.000000000000000D+00 0.000000000000000D+00
 0.540492896934070D+02 0.000000000000000D+00 0.000000000000000D+00 0.540492896934070D+02
 0.540492896934070D+02 -.000000000000000D+00 -.000000000000000D+00 -.540492896934070D+02
 0.536488996116196D+02 -.335448242297980D+01 0.153341239463022D+02 0.114811375747789D+02
 0.294623563961068D+02 -.621548591726608D+01 -.385484534368800D+01 -.285401181952656D+02
 0.687916859128655D+01 -.329590108878559D-01 0.123987399363892D-01 0.687907846169766D+01
 0.181081547878010D+02 0.960292735113374D+01 -.114916773425506D+02 0.101799021587890D+02
-.146743856844D-08 0.000000000000D+00 0.000000000000D+00 0.576429935377D-06 0.000000000000D+00  6 22 1 9900012 13 2 21 2 0.14550428D-02 0.47520118D-01 0.13961747D+04 0.13961747D+04 0.13961747D+04 0.13095339D+01  1  2 13  2  6  5        2 -.132481301714D-05 0.100000000000D+01
0.553212371242D-04 0.000000000000D+00 0.000000000000D+00 0.576429935377D-06 0.132276763766D-02  6 22 1 9900012 13 2 21 2 0.14550428D-02 0.47520118D-01 0.13961747D+04 0.13961747D+04 0.13961747D+04 0.13095339D+01  1  2  1  2  6  5        2 0.499443701718D-01 0.100000000000D+01
  </mgrwgt>
  </event>
  <event>
  7     66 0.21666229E-05 0.53945849E+01 0.78161638E-02 0.13223364E+00
       22 -1    0    0    0    0 0.00000000E+00 0.00000000E+00 0.12782292E+03 0.12782292E+03 0.00000000E+00 0.0000E+00 0.9000E+01
       21 -1    0    0  501  502 0.00000000E+00 0.00000000E+00 -.87242618E+02 0.87242618E+02 0.00000000E+00 0.0000E+00 0.9000E+01
      -24  2    1    2    0    0 -.56404573E+01 0.13665472E+01 0.66541685E+02 0.10720635E+03 0.83855370E+02 0.0000E+00 0.0000E+00
  9900012  1    3    3    0    0 0.22949863E+02 0.20077094E+01 0.38694132E+02 0.67290140E+02 0.50000000E+02 0.0000E+00 0.9000E+01
       13  1    3    3    0    0 -.28590320E+02 -.64116216E+00 0.27847553E+02 0.39916209E+02 0.00000000E+00 0.0000E+00 0.9000E+01
        2  1    1    2  501    0 0.29185246E+00 0.26992723E+00 0.40831043E+02 0.40832978E+02 0.00000000E+00 0.0000E+00 0.9000E+01
       -1  1    1    2    0  502 0.53486048E+01 -.16364745E+01 -.66792423E+02 0.67026214E+02 0.00000000E+00 0.0000E+00 0.9000E+01
#aMCatNLO 2  0  0  2  5 0.31168033D+03 0.00000000D+00  -5  6  0 0.00000000D+00 0.00000000D+00 0.00000000D+00 0.00000000D+00 0.00000000D+00
  <mgrwgt>
 0.6049109691D-02    1    2    0
 0.508808752939195D+02 0.000000000000000D+00 0.000000000000000D+00 0.508808752939195D+02
 0.508808752939195D+02 0.000000000000000D+00 0.000000000000000D+00 -.508808752939195D+02
 0.582375662395812D+02 0.259754377734780D+02 0.108199572313789D+01 -.146874109100582D+02
 0.271932407737096D+02 -.271240636974215D+02 -.108978208919703D+01 -.160308680776564D+01
 0.163309435745481D+02 0.114862592394349D+01 0.778636605914390D-02 0.162904977178238D+02
 0.000000000000000D+00 0.000000000000000D+00 -.000000000000000D+00 -.000000000000000D+00
 0.510043213727809D+02 0.000000000000000D+00 0.000000000000000D+00 0.510043213727809D+02
 0.218640424383147D+03 0.000000000000000D+00 0.000000000000000D+00 -.218640424383147D+03
 0.569776019760183D+02 0.229498625419709D+02 0.200770939164828D+01 -.146874109100582D+02
 0.286424049998378D+02 -.285903198293530D+02 -.641162161081705D+00 -.160308680776564D+01
 0.162953476324771D+02 0.291852461727200D+00 0.269927229895981D+00 0.162904977178238D+02
 0.167729391147595D+03 0.534860482565488D+01 -.163647446046256D+01 -.167636103010366D+03
0.476802128892D-05 0.000000000000D+00 0.000000000000D+00 0.160288748460D-05 0.127609739684D-05  6 22 21 9900012 13 2 -1 2 0.19665065D-01 0.13421941D-01 0.20088523D+04 0.20088523D+04 0.20088523D+04 0.12890683D+01  1  2  1  3  6  2        1 0.604910969095D-02 0.100000000000D+01
  </mgrwgt>
  </event>
  <event>
  7     66 0.21666229E-05 0.20502644E+02 0.78161638E-02 0.13431404E+00
       22 -1    0    0    0    0 0.00000000E+00 0.00000000E+00 0.60289434E+02 0.60289434E+02 0.00000000E+00 0.0000E+00 0.9000E+01
        3 -1    0    0  501    0 -.00000000E+00 -.00000000E+00 -.66204013E+02 0.66204013E+02 0.00000000E+00 0.0000E+00 0.9000E+01
      -24  2    1    2    0    0 -.20590421E+02 -.10612246E+01 -.10672372E+02 0.83574754E+02 0.80285419E+02 0.0000E+00 0.0000E+00
  9900012  1    3    3    0    0 -.14823792E+02 0.55262018E+01 0.16539303E+02 0.54989383E+02 0.50000000E+02 0.0000E+00 0.9000E+01
       13  1    3    3    0    0 -.57666290E+01 -.65874264E+01 -.27211675E+02 0.28585371E+02 0.00000000E+00 0.0000E+00 0.9000E+01
        4  1    1    2  502    0 0.68124377E-01 -.76333388E-01 0.18302828E+02 0.18303114E+02 0.00000000E+00 0.0000E+00 0.9000E+01
       21  1    1    2  501  502 0.20522296E+02 0.11375580E+01 -.13545036E+02 0.24615578E+02 0.00000000E+00 0.0000E+00 0.9000E+01
#aMCatNLO 2  0  0  5  2 0.18553014D+02 0.00000000D+00  -5  6  0 0.00000000D+00 0.00000000D+00 0.00000000D+00 0.00000000D+00 0.00000000D+00
  <mgrwgt>
 0.1217955085D+00    2    2    0
 0.631775469213759D+02 0.000000000000000D+00 0.000000000000000D+00 0.631775469213759D+02
 0.631775469213759D+02 -.000000000000000D+00 -.000000000000000D+00 -.631775469213759D+02
 0.582632313925296D+02 -.248828485583753D+02 0.500776078539085D+01 0.158230942560774D+02
 0.304207997965939D+02 -.108596579883506D+02 -.684991969931986D+01 -.275784605943365D+02
 0.376710626536282D+02 0.357425065467258D+02 0.184215891392901D+01 0.117553663382591D+02
 0.000000000000000D+00 0.000000000000000D+00 0.000000000000000D+00 -.000000000000000D+00
 0.631775469213759D+02 0.000000000000000D+00 0.000000000000000D+00 0.631775469213759D+02
 0.631775469213759D+02 -.000000000000000D+00 -.000000000000000D+00 -.631775469213759D+02
 0.558237851374507D+02 -.148237918376765D+02 0.552620179006768D+01 0.191314211808989D+02
 0.273429144547250D+02 -.576662903794798D+01 -.658742639411147D+01 -.259034123991274D+02
 0.191798955492292D+02 0.681243765824249D-01 -.763333879009773D-01 0.191796226647593D+02
 0.240084987013468D+02 0.205222964990421D+02 0.113755799194477D+01 -.124076314465308D+02
-.582058636338D-08 0.000000000000D+00 0.000000000000D+00 0.243449726251D-06 0.000000000000D+00  6 22 3 9900012 13 4 21 2 0.92752975D-02 0.10185233D-01 0.16750257D+04 0.16750257D+04 0.16750257D+04 0.12991689D+01  1  2 13  2  6  5        4 -.188390996080D-05 0.100000000000D+01
0.376308982988D-03 0.000000000000D+00 0.000000000000D+00 0.243449726251D-06 0.172915140382D-03  6 22 3 9900012 13 4 21 2 0.92752975D-02 0.10185233D-01 0.16750257D+04 0.16750257D+04 0.16750257D+04 0.12991689D+01  1  2  1  2  6  5        4 0.121797392415D+00 0.100000000000D+01
  </mgrwgt>
  </event>
  <event>
  6     66 0.21666229E-05 0.17165316E+02 0.78161638E-02 0.13040540E+00
       22 -1    0    0    0    0 0.00000000E+00 0.00000000E+00 0.31836373E+02 0.31836373E+02 0.00000000E+00 0.0000E+00 0.9000E+01
        3 -1    0    0  501    0 0.00000000E+00 0.00000000E+00 -.99570328E+02 0.99570328E+02 0.00000000E+00 0.0000E+00 0.9000E+01
      -24  2    1    2    0    0 -.54249224E+01 0.16285524E+02 -.75266950E+02 0.11266119E+03 0.82053533E+02 0.0000E+00 0.0000E+00
  9900012  1    3    3    0    0 0.77145840E+01 -.75792640E+01 -.28556992E+02 0.58587216E+02 0.50000000E+02 0.0000E+00 0.9000E+01
       13  1    3    3    0    0 -.13139506E+02 0.23864788E+02 -.46709958E+02 0.54073976E+02 0.00000000E+00 0.0000E+00 0.9000E+01
        4  1    1    2  501    0 0.54249224E+01 -.16285524E+02 0.75329944E+01 0.18745509E+02 0.00000000E+00 0.0000E+00 0.9000E+01
#aMCatNLO 1  0  0  2  5 0.28248540D+01 0.00000000D+00  -5  6  0 0.00000000D+00 0.00000000D+00 0.00000000D+00 0.00000000D+00 0.00000000D+00
  <mgrwgt>
 0.1647266268D-03    8    2    0
 0.563023805128283D+02 0.000000000000000D+00 0.000000000000000D+00 0.563023805128283D+02
 0.563023805128283D+02 0.000000000000000D+00 0.000000000000000D+00 -.563023805128283D+02
 0.511921043668482D+02 0.771458404003419D+01 -.757926400066719D+01 0.191611581166752D+01
 0.350059141781903D+02 -.131395064279934D+02 0.238647883005529D+02 -.219827040568110D+02
 0.264067424806181D+02 0.542492238795921D+01 -.162855242998857D+02 0.200665882451435D+02
 0.000000000000000D+00 -.000000000000000D+00 0.000000000000000D+00 0.000000000000000D+00
 0.574177483526694D+02 0.000000000000000D+00 0.000000000000000D+00 0.574177483526694D+02
 0.570083861115028D+02 0.000000000000000D+00 0.000000000000000D+00 -.570083861115028D+02
 0.513493502386982D+02 0.847808971685926D+01 -.782344328832614D+01 0.191611581166752D+01
 0.347008478995726D+02 -.126204821098364D+02 0.236987974086289D+02 -.219827040568110D+02
 0.265683264553538D+02 0.581936545509145D+01 -.164116724479320D+02 0.200665882451435D+02
 0.180760987054755D+01 -.167697306211427D+01 0.536318327629305D+00 0.409362241166616D+00
0.472411143169D-06 0.000000000000D+00 0.000000000000D+00 0.984812444660D-07 0.000000000000D+00  6 22 3 9900012 13 4 21 0 0.48979035D-02 0.15318512D-01 0.22831402D+04 0.22831402D+04 0.22831402D+04 0.12821041D+01  1  2  2  1  6  2        3 0.117481871964D-03 0.100000000000D+01
-.182487612428D-07 0.000000000000D+00 -.907091589240D-09 0.984812444660D-07 0.000000000000D+00  6 22 3 9900012 13 4 21 2 0.48979035D-02 0.15318512D-01 0.22831402D+04 0.22831402D+04 0.22831402D+04 0.12821041D+01  1  2  3  1  6  2        3 -.745986060228D-05 0.100000000000D+01
0.288522917455D-07 0.000000000000D+00 0.000000000000D+00 0.984812444660D-07 0.000000000000D+00  6 22 3 9900012 13 4 21 2 0.48979035D-02 0.15318512D-01 0.22831402D+04 0.22831402D+04 0.22831402D+04 0.12821041D+01  1  2 15  1  6  2        3 0.117944484896D-04 0.100000000000D+01
0.284620616675D-08 0.000000000000D+00 0.000000000000D+00 0.984812444660D-07 0.000000000000D+00  6 22 3 9900012 13 4 21 2 0.48979035D-02 0.15817869D-01 0.23686162D+04 0.23686162D+04 0.23686162D+04 0.12801260D+01  1  2 12  1  6  2        3 0.110550331803D-05 0.100000000000D+01
-.514423448776D-06 0.000000000000D+00 0.000000000000D+00 0.984812444660D-07 0.000000000000D+00  6 22 3 9900012 13 4 21 2 0.48979035D-02 0.15318512D-01 0.22831402D+04 0.22831402D+04 0.22831402D+04 0.12821041D+01  1  2  4  1  6  2        3 -.210289737881D-03 0.100000000000D+01
0.515134994353D-06 0.000000000000D+00 0.000000000000D+00 0.984812444660D-07 0.158135126108D-06  6 22 3 9900012 13 4 21 2 0.49949325D-02 0.15510599D-01 0.23686162D+04 0.23686162D+04 0.23686162D+04 0.12801260D+01  1  2 11  1  6  2        3 0.201245131964D-03 0.100000000000D+01
0.930278279530D-10 0.000000000000D+00 0.000000000000D+00 0.984812444660D-07 0.000000000000D+00  6 22 21 9900012 13 4 -3 2 0.48979035D-02 0.15817869D-01 0.23686162D+04 0.23686162D+04 0.23686162D+04 0.12801260D+01  1  2 12  3  6  2        3 0.628831516655D-06 0.100000000000D+01
0.738088538585D-08 0.000000000000D+00 0.000000000000D+00 0.984812444660D-07 0.546881839130D-09  6 22 21 9900012 13 4 -3 2 0.49949325D-02 0.15510599D-01 0.23686162D+04 0.23686162D+04 0.23686162D+04 0.12801260D+01  1  2 11  3  6  2        3 0.502204380496D-04 0.100000000000D+01
  </mgrwgt>
  </event>
  <event>
  7     66 0.21666229E-05 0.19907288E+02 0.78161638E-02 0.12721043E+00
       22 -1    0    0    0    0 0.00000000E+00 0.00000000E+00 0.88708805E+01 0.88708805E+01 0.00000000E+00 0.0000E+00 0.9000E+01
       21 -1    0    0  501  502 0.00000000E+00 0.00000000E+00 -.61334537E+03 0.61334537E+03 0.00000000E+00 0.0000E+00 0.9000E+01
      -24  2    1    2    0    0 0.37914259E+01 0.36899433E+02 -.33656404E+03 0.34833219E+03 0.81755839E+02 0.0000E+00 0.0000E+00
  9900012  1    3    3    0    0 0.96593496E+01 0.42770161E+02 -.18585441E+03 0.19739415E+03 0.50000000E+02 0.0000E+00 0.9000E+01
       13  1    3    3    0    0 -.58679237E+01 -.58707282E+01 -.15070963E+03 0.15093804E+03 0.00000000E+00 0.0000E+00 0.9000E+01
        2  1    1    2  501    0 0.31482058E+01 -.11818978E+02 -.13781906E+02 0.18426621E+02 0.00000000E+00 0.0000E+00 0.9000E+01
       -1  1    1    2    0  502 -.69396317E+01 -.25080455E+02 -.25412854E+03 0.25545744E+03 0.00000000E+00 0.0000E+00 0.9000E+01
#aMCatNLO 2  0  0  2  2 0.28271706D+02 0.00000000D+00  -5  6  0 0.00000000D+00 0.00000000D+00 0.00000000D+00 0.00000000D+00 0.00000000D+00
  <mgrwgt>
 0.9020583741D-05    1    2    0
 0.526605984180289D+02 0.000000000000000D+00 0.000000000000000D+00 0.526605984180289D+02
 0.526605984180289D+02 0.000000000000000D+00 0.000000000000000D+00 -.526605984180289D+02
 0.583261297042552D+02 0.558744987211945D+01 0.280539481770595D+02 0.914843166247735D+01
 0.260660545498251D+02 -.747904582891762D+01 -.116934690485496D+02 -.220627707891376D+02
 0.209290125819775D+02 0.189159595679817D+01 -.163604791285099D+02 0.129143391266602D+02
 0.000000000000000D+00 -.000000000000000D+00 -.000000000000000D+00 -.000000000000000D+00
 0.586362052678332D+02 0.000000000000000D+00 0.000000000000000D+00 0.586362052678332D+02
 0.927910227263165D+02 0.000000000000000D+00 0.000000000000000D+00 -.927910227263165D+02
 0.671288575480409D+02 0.965934958761036D+01 0.427701610865155D+02 0.914843166247735D+01
 0.235725228448266D+02 -.586792367588455D+01 -.587072824356945D+01 -.220627707891376D+02
 0.177870624075874D+02 0.314820582291609D+01 -.118189777100043D+02 0.129143391266602D+02
 0.429387851936948D+02 -.693963173464191D+01 -.250804551329417D+02 -.341548174584832D+02
0.802816125874D-08 0.000000000000D+00 0.000000000000D+00 0.106467865473D-06 0.220720167585D-09  6 22 21 9900012 13 2 -1 2 0.13647508D-02 0.94360825D-01 0.31954685D+04 0.31954685D+04 0.31954685D+04 0.12643470D+01  1  2  1  3  6  2        1 0.902058374100D-05 0.100000000000D+01
  </mgrwgt>
  </event>
  <event>
  7     66 0.21666229E-05 0.76675797E+01 0.78161638E-02 0.13508493E+00
       22 -1    0    0    0    0 0.00000000E+00 0.00000000E+00 0.12965218E+02 0.12965218E+02 0.00000000E+00 0.0000E+00 0.9000E+01
        1 -1    0    0  502    0 0.00000000E+00 0.00000000E+00 -.46155139E+03 0.46155139E+03 0.00000000E+00 0.0000E+00 0.9000E+01
      -24  2    1    2    0    0 -.66823639E+00 0.75411767E+01 -.34963641E+03 0.35830254E+03 0.77960128E+02 0.0000E+00 0.0000E+00
  9900012  1    3    3    0    0 0.13255541E+02 0.16910241E+02 -.31664821E+03 0.32129076E+03 0.50000000E+02 0.0000E+00 0.9000E+01
       13  1    3    3    0    0 -.13923778E+02 -.93690642E+01 -.32988199E+02 0.37011785E+02 0.00000000E+00 0.0000E+00 0.9000E+01
        2  1    1    2  501    0 0.56800155E-01 0.21213478E+00 0.84901648E+01 0.84930045E+01 0.00000000E+00 0.0000E+00 0.9000E+01
       21  1    1    2  502  501 0.61143623E+00 -.77533115E+01 -.10743993E+03 0.10772106E+03 0.00000000E+00 0.0000E+00 0.9000E+01
#aMCatNLO 2  0  0  2  5 0.21244865D+01 0.00000000D+00  -5  6  0 0.00000000D+00 0.00000000D+00 0.00000000D+00 0.00000000D+00 0.00000000D+00
  <mgrwgt>
 0.3847723490D-01    1    2    0
 0.672639012550900D+02 0.000000000000000D+00 0.000000000000000D+00 0.672639012550900D+02
 0.672639012550900D+02 0.000000000000000D+00 0.000000000000000D+00 -.672639012550900D+02
 0.721164678985235D+02 0.135848408969016D+02 0.127345603257930D+02 -.485187387848589D+02
 0.177367475262281D+02 -.138443781528264D+02 -.103758891780468D+02 0.390721513812487D+01
 0.446745870854285D+02 0.259537255924807D+00 -.235867114774622D+01 0.446115236467340D+02
 0.000000000000000D+00 0.000000000000000D+00 -.000000000000000D+00 -.000000000000000D+00
 0.681146875752181D+02 0.000000000000000D+00 0.000000000000000D+00 0.681146875752181D+02
 0.878535106665893D+02 0.000000000000000D+00 0.000000000000000D+00 -.878535106665893D+02
 0.729090778604569D+02 0.132555412945133D+02 0.169102408669496D+02 -.485187387848589D+02
 0.172312877848414D+02 -.139237776825022D+02 -.936906418147982D+01 0.390721513812487D+01
 0.446120641699548D+02 0.568001546568258D-01 0.212134776692445D+00 0.446115236467340D+02
 0.212157684265543D+02 0.611436233332083D+00 -.775331146216223D+01 -.197388230913712D+02
0.105466501918D-03 0.000000000000D+00 0.000000000000D+00 0.116640862782D-05 0.234761106676D-04  6 22 1 9900012 13 2 21 2 0.19946489D-02 0.71007907D-01 0.15681853D+04 0.15681853D+04 0.15681853D+04 0.13028919D+01  1  2  1  1  6  2        1 0.384772348979D-01 0.100000000000D+01
  </mgrwgt>
  </event>
  <event>
  7     66 0.21666229E-05 0.82686869E+01 0.78161638E-02 0.13883536E+00
       22 -1    0    0    0    0 0.00000000E+00 0.00000000E+00 0.62358236E+03 0.62358236E+03 0.00000000E+00 0.0000E+00 0.9000E+01
        1 -1    0    0  501    0 0.00000000E+00 0.00000000E+00 -.17430008E+02 0.17430008E+02 0.00000000E+00 0.0000E+00 0.9000E+01
      -24  2    1    2    0    0 -.29518502E+01 0.78162110E+01 0.76445749E+02 0.10992977E+03 0.78554413E+02 0.0000E+00 0.0000E+00
  9900012  1    3    3    0    0 -.99917527E+01 0.10282289E+02 0.84326657E+02 0.99078483E+02 0.50000000E+02 0.0000E+00 0.9000E+01
       13  1    3    3    0    0 0.70399025E+01 -.24660781E+01 -.78809085E+01 0.10851290E+02 0.00000000E+00 0.0000E+00 0.9000E+01
        2  1    1    2  502    0 0.26077840E-01 -.51567430E-01 0.50537628E+03 0.50537628E+03 0.00000000E+00 0.0000E+00 0.9000E+01
       21  1    1    2  501  502 0.29257724E+01 -.77646436E+01 0.24330323E+02 0.25706312E+02 0.00000000E+00 0.0000E+00 0.9000E+01
#aMCatNLO 2  0  0  5  2 0.10638262D+02 0.00000000D+00  -5  6  0 0.00000000D+00 0.00000000D+00 0.00000000D+00 0.00000000D+00 0.00000000D+00
  <mgrwgt>
 0.2022329048D+00    2    2    0
 0.104254713397145D+03 0.000000000000000D+00 0.000000000000000D+00 0.104254713397145D+03
 0.104254713397145D+03 -.000000000000000D+00 -.000000000000000D+00 -.104254713397145D+03
 0.606372059693065D+02 -.100714608021506D+02 0.104933484096190D+02 -.310696968802271D+02
 0.584149097714071D+02 0.696377964164238D+01 -.226451227720221D+01 -.579541149604640D+02
 0.894573110535764D+02 0.310768116050818D+01 -.822883613241677D+01 0.890238118406911D+02
 0.000000000000000D+00 0.000000000000000D+00 -.000000000000000D+00 0.000000000000000D+00
 0.104254713397145D+03 0.000000000000000D+00 0.000000000000000D+00 0.104254713397145D+03
 0.104254713397145D+03 -.000000000000000D+00 -.000000000000000D+00 -.104254713397145D+03
 0.594492594759582D+02 -.999175270385148D+01 0.102822891517823D+02 -.287863484996625D+02
 0.562700797335138D+02 0.703990247849159D+01 -.246607811295366D+01 -.557734713376364D+02
 0.844922321276346D+02 0.260778395039267D-01 -.515674304961431D-01 0.844922123669187D+02
 0.829785545718337D+01 0.292577238585596D+01 -.776464360833254D+01 0.676074703801681D-01
-.109497867937D-07 0.000000000000D+00 0.000000000000D+00 0.618143257819D-05 0.000000000000D+00  6 22 1 9900012 13 2 21 2 0.95935747D-01 0.26815396D-02 0.11625140D+04 0.11625140D+04 0.11625140D+04 0.13202250D+01  1  2  8  2  6  5        2 -.792392786406D-06 0.100000000000D+01
0.279575833902D-02 0.000000000000D+00 0.000000000000D+00 0.618143257819D-05 0.133023554689D-01  6 22 1 9900012 13 2 21 2 0.95935747D-01 0.26815396D-02 0.11502174D+04 0.11502174D+04 0.11502174D+04 0.13208545D+01  1  2  1  2  6  5        2 0.202233697207D+00 0.100000000000D+01
  </mgrwgt>
  </event>
  <event>
  6     66 -.21666229E-05 0.70868982E+01 0.78161638E-02 0.13219221E+00
       22 -1    0    0    0    0 0.00000000E+00 0.00000000E+00 0.44417869E+03 0.44417869E+03 0.00000000E+00 0.0000E+00 0.9000E+01
        3 -1    0    0  501    0 0.00000000E+00 0.00000000E+00 -.45940101E+01 0.45940101E+01 0.00000000E+00 0.0000E+00 0.9000E+01
      -24  2    1    2    0    0 -.70726317E+01 0.44945166E+00 0.42383213E+03 0.43149940E+03 0.80671134E+02 0.0000E+00 0.0000E+00
  9900012  1    3    3    0    0 -.24608209E+01 0.16968425E+02 0.39002727E+03 0.39359275E+03 0.50000000E+02 0.0000E+00 0.9000E+01
       13  1    3    3    0    0 -.46118108E+01 -.16518974E+02 0.33804866E+02 0.37906652E+02 0.00000000E+00 0.0000E+00 0.9000E+01
        4  1    1    2  501    0 0.70726317E+01 -.44945166E+00 0.15752545E+02 0.17273297E+02 0.00000000E+00 0.0000E+00 0.9000E+01
#aMCatNLO 1  0  0  2  5 0.12552945D+02 0.00000000D+00  -5  6  0 0.00000000D+00 0.00000000D+00 0.00000000D+00 0.00000000D+00 0.00000000D+00
  <mgrwgt>
 -.3011313502D-03    5    2    0
 0.451725734490536D+02 0.000000000000000D+00 0.000000000000000D+00 0.451725734490536D+02
 0.451725734490536D+02 0.000000000000000D+00 0.000000000000000D+00 -.451725734490536D+02
 0.573762908929904D+02 -.246082089597327D+01 0.169684254748430D+02 0.223171605286087D+02
 0.238127823331500D+02 -.461181080896416D+01 -.165189738108380D+02 -.165197853419817D+02
 0.915607367196670D+01 0.707263170493743D+01 -.449451664005008D+00 -.579737518662703D+01
 0.000000000000000D+00 0.000000000000000D+00 -.000000000000000D+00 -.000000000000000D+00
 0.457703171324592D+02 0.000000000000000D+00 0.000000000000000D+00 0.457703171324592D+02
 0.282406500565215D+03 0.000000000000000D+00 0.000000000000000D+00 -.282406500565215D+03
 0.603018691796123D+02 -.346739038862937D+01 0.250247272989782D+02 0.223171605286087D+02
 0.218472255879219D+02 -.500236731477145D+01 -.133930683337502D+02 -.165197853419817D+02
 0.906025139009428D+01 0.691681692108574D+01 0.797646461390378D+00 -.579737518662703D+01
 0.236967471540046D+03 0.155294078231509D+01 -.124293054266183D+02 -.236636183432756D+03
0.208844203558D-07 0.000000000000D+00 0.000000000000D+00 0.286392489583D-06 0.000000000000D+00  6 22 3 9900012 13 4 21 0 0.68335183D-01 0.70677079D-03 0.14859369D+04 0.14859369D+04 0.14859369D+04 0.13059589D+01  1  2  2  1  6  2        3 0.890488229958D-05 0.100000000000D+01
0.223283186465D-08 0.000000000000D+00 -.401008365803D-10 0.286392489583D-06 0.000000000000D+00  6 22 3 9900012 13 4 21 2 0.68335183D-01 0.70677079D-03 0.14859369D+04 0.14859369D+04 0.14859369D+04 0.13059589D+01  1  2  3  1  6  2        3 0.162375607944D-05 0.100000000000D+01
-.594378795448D-10 0.000000000000D+00 0.000000000000D+00 0.286392489583D-06 0.000000000000D+00  6 22 3 9900012 13 4 21 2 0.68335183D-01 0.70677079D-03 0.14859369D+04 0.14859369D+04 0.14859369D+04 0.13059589D+01  1  2 15  1  6  2        3 -.432243107006D-07 0.100000000000D+01
-.110378100890D-05 0.000000000000D+00 -.975514386569D-08 0.286392489583D-06 0.000000000000D+00  6 22 3 9900012 13 4 21 2 0.68335183D-01 0.44628621D-02 0.14859369D+04 0.14859369D+04 0.14859369D+04 0.13059589D+01  1  2  5  1  6  2        3 -.596087326692D-04 0.100000000000D+01
-.249971643377D-06 0.000000000000D+00 -.220285593121D-08 0.286392489583D-06 0.000000000000D+00  6 22 21 9900012 13 4 -3 2 0.68335183D-01 0.44628621D-02 0.14859369D+04 0.14859369D+04 0.14859369D+04 0.13059589D+01  1  2  5  3  6  2        3 -.252008031631D-03 0.100000000000D+01
  </mgrwgt>
  </event>
  <event>
  7     66 0.21666229E-05 0.15041426E+02 0.78161638E-02 0.13270121E+00
       22 -1    0    0    0    0 0.00000000E+00 0.00000000E+00 0.11792762E+04 0.11792762E+04 0.00000000E+00 0.0000E+00 0.9000E+01
        1 -1    0    0  502    0 0.00000000E+00 0.00000000E+00 -.23815386E+01 0.23815386E+01 0.00000000E+00 0.0000E+00 0.9000E+01
      -24  2    1    2    0    0 0.92487181E+01 0.11909652E+02 0.83575436E+03 0.83965849E+03 0.79458516E+02 0.0000E+00 0.0000E+00
  9900012  1    3    3    0    0 0.62471215E+01 0.27108997E+02 0.76917686E+03 0.77130212E+03 0.50000000E+02 0.0000E+00 0.9000E+01
       13  1    3    3    0    0 0.30015966E+01 -.15199345E+02 0.66577500E+02 0.68356369E+02 0.00000000E+00 0.0000E+00 0.9000E+01
        2  1    1    2  501    0 0.10550641E-01 -.33603387E-01 0.20956160E+03 0.20956160E+03 0.00000000E+00 0.0000E+00 0.9000E+01
       21  1    1    2  502  501 -.92592688E+01 -.11876048E+02 0.13157870E+03 0.13243764E+03 0.00000000E+00 0.0000E+00 0.9000E+01
#aMCatNLO 2  0  0  2  5 0.33508624D+02 0.00000000D+00  -5  6  0 0.00000000D+00 0.00000000D+00 0.00000000D+00 0.00000000D+00 0.00000000D+00
  <mgrwgt>
 0.1706049601D-01    1    2    0
 0.445830086044345D+02 0.000000000000000D+00 0.000000000000000D+00 0.445830086044345D+02
 0.445830086044345D+02 0.000000000000000D+00 0.000000000000000D+00 -.445830086044345D+02
 0.544271129898465D+02 0.457633631644593D+00 0.196833309573542D+02 0.864104636557244D+01
 0.255598307673035D+02 0.471516863836758D+00 -.184444557206447D+02 -.176885464035203D+02
 0.917907345171891D+01 -.929150495481351D+00 -.123887523670949D+01 0.904750003794781D+01
 0.000000000000000D+00 -.000000000000000D+00 -.000000000000000D+00 -.000000000000000D+00
 0.509136311442953D+02 0.000000000000000D+00 0.000000000000000D+00 0.509136311442953D+02
 0.551618839798537D+02 0.000000000000000D+00 0.000000000000000D+00 -.551618839798537D+02
 0.578670193383005D+02 0.624712153999745D+01 0.271089969801867D+02 0.864104636557244D+01
 0.235141309827346D+02 0.300159659530998D+01 -.151993453767830D+02 -.176885464035203D+02
 0.904756859273952D+01 0.105506406199347D-01 -.336033873811614D-01 0.904750003794781D+01
 0.156467962103744D+02 -.925926877592736D+01 -.118760482160225D+02 -.424825283555846D+01
0.622118525656D-04 0.000000000000D+00 0.000000000000D+00 0.146521324465D-04 0.101466813465D-02  6 22 1 9900012 13 2 21 2 0.18142711D+00 0.36639056D-03 0.19274455D+04 0.19274455D+04 0.19274455D+04 0.12913452D+01  1  2  1  1  6  2        1 0.170604960073D-01 0.100000000000D+01
  </mgrwgt>
  </event>
  <event>
  6     66 0.21666229E-05 0.74324102E+01 0.78161638E-02 0.13344307E+00
       22 -1    0    0    0    0 0.00000000E+00 0.00000000E+00 0.15353709E+03 0.15353709E+03 0.00000000E+00 0.0000E+00 0.9000E+01
        1 -1    0    0  501    0 0.00000000E+00 0.00000000E+00 -.18591425E+03 0.18591425E+03 0.00000000E+00 0.0000E+00 0.9000E+01
      -24  2    1    2    0    0 0.64961757E+01 0.36111525E+01 -.17752461E+03 0.19411372E+03 0.78165920E+02 0.0000E+00 0.0000E+00
  9900012  1    3    3    0    0 -.95272297E+01 0.19959956E+02 -.11046518E+03 0.12325471E+03 0.50000000E+02 0.0000E+00 0.9000E+01
       13  1    3    3    0    0 0.16023405E+02 -.16348803E+02 -.67059426E+02 0.70859011E+02 0.00000000E+00 0.0000E+00 0.9000E+01
        2  1    1    2  501    0 -.64961757E+01 -.36111525E+01 0.14514744E+03 0.14533761E+03 0.00000000E+00 0.0000E+00 0.9000E+01
#aMCatNLO 1  0  0  2  5 0.33508624D+02 0.00000000D+00  -5  6  0 0.00000000D+00 0.00000000D+00 0.00000000D+00 0.00000000D+00 0.00000000D+00
  <mgrwgt>
 0.1152669291D-03    1    2    0
 0.168951862362685D+03 0.000000000000000D+00 0.000000000000000D+00 0.168951862362685D+03
 0.168951862362685D+03 0.000000000000000D+00 0.000000000000000D+00 -.168951862362685D+03
 0.113234700951566D+03 -.952722973422506D+01 0.199599558562016D+02 -.991611292563794D+02
 0.647580665341566D+02 0.160234054379328D+02 -.163488033391036D+02 -.605770112236745D+02
 0.159910957239648D+03 -.649617570370775D+01 -.361115251709797D+01 0.159738140480054D+03
 0.000000000000000D+00 -.000000000000000D+00 -.000000000000000D+00 0.000000000000000D+00
 0.199933692079356D+03 0.000000000000000D+00 0.000000000000000D+00 0.199933692079356D+03
 0.189913523098930D+03 0.000000000000000D+00 0.000000000000000D+00 -.189913523098930D+03
 0.117061973358975D+03 -.841623453080620D+01 0.360519492901499D+02 -.991611292563794D+02
 0.632559299411043D+02 0.166409694408880D+02 -.740381793321115D+01 -.605770112236745D+02
 0.160917539997204D+03 -.494843767137478D+01 0.188067572786693D+02 0.159738140480054D+03
 0.486117718810023D+02 -.327629723870706D+01 -.474548886356080D+02 0.100201689804260D+02
0.314426667569D-05 0.000000000000D+00 0.000000000000D+00 0.114234883914D-04 0.000000000000D+00  6 22 1 9900012 13 2 21 2 0.23621090D-01 0.28602192D-01 0.18061420D+04 0.18061420D+04 0.18061420D+04 0.12949499D+01  1  2 14  1  6  2        1 0.115266929093D-03 0.100000000000D+01
  </mgrwgt>
  </event>
  <event>
  7     66 0.21666229E-05 0.12845665E+02 0.78161638E-02 0.13431176E+00
       22 -1    0    0    0    0 0.00000000E+00 0.00000000E+00 0.93295485E+02 0.93295485E+02 0.00000000E+00 0.0000E+00 0.9000E+01
       21 -1    0    0  501  502 0.00000000E+00 0.00000000E+00 -.49676553E+02 0.49676553E+02 0.00000000E+00 0.0000E+00 0.9000E+01
      -24  2    1    2    0    0 0.20789793E+01 -.13782906E+02 0.10281349E+02 0.81060635E+02 0.79188571E+02 0.0000E+00 0.0000E+00
  9900012  1    3    3    0    0 0.11458516E+02 -.69346812E+01 0.28774730E+02 0.59223074E+02 0.50000000E+02 0.0000E+00 0.9000E+01
       13  1    3    3    0    0 -.93795366E+01 -.68482248E+01 -.18493382E+02 0.21837561E+02 0.00000000E+00 0.0000E+00 0.9000E+01
        4  1    1    2  501    0 -.36610217E+01 -.85759263E+00 0.43727752E+02 0.43889120E+02 0.00000000E+00 0.0000E+00 0.9000E+01
       -3  1    1    2    0  502 0.15820424E+01 0.14640499E+02 -.10390169E+02 0.18022283E+02 0.00000000E+00 0.0000E+00 0.9000E+01
#aMCatNLO 2  0  0  2  5 0.15924263D+03 0.00000000D+00  -5  6  0 0.00000000D+00 0.00000000D+00 0.00000000D+00 0.00000000D+00 0.00000000D+00
  <mgrwgt>
 0.6924313790D-04    1    2    0
 0.558538522083929D+02 0.000000000000000D+00 0.000000000000000D+00 0.558538522083929D+02
 0.558538522083929D+02 0.000000000000000D+00 0.000000000000000D+00 -.558538522083929D+02
 0.515847315174895D+02 0.121880290830785D+02 -.183638332624677D+00 0.352175379098179D+01
 0.323371477025570D+02 -.891829253129056D+01 -.257979098072878D+01 -.309757947171507D+02
 0.277858251967394D+02 -.326973655178796D+01 0.276342931335345D+01 0.274540409261689D+02
 0.000000000000000D+00 0.000000000000000D+00 0.000000000000000D+00 -.000000000000000D+00
 0.587396862174133D+02 0.000000000000000D+00 0.000000000000000D+00 0.587396862174133D+02
 0.789006275552478D+02 0.000000000000000D+00 0.000000000000000D+00 -.789006275552478D+02
 0.518824646787816D+02 0.114585159359912D+02 -.693468124179903D+01 0.352175379098179D+01
 0.330813202437188D+02 -.937953661814670D+01 -.684822484569970D+01 -.309757947171507D+02
 0.277103393791465D+02 -.366102174322418D+01 -.857592634856162D+00 0.274540409261689D+02
 0.249661894710142D+02 0.158204242537963D+01 0.146404987223549D+02 -.201609413378345D+02
0.139869398172D-07 0.000000000000D+00 0.000000000000D+00 0.543475136030D-05 0.130610817949D-07  6 22 21 9900012 13 4 -3 2 0.14353152D-01 0.76425466D-02 0.16753539D+04 0.16753539D+04 0.16753539D+04 0.12991579D+01  1  2  1  3  6  2        3 0.692431378956D-04 0.100000000000D+01
  </mgrwgt>
  </event>
  <event>
  7     66 0.21666229E-05 0.34693066E+02 0.78161638E-02 0.12564442E+00
       22 -1    0    0    0    0 0.00000000E+00 0.00000000E+00 0.14753599E+03 0.14753599E+03 0.00000000E+00 0.0000E+00 0.9000E+01
        3 -1    0    0  501    0 -.00000000E+00 -.00000000E+00 -.59452412E+03 0.59452412E+03 0.00000000E+00 0.0000E+00 0.9000E+01
      -24  2    1    2    0    0 0.14223446E+02 -.31765724E+02 -.56231017E+03 0.56922353E+03 0.81310063E+02 0.0000E+00 0.0000E+00
  9900012  1    3    3    0    0 0.48655562E+01 0.38343617E+01 -.27649373E+03 0.28104654E+03 0.50000000E+02 0.0000E+00 0.9000E+01
       13  1    3    3    0    0 0.93578899E+01 -.35600085E+02 -.28581644E+03 0.28817698E+03 0.00000000E+00 0.0000E+00 0.9000E+01
        4  1    1    2  502    0 -.79082318E-01 0.38722564E-01 0.13358920E+03 0.13358923E+03 0.00000000E+00 0.0000E+00 0.9000E+01
       21  1    1    2  501  502 -.14144364E+02 0.31727001E+02 -.18267157E+02 0.39247352E+02 0.00000000E+00 0.0000E+00 0.9000E+01
#aMCatNLO 2  0  0  5  5 0.39773549D+02 0.00000000D+00  -5  6  0 0.00000000D+00 0.00000000D+00 0.00000000D+00 0.00000000D+00 0.00000000D+00
  <mgrwgt>
 0.1567641327D+00    1    2    0
 0.296164992519756D+03 0.000000000000000D+00 0.000000000000000D+00 0.296164992519756D+03
 0.296164992519756D+03 -.000000000000000D+00 -.000000000000000D+00 -.296164992519756D+03
 0.149671636374760D+03 0.520924012378773D+01 0.306680038794735D+01 -.140943454221229D+03
 0.152074135935256D+03 0.970661595115729D+01 -.363789076259527D+02 -.147339402425739D+03
 0.290584212729496D+03 -.149158560749451D+02 0.333121072380055D+02 0.288282856646968D+03
 0.000000000000000D+00 0.000000000000000D+00 0.000000000000000D+00 0.000000000000000D+00
 0.296164992519756D+03 0.000000000000000D+00 0.000000000000000D+00 0.296164992519756D+03
 0.296164992519756D+03 -.000000000000000D+00 -.000000000000000D+00 -.296164992519756D+03
 0.143440334486831D+03 0.486555624835451D+01 0.383436170369616D+01 -.134300981345682D+03
 0.145338052607572D+03 0.935788992246930D+01 -.356000854915765D+02 -.140599478466148D+03
 0.268168124921431D+03 -.790823175052946D-01 0.387225637496833D-01 0.268168110465108D+03
 0.353834730236781D+02 -.141443638533185D+02 0.317270012241307D+02 0.673234934672162D+01
0.941719350246D-01 0.000000000000D+00 0.000000000000D+00 0.391723160174D-05 0.170236381398D-02  6 22 3 9900012 13 4 21 2 0.22697844D-01 0.91465249D-01 0.37220311D+04 0.37220311D+04 0.37220311D+04 0.12565406D+01  1  2  1  2  6  5        4 0.156764132693D+00 0.100000000000D+01
  </mgrwgt>
  </event>
  <event>
  6     66 0.21666229E-05 0.67769168E+01 0.78161638E-02 0.13357053E+00
       22 -1    0    0    0    0 0.00000000E+00 0.00000000E+00 0.87263819E+02 0.87263819E+02 0.00000000E+00 0.0000E+00 0.9000E+01
        3 -1    0    0  501    0 0.00000000E+00 0.00000000E+00 -.36470375E+02 0.36470375E+02 0.00000000E+00 0.0000E+00 0.9000E+01
      -24  2    1    2    0    0 -.89858512E+00 0.67170787E+01 0.95146173E+01 0.81902768E+02 0.81065461E+02 0.0000E+00 0.0000E+00
  9900012  1    3    3    0    0 -.92111226E+01 -.16387234E+02 0.17292124E+02 0.56146271E+02 0.50000000E+02 0.0000E+00 0.9000E+01
       13  1    3    3    0    0 0.83125375E+01 0.23104313E+02 -.77775064E+01 0.25756497E+02 0.00000000E+00 0.0000E+00 0.9000E+01
        4  1    1    2  501    0 0.89858512E+00 -.67170787E+01 0.41278827E+02 0.41831426E+02 0.00000000E+00 0.0000E+00 0.9000E+01
#aMCatNLO 1  0  0  5  2 0.43870926D+01 0.00000000D+00  -5  6  0 0.00000000D+00 0.00000000D+00 0.00000000D+00 0.00000000D+00 0.00000000D+00
  <mgrwgt>
 0.7107548695D-03    8    2    0
 0.564140425615807D+02 0.000000000000000D+00 0.000000000000000D+00 0.564140425615807D+02
 0.564140425615807D+02 -.000000000000000D+00 -.000000000000000D+00 -.564140425615807D+02
 0.537887980617425D+02 -.921112260806903D+01 -.163872340669066D+02 -.631257291937632D+01
 0.317474658264266D+02 0.831253749253174D+01 0.231043127521295D+02 -.201244636968831D+02
 0.272918212349924D+02 0.898585115537287D+00 -.671707868522291D+01 0.264370366162594D+02
 0.000000000000000D+00 0.000000000000000D+00 0.000000000000000D+00 0.000000000000000D+00
 0.564140425615807D+02 0.000000000000000D+00 0.000000000000000D+00 0.564140425615807D+02
 0.564140425615807D+02 -.000000000000000D+00 -.000000000000000D+00 -.564140425615807D+02
 0.537541507386531D+02 -.917871445182169D+01 -.166294906231219D+02 -.535910106839398D+01
 0.312968197113228D+02 0.833153593993346D+01 0.229622960818244D+02 -.195655153669734D+02
 0.214573655263963D+02 -.515386119051322D+00 -.125734645476852D+01 0.214142941133802D+02
 0.631974914678918D+01 0.136256463093955D+01 -.507545900393390D+01 0.351032232198718D+01
0.762027779951D-07 0.000000000000D+00 0.000000000000D+00 0.114840817187D-05 0.000000000000D+00  6 22 3 9900012 13 4 21 0 0.13425203D-01 0.56108269D-02 0.17955639D+04 0.17955639D+04 0.17955639D+04 0.12952772D+01  1  2  2  2  6  5        4 0.218582658369D-04 0.100000000000D+01
-.352346899459D-08 0.000000000000D+00 -.146319366077D-09 0.114840817187D-05 0.000000000000D+00  6 22 3 9900012 13 4 21 2 0.13425203D-01 0.56108269D-02 0.17955639D+04 0.17955639D+04 0.17955639D+04 0.12952772D+01  1  2  3  2  6  5        4 -.169566794898D-05 0.100000000000D+01
0.527153837932D-08 0.000000000000D+00 0.000000000000D+00 0.114840817187D-05 0.000000000000D+00  6 22 3 9900012 13 4 21 2 0.13425203D-01 0.56108269D-02 0.17955639D+04 0.17955639D+04 0.17955639D+04 0.12952772D+01  1  2 15  2  6  5        4 0.253692559389D-05 0.100000000000D+01
0.189258166465D-07 0.000000000000D+00 0.000000000000D+00 0.114840817187D-05 0.000000000000D+00  6 22 3 9900012 13 4 21 2 0.13425203D-01 0.56108269D-02 0.17862228D+04 0.17862228D+04 0.17862228D+04 0.12955681D+01  1  2 12  2  6  5        4 0.910541001951D-05 0.100000000000D+01
-.169013780447D-06 0.000000000000D+00 0.000000000000D+00 0.114840817187D-05 0.000000000000D+00  6 22 3 9900012 13 4 21 2 0.13425203D-01 0.56108269D-02 0.17955639D+04 0.17955639D+04 0.17955639D+04 0.12952772D+01  1  2  4  2  6  5        4 -.813378096647D-04 0.100000000000D+01
-.985329552776D-07 0.000000000000D+00 0.000000000000D+00 0.114840817187D-05 0.000000000000D+00  6 22 3 9900012 13 4 21 2 0.13425203D-01 0.56108269D-02 0.17955639D+04 0.17955639D+04 0.17955639D+04 0.12952772D+01  1  2  5  2  6  5        4 -.474189426499D-04 0.100000000000D+01
0.124848440734D-06 0.000000000000D+00 -.000000000000D+00 0.114840817187D-05 0.000000000000D+00  6 22 3 9900012 13 4 21 2 0.13425203D-01 0.56108269D-02 0.17955639D+04 0.17955639D+04 0.17955639D+04 0.12952772D+01  1  2  6  2  6  5        4 0.600832587882D-04 0.100000000000D+01
0.155395351964D-05 0.000000000000D+00 0.000000000000D+00 0.114840817187D-05 0.630230047568D-05  6 22 3 9900012 13 4 21 2 0.13425203D-01 0.56108269D-02 0.17862228D+04 0.17862228D+04 0.17862228D+04 0.12955681D+01  1  2 11  2  6  5        4 0.747623429511D-03 0.100000000000D+01
  </mgrwgt>
  </event>
  <event>
  6     66 0.21666229E-05 0.29919516E+02 0.78161638E-02 0.12109976E+00
       22 -1    0    0    0    0 0.00000000E+00 0.00000000E+00 0.62243294E+02 0.62243294E+02 0.00000000E+00 0.0000E+00 0.9000E+01
        1 -1    0    0  501    0 0.00000000E+00 0.00000000E+00 -.54744139E+02 0.54744139E+02 0.00000000E+00 0.0000E+00 0.9000E+01
      -24  2    1    2    0    0 0.21059753E+02 -.21252393E+02 0.73063849E+01 0.87067296E+02 0.81438033E+02 0.0000E+00 0.0000E+00
  9900012  1    3    3    0    0 -.91956849E+01 -.68348738E+01 0.13366346E+02 0.53008823E+02 0.50000000E+02 0.0000E+00 0.9000E+01
       13  1    3    3    0    0 0.30255438E+02 -.14417520E+02 -.60599612E+01 0.34058472E+02 0.00000000E+00 0.0000E+00 0.9000E+01
        2  1    1    2  501    0 -.21059753E+02 0.21252393E+02 0.19277058E+00 0.29920137E+02 0.00000000E+00 0.0000E+00 0.9000E+01
#aMCatNLO 1  0  0  2  5 0.13700429D+02 0.00000000D+00  -5  6  0 0.00000000D+00 0.00000000D+00 0.00000000D+00 0.00000000D+00 0.00000000D+00
  <mgrwgt>
 0.3773675893D-04    4    2    0
 0.583734144542561D+02 0.000000000000000D+00 0.000000000000000D+00 0.583734144542561D+02
 0.583734144542561D+02 0.000000000000000D+00 0.000000000000000D+00 -.583734144542561D+02
 0.522594906639498D+02 -.919568488152246D+01 -.683487379716772D+01 0.998890605581943D+01
 0.345179212432911D+02 0.302554382829910D+02 -.144175196300873D+02 -.826017366513677D+01
 0.299694170012714D+02 -.210597534014685D+02 0.212523934272551D+02 -.172873239068266D+01
 0.000000000000000D+00 -.000000000000000D+00 -.000000000000000D+00 0.000000000000000D+00
 0.851343461725700D+02 0.000000000000000D+00 0.000000000000000D+00 0.851343461725700D+02
 0.728943792749426D+02 0.000000000000000D+00 0.000000000000000D+00 -.728943792749426D+02
 0.511480072550585D+02 0.106990763006126D+01 0.389816618869313D+01 0.998890605581943D+01
 0.390497097516754D+02 0.375587319225720D+02 -.678166786861766D+01 -.826017366513677D+01
 0.314671361021254D+02 -.149607506002431D+02 0.276291165307256D+02 -.172873239068266D+01
 0.363638723386533D+02 -.236678889523902D+02 -.247456148508011D+02 0.122399668976274D+02
0.103863682598D-06 0.000000000000D+00 0.000000000000D+00 0.741312386061D-07 0.000000000000D+00  6 22 1 9900012 13 2 21 0 0.95758914D-02 0.84221752D-02 0.32907719D+04 0.32907719D+04 0.32907719D+04 0.12628309D+01  1  2  2  1  6  2        1 0.405219057205D-04 0.100000000000D+01
-.128803807477D-08 0.000000000000D+00 -.199431944556D-09 0.741312386061D-07 0.000000000000D+00  6 22 1 9900012 13 2 21 2 0.95758914D-02 0.84221752D-02 0.32907719D+04 0.32907719D+04 0.32907719D+04 0.12628309D+01  1  2  3  1  6  2        1 -.801392501022D-06 0.100000000000D+01
0.111967463945D-08 0.000000000000D+00 0.000000000000D+00 0.741312386061D-07 0.000000000000D+00  6 22 1 9900012 13 2 21 2 0.95758914D-02 0.84221752D-02 0.32907719D+04 0.32907719D+04 0.32907719D+04 0.12628309D+01  1  2 15  1  6  2        1 0.696640011829D-06 0.100000000000D+01
-.430806366226D-08 0.000000000000D+00 0.000000000000D+00 0.741312386061D-07 0.000000000000D+00  6 22 1 9900012 13 2 21 2 0.95758914D-02 0.84221752D-02 0.32907719D+04 0.32907719D+04 0.32907719D+04 0.12628309D+01  1  2  4  1  6  2        1 -.268039429928D-05 0.100000000000D+01
  </mgrwgt>
  </event>
  <event>
  7     66 0.21666229E-05 0.14121983E+02 0.78161638E-02 0.12846089E+00
       22 -1    0    0    0    0 0.00000000E+00 0.00000000E+00 0.85258484E+02 0.85258484E+02 0.00000000E+00 0.0000E+00 0.9000E+01
       21 -1    0    0  501  502 0.00000000E+00 0.00000000E+00 -.49933190E+02 0.49933190E+02 0.00000000E+00 0.0000E+00 0.9000E+01
      -24  2    1    2    0    0 -.72861317E+01 -.82060911E+01 0.44463668E+02 0.91884844E+02 0.79657887E+02 0.0000E+00 0.0000E+00
  9900012  1    3    3    0    0 0.45796978E+01 -.12589094E+02 0.54922582E+02 0.75471511E+02 0.50000000E+02 0.0000E+00 0.9000E+01
       13  1    3    3    0    0 -.11865830E+02 0.43830031E+01 -.10458913E+02 0.16413333E+02 0.00000000E+00 0.0000E+00 0.9000E+01
        4  1    1    2  501    0 -.16137713E+02 0.93719758E+01 -.18784545E+01 0.18756021E+02 0.00000000E+00 0.0000E+00 0.9000E+01
       -3  1    1    2    0  502 0.23423845E+02 -.11658847E+01 -.72599197E+01 0.24550809E+02 0.00000000E+00 0.0000E+00 0.9000E+01
#aMCatNLO 2  0  0  2  5 0.64201257D+01 0.00000000D+00  -5  6  0 0.00000000D+00 0.00000000D+00 0.00000000D+00 0.00000000D+00 0.00000000D+00
  <mgrwgt>
 0.1230838474D-05    1    2    0
 0.496937234908062D+02 0.000000000000000D+00 0.000000000000000D+00 0.496937234908062D+02
 0.496937234908062D+02 0.000000000000000D+00 0.000000000000000D+00 -.496937234908062D+02
 0.617109607898555D+02 0.185962716783056D+02 -.132867469119259D+02 0.280336176361910D+02
 0.199051996655496D+02 -.697771741960403D+01 0.413970509509400D+01 -.181766684258476D+02
 0.177712865262072D+02 -.116185542587016D+02 0.914704181683194D+01 -.985694921034342D+01
 0.000000000000000D+00 0.000000000000000D+00 -.000000000000000D+00 -.000000000000000D+00
 0.568202784283475D+02 0.000000000000000D+00 0.000000000000000D+00 0.568202784283475D+02
 0.749244491691146D+02 0.000000000000000D+00 0.000000000000000D+00 -.749244491691146D+02
 0.588671609845170D+02 0.457969781194605D+01 -.125890941912489D+02 0.280336176361910D+02
 0.221449746259123D+02 -.118658295030918D+02 0.438300311688834D+01 -.181766684258476D+02
 0.211049561310081D+02 -.161377134463942D+02 0.937197579374575D+01 -.985694921034342D+01
 0.296276358560246D+02 0.234238451375399D+02 -.116588471938520D+01 -.181041707407671D+02
0.216813413705D-09 0.000000000000D+00 0.000000000000D+00 0.367349204438D-06 0.257534079158D-09  6 22 21 9900012 13 4 -3 2 0.13116690D-01 0.76820292D-02 0.28370272D+04 0.28370272D+04 0.28370272D+04 0.12705460D+01  1  2  1  3  6  2        3 0.123083847375D-05 0.100000000000D+01
  </mgrwgt>
  </event>
  <event>
  7     66 -.21666229E-05 0.63176964E+02 0.78161638E-02 0.12058386E+00
       22 -1    0    0    0    0 0.00000000E+00 0.00000000E+00 0.67957947E+02 0.67957947E+02 0.00000000E+00 0.0000E+00 0.9000E+01
        3 -1    0    0  502    0 0.00000000E+00 0.00000000E+00 -.10660306E+03 0.10660306E+03 0.00000000E+00 0.0000E+00 0.9000E+01
      -24  2    1    2    0    0 -.32398518E+02 -.56604871E+02 -.30595101E+02 0.10729558E+03 0.79514193E+02 0.0000E+00 0.0000E+00
  9900012  1    3    3    0    0 -.38558538E+02 -.40388744E+02 -.33892108E+01 0.75029982E+02 0.50000000E+02 0.0000E+00 0.9000E+01
       13  1    3    3    0    0 0.61600203E+01 -.16216127E+02 -.27205891E+02 0.32265602E+02 0.00000000E+00 0.0000E+00 0.9000E+01
        4  1    1    2  501    0 0.28067134E+02 0.54211552E+02 -.10159470E+02 0.61885953E+02 0.00000000E+00 0.0000E+00 0.9000E+01
       21  1    1    2  502  501 0.43313836E+01 0.23933190E+01 0.21094591E+01 0.53794682E+01 0.00000000E+00 0.0000E+00 0.9000E+01
#aMCatNLO 2  0  0  2  5 0.10604987D+02 0.00000000D+00  -5  6  0 0.00000000D+00 0.00000000D+00 0.00000000D+00 0.00000000D+00 0.00000000D+00
  <mgrwgt>
 -.2437143043D-04    3    2    0
 0.820624285656548D+02 0.000000000000000D+00 0.000000000000000D+00 0.820624285656548D+02
 0.820624285656548D+02 0.000000000000000D+00 0.000000000000000D+00 -.820624285656548D+02
 0.748935119587441D+02 -.365617525840735D+02 -.392854142013393D+02 0.151305192417428D+02
 0.264301882787370D+02 0.685819135027227D+01 -.158303503396091D+02 -.200229885875655D+02
 0.628011568938285D+02 0.297035612338012D+02 0.551157645409484D+02 0.489246934582269D+01
 0.000000000000000D+00 0.000000000000000D+00 0.000000000000000D+00 0.000000000000000D+00
 0.868871813700424D+02 0.000000000000000D+00 0.000000000000000D+00 0.868871813700424D+02
 0.833785248345762D+02 0.000000000000000D+00 0.000000000000000D+00 -.833785248345762D+02
 0.764653129737754D+02 -.385585378764007D+02 -.403887438834987D+02 0.151305192417428D+02
 0.264920495931912D+02 0.616002032346348D+01 -.162161268274778D+02 -.200229885875655D+02
 0.612420819760522D+02 0.280671339220905D+02 0.542115517381777D+02 0.489246934582269D+01
 0.606626166159973D+01 0.433138363084668D+01 0.239331897279872D+01 0.350865653546622D+01
-.222274635458D-06 0.000000000000D+00 0.000000000000D+00 0.186110406893D-06 0.000000000000D+00  6 22 3 9900012 13 4 21 2 0.98745099D-02 0.17364715D-01 0.62643332D+04 0.62643332D+04 0.62643332D+04 0.12309758D+01  1  2 13  1  6  2        3 -.290748155098D-04 0.100000000000D+01
-.707103439908D-08 0.000000000000D+00 0.000000000000D+00 0.186110406893D-06 0.000000000000D+00  6 22 3 9900012 13 4 21 2 0.98745099D-02 0.16141596D-01 0.58684480D+04 0.58684480D+04 0.58684480D+04 0.12340923D+01  1  2  8  1  6  2        3 -.104387583112D-05 0.100000000000D+01
0.432632184555D-07 0.000000000000D+00 0.000000000000D+00 0.186110406893D-06 0.500791873935D-07  6 22 3 9900012 13 4 21 2 0.10455069D-01 0.16400471D-01 0.62643332D+04 0.62643332D+04 0.62643332D+04 0.12309758D+01  1  2  1  1  6  2        3 0.574726091212D-05 0.100000000000D+01
  </mgrwgt>
  </event>
  <event>
  7     66 0.21666229E-05 0.13075391E+02 0.78161638E-02 0.13528913E+00
       22 -1    0    0    0    0 0.00000000E+00 0.00000000E+00 0.60718096E+01 0.60718096E+01 0.00000000E+00 0.0000E+00 0.9000E+01
        1 -1    0    0  501    0 -.00000000E+00 -.00000000E+00 -.96804776E+03 0.96804776E+03 0.00000000E+00 0.0000E+00 0.9000E+01
      -24  2    1    2    0    0 0.98543259E+01 0.94765508E+01 -.89756483E+03 0.90119667E+03 0.79661163E+02 0.0000E+00 0.0000E+00
  9900012  1    3    3    0    0 -.37009883E+01 0.99344335E+01 -.37628540E+03 0.37974082E+03 0.50000000E+02 0.0000E+00 0.9000E+01
       13  1    3    3    0    0 0.13555314E+02 -.45788277E+00 -.52127943E+03 0.52145584E+03 0.00000000E+00 0.0000E+00 0.9000E+01
        2  1    1    2  502    0 -.51048249E+00 0.31954346E-01 0.35905627E+01 0.36268105E+01 0.00000000E+00 0.0000E+00 0.9000E+01
       21  1    1    2  501  502 -.93438435E+01 -.95085051E+01 -.68001680E+02 0.69296086E+02 0.00000000E+00 0.0000E+00 0.9000E+01
#aMCatNLO 2  0  0  5  2 0.13187314D+02 0.00000000D+00  -5  6  0 0.00000000D+00 0.00000000D+00 0.00000000D+00 0.00000000D+00 0.00000000D+00
  <mgrwgt>
 0.5682376736D-02    2    2    0
 0.766668224679012D+02 0.000000000000000D+00 0.000000000000000D+00 0.766668224679012D+02
 0.766668224679012D+02 -.000000000000000D+00 -.000000000000000D+00 -.766668224679012D+02
 0.523884036083713D+02 -.308435264440035D+01 0.105274298706131D+02 -.111447216976430D+02
 0.449715317542913D+02 0.140726816045285D+02 0.396507972039493D-01 -.427129573853073D+02
 0.559737095731399D+02 -.109883289601281D+02 -.105670806678171D+02 0.538576790829503D+02
 0.000000000000000D+00 0.000000000000000D+00 -.000000000000000D+00 0.000000000000000D+00
 0.766668224679012D+02 0.000000000000000D+00 0.000000000000000D+00 0.766668224679012D+02
 0.766668224679012D+02 -.000000000000000D+00 -.000000000000000D+00 -.766668224679012D+02
 0.517529054323547D+02 -.370098831609428D+01 0.993443352794018D+01 -.812237260000517D+01
 0.424047187981173D+02 0.135553142558195D+02 -.457882770323919D+00 -.401771573800588D+02
 0.455671815292225D+02 -.510482486260978D+00 0.319543456424825D-01 0.455643108042702D+02
 0.136088391761081D+02 -.934384345346424D+01 -.950850510325874D+01 0.273521917579387D+01
-.283554023512D-07 0.000000000000D+00 0.000000000000D+00 0.216103141470D-05 0.000000000000D+00  6 22 1 9900012 13 2 21 2 0.93412456D-03 0.14893042D+00 0.15412379D+04 0.15412379D+04 0.15412379D+04 0.13038763D+01  1  2 13  2  6  5        2 -.993628046079D-05 0.100000000000D+01
0.162442904604D-04 0.000000000000D+00 0.000000000000D+00 0.216103141470D-05 0.459931429415D-04  6 22 1 9900012 13 2 21 2 0.93412456D-03 0.14893042D+00 0.15412379D+04 0.15412379D+04 0.15412379D+04 0.13038763D+01  1  2  1  2  6  5        2 0.569231301683D-02 0.100000000000D+01
  </mgrwgt>
  </event>
  <event>
  6     66 0.21666229E-05 0.85155097E+01 0.78161638E-02 0.13412874E+00
       22 -1    0    0    0    0 0.00000000E+00 0.00000000E+00 0.12723703E+04 0.12723703E+04 0.00000000E+00 0.0000E+00 0.9000E+01
        3 -1    0    0  501    0 0.00000000E+00 0.00000000E+00 -.16383985E+01 0.16383985E+01 0.00000000E+00 0.0000E+00 0.9000E+01
      -24  2    1    2    0    0 0.12363377E+01 0.84252819E+01 0.12006756E+04 0.12034367E+04 0.81028460E+02 0.0000E+00 0.0000E+00
  9900012  1    3    3    0    0 0.15464145E+02 0.10100079E+02 0.11334023E+04 0.11346550E+04 0.50000000E+02 0.0000E+00 0.9000E+01
       13  1    3    3    0    0 -.14227807E+02 -.16747975E+01 0.67273279E+02 0.68781753E+02 0.00000000E+00 0.0000E+00 0.9000E+01
        4  1    1    2  501    0 -.12363377E+01 -.84252819E+01 0.70056284E+02 0.70571926E+02 0.00000000E+00 0.0000E+00 0.9000E+01
#aMCatNLO 1  0  0  2  5 0.67556347D+01 0.00000000D+00  -5  6  0 0.00000000D+00 0.00000000D+00 0.00000000D+00 0.00000000D+00 0.00000000D+00
  <mgrwgt>
 0.1228496783D-03   11    2    0
 0.456579626402962D+02 0.000000000000000D+00 0.000000000000000D+00 0.456579626402962D+02
 0.456579626402962D+02 0.000000000000000D+00 0.000000000000000D+00 -.456579626402962D+02
 0.581481842440487D+02 0.154641450054089D+02 0.101000794216670D+02 0.232391898698630D+02
 0.234597580876174D+02 -.142278073125705D+02 -.167479754546285D+01 -.185775348684266D+02
 0.970798294892634D+01 -.123633769283839D+01 -.842528187620416D+01 -.466165500143642D+01
 0.000000000000000D+00 -.000000000000000D+00 -.000000000000000D+00 -.000000000000000D+00
 0.464556205929743D+02 0.000000000000000D+00 0.000000000000000D+00 0.464556205929743D+02
 0.616633495682740D+02 0.000000000000000D+00 0.000000000000000D+00 -.616633495682740D+02
 0.595904259884278D+02 0.183622144248340D+02 0.131828678629183D+02 0.232391898698630D+02
 0.227312884845481D+02 -.130908407791817D+02 -.465362304289151D+00 -.185775348684266D+02
 0.923037332654833D+01 -.770180745106795D+00 -.792941271563692D+01 -.466165500143642D+01
 0.165668823617241D+02 -.450119290054548D+01 -.478809284299221D+01 -.152077289752998D+02
0.129000163226D-06 0.000000000000D+00 0.000000000000D+00 0.219204130579D-06 0.000000000000D+00  6 22 3 9900012 13 4 21 0 0.19574927D+00 0.25206131D-03 0.14494773D+04 0.14494773D+04 0.14494773D+04 0.13073806D+01  1  2  2  1  6  2        3 0.261376776301D-04 0.100000000000D+01
0.100325461663D-07 0.000000000000D+00 -.247697296656D-09 0.219204130579D-06 0.000000000000D+00  6 22 3 9900012 13 4 21 2 0.19574927D+00 0.25206131D-03 0.14494773D+04 0.14494773D+04 0.14494773D+04 0.13073806D+01  1  2  3  1  6  2        3 0.347449735705D-05 0.100000000000D+01
0.162444367105D-08 0.000000000000D+00 0.000000000000D+00 0.219204130579D-06 0.000000000000D+00  6 22 3 9900012 13 4 21 2 0.19574927D+00 0.25206131D-03 0.14494773D+04 0.14494773D+04 0.14494773D+04 0.13073806D+01  1  2 15  1  6  2        3 0.562581536949D-06 0.100000000000D+01
0.524076239445D-06 0.000000000000D+00 0.000000000000D+00 0.219204130579D-06 0.000000000000D+00  6 22 3 9900012 13 4 21 2 0.19574927D+00 0.34636860D-03 0.17019623D+04 0.17019623D+04 0.17019623D+04 0.12982725D+01  1  2 12  1  6  2        3 0.120104780738D-03 0.100000000000D+01
-.286592918933D-06 0.000000000000D+00 0.000000000000D+00 0.219204130579D-06 0.000000000000D+00  6 22 3 9900012 13 4 21 2 0.19574927D+00 0.25206131D-03 0.14494773D+04 0.14494773D+04 0.14494773D+04 0.13073806D+01  1  2  4  1  6  2        3 -.992536015160D-04 0.100000000000D+01
-.633038627682D-06 0.000000000000D+00 -.604025071430D-07 0.219204130579D-06 0.000000000000D+00  6 22 3 9900012 13 4 21 2 0.19574927D+00 0.34662986D-03 0.14494773D+04 0.14494773D+04 0.14494773D+04 0.13073806D+01  1  2  5  1  6  2        3 -.143131287897D-03 0.100000000000D+01
0.623321848687D-06 0.000000000000D+00 0.574616795688D-07 0.219204130579D-06 0.000000000000D+00  6 22 3 9900012 13 4 21 2 0.19574927D+00 0.25206131D-03 0.14494773D+04 0.14494773D+04 0.14494773D+04 0.13073806D+01  1  2  6  1  6  2        3 0.215870436074D-03 0.100000000000D+01
0.202636522984D-07 0.000000000000D+00 0.000000000000D+00 0.219204130579D-06 0.961946061757D-07  6 22 3 9900012 13 4 21 2 0.19916907D+00 0.34042134D-03 0.17019623D+04 0.17019623D+04 0.17019623D+04 0.12982725D+01  1  2 11  1  6  2        3 0.455575473320D-05 0.100000000000D+01
0.211199580947D-07 0.000000000000D+00 0.000000000000D+00 0.219204130579D-06 0.000000000000D+00  6 22 21 9900012 13 4 -3 2 0.19574927D+00 0.34636860D-03 0.17019623D+04 0.17019623D+04 0.17019623D+04 0.12982725D+01  1  2 12  3  6  2        3 0.103808693328D-03 0.100000000000D+01
-.240695102287D-07 0.000000000000D+00 -.243834441646D-08 0.219204130579D-06 0.000000000000D+00  6 22 21 9900012 13 4 -3 2 0.19574927D+00 0.34662986D-03 0.14494773D+04 0.14494773D+04 0.14494773D+04 0.13073806D+01  1  2  5  3  6  2        3 -.116354532533D-03 0.100000000000D+01
0.146600841239D-08 0.000000000000D+00 0.000000000000D+00 0.219204130579D-06 0.203908103527D-08  6 22 21 9900012 13 4 -3 2 0.19916907D+00 0.34042134D-03 0.17019623D+04 0.17019623D+04 0.17019623D+04 0.12982725D+01  1  2 11  3  6  2        3 0.707467888995D-05 0.100000000000D+01
  </mgrwgt>
  </event>
  <event>
  6     66 0.21666229E-05 0.68048251E+01 0.78161638E-02 0.13268827E+00
       22 -1    0    0    0    0 0.00000000E+00 0.00000000E+00 0.18747405E+03 0.18747405E+03 0.00000000E+00 0.0000E+00 0.9000E+01
        3 -1    0    0  501    0 0.00000000E+00 0.00000000E+00 -.12604228E+02 0.12604228E+02 0.00000000E+00 0.0000E+00 0.9000E+01
      -24  2    1    2    0    0 0.11792081E+01 0.67018738E+01 0.12173370E+03 0.14650820E+03 0.81235792E+02 0.0000E+00 0.0000E+00
  9900012  1    3    3    0    0 0.12153946E+02 -.17271400E+02 0.91551713E+02 0.10643184E+03 0.50000000E+02 0.0000E+00 0.9000E+01
       13  1    3    3    0    0 -.10974738E+02 0.23973273E+02 0.30181983E+02 0.40076362E+02 0.00000000E+00 0.0000E+00 0.9000E+01
        4  1    1    2  501    0 -.11792081E+01 -.67018738E+01 0.53136126E+02 0.53570080E+02 0.00000000E+00 0.0000E+00 0.9000E+01
#aMCatNLO 1  0  0  5  2 0.29641488D+01 0.00000000D+00  -5  6  0 0.00000000D+00 0.00000000D+00 0.00000000D+00 0.00000000D+00 0.00000000D+00
  <mgrwgt>
 0.1987816688D-03    8    2    0
 0.486103463348640D+02 0.000000000000000D+00 0.000000000000000D+00 0.486103463348640D+02
 0.486103463348640D+02 -.000000000000000D+00 -.000000000000000D+00 -.486103463348640D+02
 0.543615433461275D+02 0.121539458789808D+02 -.172713995617779D+02 -.302617774116527D+01
 0.281883567444451D+02 -.109747377966117D+02 0.239732733738185D+02 -.997099543635906D+01
 0.146707925791553D+02 -.117920808236916D+01 -.670187381204059D+01 0.129971731775243D+02
 0.000000000000000D+00 -.000000000000000D+00 0.000000000000000D+00 0.000000000000000D+00
 0.486103463348640D+02 0.000000000000000D+00 0.000000000000000D+00 0.486103463348640D+02
 0.486103463348640D+02 -.000000000000000D+00 -.000000000000000D+00 -.486103463348640D+02
 0.544210993584102D+02 0.120971614128631D+02 -.175941265953654D+02 -.240030216334268D+01
 0.279452028754666D+02 -.110040394768711D+02 0.238067411336518D+02 -.964803376537103D+01
 0.835268684656185D+01 0.130745703638367D+01 -.165422720356698D+01 0.808216963529702D+01
 0.650170358928929D+01 -.240057897237561D+01 -.455838733471945D+01 0.396616629341668D+01
0.771992656149D-07 0.000000000000D+00 0.000000000000D+00 0.390877451264D-06 0.000000000000D+00  6 22 3 9900012 13 4 21 0 0.28842162D-01 0.19391121D-02 0.19117887D+04 0.19117887D+04 0.19117887D+04 0.12917957D+01  1  2  2  2  6  5        4 0.340533739042D-04 0.100000000000D+01
0.211081038414D-11 0.000000000000D+00 -.148232753497D-09 0.390877451264D-06 0.000000000000D+00  6 22 3 9900012 13 4 21 2 0.28842162D-01 0.19391121D-02 0.19117887D+04 0.19117887D+04 0.19117887D+04 0.12917957D+01  1  2  3  2  6  5        4 0.155375982885D-08 0.100000000000D+01
0.491260704736D-08 0.000000000000D+00 0.000000000000D+00 0.390877451264D-06 0.000000000000D+00  6 22 3 9900012 13 4 21 2 0.28842162D-01 0.19391121D-02 0.19117887D+04 0.19117887D+04 0.19117887D+04 0.12917957D+01  1  2 15  2  6  5        4 0.361615213875D-05 0.100000000000D+01
0.803605320862D-09 0.000000000000D+00 0.000000000000D+00 0.390877451264D-06 0.000000000000D+00  6 22 3 9900012 13 4 21 2 0.28842162D-01 0.19391121D-02 0.19296439D+04 0.19296439D+04 0.19296439D+04 0.12912823D+01  1  2 12  2  6  5        4 0.591893530759D-06 0.100000000000D+01
-.139707453241D-06 0.000000000000D+00 0.000000000000D+00 0.390877451264D-06 0.000000000000D+00  6 22 3 9900012 13 4 21 2 0.28842162D-01 0.19391121D-02 0.19117887D+04 0.19117887D+04 0.19117887D+04 0.12917957D+01  1  2  4  2  6  5        4 -.102838147030D-03 0.100000000000D+01
-.527772875103D-07 0.000000000000D+00 0.000000000000D+00 0.390877451264D-06 0.000000000000D+00  6 22 3 9900012 13 4 21 2 0.28842162D-01 0.19391121D-02 0.19117887D+04 0.19117887D+04 0.19117887D+04 0.12917957D+01  1  2  5  2  6  5        4 -.388491689377D-04 0.100000000000D+01
0.985988636757D-07 0.000000000000D+00 -.000000000000D+00 0.390877451264D-06 0.000000000000D+00  6 22 3 9900012 13 4 21 2 0.28842162D-01 0.19391121D-02 0.19117887D+04 0.19117887D+04 0.19117887D+04 0.12917957D+01  1  2  6  2  6  5        4 0.725782641114D-04 0.100000000000D+01
0.311762284941D-06 0.000000000000D+00 0.000000000000D+00 0.390877451264D-06 0.849503195169D-06  6 22 3 9900012 13 4 21 2 0.28842162D-01 0.19391121D-02 0.19296439D+04 0.19296439D+04 0.19296439D+04 0.12912823D+01  1  2 11  2  6  5        4 0.229627747354D-03 0.100000000000D+01
  </mgrwgt>
  </event>
  <event>
  6     66 0.21666229E-05 0.94989858E+01 0.78161638E-02 0.10760625E+00
       22 -1    0    0    0    0 0.00000000E+00 0.00000000E+00 0.17052303E+03 0.17052303E+03 0.00000000E+00 0.0000E+00 0.9000E+01
        1 -1    0    0  501    0 0.00000000E+00 0.00000000E+00 -.17377219E+02 0.17377219E+02 0.00000000E+00 0.0000E+00 0.9000E+01
      -24  2    1    2    0    0 0.82273886E+01 -.47477162E+01 0.79334923E+02 0.11348064E+03 0.80582847E+02 0.0000E+00 0.0000E+00
  9900012  1    3    3    0    0 -.11265819E+02 0.80882408E+00 0.77779166E+02 0.93151337E+02 0.50000000E+02 0.0000E+00 0.9000E+01
       13  1    3    3    0    0 0.19493207E+02 -.55565402E+01 0.15557572E+01 0.20329305E+02 0.00000000E+00 0.0000E+00 0.9000E+01
        2  1    1    2  501    0 -.82273886E+01 0.47477162E+01 0.73810888E+02 0.74419607E+02 0.00000000E+00 0.0000E+00 0.9000E+01
#aMCatNLO 1  0  0  2  2 0.84263242D+02 0.00000000D+00  -5  6  0 0.00000000D+00 0.00000000D+00 0.00000000D+00 0.00000000D+00 0.00000000D+00
  <mgrwgt>
 0.2481640907D-04    5    2    0
 0.544354296452211D+02 0.000000000000000D+00 0.000000000000000D+00 0.544354296452211D+02
 0.544354296452211D+02 0.000000000000000D+00 0.000000000000000D+00 -.544354296452211D+02
 0.513599865521322D+02 -.112658186028280D+02 0.808824075827665D+00 0.320551921812088D+01
 0.328979104220006D+02 0.194932071732135D+02 -.555654023115440D+01 -.259116237410109D+02
 0.246129623163094D+02 -.822738857038548D+01 0.474771615532674D+01 0.227061045228900D+02
 0.000000000000000D+00 -.000000000000000D+00 -.000000000000000D+00 -.000000000000000D+00
 0.146614669742401D+03 0.000000000000000D+00 0.000000000000000D+00 0.146614669742401D+03
 0.233601423130896D+03 0.000000000000000D+00 0.000000000000000D+00 -.233601423130896D+03
 0.926648512526649D+02 -.722307728870743D+01 0.776165346991356D+02 0.320551921812088D+01
 0.523887059858316D+02 0.218871812470521D+02 0.399263768332775D+02 -.259116237410109D+02
 0.506909796280781D+02 -.611362568160289D+01 0.449069238990500D+02 0.227061045228900D+02
 0.184471556006722D+03 -.855047827674179D+01 -.162449835431463D+03 -.869867533884944D+02
0.446570075758D-07 0.000000000000D+00 0.000000000000D+00 0.105192496956D-05 0.000000000000D+00  6 22 1 9900012 13 2 21 0 0.26234312D-01 0.26734183D-02 0.16414057D+04 0.16414057D+04 0.16414057D+04 0.13003109D+01  1  2  2  1  6  2        1 0.167980958245D-04 0.100000000000D+01
-.187870232311D-08 0.000000000000D+00 -.857473337755D-10 0.105192496956D-05 0.000000000000D+00  6 22 1 9900012 13 2 21 2 0.26234312D-01 0.26734183D-02 0.16414057D+04 0.16414057D+04 0.16414057D+04 0.13003109D+01  1  2  3  1  6  2        1 -.119487587646D-05 0.100000000000D+01
0.264374870630D-08 0.000000000000D+00 0.000000000000D+00 0.105192496956D-05 0.000000000000D+00  6 22 1 9900012 13 2 21 2 0.26234312D-01 0.26734183D-02 0.16414057D+04 0.16414057D+04 0.16414057D+04 0.13003109D+01  1  2 15  1  6  2        1 0.168145400882D-05 0.100000000000D+01
0.100416511200D-06 0.000000000000D+00 -.337847316004D-07 0.105192496956D-05 0.000000000000D+00  6 22 1 9900012 13 2 21 2 0.26234312D-01 0.30173398D-01 0.16414057D+04 0.16414057D+04 0.16414057D+04 0.13003109D+01  1  2  5  1  6  2        1 0.295201540295D-05 0.100000000000D+01
0.224857403857D-07 0.000000000000D+00 -.960650333261D-08 0.105192496956D-05 0.000000000000D+00  6 22 21 9900012 13 2 -1 2 0.26234312D-01 0.30173398D-01 0.16414057D+04 0.16414057D+04 0.16414057D+04 0.13003109D+01  1  2  5  3  6  2        1 0.457971970823D-05 0.100000000000D+01
  </mgrwgt>
  </event>
  <event>
  7     66 0.21666229E-05 0.65965056E+01 0.78161638E-02 0.13379898E+00
       22 -1    0    0    0    0 0.00000000E+00 0.00000000E+00 0.20670362E+03 0.20670362E+03 0.00000000E+00 0.0000E+00 0.9000E+01
        1 -1    0    0  502    0 0.00000000E+00 0.00000000E+00 -.32639793E+02 0.32639793E+02 0.00000000E+00 0.0000E+00 0.9000E+01
      -24  2    1    2    0    0 0.30957782E+01 0.81530336E+01 0.25278733E+02 0.81756464E+02 0.77259623E+02 0.0000E+00 0.0000E+00
  9900012  1    3    3    0    0 -.59524485E+01 0.24215549E+02 0.28996933E+02 0.62949556E+02 0.50000000E+02 0.0000E+00 0.9000E+01
       13  1    3    3    0    0 0.90482267E+01 -.16062515E+02 -.37182004E+01 0.18806909E+02 0.00000000E+00 0.0000E+00 0.9000E+01
        2  1    1    2  501    0 -.16972350E+01 -.75817480E+00 0.14995855E+03 0.14997007E+03 0.00000000E+00 0.0000E+00 0.9000E+01
       21  1    1    2  502  501 -.13985432E+01 -.73948588E+01 -.11734541E+01 0.76168795E+01 0.00000000E+00 0.0000E+00 0.9000E+01
#aMCatNLO 2  0  0  2  2 0.20785169D+03 0.00000000D+00  -5  6  0 0.00000000D+00 0.00000000D+00 0.00000000D+00 0.00000000D+00 0.00000000D+00
  <mgrwgt>
 0.1047858133D-02    1    2    0
 0.757173061397019D+02 0.000000000000000D+00 0.000000000000000D+00 0.757173061397019D+02
 0.757173061397019D+02 0.000000000000000D+00 0.000000000000000D+00 -.757173061397019D+02
 0.616437198344230D+02 -.652624154942568D+01 0.211815928903046D+02 -.284375893650074D+02
 0.337819253309300D+02 0.873985534776665D+01 -.176930424132323D+02 -.274187829366696D+02
 0.560089671140509D+02 -.221361379834097D+01 -.348855047707232D+01 0.558563723016770D+02
 0.000000000000000D+00 -.000000000000000D+00 -.000000000000000D+00 -.000000000000000D+00
 0.770110595479106D+02 0.000000000000000D+00 0.000000000000000D+00 0.770110595479106D+02
 0.876077203685340D+02 0.000000000000000D+00 0.000000000000000D+00 -.876077203685340D+02
 0.626938667988916D+02 -.595244853282188D+01 0.242155487604244D+02 -.284375893650074D+02
 0.330403459154788D+02 0.904822672309235D+01 -.160625151720958D+02 -.274187829366696D+02
 0.558872951785396D+02 -.169723499748083D+01 -.758174803718932D+00 0.558563723016770D+02
 0.129972720235345D+02 -.139854319278963D+01 -.739485878460965D+01 -.105966608206235D+02
0.505214139668D-05 0.000000000000D+00 0.000000000000D+00 0.228947728546D-05 0.177260757709D-05  6 22 1 9900012 13 2 21 2 0.31800557D-01 0.50215066D-02 0.17511634D+04 0.17511634D+04 0.17511634D+04 0.12966756D+01  1  2  1  1  6  2        1 0.104785813307D-02 0.100000000000D+01
  </mgrwgt>
  </event>
  <event>
  6     66 0.21666229E-05 0.55544063E+01 0.78161638E-02 0.13836686E+00
       22 -1    0    0    0    0 0.00000000E+00 0.00000000E+00 0.95692747E+02 0.95692747E+02 0.00000000E+00 0.0000E+00 0.9000E+01
        3 -1    0    0  501    0 -.00000000E+00 -.00000000E+00 -.12051483E+03 0.12051483E+03 0.00000000E+00 0.0000E+00 0.9000E+01
      -24  2    1    2    0    0 0.12082687E+01 -.54213943E+01 -.10586620E+03 0.13497335E+03 0.83542216E+02 0.0000E+00 0.0000E+00
  9900012  1    3    3    0    0 0.12534810E+02 -.73431574E+01 -.33979293E+02 0.62174237E+02 0.50000000E+02 0.0000E+00 0.9000E+01
       13  1    3    3    0    0 -.11326541E+02 0.19217631E+01 -.71886904E+02 0.72799112E+02 0.00000000E+00 0.0000E+00 0.9000E+01
        4  1    1    2  501    0 -.12082687E+01 0.54213943E+01 0.81044114E+02 0.81234228E+02 0.00000000E+00 0.0000E+00 0.9000E+01
#aMCatNLO 1  0  0  5  2 0.13832440D+01 0.00000000D+00  -5  6  0 0.00000000D+00 0.00000000D+00 0.00000000D+00 0.00000000D+00 0.00000000D+00
  <mgrwgt>
 0.2040927712D+01    6    2    0
 0.107388989673908D+03 0.000000000000000D+00 0.000000000000000D+00 0.107388989673908D+03
 0.107388989673908D+03 -.000000000000000D+00 -.000000000000000D+00 -.107388989673908D+03
 0.586610616360473D+02 0.125348098703853D+02 -.734315737036157D+01 -.270199321541624D+02
 0.649756408884512D+02 -.113265412030413D+02 0.192176307983371D+01 -.639519366392118D+02
 0.911412768233184D+02 -.120826866734398D+01 0.542139429052785D+01 0.909718687933742D+02
 0.000000000000000D+00 -.000000000000000D+00 0.000000000000000D+00 0.000000000000000D+00
 0.107388989673908D+03 0.000000000000000D+00 0.000000000000000D+00 0.107388989673908D+03
 0.107388989673908D+03 -.000000000000000D+00 -.000000000000000D+00 -.107388989673908D+03
 0.586538370774986D+02 0.125346060606149D+02 -.734224289400783D+01 -.270045870937575D+02
 0.649589823124599D+02 -.113267669369080D+02 0.192277592766252D+01 -.639349408896219D+02
 0.226102805317097D+02 0.787959037118757D-02 -.337746483636558D-02 0.226102789064487D+02
 0.685548794261487D+02 -.121571871407809D+01 0.542284443118166D+01 0.683292490769306D+02
0.432765429801D-07 0.000000000000D+00 0.000000000000D+00 0.399357442073D-05 0.000000000000D+00  6 22 3 9900012 13 4 21 0 0.14721961D-01 0.18540743D-01 0.11940654D+04 0.11940654D+04 0.11940654D+04 0.13186441D+01  1  2  2  2  6  5        4 0.157936865551D-05 0.100000000000D+01
0.349708845722D-10 0.000000000000D+00 -.830966600096D-10 0.399357442073D-05 0.000000000000D+00  6 22 3 9900012 13 4 21 2 0.14721961D-01 0.18540743D-01 0.11940654D+04 0.11940654D+04 0.11940654D+04 0.13186441D+01  1  2  3  2  6  5        4 0.221918135799D-08 0.100000000000D+01
0.369721547220D-08 0.000000000000D+00 0.000000000000D+00 0.399357442073D-05 0.000000000000D+00  6 22 3 9900012 13 4 21 2 0.14721961D-01 0.18540743D-01 0.11940654D+04 0.11940654D+04 0.11940654D+04 0.13186441D+01  1  2 15  2  6  5        4 0.234617789991D-06 0.100000000000D+01
0.155012379045D-09 0.000000000000D+00 0.000000000000D+00 0.399357442073D-05 0.000000000000D+00  6 22 3 9900012 13 4 21 2 0.14721961D-01 0.18540743D-01 0.11944742D+04 0.11944742D+04 0.11944742D+04 0.13186240D+01  1  2 12  2  6  5        4 0.983687154600D-08 0.100000000000D+01
-.140270947205D-05 0.000000000000D+00 0.000000000000D+00 0.399357442073D-05 0.000000000000D+00  6 22 3 9900012 13 4 21 2 0.14721961D-01 0.18540743D-01 0.11940654D+04 0.11940654D+04 0.11940654D+04 0.13186441D+01  1  2  5  2  6  5        4 -.890130961550D-04 0.100000000000D+01
0.321629263659D-01 0.000000000000D+00 0.000000000000D+00 0.399357442073D-05 0.583448238861D-01  6 22 3 9900012 13 4 21 2 0.14721961D-01 0.18540743D-01 0.11944742D+04 0.11944742D+04 0.11944742D+04 0.13186240D+01  1  2 11  2  6  5        4 0.204101489929D+01 0.100000000000D+01
  </mgrwgt>
  </event>
  <event>
  7     66 0.21666229E-05 0.11448334E+02 0.78161638E-02 0.13238105E+00
       22 -1    0    0    0    0 0.00000000E+00 0.00000000E+00 0.51415727E+02 0.51415727E+02 0.00000000E+00 0.0000E+00 0.9000E+01
        1 -1    0    0  501    0 -.00000000E+00 -.00000000E+00 -.77900531E+02 0.77900531E+02 0.00000000E+00 0.0000E+00 0.9000E+01
      -24  2    1    2    0    0 0.68412239E+01 -.88645010E+01 -.37548053E+02 0.99809787E+02 0.91797361E+02 0.0000E+00 0.0000E+00
  9900012  1    3    3    0    0 0.11033779E+02 0.14418213E+02 0.25476372E+01 0.53255231E+02 0.50000000E+02 0.0000E+00 0.9000E+01
       13  1    3    3    0    0 -.41925551E+01 -.23282714E+02 -.40095690E+02 0.46554556E+02 0.00000000E+00 0.0000E+00 0.9000E+01
        2  1    1    2  502    0 0.33595029E+00 -.37617564E+00 0.16568035E+02 0.16575709E+02 0.00000000E+00 0.0000E+00 0.9000E+01
       21  1    1    2  501  502 -.71771742E+01 0.92406766E+01 -.55047859E+01 0.12930762E+02 0.00000000E+00 0.0000E+00 0.9000E+01
#aMCatNLO 2  0  0  5  2 0.12059379D+02 0.00000000D+00  -5  6  0 0.00000000D+00 0.00000000D+00 0.00000000D+00 0.00000000D+00 0.00000000D+00
  <mgrwgt>
 0.6829504996D-02    2    2    0
 0.632875376965933D+02 0.000000000000000D+00 0.000000000000000D+00 0.632875376965933D+02
 0.632875376965933D+02 -.000000000000000D+00 -.000000000000000D+00 -.632875376965933D+02
 0.538306943674843D+02 0.127716721528812D+02 0.121663418767413D+02 0.930635115623086D+01
 0.427444218747793D+02 -.288373077897261D+01 -.249786204624045D+02 -.345664319535393D+02
 0.299999591509230D+02 -.988794137390862D+01 0.128122785856632D+02 0.252600807973085D+02
 0.000000000000000D+00 0.000000000000000D+00 0.000000000000000D+00 -.000000000000000D+00
 0.632875376965933D+02 0.000000000000000D+00 0.000000000000000D+00 0.632875376965933D+02
 0.632875376965933D+02 -.000000000000000D+00 -.000000000000000D+00 -.632875376965933D+02
 0.549416290382357D+02 0.110337789172416D+02 0.144182132668680D+02 0.137460339869959D+02
 0.391730713347970D+02 -.419255505404544D+01 -.232827142471674D+02 -.312228636932080D+02
 0.204014088471949D+02 0.335950289413764D+00 -.376175639573860D+00 0.203951737487484D+02
 0.120589661729591D+02 -.717717415260993D+01 0.924067661987328D+01 -.291834404253629D+01
-.129055016227D-07 0.000000000000D+00 0.000000000000D+00 0.722915393347D-08 0.000000000000D+00  6 22 1 9900012 13 2 21 2 0.79101118D-02 0.11984697D-01 0.19827563D+04 0.19827563D+04 0.19827563D+04 0.12897866D+01  1  2 13  2  6  5        2 -.656209614982D-05 0.100000000000D+01
0.134443130575D-04 0.000000000000D+00 0.000000000000D+00 0.722915393347D-08 0.258785828682D-06  6 22 1 9900012 13 2 21 2 0.79101118D-02 0.11984697D-01 0.19827563D+04 0.19827563D+04 0.19827563D+04 0.12897866D+01  1  2  1  2  6  5        2 0.683606709224D-02 0.100000000000D+01
  </mgrwgt>
  </event>
  <event>
  6     66 0.21666229E-05 0.23032762E+02 0.78161638E-02 0.12834447E+00
       22 -1    0    0    0    0 0.00000000E+00 0.00000000E+00 0.11368381E+03 0.11368381E+03 0.00000000E+00 0.0000E+00 0.9000E+01
        3 -1    0    0  501    0 0.00000000E+00 0.00000000E+00 -.41150232E+02 0.41150232E+02 0.00000000E+00 0.0000E+00 0.9000E+01
      -24  2    1    2    0    0 0.12053583E+02 -.19627003E+02 0.17802928E+01 0.80426143E+02 0.77036919E+02 0.0000E+00 0.0000E+00
  9900012  1    3    3    0    0 0.22721041E+02 -.31034174E+02 -.52471147E+01 0.63300062E+02 0.50000000E+02 0.0000E+00 0.9000E+01
       13  1    3    3    0    0 -.10667458E+02 0.11407170E+02 0.70274075E+01 0.17126081E+02 0.00000000E+00 0.0000E+00 0.9000E+01
        4  1    1    2  501    0 -.12053583E+02 0.19627003E+02 0.70753282E+02 0.74407896E+02 0.00000000E+00 0.0000E+00 0.9000E+01
#aMCatNLO 1  0  0  2  5 0.85195213D+01 0.00000000D+00  -5  6  0 0.00000000D+00 0.00000000D+00 0.00000000D+00 0.00000000D+00 0.00000000D+00
  <mgrwgt>
 0.7946566440D-04    8    2    0
 0.683967472479521D+02 0.000000000000000D+00 0.000000000000000D+00 0.683967472479521D+02
 0.683967472479521D+02 0.000000000000000D+00 0.000000000000000D+00 -.683967472479521D+02
 0.744304125088448D+02 0.227210408704201D+02 -.310341735732100D+02 -.395034261631745D+02
 0.156584732882820D+02 -.106674578716518D+02 0.114071701703071D+02 -.112676394246193D+01
 0.467046086987774D+02 -.120535829987684D+02 0.196270034029029D+02 0.406301901056364D+02
 0.000000000000000D+00 -.000000000000000D+00 -.000000000000000D+00 0.000000000000000D+00
 0.718621756284947D+02 0.000000000000000D+00 0.000000000000000D+00 0.718621756284947D+02
 0.704097496128097D+02 0.000000000000000D+00 0.000000000000000D+00 -.704097496128097D+02
 0.745158651101833D+02 0.250320869888865D+02 -.294191790414090D+02 -.395034261631745D+02
 0.155860079203456D+02 -.101826694084893D+02 0.117459477960894D+02 -.112676394246193D+01
 0.467896860064075D+02 -.106029282369903D+02 0.206407432366010D+02 0.406301901056364D+02
 0.538036620436802D+01 -.424648934340691D+01 -.296751199128132D+01 0.145242601568501D+01
0.214268558130D-06 0.000000000000D+00 0.000000000000D+00 0.108901678832D-07 0.000000000000D+00  6 22 3 9900012 13 4 21 0 0.17489816D-01 0.63308050D-02 0.25873935D+04 0.25873935D+04 0.25873935D+04 0.12754091D+01  1  2  2  1  6  2        3 0.368318090908D-04 0.100000000000D+01
-.130766357586D-07 0.000000000000D+00 -.411423840714D-09 0.108901678832D-07 0.000000000000D+00  6 22 3 9900012 13 4 21 2 0.17489816D-01 0.63308050D-02 0.25873935D+04 0.25873935D+04 0.25873935D+04 0.12754091D+01  1  2  3  1  6  2        3 -.365644999787D-05 0.100000000000D+01
0.146249164214D-07 0.000000000000D+00 0.000000000000D+00 0.108901678832D-07 0.000000000000D+00  6 22 3 9900012 13 4 21 2 0.17489816D-01 0.63308050D-02 0.25873935D+04 0.25873935D+04 0.25873935D+04 0.12754091D+01  1  2 15  1  6  2        3 0.408937563187D-05 0.100000000000D+01
0.248009023618D-06 0.000000000000D+00 0.000000000000D+00 0.108901678832D-07 0.000000000000D+00  6 22 3 9900012 13 4 21 2 0.17489816D-01 0.68473290D-02 0.28683336D+04 0.28683336D+04 0.28683336D+04 0.12699701D+01  1  2 12  1  6  2        3 0.618372338544D-04 0.100000000000D+01
-.128495903760D-06 0.000000000000D+00 0.000000000000D+00 0.108901678832D-07 0.000000000000D+00  6 22 3 9900012 13 4 21 2 0.17489816D-01 0.63308050D-02 0.25873935D+04 0.25873935D+04 0.25873935D+04 0.12754091D+01  1  2  4  1  6  2        3 -.359296424327D-04 0.100000000000D+01
0.155758693940D-09 0.000000000000D+00 0.000000000000D+00 0.108901678832D-07 0.284378964143D-08  6 22 3 9900012 13 4 21 2 0.18375965D-01 0.65171285D-02 0.28683336D+04 0.28683336D+04 0.28683336D+04 0.12699701D+01  1  2 11  1  6  2        3 0.389605297409D-07 0.100000000000D+01
0.359996424246D-08 0.000000000000D+00 0.000000000000D+00 0.108901678832D-07 0.000000000000D+00  6 22 21 9900012 13 4 -3 2 0.17489816D-01 0.68473290D-02 0.28683336D+04 0.28683336D+04 0.28683336D+04 0.12699701D+01  1  2 12  3  6  2        3 0.162271262640D-04 0.100000000000D+01
0.600851405337D-11 0.000000000000D+00 0.000000000000D+00 0.108901678832D-07 0.249471896963D-10  6 22 21 9900012 13 4 -3 2 0.18375965D-01 0.65171285D-02 0.28683336D+04 0.28683336D+04 0.28683336D+04 0.12699701D+01  1  2 11  3  6  2        3 0.272514634462D-07 0.100000000000D+01
  </mgrwgt>
  </event>
  <event>
  7     66 0.21666229E-05 0.17714090E+02 0.78161638E-02 0.12104992E+00
       22 -1    0    0    0    0 0.00000000E+00 0.00000000E+00 0.68092750E+03 0.68092750E+03 0.00000000E+00 0.0000E+00 0.9000E+01
       21 -1    0    0  501  502 0.00000000E+00 0.00000000E+00 -.10209304E+02 0.10209304E+02 0.00000000E+00 0.0000E+00 0.9000E+01
      -24  2    1    2    0    0 0.88367663E+01 0.51613314E+02 0.30291724E+03 0.31751900E+03 0.79482341E+02 0.0000E+00 0.0000E+00
  9900012  1    3    3    0    0 -.59908870E+01 0.59851682E+02 0.24866036E+03 0.26067238E+03 0.50000000E+02 0.0000E+00 0.9000E+01
       13  1    3    3    0    0 0.14827653E+02 -.82383684E+01 0.54256882E+02 0.56846629E+02 0.00000000E+00 0.0000E+00 0.9000E+01
        4  1    1    2  501    0 -.18380724E+02 -.25641547E+02 0.11308611E+03 0.11740446E+03 0.00000000E+00 0.0000E+00 0.9000E+01
       -3  1    1    2    0  502 0.95439576E+01 -.25971767E+02 0.25471485E+03 0.25621334E+03 0.00000000E+00 0.0000E+00 0.9000E+01
#aMCatNLO 2  0  0  2  5 0.68407364D+02 0.00000000D+00  -5  6  0 0.00000000D+00 0.00000000D+00 0.00000000D+00 0.00000000D+00 0.00000000D+00
  <mgrwgt>
 0.7156055218D-05    1    2    0
 0.619153015324056D+02 0.000000000000000D+00 0.000000000000000D+00 0.619153015324056D+02
 0.619153015324056D+02 0.000000000000000D+00 0.000000000000000D+00 -.619153015324056D+02
 0.671672599601148D+02 -.455205310468205D+00 0.447875501420033D+02 -.230411608919825D+01
 0.202564475615656D+02 0.162446496581789D+02 -.120944100190426D+02 -.400339342018020D+00
 0.364068955431307D+02 -.157894443477107D+02 -.326931401229607D+02 0.270445543121628D+01
 0.000000000000000D+00 0.000000000000000D+00 -.000000000000000D+00 0.000000000000000D+00
 0.101535221870300D+03 0.000000000000000D+00 0.000000000000000D+00 0.101535221870300D+03
 0.684668435091268D+02 0.000000000000000D+00 0.000000000000000D+00 -.684668435091268D+02
 0.782523067745717D+02 -.599088703578676D+01 0.598516819906812D+02 -.230411608919825D+01
 0.169673301032609D+02 0.148276533736112D+02 -.823836844747148D+01 -.400339342018020D+00
 0.316647122768125D+02 -.183807239387812D+02 -.256415465968846D+02 0.270445543121628D+01
 0.431177162247818D+02 0.954395760095683D+01 -.259717669463251D+02 0.330683783611734D+02
0.305216764264D-08 0.000000000000D+00 0.000000000000D+00 0.108248105814D-06 0.463811463275D-10  6 22 21 9900012 13 4 -3 2 0.10475808D+00 0.15706622D-02 0.59598267D+04 0.59598267D+04 0.59598267D+04 0.12333524D+01  1  2  1  3  6  2        3 0.715605521783D-05 0.100000000000D+01
  </mgrwgt>
  </event>
  <event>
  7     66 0.21666229E-05 0.10416859E+02 0.78161638E-02 0.13206185E+00
       22 -1    0    0    0    0 0.00000000E+00 0.00000000E+00 0.85351273E+01 0.85351273E+01 0.00000000E+00 0.0000E+00 0.9000E+01
        1 -1    0    0  502    0 0.00000000E+00 0.00000000E+00 -.78093178E+03 0.78093178E+03 0.00000000E+00 0.0000E+00 0.9000E+01
      -24  2    1    2    0    0 0.71180201E+01 -.74825040E+01 -.55194277E+03 0.55766355E+03 0.79001045E+02 0.0000E+00 0.0000E+00
  9900012  1    3    3    0    0 0.32827608E+01 -.28822913E+02 -.41772652E+03 0.42170723E+03 0.50000000E+02 0.0000E+00 0.9000E+01
       13  1    3    3    0    0 0.38352593E+01 0.21340409E+02 -.13421625E+03 0.13595633E+03 0.00000000E+00 0.0000E+00 0.9000E+01
        2  1    1    2  501    0 0.27671575E+00 -.52982430E-01 0.55479256E+01 0.55550749E+01 0.00000000E+00 0.0000E+00 0.9000E+01
       21  1    1    2  502  501 -.73947358E+01 0.75354864E+01 -.22600181E+03 0.22624828E+03 0.00000000E+00 0.0000E+00 0.9000E+01
#aMCatNLO 2  0  0  2  5 0.35866258D+01 0.00000000D+00  -5  6  0 0.00000000D+00 0.00000000D+00 0.00000000D+00 0.00000000D+00 0.00000000D+00
  <mgrwgt>
 0.3652173224D-01    1    2    0
 0.681110000732062D+02 0.000000000000000D+00 0.000000000000000D+00 0.681110000732062D+02
 0.681110000732062D+02 0.000000000000000D+00 0.000000000000000D+00 -.681110000732062D+02
 0.662762104598391D+02 -.352146562802810D+00 -.251188194644385D+02 -.355169955715308D+02
 0.247428552814893D+02 0.252239533583652D+01 0.226782621177715D+02 -.956780207613644D+01
 0.452029344050840D+02 -.217024877303371D+01 0.244055734666692D+01 0.450847976476672D+02
 0.000000000000000D+00 -.000000000000000D+00 0.000000000000000D+00 -.000000000000000D+00
 0.693160811746406D+02 0.000000000000000D+00 0.000000000000000D+00 0.693160811746406D+02
 0.961588141262269D+02 0.000000000000000D+00 0.000000000000000D+00 -.961588141262269D+02
 0.678453669852606D+02 0.328276080506506D+01 -.288229132537514D+02 -.355169955715308D+02
 0.236994750563495D+02 0.383525928223453D+01 0.213404092654392D+02 -.956780207613644D+01
 0.450856779662639D+02 0.276715754188001D+00 -.529824304602089D-01 0.450847976476672D+02
 0.288443752929936D+02 -.739473584148759D+01 0.753548641877238D+01 -.268427329515862D+02
0.117105491618D-03 0.000000000000D+00 0.000000000000D+00 0.503248347435D-05 0.616930643754D-04  6 22 1 9900012 13 2 21 2 0.13130965D-02 0.12014335D+00 0.20397780D+04 0.20397780D+04 0.20397780D+04 0.12882306D+01  1  2  1  1  6  2        1 0.365217322383D-01 0.100000000000D+01
  </mgrwgt>
  </event>
  <event>
  7     66 0.21666229E-05 0.70970148E+01 0.78161638E-02 0.13884930E+00
       22 -1    0    0    0    0 0.00000000E+00 0.00000000E+00 0.35434286E+03 0.35434286E+03 0.00000000E+00 0.0000E+00 0.9000E+01
       21 -1    0    0  501  502 0.00000000E+00 0.00000000E+00 -.71886943E+01 0.71886943E+01 0.00000000E+00 0.0000E+00 0.9000E+01
      -24  2    1    2    0    0 0.19833377E+01 -.70455689E+01 0.27036464E+03 0.28259664E+03 0.81916114E+02 0.0000E+00 0.0000E+00
  9900012  1    3    3    0    0 -.15543960E+01 0.21874010E+01 0.26771900E+03 0.27236128E+03 0.50000000E+02 0.0000E+00 0.9000E+01
       13  1    3    3    0    0 0.35377338E+01 -.92329699E+01 0.26456375E+01 0.10235365E+02 0.00000000E+00 0.0000E+00 0.9000E+01
        4  1    1    2  501    0 -.47008450E+00 -.13889557E+00 0.65287175E+02 0.65289015E+02 0.00000000E+00 0.0000E+00 0.9000E+01
       -3  1    1    2    0  502 -.15132532E+01 0.71844645E+01 0.11502355E+02 0.13645902E+02 0.00000000E+00 0.0000E+00 0.9000E+01
#aMCatNLO 2  0  0  2  5 0.15920205D+01 0.00000000D+00  -5  6  0 0.00000000D+00 0.00000000D+00 0.00000000D+00 0.00000000D+00 0.00000000D+00
  <mgrwgt>
 0.3900054510D-03    1    2    0
 0.455751654342599D+02 0.000000000000000D+00 0.000000000000000D+00 0.455751654342599D+02
 0.455751654342599D+02 0.000000000000000D+00 0.000000000000000D+00 -.455751654342599D+02
 0.538481874686594D+02 -.244384562361617D+01 0.641023620756417D+01 0.187766819217629D+02
 0.285356740626794D+02 0.305902479626707D+01 -.696020586142793D+01 -.275042286907639D+02
 0.876646933718097D+01 -.615179172650893D+00 0.549969653863759D+00 0.872754676900100D+01
 0.000000000000000D+00 -.000000000000000D+00 0.000000000000000D+00 -.000000000000000D+00
 0.474049788423375D+02 0.000000000000000D+00 0.000000000000000D+00 0.474049788423375D+02
 0.537340716048534D+02 0.000000000000000D+00 0.000000000000000D+00 -.537340716048534D+02
 0.534767674253792D+02 -.155439602520177D+01 0.218740103179034D+01 0.187766819217629D+02
 0.292274851764231D+02 0.353773376790457D+01 -.923296992584829D+01 -.275042286907639D+02
 0.874130104842622D+01 -.470084498686349D+00 -.138895565848717D+00 0.872754676900100D+01
 0.969349679696238D+01 -.151325324401645D+01 0.718446445990667D+01 -.632909276251594D+01
0.341743409081D-07 0.000000000000D+00 0.000000000000D+00 0.200737688476D-04 0.247350847451D-06  6 22 21 9900012 13 4 -3 2 0.54514287D-01 0.11059530D-02 0.11489309D+04 0.11489309D+04 0.11489309D+04 0.13209208D+01  1  2  1  3  6  2        3 0.390005450977D-03 0.100000000000D+01
  </mgrwgt>
  </event>
  <event>
  7     66 0.21666229E-05 0.17156227E+02 0.78161638E-02 0.13163610E+00
       22 -1    0    0    0    0 0.00000000E+00 0.00000000E+00 0.25254168E+03 0.25254168E+03 0.00000000E+00 0.0000E+00 0.9000E+01
        1 -1    0    0  502    0 0.00000000E+00 0.00000000E+00 -.24847782E+02 0.24847782E+02 0.00000000E+00 0.0000E+00 0.9000E+01
      -24  2    1    2    0    0 -.16660170E+02 0.57800364E+01 0.60365096E+02 0.10470531E+03 0.83715508E+02 0.0000E+00 0.0000E+00
  9900012  1    3    3    0    0 -.31174569E+02 0.86730960E+01 0.21840477E+02 0.63435658E+02 0.50000000E+02 0.0000E+00 0.9000E+01
       13  1    3    3    0    0 0.14514399E+02 -.28930595E+01 0.38524619E+02 0.41269648E+02 0.00000000E+00 0.0000E+00 0.9000E+01
        2  1    1    2  501    0 0.20975672E+00 -.29988537E+00 0.14193390E+03 0.14193438E+03 0.00000000E+00 0.0000E+00 0.9000E+01
       21  1    1    2  502  501 0.16450413E+02 -.54801511E+01 0.25394899E+02 0.30749781E+02 0.00000000E+00 0.0000E+00 0.9000E+01
#aMCatNLO 2  0  0  2  2 0.24714331D+02 0.00000000D+00  -5  6  0 0.00000000D+00 0.00000000D+00 0.00000000D+00 0.00000000D+00 0.00000000D+00
  <mgrwgt>
 0.2434315072D-02    1    2    0
 0.700099984595327D+02 0.000000000000000D+00 0.000000000000000D+00 0.700099984595327D+02
 0.700099984595327D+02 0.000000000000000D+00 0.000000000000000D+00 -.700099984595327D+02
 0.761825447399033D+02 -.220595987457983D+02 0.563661207752373D+01 -.527767262200798D+02
 0.188534732046136D+02 0.166070215806485D+02 -.359017795057824D+01 0.817134679108285D+01
 0.449839789745485D+02 0.545257716514983D+01 -.204643412694549D+01 0.446053794289969D+02
 0.000000000000000D+00 0.000000000000000D+00 -.000000000000000D+00 0.000000000000000D+00
 0.793671418136326D+02 0.000000000000000D+00 0.000000000000000D+00 0.793671418136326D+02
 0.790642146720137D+02 0.000000000000000D+00 0.000000000000000D+00 -.790642146720137D+02
 0.795767502085054D+02 -.311745689549483D+02 0.867309597034320D+01 -.527767262200798D+02
 0.169058714834868D+02 0.145143993609683D+02 -.289305952692871D+01 0.817134679108285D+01
 0.446068806701688D+02 0.209756716172975D+00 -.299885374621335D+00 0.446053794289969D+02
 0.173418541234853D+02 0.164504128778070D+02 -.548015106879315D+01 0.302927141618903D+00
0.111356339405D-04 0.000000000000D+00 0.000000000000D+00 0.428494962493D-07 0.348980932072D-06  6 22 1 9900012 13 2 21 2 0.38852566D-01 0.38227357D-02 0.21188726D+04 0.21188726D+04 0.21188726D+04 0.12861524D+01  1  2  1  1  6  2        1 0.243431507201D-02 0.100000000000D+01
  </mgrwgt>
  </event>
  <event>
  7     66 0.21666229E-05 0.11364137E+02 0.78161638E-02 0.12533488E+00
       22 -1    0    0    0    0 0.00000000E+00 0.00000000E+00 0.10589829E+04 0.10589829E+04 0.00000000E+00 0.0000E+00 0.9000E+01
       21 -1    0    0  501  502 0.00000000E+00 0.00000000E+00 -.54472506E+02 0.54472506E+02 0.00000000E+00 0.0000E+00 0.9000E+01
      -24  2    1    2    0    0 0.22978581E+02 -.22982538E+01 0.91479301E+03 0.91978108E+03 0.92831512E+02 0.0000E+00 0.0000E+00
  9900012  1    3    3    0    0 0.32393842E+02 0.24402480E+02 0.72978684E+03 0.73262110E+03 0.50000000E+02 0.0000E+00 0.9000E+01
       13  1    3    3    0    0 -.94152611E+01 -.26700734E+02 0.18500618E+03 0.18715999E+03 0.00000000E+00 0.0000E+00 0.9000E+01
        2  1    1    2  501    0 -.72737240E+01 0.11049162E+02 0.13981965E+03 0.14044403E+03 0.00000000E+00 0.0000E+00 0.9000E+01
       -1  1    1    2    0  502 -.15704857E+02 -.87509083E+01 -.50102296E+02 0.53230264E+02 0.00000000E+00 0.0000E+00 0.9000E+01
#aMCatNLO 2  0  0  2  2 0.17992338D+02 0.00000000D+00  -5  6  0 0.00000000D+00 0.00000000D+00 0.00000000D+00 0.00000000D+00 0.00000000D+00
  <mgrwgt>
 0.2833932366D-03    1    2    0
 0.537266310164486D+02 0.000000000000000D+00 0.000000000000000D+00 0.537266310164486D+02
 0.537266310164486D+02 0.000000000000000D+00 0.000000000000000D+00 -.537266310164486D+02
 0.593612569733029D+02 0.233556898757140D+02 0.193663284090381D+02 0.101595228152339D+02
 0.344650853059892D+02 -.141293106625167D+02 -.293274509001402D+02 -.113183615886341D+02
 0.136269197536052D+02 -.922637921319729D+01 0.996112249110211D+01 0.115883877340019D+01
 0.000000000000000D+00 -.000000000000000D+00 -.000000000000000D+00 -.000000000000000D+00
 0.545540134987520D+02 0.000000000000000D+00 0.000000000000000D+00 0.545540134987520D+02
 0.105740067226124D+04 0.000000000000000D+00 0.000000000000000D+00 -.105740067226124D+04
 0.651771275317057D+02 0.323938422460701D+02 0.244024800786250D+02 0.101595228152339D+02
 0.304906812249397D+02 -.941526111407254D+01 -.267007338974728D+02 -.113183615886341D+02
 0.132790794649866D+02 -.727372404121268D+01 0.110491620816684D+02 0.115883877340019D+01
 0.100300779753836D+04 -.157048570907849D+02 -.875090826282053D+01 -.100284665876249D+04
0.411235083861D-05 0.000000000000D+00 0.000000000000D+00 0.227524001091D-08 0.237974754527D-09  6 22 21 9900012 13 2 -1 2 0.16292044D+00 0.83803855D-02 0.38377613D+04 0.38377613D+04 0.38377613D+04 0.12549918D+01  1  2  1  3  6  2        1 0.283393236646D-03 0.100000000000D+01
  </mgrwgt>
  </event>
  <event>
  7     66 0.21666229E-05 0.97238950E+01 0.78161638E-02 0.13201414E+00
       22 -1    0    0    0    0 0.00000000E+00 0.00000000E+00 0.33200514E+03 0.33200514E+03 0.00000000E+00 0.0000E+00 0.9000E+01
        3 -1    0    0  501    0 0.00000000E+00 0.00000000E+00 -.89940962E+01 0.89940962E+01 0.00000000E+00 0.0000E+00 0.9000E+01
      -24  2    1    2    0    0 0.38995498E+01 -.94519439E+01 0.22877099E+03 0.24387989E+03 0.83884967E+02 0.0000E+00 0.0000E+00
  9900012  1    3    3    0    0 0.13811430E+02 -.28140166E+02 0.19748089E+03 0.20610999E+03 0.50000000E+02 0.0000E+00 0.9000E+01
       13  1    3    3    0    0 -.99118804E+01 0.18688222E+02 0.31290100E+02 0.37769901E+02 0.00000000E+00 0.0000E+00 0.9000E+01
        4  1    1    2  502    0 -.38685470E+00 0.16047012E+00 0.78538004E+02 0.78539121E+02 0.00000000E+00 0.0000E+00 0.9000E+01
       21  1    1    2  501  502 -.35126951E+01 0.92914738E+01 0.15702046E+02 0.18580225E+02 0.00000000E+00 0.0000E+00 0.9000E+01
#aMCatNLO 2  0  0  5  2 0.10548072D+02 0.00000000D+00  -5  6  0 0.00000000D+00 0.00000000D+00 0.00000000D+00 0.00000000D+00 0.00000000D+00
  <mgrwgt>
 0.1587437786D-02    2    2    0
 0.546450928478260D+02 0.000000000000000D+00 0.000000000000000D+00 0.546450928478260D+02
 0.546450928478260D+02 -.000000000000000D+00 -.000000000000000D+00 -.546450928478260D+02
 0.624081701949264D+02 0.160587189839480D+02 -.335872687500604D+02 0.296523685136765D+01
 0.244296014401286D+02 -.899335363318477D+01 0.164618465297910D+02 -.156503235040566D+02
 0.224524140605969D+02 -.706536535076325D+01 0.171254222202694D+02 0.126850866526889D+02
 0.000000000000000D+00 0.000000000000000D+00 0.000000000000000D+00 -.000000000000000D+00
 0.546450928478260D+02 0.000000000000000D+00 0.000000000000000D+00 0.546450928478260D+02
 0.546450928478260D+02 -.000000000000000D+00 -.000000000000000D+00 -.546450928478260D+02
 0.594274727718943D+02 0.138114302327342D+02 -.281401663279272D+02 0.699999671550984D+01
 0.253678714460977D+02 -.991188041181036D+01 0.186882223962404D+02 -.140012096647529D+02
 0.129301410616190D+02 -.386854695668639D+00 0.160470119070789D+00 0.129233564006682D+02
 0.115647004160410D+02 -.351269512525520D+01 0.929147381261598D+01 -.592214345142517D+01
-.149419831157D-08 0.000000000000D+00 0.000000000000D+00 0.201044794091D-07 0.000000000000D+00  6 22 3 9900012 13 4 21 2 0.51077714D-01 0.13837071D-02 0.20484660D+04 0.20484660D+04 0.20484660D+04 0.12879979D+01  1  2 13  2  6  5        4 -.719199572693D-06 0.100000000000D+01
0.329953128052D-05 0.000000000000D+00 0.000000000000D+00 0.201044794091D-07 0.176442608033D-05  6 22 3 9900012 13 4 21 2 0.51077714D-01 0.13837071D-02 0.20484660D+04 0.20484660D+04 0.20484660D+04 0.12879979D+01  1  2  1  2  6  5        4 0.158815698603D-02 0.100000000000D+01
  </mgrwgt>
  </event>
  <event>
  6     66 0.21666229E-05 0.10170692E+02 0.78161638E-02 0.13219397E+00
       22 -1    0    0    0    0 0.00000000E+00 0.00000000E+00 0.21277372E+02 0.21277372E+02 0.00000000E+00 0.0000E+00 0.9000E+01
        1 -1    0    0  501    0 -.00000000E+00 -.00000000E+00 -.24916895E+03 0.24916895E+03 0.00000000E+00 0.0000E+00 0.9000E+01
      -24  2    1    2    0    0 0.69957868E+01 0.73825437E+01 -.24094540E+03 0.25389806E+03 0.79410935E+02 0.0000E+00 0.0000E+00
  9900012  1    3    3    0    0 0.20072836E+02 0.23578018E+02 -.16575099E+03 0.17587561E+03 0.50000000E+02 0.0000E+00 0.9000E+01
       13  1    3    3    0    0 -.13077049E+02 -.16195474E+02 -.75194411E+02 0.78022446E+02 0.00000000E+00 0.0000E+00 0.9000E+01
        2  1    1    2  501    0 -.69957868E+01 -.73825437E+01 0.13053817E+02 0.16548266E+02 0.00000000E+00 0.0000E+00 0.9000E+01
#aMCatNLO 1  0  0  5  2 0.10548072D+02 0.00000000D+00  -5  6  0 0.00000000D+00 0.00000000D+00 0.00000000D+00 0.00000000D+00 0.00000000D+00
  <mgrwgt>
 0.3031582542D-04    1    2    0
 0.728125026118337D+02 0.000000000000000D+00 0.000000000000000D+00 0.728125026118337D+02
 0.728125026118337D+02 -.000000000000000D+00 -.000000000000000D+00 -.728125026118337D+02
 0.672388565201149D+02 0.200728359767859D+02 0.235780175579523D+02 -.325917500300082D+02
 0.272254790165112D+02 -.130770492167946D+02 -.161954738967418D+02 -.175477667160234D+02
 0.511606696870412D+02 -.699578675999128D+01 -.738254366121048D+01 0.501395167460316D+02
 0.000000000000000D+00 0.000000000000000D+00 0.000000000000000D+00 0.000000000000000D+00
 0.728125026118337D+02 0.000000000000000D+00 0.000000000000000D+00 0.728125026118337D+02
 0.728125026118337D+02 -.000000000000000D+00 -.000000000000000D+00 -.728125026118337D+02
 0.633950778170525D+02 0.190761150714880D+02 0.225261936739704D+02 -.254481497121553D+02
 0.259321662861327D+02 -.134826355341508D+02 -.166234827539293D+02 -.146408882406330D+02
 0.130088550863932D+02 -.124942020350328D+02 -.260400943748423D+01 -.251880150390048D+01
 0.432889060340890D+02 0.690072249769565D+01 -.329870148255684D+01 0.426078394566887D+02
0.748963703631D-07 0.000000000000D+00 0.000000000000D+00 0.123196478485D-05 0.000000000000D+00  6 22 1 9900012 13 2 21 2 0.32734418D-02 0.38333685D-01 0.20159441D+04 0.20159441D+04 0.20159441D+04 0.12888749D+01  1  2 14  2  6  5        2 0.303158254180D-04 0.100000000000D+01
  </mgrwgt>
  </event>
  <event>
  6     66 0.21666229E-05 0.50860522E+02 0.78161638E-02 0.10819655E+00
       22 -1    0    0    0    0 0.00000000E+00 0.00000000E+00 0.81884981E+03 0.81884981E+03 0.00000000E+00 0.0000E+00 0.9000E+01
        1 -1    0    0  501    0 0.00000000E+00 0.00000000E+00 -.22878640E+02 0.22878640E+02 0.00000000E+00 0.0000E+00 0.9000E+01
      -24  2    1    2    0    0 -.17200410E+02 -.11240979E+03 0.28678249E+03 0.31999583E+03 0.84978350E+02 0.0000E+00 0.0000E+00
  9900012  1    3    3    0    0 0.81971762E+01 -.93457785E+02 0.24859654E+03 0.27037343E+03 0.50000000E+02 0.0000E+00 0.9000E+01
       13  1    3    3    0    0 -.25397587E+02 -.18952004E+02 0.38185943E+02 0.49622395E+02 0.00000000E+00 0.0000E+00 0.9000E+01
        2  1    1    2  501    0 0.17200410E+02 0.11240979E+03 0.50918868E+03 0.52173262E+03 0.00000000E+00 0.0000E+00 0.9000E+01
#aMCatNLO 1  0  0  2  5 0.93074176D+02 0.00000000D+00  -5  6  0 0.00000000D+00 0.00000000D+00 0.00000000D+00 0.00000000D+00 0.00000000D+00
  <mgrwgt>
 0.1571981671D-04    9    2    0
 0.136872824737366D+03 0.000000000000000D+00 0.000000000000000D+00 0.136872824737366D+03
 0.136872824737366D+03 0.000000000000000D+00 0.000000000000000D+00 -.136872824737366D+03
 0.108514339445621D+03 0.819717624788793D+01 -.934577851223297D+02 -.217671901473052D+02
 0.415483205615899D+02 -.253975866209044D+02 -.189520038813044D+02 -.268709338171437D+02
 0.123682989467521D+03 0.172004103730164D+02 0.112409789003634D+03 0.486381239644489D+02
 0.000000000000000D+00 -.000000000000000D+00 -.000000000000000D+00 -.000000000000000D+00
 0.169381976723220D+03 0.000000000000000D+00 0.000000000000000D+00 0.169381976723220D+03
 0.188438005326971D+03 0.000000000000000D+00 0.000000000000000D+00 -.188438005326971D+03
 0.912214991251563D+02 0.199309876242827D+02 -.703584186011358D+02 -.217671901473052D+02
 0.354767144516953D+02 -.208726238572197D+02 -.100440906704802D+02 -.268709338171437D+02
 0.156417176980313D+03 0.336553567818004D+02 0.144803256564205D+03 0.486381239644489D+02
 0.747045914930268D+02 -.327137205488634D+02 -.644007472925892D+02 -.190560286037501D+02
0.593980935819D-06 0.000000000000D+00 0.000000000000D+00 0.670657781164D-08 0.000000000000D+00  6 22 1 9900012 13 2 21 0 0.12597689D+00 0.35197908D-02 0.15840269D+05 0.15840269D+05 0.15840269D+05 0.11891520D+01  1  2  2  1  6  2        1 0.131777892526D-04 0.100000000000D+01
-.359144699758D-07 0.000000000000D+00 -.114052159616D-08 0.670657781164D-08 0.000000000000D+00  6 22 1 9900012 13 2 21 2 0.12597689D+00 0.35197908D-02 0.15840269D+05 0.15840269D+05 0.15840269D+05 0.11891520D+01  1  2  3  1  6  2        1 -.112671543628D-05 0.100000000000D+01
0.274213803082D-07 0.000000000000D+00 0.000000000000D+00 0.670657781164D-08 0.000000000000D+00  6 22 1 9900012 13 2 21 2 0.12597689D+00 0.35197908D-02 0.15840269D+05 0.15840269D+05 0.15840269D+05 0.11891520D+01  1  2 15  1  6  2        1 0.860268646547D-06 0.100000000000D+01
0.354385293968D-07 0.000000000000D+00 0.000000000000D+00 0.670657781164D-08 0.000000000000D+00  6 22 1 9900012 13 2 21 2 0.12597689D+00 0.59967796D-02 0.27663365D+05 0.27663365D+05 0.27663365D+05 0.11660351D+01  1  2 12  1  6  2        1 0.540882686600D-06 0.100000000000D+01
-.119796820115D-06 0.000000000000D+00 0.000000000000D+00 0.670657781164D-08 0.000000000000D+00  6 22 1 9900012 13 2 21 2 0.12597689D+00 0.35197908D-02 0.15840269D+05 0.15840269D+05 0.15840269D+05 0.11891520D+01  1  2  4  1  6  2        1 -.375828813657D-05 0.100000000000D+01
-.294602936385D-06 0.000000000000D+00 -.198578314774D-06 0.670657781164D-08 0.000000000000D+00  6 22 1 9900012 13 2 21 2 0.12597689D+00 0.60270143D-02 0.15840269D+05 0.15840269D+05 0.15840269D+05 0.11891520D+01  1  2  5  1  6  2        1 -.445558062375D-05 0.100000000000D+01
0.371927830279D-06 0.000000000000D+00 0.172953208997D-06 0.670657781164D-08 0.000000000000D+00  6 22 1 9900012 13 2 21 2 0.12597689D+00 0.35197908D-02 0.15840269D+05 0.15840269D+05 0.15840269D+05 0.11891520D+01  1  2  6  1  6  2        1 0.116681891127D-04 0.100000000000D+01
0.210309055742D-08 0.000000000000D+00 0.000000000000D+00 0.670657781164D-08 0.000000000000D+00  6 22 21 9900012 13 2 -1 2 0.12597689D+00 0.59967796D-02 0.27663365D+05 0.27663365D+05 0.27663365D+05 0.11660351D+01  1  2 12  3  6  2        1 0.432810623479D-06 0.100000000000D+01
-.792718437574D-08 0.000000000000D+00 -.118758450447D-07 0.670657781164D-08 0.000000000000D+00  6 22 21 9900012 13 2 -1 2 0.12597689D+00 0.60270143D-02 0.15840269D+05 0.15840269D+05 0.15840269D+05 0.11891520D+01  1  2  5  3  6  2        1 -.161953941065D-05 0.100000000000D+01
  </mgrwgt>
  </event>
  <event>
  7     66 0.21666229E-05 0.84496304E+01 0.78161638E-02 0.13510927E+00
       22 -1    0    0    0    0 0.00000000E+00 0.00000000E+00 0.14254521E+03 0.14254521E+03 0.00000000E+00 0.0000E+00 0.9000E+01
        1 -1    0    0  502    0 0.00000000E+00 0.00000000E+00 -.24183260E+02 0.24183260E+02 0.00000000E+00 0.0000E+00 0.9000E+01
      -24  2    1    2    0    0 0.74797593E+01 -.10427065E+01 0.43358761E+02 0.83310790E+02 0.70736635E+02 0.0000E+00 0.0000E+00
  9900012  1    3    3    0    0 0.12002188E+01 0.13654205E+02 0.42948183E+02 0.67323282E+02 0.50000000E+02 0.0000E+00 0.9000E+01
       13  1    3    3    0    0 0.62795405E+01 -.14696912E+02 0.41057794E+00 0.15987508E+02 0.00000000E+00 0.0000E+00 0.9000E+01
        2  1    1    2  501    0 0.17485638E+01 -.72983676E+00 0.73935989E+02 0.73960263E+02 0.00000000E+00 0.0000E+00 0.9000E+01
       21  1    1    2  502  501 -.92283231E+01 0.17725432E+01 0.10672040E+01 0.94574194E+01 0.00000000E+00 0.0000E+00 0.9000E+01
#aMCatNLO 2  0  0  2  2 0.78281536D+02 0.00000000D+00  -5  6  0 0.00000000D+00 0.00000000D+00 0.00000000D+00 0.00000000D+00 0.00000000D+00
  <mgrwgt>
 0.7736967667D-04    1    2    0
 0.521723636783217D+02 0.000000000000000D+00 0.000000000000000D+00 0.521723636783217D+02
 0.521723636783217D+02 0.000000000000000D+00 0.000000000000000D+00 -.521723636783217D+02
 0.533187817607218D+02 -.349079660263065D+01 0.145552388994887D+02 -.109019194688529D+02
 0.228302202380006D+02 0.423317411040442D+01 -.143038532133810D+02 -.172829099493303D+02
 0.281957253579211D+02 -.742377507773777D+00 -.251385686107641D+00 0.281848294181832D+02
 0.000000000000000D+00 -.000000000000000D+00 0.000000000000000D+00 -.000000000000000D+00
 0.543914622266986D+02 0.000000000000000D+00 0.000000000000000D+00 0.543914622266986D+02
 0.633777391515610D+02 0.000000000000000D+00 0.000000000000000D+00 -.633777391515610D+02
 0.529785777516256D+02 0.120021884798530D+01 0.136542054765786D+02 -.109019194688529D+02
 0.235399835437928D+02 0.627954048663915D+01 -.146969119274095D+02 -.172829099493303D+02
 0.282484467960127D+02 0.174856379957425D+01 -.729836758387352D+00 0.281848294181832D+02
 0.130021932868284D+02 -.922832313419871D+01 0.177254320921827D+01 -.898627692486236D+01
0.144441329885D-06 0.000000000000D+00 0.000000000000D+00 0.165088846014D-05 0.259408117139D-07  6 22 1 9900012 13 2 21 2 0.21930033D-01 0.37205015D-02 0.15649446D+04 0.15649446D+04 0.15649446D+04 0.13030093D+01  1  2  1  1  6  2        1 0.773696766745D-04 0.100000000000D+01
  </mgrwgt>
  </event>
  <event>
  6     66 0.21666229E-05 0.60003756E+02 0.78161638E-02 0.10363730E+00
       22 -1    0    0    0    0 0.00000000E+00 0.00000000E+00 0.59178164E+02 0.59178164E+02 0.00000000E+00 0.0000E+00 0.9000E+01
        3 -1    0    0  501    0 0.00000000E+00 0.00000000E+00 -.13677270E+03 0.13677270E+03 0.00000000E+00 0.0000E+00 0.9000E+01
      -24  2    1    2    0    0 -.41197678E+02 0.43625704E+02 -.90280165E+02 0.13462080E+03 0.79823565E+02 0.0000E+00 0.0000E+00
  9900012  1    3    3    0    0 -.32087868E+02 0.15838397E+02 -.31766411E+02 0.69206871E+02 0.50000000E+02 0.0000E+00 0.9000E+01
       13  1    3    3    0    0 -.91098106E+01 0.27787307E+02 -.58513754E+02 0.65413932E+02 0.00000000E+00 0.0000E+00 0.9000E+01
        4  1    1    2  501    0 0.41197678E+02 -.43625704E+02 0.12685633E+02 0.61330058E+02 0.00000000E+00 0.0000E+00 0.9000E+01
#aMCatNLO 1  0  0  2  2 0.34574892D+03 0.00000000D+00  -5  6  0 0.00000000D+00 0.00000000D+00 0.00000000D+00 0.00000000D+00 0.00000000D+00
  <mgrwgt>
 0.3603003895D-04    3    2    0
 0.899664218087796D+02 0.000000000000000D+00 0.000000000000000D+00 0.899664218087796D+02
 0.899664218087796D+02 0.000000000000000D+00 0.000000000000000D+00 -.899664218087796D+02
 0.616688193548966D+02 -.320878676790043D+02 0.158383969331115D+02 -.474944323376808D+01
 0.460036570939701D+02 -.910981062471879D+01 0.277873066419651D+02 -.355135665061501D+02
 0.722603671686925D+02 0.411976783037231D+02 -.436257035750766D+02 0.402630097399182D+02
 0.000000000000000D+00 0.000000000000000D+00 -.000000000000000D+00 0.000000000000000D+00
 0.308307294487128D+03 0.000000000000000D+00 0.000000000000000D+00 0.308307294487128D+03
 0.201438631089526D+03 0.000000000000000D+00 0.000000000000000D+00 -.201438631089526D+03
 0.134764082553124D+03 -.119731520368975D+03 0.360993596271201D+02 -.474944323376808D+01
 0.879584707703679D+02 -.688805012478670D+02 0.416047560035811D+02 -.355135665061501D+02
 0.527046855703330D+02 -.145587330421292D+02 -.307362525360354D+02 0.402630097399182D+02
 0.234318686682828D+03 0.203170754658972D+03 -.469678630946658D+02 0.106868663397602D+03
0.536477250141D-06 0.000000000000D+00 0.000000000000D+00 0.289635335866D-06 0.000000000000D+00  6 22 3 9900012 13 4 21 0 0.91043329D-02 0.21041953D-01 0.56800265D+04 0.56800265D+04 0.56800265D+04 0.12356595D+01  1  2  2  1  6  2        3 0.370172169361D-04 0.100000000000D+01
-.332864276162D-07 0.000000000000D+00 -.103010694912D-08 0.289635335866D-06 0.000000000000D+00  6 22 3 9900012 13 4 21 2 0.91043329D-02 0.21041953D-01 0.56800265D+04 0.56800265D+04 0.56800265D+04 0.12356595D+01  1  2  3  1  6  2        3 -.350685070094D-05 0.100000000000D+01
0.239163028619D-07 0.000000000000D+00 0.000000000000D+00 0.289635335866D-06 0.000000000000D+00  6 22 3 9900012 13 4 21 2 0.91043329D-02 0.21041953D-01 0.56800265D+04 0.56800265D+04 0.56800265D+04 0.12356595D+01  1  2 15  1  6  2        3 0.251967271533D-05 0.100000000000D+01
  </mgrwgt>
  </event>
</LesHouchesEvents>
