<LesHouchesEvents version="3.0">
  <!--
  <scalesfunctionalform>
    muR  H_T/2 := sum_i mT(i)/2, i=final state
    muF1 H_T/2 := sum_i mT(i)/2, i=final state
    muF2 H_T/2 := sum_i mT(i)/2, i=final state
    QES  H_T/2 := sum_i mT(i)/2, i=final state
  </scalesfunctionalform>
PYTHIA8   
  -->
  <header>
      110
  </header>
  <init>
   2212   2212 0.65000000D+04 0.65000000D+04 -1 -1  82200  82200 -4   1
 0.89570285D-04 0.36302691D-06 0.15202802D-05     66
  </init>
  <event>
  6     66 0.15202802E-05 0.28570031E+02 0.78161638E-02 0.12568723E+00
       22 -1    0    0    0    0 0.00000000E+00 0.00000000E+00 0.10818140E+03 0.10818140E+03 0.00000000E+00 0.0000E+00 0.9000E+01
        3 -1    0    0  501    0 0.00000000E+00 0.00000000E+00 -.43661884E+02 0.43661884E+02 0.00000000E+00 0.0000E+00 0.9000E+01
      -24  2    1    2    0    0 0.45401770E+02 -.10253672E+02 0.59276137E+02 0.10500365E+03 0.73113930E+02 0.0000E+00 0.0000E+00
  9900012  1    3    3    0    0 0.44629564E+02 0.62501015E+01 0.35637867E+02 0.76163766E+02 0.50000000E+02 0.0000E+00 0.9000E+01
       13  1    3    3    0    0 0.77220620E+00 -.16503774E+02 0.23638270E+02 0.28839880E+02 0.00000000E+00 0.0000E+00 0.9000E+01
        4  1    1    2  501    0 -.45401770E+02 0.10253672E+02 0.52433777E+01 0.46839636E+02 0.00000000E+00 0.0000E+00 0.9000E+01
#aMCatNLO 1  0  0  5  2 0.10575603D+02 0.00000000D+00  -5  6  0 0.00000000D+00 0.00000000D+00 0.00000000D+00 0.00000000D+00 0.00000000D+00
  <mgrwgt>
 0.5782594817D-04    5    2    0
 0.687270227431241D+02 0.000000000000000D+00 0.000000000000000D+00 0.687270227431241D+02
 0.687270227431241D+02 -.000000000000000D+00 -.000000000000000D+00 -.687270227431241D+02
 0.674088446287854D+02 0.446295639002679D+02 0.625010154521073D+01 0.361809216772933D+01
 0.207633924528884D+02 0.772206200578049D+00 -.165037735458647D+02 0.125756758261046D+02
 0.492818084045745D+02 -.454017701008460D+02 0.102536720006539D+02 -.161937679938339D+02
 0.000000000000000D+00 0.000000000000000D+00 0.000000000000000D+00 0.000000000000000D+00
 0.687270227431241D+02 0.000000000000000D+00 0.000000000000000D+00 0.687270227431241D+02
 0.687270227431241D+02 -.000000000000000D+00 -.000000000000000D+00 -.687270227431241D+02
 0.646703658065470D+02 0.403205841496214D+02 0.722325446243070D+01 0.208117811752586D+01
 0.202285455667227D+02 -.565123347986620D+00 -.162017470275746D+02 0.120986811099811D+02
 0.449113637800242D+02 -.385173608408438D+02 0.801539650651103D+01 -.216609540251880D+02
 0.764377033295446D+01 -.123809996079099D+01 0.963096058632853D+00 0.748109479768102D+01
0.208997264267D-06 0.000000000000D+00 0.000000000000D+00 0.444487326976D-08 0.000000000000D+00  6 22 3 9900012 13 4 21 0 0.16643292D-01 0.67172129D-02 0.42496537D+04 0.42496537D+04 0.42496537D+04 0.12498769D+01  1  2  2  2  6  5        4 0.375473513729D-04 0.100000000000D+01
-.389316478204D-08 0.000000000000D+00 -.401302262514D-09 0.444487326976D-08 0.000000000000D+00  6 22 3 9900012 13 4 21 2 0.16643292D-01 0.67172129D-02 0.42496537D+04 0.42496537D+04 0.42496537D+04 0.12498769D+01  1  2  3  2  6  5        4 -.109263714602D-05 0.100000000000D+01
-.240928336663D-07 0.000000000000D+00 0.000000000000D+00 0.444487326976D-08 0.000000000000D+00  6 22 3 9900012 13 4 21 2 0.16643292D-01 0.67172129D-02 0.42496537D+04 0.42496537D+04 0.42496537D+04 0.12498769D+01  1  2 15  2  6  5        4 -.676178032284D-05 0.100000000000D+01
0.138884422767D-06 0.000000000000D+00 0.000000000000D+00 0.444487326976D-08 0.000000000000D+00  6 22 3 9900012 13 4 21 2 0.16643292D-01 0.67172129D-02 0.37063481D+04 0.37063481D+04 0.37063481D+04 0.12567547D+01  1  2 12  2  6  5        4 0.387527990670D-04 0.100000000000D+01
-.378392518929D-07 0.000000000000D+00 0.000000000000D+00 0.444487326976D-08 0.000000000000D+00  6 22 3 9900012 13 4 21 2 0.16643292D-01 0.67172129D-02 0.42496537D+04 0.42496537D+04 0.42496537D+04 0.12498769D+01  1  2  4  2  6  5        4 -.106197848051D-04 0.100000000000D+01
  </mgrwgt>
  </event>
  <event>
  6     66 0.15202802E-05 0.48475624E+02 0.78161638E-02 0.12244330E+00
       22 -1    0    0    0    0 0.00000000E+00 0.00000000E+00 0.65201060E+03 0.65201060E+03 0.00000000E+00 0.0000E+00 0.9000E+01
        1 -1    0    0  501    0 0.00000000E+00 0.00000000E+00 -.27414313E+02 0.27414313E+02 0.00000000E+00 0.0000E+00 0.9000E+01
      -24  2    1    2    0    0 -.20032001E+00 -.48475211E+02 0.62437004E+03 0.63094876E+03 0.76866818E+02 0.0000E+00 0.0000E+00
  9900012  1    3    3    0    0 0.15174405E+02 -.42459981E+02 0.57415986E+03 0.57809398E+03 0.50000000E+02 0.0000E+00 0.9000E+01
       13  1    3    3    0    0 -.15374725E+02 -.60152295E+01 0.50210184E+02 0.52854780E+02 0.00000000E+00 0.0000E+00 0.9000E+01
        2  1    1    2  501    0 0.20032001E+00 0.48475211E+02 0.22624943E+00 0.48476152E+02 0.00000000E+00 0.0000E+00 0.9000E+01
#aMCatNLO 1  0  0  5  2 0.11012509D+02 0.00000000D+00  -5  6  0 0.00000000D+00 0.00000000D+00 0.00000000D+00 0.00000000D+00 0.00000000D+00
  <mgrwgt>
 0.2532273754D-03    7    2    0
 0.133695260124686D+03 0.000000000000000D+00 0.000000000000000D+00 0.133695260124686D+03
 0.133695260124686D+03 -.000000000000000D+00 -.000000000000000D+00 -.133695260124686D+03
 0.127728310640272D+03 0.151744051642834D+02 -.424599810833739D+02 0.108542198122793D+03
 0.170154109613616D+02 -.153747251757152D+02 -.601522948630834D+01 0.411813673671718D+01
 0.122646798647739D+03 0.200320011431808D+00 0.484752105696823D+02 -.112660334859510D+03
 0.000000000000000D+00 0.000000000000000D+00 0.000000000000000D+00 -.000000000000000D+00
 0.133695260124686D+03 0.000000000000000D+00 0.000000000000000D+00 0.133695260124686D+03
 0.133695260124686D+03 -.000000000000000D+00 -.000000000000000D+00 -.133695260124686D+03
 0.124757214440464D+03 0.151797402679686D+02 -.411689454414350D+02 0.105541726210921D+03
 0.168610379704617D+02 -.153740093550064D+02 -.584200885126669D+01 0.371555788210208D+01
 0.115866373628003D+03 0.593622564651137D+01 0.523442186297178D+02 -.103198161508925D+03
 0.990589421044364D+01 -.574195655947364D+01 -.533326433701605D+01 -.605912258409840D+01
0.250980606563D-05 0.000000000000D+00 0.000000000000D+00 0.765103694443D-06 0.000000000000D+00  6 22 1 9900012 13 2 21 0 0.10030932D+00 0.42175866D-02 0.43767199D+04 0.43767199D+04 0.43767199D+04 0.12484103D+01  1  2  2  2  6  5        2 0.610092729234D-04 0.100000000000D+01
0.636798726023D-07 0.000000000000D+00 -.481915806957D-08 0.765103694443D-06 0.000000000000D+00  6 22 1 9900012 13 2 21 2 0.10030932D+00 0.42175866D-02 0.43767199D+04 0.43767199D+04 0.43767199D+04 0.12484103D+01  1  2  3  2  6  5        2 0.241252920435D-05 0.100000000000D+01
-.359180096598D-06 0.000000000000D+00 0.000000000000D+00 0.765103694443D-06 0.000000000000D+00  6 22 1 9900012 13 2 21 2 0.10030932D+00 0.42175866D-02 0.43767199D+04 0.43767199D+04 0.43767199D+04 0.12484103D+01  1  2 15  2  6  5        2 -.136076351483D-04 0.100000000000D+01
0.522850416137D-05 0.000000000000D+00 0.000000000000D+00 0.765103694443D-06 0.000000000000D+00  6 22 1 9900012 13 2 21 2 0.10030932D+00 0.42175866D-02 0.51470565D+04 0.51470565D+04 0.51470565D+04 0.12404305D+01  1  2 12  2  6  5        2 0.198708225595D-03 0.100000000000D+01
-.354708023698D-06 0.000000000000D+00 0.000000000000D+00 0.765103694443D-06 0.000000000000D+00  6 22 1 9900012 13 2 21 2 0.10030932D+00 0.42175866D-02 0.43767199D+04 0.43767199D+04 0.43767199D+04 0.12484103D+01  1  2  4  2  6  5        2 -.134382094564D-04 0.100000000000D+01
-.569996063869D-05 0.000000000000D+00 0.000000000000D+00 0.765103694443D-06 0.000000000000D+00  6 22 1 9900012 13 2 21 2 0.10030932D+00 0.42175866D-02 0.43767199D+04 0.43767199D+04 0.43767199D+04 0.12484103D+01  1  2  5  2  6  5        2 -.215944551120D-03 0.100000000000D+01
0.617885895412D-05 0.000000000000D+00 -.000000000000D+00 0.765103694443D-06 0.000000000000D+00  6 22 1 9900012 13 2 21 2 0.10030932D+00 0.42175866D-02 0.43767199D+04 0.43767199D+04 0.43767199D+04 0.12484103D+01  1  2  6  2  6  5        2 0.234087743383D-03 0.100000000000D+01
  </mgrwgt>
  </event>
  <event>
  6     66 0.15202802E-05 0.21123139E+02 0.78161638E-02 0.12938622E+00
       22 -1    0    0    0    0 0.00000000E+00 0.00000000E+00 0.27089661E+03 0.27089661E+03 0.00000000E+00 0.0000E+00 0.9000E+01
        1 -1    0    0  501    0 0.00000000E+00 0.00000000E+00 -.22520162E+02 0.22520162E+02 0.00000000E+00 0.0000E+00 0.9000E+01
      -24  2    1    2    0    0 0.70828806E+01 -.19900246E+02 0.25789169E+03 0.27024941E+03 0.77977132E+02 0.0000E+00 0.0000E+00
  9900012  1    3    3    0    0 0.38964861E+01 -.31407753E+02 0.24732273E+03 0.25430329E+03 0.50000000E+02 0.0000E+00 0.9000E+01
       13  1    3    3    0    0 0.31863945E+01 0.11507507E+02 0.10568953E+02 0.15946115E+02 0.00000000E+00 0.0000E+00 0.9000E+01
        2  1    1    2  501    0 -.70828806E+01 0.19900246E+02 -.95152393E+01 0.23167364E+02 0.00000000E+00 0.0000E+00 0.9000E+01
#aMCatNLO 1  0  0  5  2 0.11875047D+02 0.00000000D+00  -5  6  0 0.00000000D+00 0.00000000D+00 0.00000000D+00 0.00000000D+00 0.00000000D+00
  <mgrwgt>
 0.9213091386D-04    7    2    0
 0.781065652879573D+02 0.000000000000000D+00 0.000000000000000D+00 0.781065652879573D+02
 0.781065652879573D+02 -.000000000000000D+00 -.000000000000000D+00 -.781065652879573D+02
 0.844212572078767D+02 0.389648608802323D+01 -.314077532642012D+02 0.602106228137475D+02
 0.131472861363189D+02 0.318639452206402D+01 0.115075071476951D+02 -.550229969610443D+01
 0.586445872317191D+02 -.708288061008725D+01 0.199002461165061D+02 -.547083231176431D+02
 0.000000000000000D+00 -.000000000000000D+00 0.000000000000000D+00 0.000000000000000D+00
 0.781065652879573D+02 0.000000000000000D+00 0.000000000000000D+00 0.781065652879573D+02
 0.781065652879573D+02 -.000000000000000D+00 -.000000000000000D+00 -.781065652879573D+02
 0.819297188531453D+02 0.351564777082565D+01 -.303377399941717D+02 0.572690194097381D+02
 0.134848998637750D+02 0.312542369315918D+01 0.116788123789883D+02 -.597323969807562D+01
 0.426268017242380D+02 0.608564875688513D+01 0.175345397677986D+02 -.383738064254357D+02
 0.181717101347564D+02 -.127267202208700D+02 0.112438784738477D+01 -.129219732862268D+02
0.265977839996D-06 0.000000000000D+00 0.000000000000D+00 0.345422096996D-06 0.000000000000D+00  6 22 1 9900012 13 2 21 0 0.41676401D-01 0.34646403D-02 0.21269723D+04 0.21269723D+04 0.21269723D+04 0.12859446D+01  1  2  2  2  6  5        2 0.358209282424D-04 0.100000000000D+01
0.178000554434D-07 0.000000000000D+00 -.510712469578D-09 0.345422096996D-06 0.000000000000D+00  6 22 1 9900012 13 2 21 2 0.41676401D-01 0.34646403D-02 0.21269723D+04 0.21269723D+04 0.21269723D+04 0.12859446D+01  1  2  3  2  6  5        2 0.396421518329D-05 0.100000000000D+01
-.399958016322D-07 0.000000000000D+00 0.000000000000D+00 0.345422096996D-06 0.000000000000D+00  6 22 1 9900012 13 2 21 2 0.41676401D-01 0.34646403D-02 0.21269723D+04 0.21269723D+04 0.21269723D+04 0.12859446D+01  1  2 15  2  6  5        2 -.890738596866D-05 0.100000000000D+01
0.224054717954D-06 0.000000000000D+00 0.000000000000D+00 0.345422096996D-06 0.000000000000D+00  6 22 1 9900012 13 2 21 2 0.41676401D-01 0.34646403D-02 0.26018281D+04 0.26018281D+04 0.26018281D+04 0.12751138D+01  1  2 12  2  6  5        2 0.502774280939D-04 0.100000000000D+01
-.256345742200D-07 0.000000000000D+00 0.000000000000D+00 0.345422096996D-06 0.000000000000D+00  6 22 1 9900012 13 2 21 2 0.41676401D-01 0.34646403D-02 0.21269723D+04 0.21269723D+04 0.21269723D+04 0.12859446D+01  1  2  4  2  6  5        2 -.570902538270D-05 0.100000000000D+01
-.211186310266D-06 0.000000000000D+00 0.000000000000D+00 0.345422096996D-06 0.000000000000D+00  6 22 1 9900012 13 2 21 2 0.41676401D-01 0.34646403D-02 0.21269723D+04 0.21269723D+04 0.21269723D+04 0.12859446D+01  1  2  5  2  6  5        2 -.470328859547D-04 0.100000000000D+01
0.286103923730D-06 0.000000000000D+00 -.000000000000D+00 0.345422096996D-06 0.000000000000D+00  6 22 1 9900012 13 2 21 2 0.41676401D-01 0.34646403D-02 0.21269723D+04 0.21269723D+04 0.21269723D+04 0.12859446D+01  1  2  6  2  6  5        2 0.637176396475D-04 0.100000000000D+01
  </mgrwgt>
  </event>
  <event>
  7     66 0.15202802E-05 0.35952050E+02 0.78161638E-02 0.11901922E+00
       22 -1    0    0    0    0 0.00000000E+00 0.00000000E+00 0.54264925E+03 0.54264925E+03 0.00000000E+00 0.0000E+00 0.9000E+01
        3 -1    0    0  502    0 0.00000000E+00 0.00000000E+00 -.64585233E+03 0.64585233E+03 0.00000000E+00 0.0000E+00 0.9000E+01
      -24  2    1    2    0    0 -.22678336E+02 0.57007635E+02 0.53095280E+03 0.54225408E+03 0.91457316E+02 0.0000E+00 0.0000E+00
  9900012  1    3    3    0    0 0.11059289E+02 0.12531906E+02 0.30393622E+03 0.30847461E+03 0.50000000E+02 0.0000E+00 0.9000E+01
       13  1    3    3    0    0 -.33737624E+02 0.44475729E+02 0.22701657E+03 0.23377947E+03 0.00000000E+00 0.0000E+00 0.9000E+01
        4  1    1    2  501    0 -.11271612E+01 -.18539005E+02 -.11278480E+02 0.21729457E+02 0.00000000E+00 0.0000E+00 0.9000E+01
       21  1    1    2  502  501 0.23805497E+02 -.38468630E+02 -.62287739E+03 0.62451804E+03 0.00000000E+00 0.0000E+00 0.9000E+01
#aMCatNLO 2  0  0  2  2 0.45274064D+02 0.00000000D+00  -5  6  0 0.00000000D+00 0.00000000D+00 0.00000000D+00 0.00000000D+00 0.00000000D+00
  <mgrwgt>
 0.8361596788D-04    1    2    0
 0.107202495164897D+03 0.000000000000000D+00 0.000000000000000D+00 0.107202495164897D+03
 0.107202495164897D+03 0.000000000000000D+00 0.000000000000000D+00 -.107202495164897D+03
 0.737293433356514D+02 0.191239727567755D+02 -.500266744189574D+00 0.506955566878314D+02
 0.529793223272257D+02 -.273520264502328D+02 0.341568849936502D+02 0.298660752501630D+02
 0.876963246669165D+02 0.822805369345740D+01 -.336566182494606D+02 -.805616319379944D+02
 0.000000000000000D+00 0.000000000000000D+00 -.000000000000000D+00 -.000000000000000D+00
 0.109728686799917D+03 0.000000000000000D+00 0.000000000000000D+00 0.109728686799917D+03
 0.319398049229422D+04 0.000000000000000D+00 0.000000000000000D+00 -.319398049229422D+04
 0.731395652311931D+02 0.110592888490211D+02 0.125319058595549D+02 0.506955566878314D+02
 0.633111382082403D+02 -.337376244291194D+02 0.444757289794579D+02 0.298660752501630D+02
 0.826749159365586D+02 -.112716121108893D+01 -.185390046175186D+02 -.805616319379944D+02
 0.308458355971814D+04 0.238054967911873D+02 -.384686302214941D+02 -.308425180549430D+04
0.523346976416D-03 0.000000000000D+00 0.000000000000D+00 0.189455801450D-07 0.780689023867D-08  6 22 3 9900012 13 4 21 2 0.83484501D-01 0.99361897D-01 0.74266046D+04 0.74266046D+04 0.74266046D+04 0.12229635D+01  1  2  1  1  6  2        3 0.836159678806D-04 0.100000000000D+01
  </mgrwgt>
  </event>
  <event>
  6     66 0.15202802E-05 0.38430510E+02 0.78161638E-02 0.11629932E+00
       22 -1    0    0    0    0 0.00000000E+00 0.00000000E+00 0.61272939E+02 0.61272939E+02 0.00000000E+00 0.0000E+00 0.9000E+01
        1 -1    0    0  501    0 0.00000000E+00 0.00000000E+00 -.11093070E+04 0.11093070E+04 0.00000000E+00 0.0000E+00 0.9000E+01
      -24  2    1    2    0    0 0.40308065E+02 0.61499716E+02 0.98559729E+01 0.11013745E+03 0.81401241E+02 0.0000E+00 0.0000E+00
  9900012  1    3    3    0    0 0.22827654E+02 0.68298711E+02 0.18315989E+02 0.89561661E+02 0.50000000E+02 0.0000E+00 0.9000E+01
       13  1    3    3    0    0 0.17480412E+02 -.67989953E+01 -.84600158E+01 0.20575787E+02 0.00000000E+00 0.0000E+00 0.9000E+01
        2  1    1    2  501    0 -.40308065E+02 -.61499716E+02 -.10578901E+04 0.10604425E+04 0.00000000E+00 0.0000E+00 0.9000E+01
#aMCatNLO 1  0  0  2  5 0.21987632D+02 0.00000000D+00  -5  6  0 0.00000000D+00 0.00000000D+00 0.00000000D+00 0.00000000D+00 0.00000000D+00
  <mgrwgt>
 0.7689571451D-03    9    2    0
 0.260711531461724D+03 0.000000000000000D+00 0.000000000000000D+00 0.260711531461724D+03
 0.260711531461724D+03 0.000000000000000D+00 0.000000000000000D+00 -.260711531461724D+03
 0.237877601588996D+03 0.228276539128937D+02 0.682987112463943D+02 0.221133302776058D+03
 0.291878509915708D+02 0.174804115410747D+02 -.679899530033237D+01 0.223637993365810D+02
 0.254357610342881D+03 -.403080654539684D+02 -.614997159460620D+02 -.243497102112639D+03
 0.000000000000000D+00 0.000000000000000D+00 -.000000000000000D+00 -.000000000000000D+00
 0.264769782303903D+03 0.000000000000000D+00 0.000000000000000D+00 0.264769782303903D+03
 0.288047043900532D+03 0.000000000000000D+00 0.000000000000000D+00 -.288047043900532D+03
 0.240020239685706D+03 0.184822733559317D+02 0.766040693026965D+02 0.221133302776058D+03
 0.286558968949072D+02 0.169544558331826D+02 -.579373225868677D+01 0.223637993365810D+02
 0.253148268563685D+03 -.449226629438048D+02 -.526798015711516D+02 -.243497102112639D+03
 0.309924210601374D+02 0.948593375469046D+01 -.181305354728581D+02 -.232772615966291D+02
0.149073182964D-04 0.000000000000D+00 0.000000000000D+00 0.169806578815D-04 0.000000000000D+00  6 22 1 9900012 13 2 21 0 0.94266061D-02 0.17066262D+00 0.80961198D+04 0.80961198D+04 0.80961198D+04 0.12189586D+01  1  2  2  1  6  2        1 0.119809564823D-03 0.100000000000D+01
0.332517008232D-06 0.000000000000D+00 -.286240137226D-07 0.169806578815D-04 0.000000000000D+00  6 22 1 9900012 13 2 21 2 0.94266061D-02 0.17066262D+00 0.80961198D+04 0.80961198D+04 0.80961198D+04 0.12189586D+01  1  2  3  1  6  2        1 0.397085260104D-05 0.100000000000D+01
-.207033354522D-05 0.000000000000D+00 0.000000000000D+00 0.169806578815D-04 0.000000000000D+00  6 22 1 9900012 13 2 21 2 0.94266061D-02 0.17066262D+00 0.80961198D+04 0.80961198D+04 0.80961198D+04 0.12189586D+01  1  2 15  1  6  2        1 -.247235153076D-04 0.100000000000D+01
0.561996933573D-04 0.000000000000D+00 0.000000000000D+00 0.169806578815D-04 0.000000000000D+00  6 22 1 9900012 13 2 21 2 0.94266061D-02 0.19149162D+00 0.10094058D+05 0.10094058D+05 0.10094058D+05 0.12089088D+01  1  2 12  1  6  2        1 0.536336163177D-03 0.100000000000D+01
-.470496271771D-05 0.000000000000D+00 0.000000000000D+00 0.169806578815D-04 0.000000000000D+00  6 22 1 9900012 13 2 21 2 0.94266061D-02 0.17066262D+00 0.80961198D+04 0.80961198D+04 0.80961198D+04 0.12189586D+01  1  2  4  1  6  2        1 -.561857378206D-04 0.100000000000D+01
-.833539156894D-04 0.000000000000D+00 -.155094726324D-04 0.169806578815D-04 0.000000000000D+00  6 22 1 9900012 13 2 21 2 0.94266061D-02 0.18994477D+00 0.80961198D+04 0.80961198D+04 0.80961198D+04 0.12189586D+01  1  2  5  1  6  2        1 -.816073892420D-03 0.100000000000D+01
0.846172990870D-04 0.000000000000D+00 0.154210366792D-04 0.169806578815D-04 0.000000000000D+00  6 22 1 9900012 13 2 21 2 0.94266061D-02 0.17066262D+00 0.80961198D+04 0.80961198D+04 0.80961198D+04 0.12189586D+01  1  2  6  1  6  2        1 0.101048311471D-02 0.100000000000D+01
0.102988957738D-05 0.000000000000D+00 0.000000000000D+00 0.169806578815D-04 0.000000000000D+00  6 22 21 9900012 13 2 -1 2 0.94266061D-02 0.19149162D+00 0.10094058D+05 0.10094058D+05 0.10094058D+05 0.12089088D+01  1  2 12  3  6  2        1 0.117450301903D-04 0.100000000000D+01
-.137739185200D-05 0.000000000000D+00 -.267093261788D-06 0.169806578815D-04 0.000000000000D+00  6 22 21 9900012 13 2 -1 2 0.94266061D-02 0.18994477D+00 0.80961198D+04 0.80961198D+04 0.80961198D+04 0.12189586D+01  1  2  5  3  6  2        1 -.164044348777D-04 0.100000000000D+01
  </mgrwgt>
  </event>
  <event>
  7     66 -.15202802E-05 0.48041488E+02 0.78161638E-02 0.12184370E+00
       22 -1    0    0    0    0 0.00000000E+00 0.00000000E+00 0.75939737E+03 0.75939737E+03 0.00000000E+00 0.0000E+00 0.9000E+01
        1 -1    0    0  501    0 0.00000000E+00 0.00000000E+00 -.16152523E+03 0.16152523E+03 0.00000000E+00 0.0000E+00 0.9000E+01
      -24  2    1    2    0    0 0.19592775E+02 0.37839921E+02 0.74954405E+03 0.75489829E+03 0.78989923E+02 0.0000E+00 0.0000E+00
  9900012  1    3    3    0    0 0.11099268E+02 0.89592539E+01 0.60628743E+03 0.60851287E+03 0.50000000E+02 0.0000E+00 0.9000E+01
       13  1    3    3    0    0 0.84935062E+01 0.28880667E+02 0.14325662E+03 0.14638542E+03 0.00000000E+00 0.0000E+00 0.9000E+01
        2  1    1    2  502    0 -.21217086E+02 -.49670545E+02 -.13591216E+03 0.14625130E+03 0.00000000E+00 0.0000E+00 0.9000E+01
       21  1    1    2  501  502 0.16243118E+01 0.11830623E+02 -.15759753E+02 0.19773008E+02 0.00000000E+00 0.0000E+00 0.9000E+01
#aMCatNLO 2  0  0  5  2 0.16612299D+02 0.00000000D+00  -5  6  0 0.00000000D+00 0.00000000D+00 0.00000000D+00 0.00000000D+00 0.00000000D+00
  <mgrwgt>
 -.2425139008D-03    2    2    0
 0.350231119672325D+03 0.000000000000000D+00 0.000000000000000D+00 0.350231119672325D+03
 0.350231119672325D+03 -.000000000000000D+00 -.000000000000000D+00 -.350231119672325D+03
 0.284122610976517D+03 0.111910083733287D+02 0.913643326655853D+01 0.279315135620802D+03
 0.705622875904104D+02 0.851629208366179D+01 0.289246741039577D+02 0.637955517815888D+02
 0.345777340777723D+03 -.197073004569904D+02 -.380611073705162D+02 -.343110687402391D+03
 0.000000000000000D+00 0.000000000000000D+00 0.000000000000000D+00 -.000000000000000D+00
 0.350231119672325D+03 0.000000000000000D+00 0.000000000000000D+00 0.350231119672325D+03
 0.350231119672325D+03 -.000000000000000D+00 -.000000000000000D+00 -.350231119672325D+03
 0.282543271342701D+03 0.110992683517355D+02 0.895925391012405D+01 0.277717911184110D+03
 0.701829452061109D+02 0.849350622148311D+01 0.288806673081611D+02 0.633988423057149D+02
 0.308288175822284D+03 -.212170863568438D+02 -.496705446973137D+02 -.303519804276146D+03
 0.394478469735540D+02 0.162431178362519D+01 0.118306234790285D+02 -.375969492136791D+02
-.886031829318D-04 0.000000000000D+00 0.000000000000D+00 0.177823653549D-03 0.000000000000D+00  6 22 1 9900012 13 2 21 2 0.11683036D+00 0.24850036D-01 0.54798802D+04 0.54798802D+04 0.54798802D+04 0.12373897D+01  1  2 13  2  6  5        2 -.252867778716D-03 0.100000000000D+01
0.362792975198D-05 0.000000000000D+00 0.000000000000D+00 0.177823653549D-03 0.677795095990D-06  6 22 1 9900012 13 2 21 2 0.11683036D+00 0.24850036D-01 0.54798802D+04 0.54798802D+04 0.54798802D+04 0.12373897D+01  1  2  1  2  6  5        2 0.103538779011D-04 0.100000000000D+01
  </mgrwgt>
  </event>
  <event>
  6     66 0.15202802E-05 0.33046316E+02 0.78161638E-02 0.12394945E+00
       22 -1    0    0    0    0 0.00000000E+00 0.00000000E+00 0.27637641E+01 0.27637641E+01 0.00000000E+00 0.0000E+00 0.9000E+01
        1 -1    0    0  501    0 -.00000000E+00 -.00000000E+00 -.22532222E+04 0.22532222E+04 0.00000000E+00 0.0000E+00 0.9000E+01
      -24  2    1    2    0    0 0.38850809E+02 0.36690008E+02 -.18019032E+04 0.18042589E+04 0.75096539E+02 0.0000E+00 0.0000E+00
  9900012  1    3    3    0    0 0.25197590E+02 0.80098050E+01 -.88491915E+03 0.88672486E+03 0.50000000E+02 0.0000E+00 0.9000E+01
       13  1    3    3    0    0 0.13653219E+02 0.28680203E+02 -.91698402E+03 0.91753401E+03 0.00000000E+00 0.0000E+00 0.9000E+01
        2  1    1    2  501    0 -.38850809E+02 -.36690008E+02 -.44855526E+03 0.45172709E+03 0.00000000E+00 0.0000E+00 0.9000E+01
#aMCatNLO 1  0  0  5  2 0.22049739D+02 0.00000000D+00  -5  6  0 0.00000000D+00 0.00000000D+00 0.00000000D+00 0.00000000D+00 0.00000000D+00
  <mgrwgt>
 0.4402667349D-03    5    2    0
 0.789137169425876D+02 0.000000000000000D+00 0.000000000000000D+00 0.789137169425876D+02
 0.789137169425876D+02 -.000000000000000D+00 -.000000000000000D+00 -.789137169425876D+02
 0.568030037612875D+02 0.251975900245014D+02 0.800980495917832D+01 -.524458938124869D+01
 0.399767139190755D+02 0.136532185197808D+02 0.286802028252075D+02 -.242728911694441D+02
 0.610477162048122D+02 -.388508085442821D+02 -.366900077843858D+02 0.295174805506928D+02
 0.000000000000000D+00 0.000000000000000D+00 0.000000000000000D+00 -.000000000000000D+00
 0.789137169425876D+02 0.000000000000000D+00 0.000000000000000D+00 0.789137169425876D+02
 0.789137169425876D+02 -.000000000000000D+00 -.000000000000000D+00 -.789137169425876D+02
 0.541733309143481D+02 0.204785560476539D+02 0.355323378774515D+01 -.165923301805001D+01
 0.352796979964670D+02 0.104530987298897D+02 0.256580670086969D+02 -.218415524869986D+02
 0.478233778083672D+02 -.313128284716076D+02 -.116748780471717D+02 0.342093475631030D+02
 0.205510271659929D+02 0.381173694064056D+00 -.175364227492704D+02 -.107085620580544D+02
0.607934246906D-05 0.000000000000D+00 0.000000000000D+00 0.112995114733D-07 0.000000000000D+00  6 22 1 9900012 13 2 21 0 0.42519448D-03 0.34664957D+00 0.50241050D+04 0.50241050D+04 0.50241050D+04 0.12416104D+01  1  2  2  2  6  5        2 0.561332444279D-03 0.100000000000D+01
-.352800557887D-06 0.000000000000D+00 -.116731379044D-07 0.112995114733D-07 0.000000000000D+00  6 22 1 9900012 13 2 21 2 0.42519448D-03 0.34664957D+00 0.50241050D+04 0.50241050D+04 0.50241050D+04 0.12416104D+01  1  2  3  2  6  5        2 -.502184721904D-04 0.100000000000D+01
-.660386691367D-06 0.000000000000D+00 0.000000000000D+00 0.112995114733D-07 0.000000000000D+00  6 22 1 9900012 13 2 21 2 0.42519448D-03 0.34664957D+00 0.50241050D+04 0.50241050D+04 0.50241050D+04 0.12416104D+01  1  2 15  2  6  5        2 -.940010154573D-04 0.100000000000D+01
0.184190228073D-05 0.000000000000D+00 0.000000000000D+00 0.112995114733D-07 0.000000000000D+00  6 22 1 9900012 13 2 21 2 0.42519448D-03 0.34664957D+00 0.44097993D+04 0.44097993D+04 0.44097993D+04 0.12480363D+01  1  2 12  2  6  5        2 0.262935544293D-03 0.100000000000D+01
-.168454230340D-05 0.000000000000D+00 0.000000000000D+00 0.112995114733D-07 0.000000000000D+00  6 22 1 9900012 13 2 21 2 0.42519448D-03 0.34664957D+00 0.50241050D+04 0.50241050D+04 0.50241050D+04 0.12416104D+01  1  2  4  2  6  5        2 -.239781766002D-03 0.100000000000D+01
  </mgrwgt>
  </event>
  <event>
  6     66 -.15202802E-05 0.21098975E+02 0.78161638E-02 0.13216824E+00
       22 -1    0    0    0    0 0.00000000E+00 0.00000000E+00 0.10381065E+03 0.10381065E+03 0.00000000E+00 0.0000E+00 0.9000E+01
        3 -1    0    0  501    0 0.00000000E+00 0.00000000E+00 -.30217146E+02 0.30217146E+02 0.00000000E+00 0.0000E+00 0.9000E+01
      -24  2    1    2    0    0 -.10339124E+02 -.18392098E+02 0.76223371E+02 0.11276556E+03 0.80379734E+02 0.0000E+00 0.0000E+00
  9900012  1    3    3    0    0 -.79656816E+01 -.27033016E+01 0.20267425E+02 0.54603374E+02 0.50000000E+02 0.0000E+00 0.9000E+01
       13  1    3    3    0    0 -.23734424E+01 -.15688797E+02 0.55955946E+02 0.58162182E+02 0.00000000E+00 0.0000E+00 0.9000E+01
        4  1    1    2  501    0 0.10339124E+02 0.18392098E+02 -.26298638E+01 0.21262242E+02 0.00000000E+00 0.0000E+00 0.9000E+01
#aMCatNLO 1  0  0  2  5 0.24606196D+01 0.00000000D+00  -5  6  0 0.00000000D+00 0.00000000D+00 0.00000000D+00 0.00000000D+00 0.00000000D+00
  <mgrwgt>
 -.1810191631D-03    9    2    0
 0.560076924994746D+02 0.000000000000000D+00 0.000000000000000D+00 0.560076924994746D+02
 0.560076924994746D+02 0.000000000000000D+00 0.000000000000000D+00 -.560076924994746D+02
 0.520180251091198D+02 -.796568164731477D+01 -.270330157477687D+01 -.116238983453256D+02
 0.328290167711456D+02 -.237344240555155D+01 -.156887965876436D+02 0.287397420819887D+02
 0.271683431186839D+02 0.103391240528663D+02 0.183920981624204D+02 -.171158437366631D+02
 0.000000000000000D+00 -.000000000000000D+00 -.000000000000000D+00 -.000000000000000D+00
 0.560415695349015D+02 0.000000000000000D+00 0.000000000000000D+00 0.560415695349015D+02
 0.130266590235698D+03 0.000000000000000D+00 0.000000000000000D+00 -.130266590235698D+03
 0.519443168025816D+02 -.778539677956810D+01 -.157627165463053D+01 -.116238983453256D+02
 0.324885009970297D+02 -.226017292897149D+01 -.149807056050746D+02 0.287397420819887D+02
 0.276095726865100D+02 0.104341164234188D+02 0.189859319385790D+02 -.171158437366631D+02
 0.742657692844777D+02 -.388546714879197D+00 -.242895467887380D+01 -.742250207007961D+02
0.933333218231D-08 0.000000000000D+00 0.000000000000D+00 0.992737583136D-07 0.000000000000D+00  6 22 3 9900012 13 4 21 0 0.15970870D-01 0.46487916D-02 0.19214611D+04 0.19214611D+04 0.19214611D+04 0.12915169D+01  1  2  2  1  6  2        3 0.278909497686D-05 0.100000000000D+01
0.107820280024D-09 0.000000000000D+00 -.179212265514D-10 0.992737583136D-07 0.000000000000D+00  6 22 3 9900012 13 4 21 2 0.15970870D-01 0.46487916D-02 0.19214611D+04 0.19214611D+04 0.19214611D+04 0.12915169D+01  1  2  3  1  6  2        3 0.537436608260D-07 0.100000000000D+01
-.115906560614D-08 0.000000000000D+00 0.000000000000D+00 0.992737583136D-07 0.000000000000D+00  6 22 3 9900012 13 4 21 2 0.15970870D-01 0.46487916D-02 0.19214611D+04 0.19214611D+04 0.19214611D+04 0.12915169D+01  1  2 15  1  6  2        3 -.577743155533D-06 0.100000000000D+01
0.101556171740D-07 0.000000000000D+00 0.000000000000D+00 0.992737583136D-07 0.000000000000D+00  6 22 3 9900012 13 4 21 2 0.15970870D-01 0.10819023D-01 0.20205606D+04 0.20205606D+04 0.20205606D+04 0.12887494D+01  1  2 12  1  6  2        3 0.139921222339D-05 0.100000000000D+01
-.222680220357D-05 0.000000000000D+00 -.284330402519D-08 0.992737583136D-07 0.000000000000D+00  6 22 3 9900012 13 4 21 2 0.15970870D-01 0.10814583D-01 0.19214611D+04 0.19214611D+04 0.19214611D+04 0.12915169D+01  1  2  5  1  6  2        3 -.306418552822D-03 0.100000000000D+01
0.172557439048D-05 0.000000000000D+00 0.000000000000D+00 0.992737583136D-07 0.155654722690D-06  6 22 3 9900012 13 4 21 2 0.15980530D-01 0.10812483D-01 0.20205606D+04 0.20205606D+04 0.20205606D+04 0.12887494D+01  1  2 11  1  6  2        3 0.237765372492D-03 0.100000000000D+01
0.934851642011D-09 0.000000000000D+00 0.000000000000D+00 0.992737583136D-07 0.000000000000D+00  6 22 21 9900012 13 4 -3 2 0.15970870D-01 0.10819023D-01 0.20205606D+04 0.20205606D+04 0.20205606D+04 0.12887494D+01  1  2 12  3  6  2        3 0.228621717071D-05 0.100000000000D+01
-.204693800110D-06 0.000000000000D+00 -.261593833529D-09 0.992737583136D-07 0.000000000000D+00  6 22 21 9900012 13 4 -3 2 0.15970870D-01 0.10814583D-01 0.19214611D+04 0.19214611D+04 0.19214611D+04 0.12915169D+01  1  2  5  3  6  2        3 -.500465384730D-03 0.100000000000D+01
0.156245687335D-06 0.000000000000D+00 0.000000000000D+00 0.992737583136D-07 0.140902839707D-07  6 22 21 9900012 13 4 -3 2 0.15980530D-01 0.10812483D-01 0.20205606D+04 0.20205606D+04 0.20205606D+04 0.12887494D+01  1  2 11  3  6  2        3 0.382148877044D-03 0.100000000000D+01
  </mgrwgt>
  </event>
  <event>
  7     66 -.15202802E-05 0.52668076E+02 0.78161638E-02 0.12247397E+00
       22 -1    0    0    0    0 0.00000000E+00 0.00000000E+00 0.75570534E+03 0.75570534E+03 0.00000000E+00 0.0000E+00 0.9000E+01
        3 -1    0    0  501    0 0.00000000E+00 0.00000000E+00 -.10225913E+02 0.10225913E+02 0.00000000E+00 0.0000E+00 0.9000E+01
      -24  2    1    2    0    0 0.49573431E+02 0.19134257E+01 0.60055113E+03 0.60773594E+03 0.78867778E+02 0.0000E+00 0.0000E+00
  9900012  1    3    3    0    0 0.44791337E+02 -.10654184E+02 0.57363663E+03 0.57764934E+03 0.50000000E+02 0.0000E+00 0.9000E+01
       13  1    3    3    0    0 0.47820936E+01 0.12567610E+02 0.26914501E+02 0.30086602E+02 0.00000000E+00 0.0000E+00 0.9000E+01
        4  1    1    2  502    0 -.55686525E+02 -.20972834E+01 0.11683766E+03 0.12944662E+03 0.00000000E+00 0.0000E+00 0.9000E+01
       21  1    1    2  501  502 0.61130938E+01 0.18385773E+00 0.28090630E+02 0.28748690E+02 0.00000000E+00 0.0000E+00 0.9000E+01
#aMCatNLO 2  0  0  5  2 0.10847999D+02 0.00000000D+00  -5  6  0 0.00000000D+00 0.00000000D+00 0.00000000D+00 0.00000000D+00 0.00000000D+00
  <mgrwgt>
 -.4137219971D-04    3    2    0
 0.879077761631248D+02 0.000000000000000D+00 0.000000000000000D+00 0.879077761631248D+02
 0.879077761631248D+02 -.000000000000000D+00 -.000000000000000D+00 -.879077761631248D+02
 0.887624269407987D+02 0.492882887357180D+02 -.104806116434814D+02 0.532878016951689D+02
 0.168347010681650D+02 0.566043075227565D+01 0.126015116935673D+02 -.962125702754347D+01
 0.702184243172858D+02 -.549487194879937D+02 -.212090005008596D+01 -.436665446676254D+02
 0.000000000000000D+00 0.000000000000000D+00 0.000000000000000D+00 0.000000000000000D+00
 0.879077761631248D+02 0.000000000000000D+00 0.000000000000000D+00 0.879077761631248D+02
 0.879077761631248D+02 -.000000000000000D+00 -.000000000000000D+00 -.879077761631248D+02
 0.842097055605626D+02 0.447913372735431D+02 -.106541841065020D+02 0.497141727967901D+02
 0.169499322844275D+02 0.478209356490943D+01 0.125676098046419D+02 -.103192523654284D+02
 0.685214521543884D+02 -.556865246080028D+02 -.209728342405210D+01 -.398723185263615D+02
 0.613446232687110D+01 0.611309376955023D+01 0.183857725912214D+00 0.477398094999737D+00
-.500242273496D-06 0.000000000000D+00 0.000000000000D+00 0.386009848431D-06 0.000000000000D+00  6 22 3 9900012 13 4 21 2 0.11626236D+00 0.15732174D-02 0.51306760D+04 0.51306760D+04 0.51306760D+04 0.12405859D+01  1  2 13  2  6  5        4 -.476320437359D-04 0.100000000000D+01
-.127370709564D-07 0.000000000000D+00 0.000000000000D+00 0.386009848431D-06 0.000000000000D+00  6 22 3 9900012 13 4 21 2 0.11626236D+00 0.15732174D-02 0.48853978D+04 0.48853978D+04 0.48853978D+04 0.12429813D+01  1  2  8  2  6  5        4 -.121013713058D-05 0.100000000000D+01
0.784513966269D-07 0.000000000000D+00 0.000000000000D+00 0.386009848431D-06 0.722380685864D-08  6 22 3 9900012 13 4 21 2 0.11626236D+00 0.15732174D-02 0.51306760D+04 0.51306760D+04 0.51306760D+04 0.12405859D+01  1  2  1  2  6  5        4 0.746998115364D-05 0.100000000000D+01
  </mgrwgt>
  </event>
  <event>
  7     66 -.15202802E-05 0.24029078E+02 0.78161638E-02 0.12827729E+00
       22 -1    0    0    0    0 0.00000000E+00 0.00000000E+00 0.54613287E+01 0.54613287E+01 0.00000000E+00 0.0000E+00 0.9000E+01
        1 -1    0    0  502    0 0.00000000E+00 0.00000000E+00 -.56434056E+03 0.56434056E+03 0.00000000E+00 0.0000E+00 0.9000E+01
      -24  2    1    2    0    0 -.16942663E+02 -.18855327E+02 -.38991586E+03 0.39887286E+03 0.80141104E+02 0.0000E+00 0.0000E+00
  9900012  1    3    3    0    0 -.66691786E+01 0.97873267E+01 -.28657083E+03 0.29114104E+03 0.50000000E+02 0.0000E+00 0.9000E+01
       13  1    3    3    0    0 -.10273484E+02 -.28642654E+02 -.10334504E+03 0.10773181E+03 0.00000000E+00 0.0000E+00 0.9000E+01
        2  1    1    2  501    0 0.14601549E+02 0.13897037E+02 -.14094659E+03 0.14238074E+03 0.00000000E+00 0.0000E+00 0.9000E+01
       21  1    1    2  502  501 0.23411136E+01 0.49582905E+01 -.28016782E+02 0.28548301E+02 0.00000000E+00 0.0000E+00 0.9000E+01
#aMCatNLO 2  0  0  2  5 0.76979647D+01 0.00000000D+00  -5  6  0 0.00000000D+00 0.00000000D+00 0.00000000D+00 0.00000000D+00 0.00000000D+00
  <mgrwgt>
 -.3082198984D-03    3    2    0
 0.527030360568482D+02 0.000000000000000D+00 0.000000000000000D+00 0.527030360568482D+02
 0.527030360568482D+02 0.000000000000000D+00 0.000000000000000D+00 -.527030360568482D+02
 0.520307730696830D+02 -.551857426898468D+01 0.122242142431751D+02 -.522640128611503D+01
 0.311382333018899D+02 -.956536358136254D+01 -.271429112690259D+02 0.118893128716951D+02
 0.222370657421235D+02 0.150839378503472D+02 0.149186970258508D+02 -.666291158558008D+01
 0.000000000000000D+00 0.000000000000000D+00 0.000000000000000D+00 -.000000000000000D+00
 0.554737680245341D+02 0.000000000000000D+00 0.000000000000000D+00 0.554737680245341D+02
 0.555586802435923D+02 0.000000000000000D+00 0.000000000000000D+00 -.555586802435923D+02
 0.516486686889533D+02 -.666917858575199D+01 0.978732669982495D+01 -.522640128611503D+01
 0.326695861923684D+02 -.102734842204042D+02 -.286426539167137D+02 0.118893128716951D+02
 0.212303381757560D+02 0.146015492327174D+02 0.138970366720475D+02 -.666291158558008D+01
 0.548385521104876D+01 0.234111357343874D+01 0.495829054484125D+01 -.849122190582752D-01
-.374788605652D-06 0.000000000000D+00 0.000000000000D+00 0.114184449342D-06 0.000000000000D+00  6 22 1 9900012 13 2 21 2 0.79823898D-03 0.91386058D-01 0.28865806D+04 0.28865806D+04 0.28865806D+04 0.12696377D+01  1  2 13  1  6  2        1 -.330129865694D-03 0.100000000000D+01
-.349828480920D-11 0.000000000000D+00 0.000000000000D+00 0.114184449342D-06 0.000000000000D+00  6 22 1 9900012 13 2 21 2 0.79823898D-03 0.82359106D-01 0.25888790D+04 0.25888790D+04 0.25888790D+04 0.12753786D+01  1  2  8  1  6  2        1 -.352972063480D-08 0.100000000000D+01
0.248406762522D-07 0.000000000000D+00 0.000000000000D+00 0.114184449342D-06 0.126773017989D-06  6 22 1 9900012 13 2 21 2 0.84020442D-03 0.86821625D-01 0.28865806D+04 0.28865806D+04 0.28865806D+04 0.12696377D+01  1  2  1  1  6  2        1 0.219134970603D-04 0.100000000000D+01
  </mgrwgt>
  </event>
  <event>
  6     66 0.15202802E-05 0.62607931E+02 0.78161638E-02 0.11664958E+00
       22 -1    0    0    0    0 0.00000000E+00 0.00000000E+00 0.93423070E+02 0.93423070E+02 0.00000000E+00 0.0000E+00 0.9000E+01
        1 -1    0    0  501    0 -.00000000E+00 -.00000000E+00 -.18169400E+03 0.18169400E+03 0.00000000E+00 0.0000E+00 0.9000E+01
      -24  2    1    2    0    0 -.62832747E+01 -.81989291E+02 0.40945265E+02 0.12195523E+03 0.80217460E+02 0.0000E+00 0.0000E+00
  9900012  1    3    3    0    0 0.14318521E+02 -.77937558E+02 0.36065339E+02 0.10039916E+03 0.50000000E+02 0.0000E+00 0.9000E+01
       13  1    3    3    0    0 -.20601796E+02 -.40517324E+01 0.48799261E+01 0.21556071E+02 0.00000000E+00 0.0000E+00 0.9000E+01
        2  1    1    2  501    0 0.62832747E+01 0.81989291E+02 -.12921620E+03 0.15316184E+03 0.00000000E+00 0.0000E+00 0.9000E+01
#aMCatNLO 1  0  0  5  2 0.14305819D+02 0.00000000D+00  -5  6  0 0.00000000D+00 0.00000000D+00 0.00000000D+00 0.00000000D+00 0.00000000D+00
  <mgrwgt>
 0.2646465666D-05    1    2    0
 0.130285884094111D+03 0.000000000000000D+00 0.000000000000000D+00 0.130285884094111D+03
 0.130285884094111D+03 -.000000000000000D+00 -.000000000000000D+00 -.130285884094111D+03
 0.118220960668601D+03 0.143185210530539D+02 -.779375584509939D+02 0.720896142239513D+02
 0.244124637178688D+02 -.206017957556566D+02 -.405173235788439D+01 0.124546321229711D+02
 0.117938343801752D+03 0.628327470260269D+01 0.819892908088783D+02 -.845442463469224D+02
 0.000000000000000D+00 -.000000000000000D+00 0.000000000000000D+00 0.000000000000000D+00
 0.130285884094111D+03 0.000000000000000D+00 0.000000000000000D+00 0.130285884094111D+03
 0.130285884094111D+03 -.000000000000000D+00 -.000000000000000D+00 -.130285884094111D+03
 0.110362347630193D+03 0.147940200724237D+02 -.717328595919259D+02 0.656915641411385D+02
 0.234825992156868D+02 -.205021644412485D+02 -.275166174227162D+01 0.111140486234629D+02
 0.111563073346379D+03 0.683774909637349D+01 0.874197945843276D+02 -.689735024238910D+02
 0.151637479959637D+02 -.112960472754873D+01 -.129352732501300D+02 -.783211034071039D+01
0.340615116483D-07 0.000000000000D+00 0.000000000000D+00 0.153863342648D-05 0.000000000000D+00  6 22 1 9900012 13 2 21 2 0.14372780D-01 0.27952924D-01 0.96947623D+04 0.96947623D+04 0.96947623D+04 0.12107278D+01  1  2 14  2  6  5        2 0.264646566646D-05 0.100000000000D+01
  </mgrwgt>
  </event>
  <event>
  6     66 0.15202802E-05 0.29051547E+02 0.78161638E-02 0.12745280E+00
       22 -1    0    0    0    0 0.00000000E+00 0.00000000E+00 0.86416849E+02 0.86416849E+02 0.00000000E+00 0.0000E+00 0.9000E+01
        1 -1    0    0  501    0 0.00000000E+00 0.00000000E+00 -.45086236E+02 0.45086236E+02 0.00000000E+00 0.0000E+00 0.9000E+01
      -24  2    1    2    0    0 -.48421464E+01 0.28645175E+02 0.54818822E+02 0.99473034E+02 0.77754671E+02 0.0000E+00 0.0000E+00
  9900012  1    3    3    0    0 0.18183970E+02 0.23454113E+02 0.30803208E+02 0.65799619E+02 0.50000000E+02 0.0000E+00 0.9000E+01
       13  1    3    3    0    0 -.23026117E+02 0.51910617E+01 0.24015614E+02 0.33673415E+02 0.00000000E+00 0.0000E+00 0.9000E+01
        2  1    1    2  501    0 0.48421464E+01 -.28645175E+02 -.13488210E+02 0.32030052E+02 0.00000000E+00 0.0000E+00 0.9000E+01
#aMCatNLO 1  0  0  5  2 0.57935071D+01 0.00000000D+00  -5  6  0 0.00000000D+00 0.00000000D+00 0.00000000D+00 0.00000000D+00 0.00000000D+00
  <mgrwgt>
 0.7398928479D-04    8    2    0
 0.624196323211766D+02 0.000000000000000D+00 0.000000000000000D+00 0.624196323211766D+02
 0.624196323211766D+02 -.000000000000000D+00 -.000000000000000D+00 -.624196323211766D+02
 0.591139130107732D+02 0.181839704019242D+02 0.234541128665144D+02 0.106631384456923D+02
 0.275200113197014D+02 -.230261167969302D+02 0.519106166730597D+01 0.141492701952026D+02
 0.382053403118786D+02 0.484214639500593D+01 -.286451745338204D+02 -.248124086408949D+02
 0.000000000000000D+00 0.000000000000000D+00 0.000000000000000D+00 0.000000000000000D+00
 0.624196323211766D+02 0.000000000000000D+00 0.000000000000000D+00 0.624196323211766D+02
 0.624196323211766D+02 -.000000000000000D+00 -.000000000000000D+00 -.624196323211766D+02
 0.586738884143421D+02 0.183359856841032D+02 0.225548207066751D+02 0.988417288096370D+01
 0.271998384090304D+02 -.229554961274155D+02 0.477328383926898D+01 0.137873916464048D+02
 0.300223569105527D+02 -.178936865488513D+01 -.221679310132058D+02 -.201673723840087D+02
 0.894318090842787D+01 0.640887909819747D+01 -.516017353273819D+01 -.350419214335981D+01
0.109854246258D-06 0.000000000000D+00 0.000000000000D+00 0.424915852159D-07 0.000000000000D+00  6 22 1 9900012 13 2 21 0 0.13294900D-01 0.69363441D-02 0.30691484D+04 0.30691484D+04 0.30691484D+04 0.12664374D+01  1  2  2  2  6  5        2 0.344161489002D-04 0.100000000000D+01
0.206524416817D-08 0.000000000000D+00 -.210934615459D-09 0.424915852159D-07 0.000000000000D+00  6 22 1 9900012 13 2 21 2 0.13294900D-01 0.69363441D-02 0.30691484D+04 0.30691484D+04 0.30691484D+04 0.12664374D+01  1  2  3  2  6  5        2 0.103772981337D-05 0.100000000000D+01
-.163062201775D-07 0.000000000000D+00 0.000000000000D+00 0.424915852159D-07 0.000000000000D+00  6 22 1 9900012 13 2 21 2 0.13294900D-01 0.69363441D-02 0.30691484D+04 0.30691484D+04 0.30691484D+04 0.12664374D+01  1  2 15  2  6  5        2 -.819343837518D-05 0.100000000000D+01
0.112352439521D-06 0.000000000000D+00 0.000000000000D+00 0.424915852159D-07 0.000000000000D+00  6 22 1 9900012 13 2 21 2 0.13294900D-01 0.69363441D-02 0.31220140D+04 0.31220140D+04 0.31220140D+04 0.12655509D+01  1  2 12  2  6  5        2 0.564880052263D-04 0.100000000000D+01
-.805547136717D-07 0.000000000000D+00 0.000000000000D+00 0.424915852159D-07 0.000000000000D+00  6 22 1 9900012 13 2 21 2 0.13294900D-01 0.69363441D-02 0.30691484D+04 0.30691484D+04 0.30691484D+04 0.12664374D+01  1  2  4  2  6  5        2 -.404765834826D-04 0.100000000000D+01
-.152499901747D-06 0.000000000000D+00 0.000000000000D+00 0.424915852159D-07 0.000000000000D+00  6 22 1 9900012 13 2 21 2 0.13294900D-01 0.69363441D-02 0.30691484D+04 0.30691484D+04 0.30691484D+04 0.12664374D+01  1  2  5  2  6  5        2 -.766271112243D-04 0.100000000000D+01
0.192231155266D-06 0.000000000000D+00 -.000000000000D+00 0.424915852159D-07 0.000000000000D+00  6 22 1 9900012 13 2 21 2 0.13294900D-01 0.69363441D-02 0.30691484D+04 0.30691484D+04 0.30691484D+04 0.12664374D+01  1  2  6  2  6  5        2 0.965910006931D-04 0.100000000000D+01
0.213883582481D-07 0.000000000000D+00 0.000000000000D+00 0.424915852159D-07 0.356697262627D-08  6 22 1 9900012 13 2 21 2 0.13294900D-01 0.69363441D-02 0.31220140D+04 0.31220140D+04 0.31220140D+04 0.12655509D+01  1  2 11  2  6  5        2 0.107535332357D-04 0.100000000000D+01
  </mgrwgt>
  </event>
  <event>
  6     66 0.15202802E-05 0.28055545E+02 0.78161638E-02 0.12721004E+00
       22 -1    0    0    0    0 0.00000000E+00 0.00000000E+00 0.71043124E+03 0.71043124E+03 0.00000000E+00 0.0000E+00 0.9000E+01
        3 -1    0    0  501    0 0.00000000E+00 0.00000000E+00 -.74686175E+02 0.74686175E+02 0.00000000E+00 0.0000E+00 0.9000E+01
      -24  2    1    2    0    0 -.78747761E+01 -.26927709E+02 0.70483801E+03 0.71054565E+03 0.85389595E+02 0.0000E+00 0.0000E+00
  9900012  1    3    3    0    0 -.23281724E+02 -.33340058E+02 0.39198173E+03 0.39724461E+03 0.50000000E+02 0.0000E+00 0.9000E+01
       13  1    3    3    0    0 0.15406948E+02 0.64123487E+01 0.31285628E+03 0.31330104E+03 0.00000000E+00 0.0000E+00 0.9000E+01
        4  1    1    2  501    0 0.78747761E+01 0.26927709E+02 -.69092945E+02 0.74571768E+02 0.00000000E+00 0.0000E+00 0.9000E+01
#aMCatNLO 1  0  0  5  2 0.96849499D+01 0.00000000D+00  -5  6  0 0.00000000D+00 0.00000000D+00 0.00000000D+00 0.00000000D+00 0.00000000D+00
  <mgrwgt>
 0.2641486536D-03    8    2    0
 0.230346244135350D+03 0.000000000000000D+00 0.000000000000000D+00 0.230346244135350D+03
 0.230346244135350D+03 -.000000000000000D+00 -.000000000000000D+00 -.230346244135350D+03
 0.136063008784545D+03 -.232817239875337D+02 -.333400579394943D+02 0.119831315707801D+03
 0.102196738430788D+03 0.154069479084187D+02 0.641234871016468D+01 0.100825002286424D+03
 0.222432741055367D+03 0.787477607911486D+01 0.269277092293294D+02 -.220656317994225D+03
 0.000000000000000D+00 0.000000000000000D+00 0.000000000000000D+00 0.000000000000000D+00
 0.230346244135350D+03 0.000000000000000D+00 0.000000000000000D+00 0.230346244135350D+03
 0.230346244135350D+03 -.000000000000000D+00 -.000000000000000D+00 -.230346244135350D+03
 0.135825906724349D+03 -.232724918399860D+02 -.333084887136233D+02 0.119572624963509D+03
 0.102007600262123D+03 0.154138817864739D+02 0.643605902906447D+01 0.100630710539498D+03
 0.134977080654563D+03 -.415604242095805D+01 0.126150335150429D+02 -.134322003196937D+03
 0.878819006296653D+02 0.120146524744701D+02 0.142573961695157D+02 -.858813323060696D+02
0.253487002670D-05 0.000000000000D+00 0.000000000000D+00 0.208478609121D-05 0.000000000000D+00  6 22 3 9900012 13 4 21 0 0.10929711D+00 0.11490181D-01 0.29807258D+04 0.29807258D+04 0.29807258D+04 0.12679596D+01  1  2  2  2  6  5        4 0.857488779121D-05 0.100000000000D+01
0.228962952409D-06 0.000000000000D+00 -.486728417457D-08 0.208478609121D-05 0.000000000000D+00  6 22 3 9900012 13 4 21 2 0.10929711D+00 0.11490181D-01 0.29807258D+04 0.29807258D+04 0.29807258D+04 0.12679596D+01  1  2  3  2  6  5        4 0.124522777777D-05 0.100000000000D+01
-.386368659040D-06 0.000000000000D+00 0.000000000000D+00 0.208478609121D-05 0.000000000000D+00  6 22 3 9900012 13 4 21 2 0.10929711D+00 0.11490181D-01 0.29807258D+04 0.29807258D+04 0.29807258D+04 0.12679596D+01  1  2 15  2  6  5        4 -.210128748618D-05 0.100000000000D+01
0.384698727182D-04 0.000000000000D+00 0.000000000000D+00 0.208478609121D-05 0.000000000000D+00  6 22 3 9900012 13 4 21 2 0.10929711D+00 0.11490181D-01 0.31955891D+04 0.31955891D+04 0.31955891D+04 0.12643451D+01  1  2 12  2  6  5        4 0.209373141312D-03 0.100000000000D+01
-.913795612290D-05 0.000000000000D+00 0.000000000000D+00 0.208478609121D-05 0.000000000000D+00  6 22 3 9900012 13 4 21 2 0.10929711D+00 0.11490181D-01 0.29807258D+04 0.29807258D+04 0.29807258D+04 0.12679596D+01  1  2  4  2  6  5        4 -.496972836721D-04 0.100000000000D+01
-.383227774737D-04 0.000000000000D+00 0.000000000000D+00 0.208478609121D-05 0.000000000000D+00  6 22 3 9900012 13 4 21 2 0.10929711D+00 0.11490181D-01 0.29807258D+04 0.29807258D+04 0.29807258D+04 0.12679596D+01  1  2  5  2  6  5        4 -.208420561184D-03 0.100000000000D+01
0.561131420280D-04 0.000000000000D+00 -.000000000000D+00 0.208478609121D-05 0.000000000000D+00  6 22 3 9900012 13 4 21 2 0.10929711D+00 0.11490181D-01 0.29807258D+04 0.29807258D+04 0.29807258D+04 0.12679596D+01  1  2  6  2  6  5        4 0.305174450347D-03 0.100000000000D+01
0.144671394284D-10 0.000000000000D+00 0.000000000000D+00 0.208478609121D-05 0.271840583125D-07  6 22 3 9900012 13 4 21 2 0.10929711D+00 0.11490181D-01 0.31955891D+04 0.31955891D+04 0.31955891D+04 0.12643451D+01  1  2 11  2  6  5        4 0.787377293943D-10 0.100000000000D+01
  </mgrwgt>
  </event>
  <event>
  7     66 -.15202802E-05 0.33641507E+02 0.78161638E-02 0.12488943E+00
       22 -1    0    0    0    0 0.00000000E+00 0.00000000E+00 0.36530802E+04 0.36530802E+04 0.00000000E+00 0.0000E+00 0.9000E+01
        1 -1    0    0  501    0 0.00000000E+00 0.00000000E+00 -.19122364E+01 0.19122364E+01 0.00000000E+00 0.0000E+00 0.9000E+01
      -24  2    1    2    0    0 0.15681122E+02 0.26362890E+02 0.32171188E+04 0.32182615E+04 0.80080150E+02 0.0000E+00 0.0000E+00
  9900012  1    3    3    0    0 0.30350835E+02 0.82046537E+01 0.18477300E+04 0.18486738E+04 0.50000000E+02 0.0000E+00 0.9000E+01
       13  1    3    3    0    0 -.14669713E+02 0.18158236E+02 0.13693888E+04 0.13695877E+04 0.00000000E+00 0.0000E+00 0.9000E+01
        2  1    1    2  502    0 -.16300017E+02 -.33421127E+02 0.27235727E+03 0.27488387E+03 0.00000000E+00 0.0000E+00 0.9000E+01
       21  1    1    2  501  502 0.61889495E+00 0.70582374E+01 0.16169185E+03 0.16184701E+03 0.00000000E+00 0.0000E+00 0.9000E+01
#aMCatNLO 2  0  0  5  2 0.11371042D+02 0.00000000D+00  -5  6  0 0.00000000D+00 0.00000000D+00 0.00000000D+00 0.00000000D+00 0.00000000D+00
  <mgrwgt>
 -.1406866798D-04    3    2    0
 0.835796209897534D+02 0.000000000000000D+00 0.000000000000000D+00 0.835796209897534D+02
 0.835796209897534D+02 -.000000000000000D+00 -.000000000000000D+00 -.835796209897534D+02
 0.651372467818582D+02 0.315453389001392D+02 0.102128373499096D+02 0.253663254189556D+02
 0.376241747412858D+02 -.139858807915654D+02 0.193078859334636D+02 0.291063430239404D+02
 0.643978204563627D+02 -.175594581085738D+02 -.295207232833732D+02 -.544726684428960D+02
 0.000000000000000D+00 0.000000000000000D+00 0.000000000000000D+00 0.000000000000000D+00
 0.835796209897534D+02 0.000000000000000D+00 0.000000000000000D+00 0.835796209897534D+02
 0.835796209897534D+02 -.000000000000000D+00 -.000000000000000D+00 -.835796209897534D+02
 0.629100773219076D+02 0.303508350535000D+02 0.820465365201155D+01 0.216607548034266D+02
 0.356806748961416D+02 -.146697133158457D+02 0.181582359501539D+02 0.269849687688088D+02
 0.614763831781305D+02 -.163000166834647D+02 -.334211269660671D+02 -.489559334207931D+02
 0.709210658332695D+01 0.618894945810451D+00 0.705823736390168D+01 0.310209848557629D+00
-.271499380566D-05 0.000000000000D+00 0.000000000000D+00 0.773291630015D-06 0.000000000000D+00  6 22 1 9900012 13 2 21 2 0.56201233D+00 0.29419022D-03 0.40117331D+04 0.40117331D+04 0.40117331D+04 0.12527597D+01  1  2 13  2  6  5        2 -.149542099819D-04 0.100000000000D+01
-.569759618312D-08 0.000000000000D+00 0.000000000000D+00 0.773291630015D-06 0.000000000000D+00  6 22 1 9900012 13 2 21 2 0.56201233D+00 0.29419022D-03 0.34918965D+04 0.34918965D+04 0.34918965D+04 0.12597883D+01  1  2  8  2  6  5        2 -.312004961055D-07 0.100000000000D+01
0.166438093812D-06 0.000000000000D+00 0.000000000000D+00 0.773291630015D-06 0.495622548354D-08  6 22 1 9900012 13 2 21 2 0.56201233D+00 0.29419022D-03 0.40117331D+04 0.40117331D+04 0.40117331D+04 0.12527597D+01  1  2  1  2  6  5        2 0.916742498151D-06 0.100000000000D+01
  </mgrwgt>
  </event>
  <event>
  6     66 -.15202802E-05 0.29804665E+02 0.78161638E-02 0.12006129E+00
       22 -1    0    0    0    0 0.00000000E+00 0.00000000E+00 0.42073765E+03 0.42073765E+03 0.00000000E+00 0.0000E+00 0.9000E+01
        1 -1    0    0  501    0 0.00000000E+00 0.00000000E+00 -.15530212E+02 0.15530212E+02 0.00000000E+00 0.0000E+00 0.9000E+01
      -24  2    1    2    0    0 0.63098944E+01 -.29129080E+02 0.39330371E+03 0.40417399E+03 0.88207066E+02 0.0000E+00 0.0000E+00
  9900012  1    3    3    0    0 -.12804394E+02 -.35877332E+02 0.35789978E+03 0.36337775E+03 0.50000000E+02 0.0000E+00 0.9000E+01
       13  1    3    3    0    0 0.19114289E+02 0.67482522E+01 0.35403931E+02 0.40796241E+02 0.00000000E+00 0.0000E+00 0.9000E+01
        2  1    1    2  501    0 -.63098944E+01 0.29129080E+02 0.11903729E+02 0.32093875E+02 0.00000000E+00 0.0000E+00 0.9000E+01
#aMCatNLO 1  0  0  2  5 0.83762419D+01 0.00000000D+00  -5  6  0 0.00000000D+00 0.00000000D+00 0.00000000D+00 0.00000000D+00 0.00000000D+00
  <mgrwgt>
 -.1213341746D-03    5    2    0
 0.808340585447036D+02 0.000000000000000D+00 0.000000000000000D+00 0.808340585447036D+02
 0.808340585447036D+02 0.000000000000000D+00 0.000000000000000D+00 -.808340585447036D+02
 0.835438728128803D+02 -.128043944276666D+02 -.358773317663144D+02 0.550312932179980D+02
 0.213533301290489D+02 0.191142888570872D+02 0.674825221877336D+01 -.671340160274946D+01
 0.567709141474780D+02 -.630989442942060D+01 0.291290795475411D+02 -.483178916152485D+02
 0.000000000000000D+00 0.000000000000000D+00 0.000000000000000D+00 -.000000000000000D+00
 0.845466890692258D+02 0.000000000000000D+00 0.000000000000000D+00 0.845466890692258D+02
 0.446517142168776D+03 0.000000000000000D+00 0.000000000000000D+00 -.446517142168776D+03
 0.904021062723617D+02 -.343782735725405D+02 -.382391408298577D+02 0.550312932179980D+02
 0.170261765365331D+02 0.143542199966430D+02 0.622714177302590D+01 -.671340160274946D+01
 0.593527645864578D+02 -.207122866205985D+02 0.275523718917039D+02 -.483178916152485D+02
 0.364282783842649D+03 0.407363401964960D+02 0.445962716512782D+01 -.361970453099550D+03
0.197415510850D-06 0.000000000000D+00 0.000000000000D+00 0.135286640798D-07 0.000000000000D+00  6 22 1 9900012 13 2 21 0 0.64728870D-01 0.23892634D-02 0.31884807D+04 0.31884807D+04 0.31884807D+04 0.12644602D+01  1  2  2  1  6  2        1 0.220421453655D-04 0.100000000000D+01
0.697790282357D-08 0.000000000000D+00 -.379063771181D-09 0.135286640798D-07 0.000000000000D+00  6 22 1 9900012 13 2 21 2 0.64728870D-01 0.23892634D-02 0.31884807D+04 0.31884807D+04 0.31884807D+04 0.12644602D+01  1  2  3  1  6  2        1 0.124568385334D-05 0.100000000000D+01
-.258965255069D-07 0.000000000000D+00 0.000000000000D+00 0.135286640798D-07 0.000000000000D+00  6 22 1 9900012 13 2 21 2 0.64728870D-01 0.23892634D-02 0.31884807D+04 0.31884807D+04 0.31884807D+04 0.12644602D+01  1  2 15  1  6  2        1 -.462300557877D-05 0.100000000000D+01
-.238789045487D-05 0.000000000000D+00 -.890888091917D-07 0.135286640798D-07 0.000000000000D+00  6 22 1 9900012 13 2 21 2 0.64728870D-01 0.13669818D-01 0.31884807D+04 0.31884807D+04 0.31884807D+04 0.12644602D+01  1  2  5  1  6  2        1 -.433883474552D-04 0.100000000000D+01
-.515058637763D-06 0.000000000000D+00 -.190347510492D-07 0.135286640798D-07 0.000000000000D+00  6 22 21 9900012 13 2 -1 2 0.64728870D-01 0.13669818D-01 0.31884807D+04 0.31884807D+04 0.31884807D+04 0.12644602D+01  1  2  5  3  6  2        1 -.966106507678D-04 0.100000000000D+01
  </mgrwgt>
  </event>
  <event>
  6     66 0.15202802E-05 0.22233768E+03 0.78161638E-02 0.10255030E+00
       22 -1    0    0    0    0 0.00000000E+00 0.00000000E+00 0.75225594E+02 0.75225594E+02 0.00000000E+00 0.0000E+00 0.9000E+01
        1 -1    0    0  501    0 0.00000000E+00 0.00000000E+00 -.10360525E+04 0.10360525E+04 0.00000000E+00 0.0000E+00 0.9000E+01
      -24  2    1    2    0    0 0.39495615E+02 0.23771748E+03 -.23312463E+03 0.34471427E+03 0.80070778E+02 0.0000E+00 0.0000E+00
  9900012  1    3    3    0    0 0.13727378E+01 0.11578964E+03 -.11926062E+03 0.17358635E+03 0.50000000E+02 0.0000E+00 0.9000E+01
       13  1    3    3    0    0 0.38122877E+02 0.12192783E+03 -.11386402E+03 0.17112792E+03 0.00000000E+00 0.0000E+00 0.9000E+01
        2  1    1    2  501    0 -.39495615E+02 -.23771748E+03 -.72770229E+03 0.76656384E+03 0.00000000E+00 0.0000E+00 0.9000E+01
#aMCatNLO 1  0  0  2  5 0.18870231D+01 0.00000000D+00  -5  6  0 0.00000000D+00 0.00000000D+00 0.00000000D+00 0.00000000D+00 0.00000000D+00
  <mgrwgt>
 0.1530260635D-04    7    2    0
 0.279173182697586D+03 0.000000000000000D+00 0.000000000000000D+00 0.279173182697586D+03
 0.279173182697586D+03 0.000000000000000D+00 0.000000000000000D+00 -.279173182697586D+03
 0.140260425075617D+03 0.137273784759752D+01 0.115789643061365D+03 0.613503137148978D+02
 0.144654112748437D+03 0.381228770776156D+02 0.121927834336803D+03 0.678606055992700D+02
 0.273431827571118D+03 -.394956149252131D+02 -.237717477398168D+03 -.129210919314168D+03
 0.000000000000000D+00 -.000000000000000D+00 0.000000000000000D+00 0.000000000000000D+00
 0.279927840124208D+03 0.000000000000000D+00 0.000000000000000D+00 0.279927840124208D+03
 0.279601089240695D+03 0.000000000000000D+00 0.000000000000000D+00 -.279601089240695D+03
 0.140127583782187D+03 0.160593597642576D+01 0.115625687947606D+03 0.613503137148978D+02
 0.144575232086861D+03 0.383634285273462D+02 0.121758709307783D+03 0.678606055992700D+02
 0.273644703792986D+03 -.390406125021079D+02 -.238037376937738D+03 -.129210919314168D+03
 0.118140970286858D+01 -.928752001664050D+00 0.652979682349235D+00 0.326750883512417D+00
0.270728173079D-05 0.000000000000D+00 0.000000000000D+00 0.140275736937D-05 0.000000000000D+00  6 22 1 9900012 13 2 21 0 0.11573168D-01 0.15939270D+00 0.61220691D+05 0.61220691D+05 0.61220691D+05 0.11353730D+01  1  2  2  1  6  2        1 0.195450676393D-04 0.100000000000D+01
-.600939111964D-07 0.000000000000D+00 -.519833734495D-08 0.140275736937D-05 0.000000000000D+00  6 22 1 9900012 13 2 21 2 0.11573168D-01 0.15939270D+00 0.61220691D+05 0.61220691D+05 0.61220691D+05 0.11353730D+01  1  2  3  1  6  2        1 -.559256856129D-06 0.100000000000D+01
-.356614718909D-06 0.000000000000D+00 0.000000000000D+00 0.140275736937D-05 0.000000000000D+00  6 22 1 9900012 13 2 21 2 0.11573168D-01 0.15939270D+00 0.61220691D+05 0.61220691D+05 0.61220691D+05 0.11353730D+01  1  2 15  1  6  2        1 -.331879257941D-05 0.100000000000D+01
-.121796853660D-04 0.000000000000D+00 0.000000000000D+00 0.140275736937D-05 0.000000000000D+00  6 22 1 9900012 13 2 21 2 0.11573168D-01 0.15939270D+00 0.61220691D+05 0.61220691D+05 0.61220691D+05 0.11353730D+01  1  2  4  1  6  2        1 -.113348797088D-03 0.100000000000D+01
0.121649870467D-04 0.000000000000D+00 0.000000000000D+00 0.140275736937D-05 0.952512836646D-06  6 22 1 9900012 13 2 21 2 0.11604453D-01 0.15963701D+00 0.61503030D+05 0.61503030D+05 0.61503030D+05 0.11352026D+01  1  2 11  1  6  2        1 0.112441352749D-03 0.100000000000D+01
0.421870734300D-10 0.000000000000D+00 0.000000000000D+00 0.140275736937D-05 0.000000000000D+00  6 22 21 9900012 13 2 -1 2 0.11573168D-01 0.16006854D+00 0.61503030D+05 0.61503030D+05 0.61503030D+05 0.11352026D+01  1  2 12  3  6  2        1 0.536442999877D-09 0.100000000000D+01
0.424921841072D-07 0.000000000000D+00 0.000000000000D+00 0.140275736937D-05 0.183861049969D-08  6 22 21 9900012 13 2 -1 2 0.11604453D-01 0.15963701D+00 0.61503030D+05 0.61503030D+05 0.61503030D+05 0.11352026D+01  1  2 11  3  6  2        1 0.542496040369D-06 0.100000000000D+01
  </mgrwgt>
  </event>
  <event>
  6     66 0.15202802E-05 0.60108047E+02 0.78161638E-02 0.11549516E+00
       22 -1    0    0    0    0 0.00000000E+00 0.00000000E+00 0.17787753E+03 0.17787753E+03 0.00000000E+00 0.0000E+00 0.9000E+01
        1 -1    0    0  501    0 0.00000000E+00 0.00000000E+00 -.64222074E+03 0.64222074E+03 0.00000000E+00 0.0000E+00 0.9000E+01
      -24  2    1    2    0    0 0.79237713E+02 0.25053121E+02 0.15614219E+03 0.19407238E+03 0.79858828E+02 0.0000E+00 0.0000E+00
  9900012  1    3    3    0    0 0.84457627E+02 0.14476089E+02 0.11808562E+03 0.15422990E+03 0.50000000E+02 0.0000E+00 0.9000E+01
       13  1    3    3    0    0 -.52199141E+01 0.10577032E+02 0.38056568E+02 0.39842483E+02 0.00000000E+00 0.0000E+00 0.9000E+01
        2  1    1    2  501    0 -.79237713E+02 -.25053121E+02 -.62048540E+03 0.62602588E+03 0.00000000E+00 0.0000E+00 0.9000E+01
#aMCatNLO 1  0  0  2  5 0.13940446D+02 0.00000000D+00  -5  6  0 0.00000000D+00 0.00000000D+00 0.00000000D+00 0.00000000D+00 0.00000000D+00
  <mgrwgt>
 0.9074858467D-03    9    2    0
 0.337989108869664D+03 0.000000000000000D+00 0.000000000000000D+00 0.337989108869664D+03
 0.337989108869664D+03 0.000000000000000D+00 0.000000000000000D+00 -.337989108869664D+03
 0.268227475909269D+03 0.844576269178367D+02 0.144760890022899D+02 0.249205399089311D+03
 0.744788207688727D+02 -.521991408576875D+01 0.105770320639838D+02 0.735389259696966D+02
 0.333271921061185D+03 -.792377128320679D+02 -.250531210662738D+02 -.322744325059008D+03
 0.000000000000000D+00 0.000000000000000D+00 -.000000000000000D+00 -.000000000000000D+00
 0.338779684831535D+03 0.000000000000000D+00 0.000000000000000D+00 0.338779684831535D+03
 0.404713196816971D+03 0.000000000000000D+00 0.000000000000000D+00 -.404713196816971D+03
 0.266793222317193D+03 0.793822741447087D+02 0.165453041900863D+02 0.249205399089311D+03
 0.746753233947983D+02 -.663483111928547D+01 0.111538920274382D+02 0.735389259696966D+02
 0.334651571059085D+03 -.855738178822226D+02 -.224698986998070D+02 -.322744325059008D+03
 0.673727648774304D+02 0.128263748567995D+02 -.522929751771741D+01 -.659335119854356D+02
0.774572208707D-05 0.000000000000D+00 0.000000000000D+00 0.888154363526D-04 0.000000000000D+00  6 22 1 9900012 13 2 21 0 0.27365774D-01 0.98803190D-01 0.94195834D+04 0.94195834D+04 0.94195834D+04 0.12120310D+01  1  2  2  1  6  2        1 0.310017470224D-04 0.100000000000D+01
0.146117241907D-06 0.000000000000D+00 -.148728061549D-07 0.888154363526D-04 0.000000000000D+00  6 22 1 9900012 13 2 21 2 0.27365774D-01 0.98803190D-01 0.94195834D+04 0.94195834D+04 0.94195834D+04 0.12120310D+01  1  2  3  1  6  2        1 0.859118670756D-06 0.100000000000D+01
-.112640888946D-05 0.000000000000D+00 0.000000000000D+00 0.888154363526D-04 0.000000000000D+00  6 22 1 9900012 13 2 21 2 0.27365774D-01 0.98803190D-01 0.94195834D+04 0.94195834D+04 0.94195834D+04 0.12120310D+01  1  2 15  1  6  2        1 -.662289333692D-05 0.100000000000D+01
0.212499696212D-03 0.000000000000D+00 0.000000000000D+00 0.888154363526D-04 0.000000000000D+00  6 22 1 9900012 13 2 21 2 0.27365774D-01 0.11858514D+00 0.11084775D+05 0.11084775D+05 0.11084775D+05 0.12047219D+01  1  2 12  1  6  2        1 0.951730944067D-03 0.100000000000D+01
-.588545061957D-04 0.000000000000D+00 0.000000000000D+00 0.888154363526D-04 0.000000000000D+00  6 22 1 9900012 13 2 21 2 0.27365774D-01 0.98803190D-01 0.94195834D+04 0.94195834D+04 0.94195834D+04 0.12120310D+01  1  2  4  1  6  2        1 -.346044070301D-03 0.100000000000D+01
-.214060852224D-03 0.000000000000D+00 -.542260328764D-05 0.888154363526D-04 0.000000000000D+00  6 22 1 9900012 13 2 21 2 0.27365774D-01 0.11842366D+00 0.94195834D+04 0.94195834D+04 0.94195834D+04 0.12120310D+01  1  2  5  1  6  2        1 -.967441958807D-03 0.100000000000D+01
0.211649119883D-03 0.000000000000D+00 0.533484240195D-05 0.888154363526D-04 0.000000000000D+00  6 22 1 9900012 13 2 21 2 0.27365774D-01 0.98803190D-01 0.94195834D+04 0.94195834D+04 0.94195834D+04 0.12120310D+01  1  2  6  1  6  2        1 0.124442336967D-02 0.100000000000D+01
0.566520814685D-05 0.000000000000D+00 0.000000000000D+00 0.888154363526D-04 0.000000000000D+00  6 22 21 9900012 13 2 -1 2 0.27365774D-01 0.11858514D+00 0.11084775D+05 0.11084775D+05 0.11084775D+05 0.12047219D+01  1  2 12  3  6  2        1 0.516335923290D-04 0.100000000000D+01
-.562093407311D-05 0.000000000000D+00 -.143722062793D-06 0.888154363526D-04 0.000000000000D+00  6 22 21 9900012 13 2 -1 2 0.27365774D-01 0.11842366D+00 0.94195834D+04 0.94195834D+04 0.94195834D+04 0.12120310D+01  1  2  5  3  6  2        1 -.520540026377D-04 0.100000000000D+01
  </mgrwgt>
  </event>
  <event>
  7     66 -.15202802E-05 0.20896027E+03 0.78161638E-02 0.98650018E-01
       22 -1    0    0    0    0 0.00000000E+00 0.00000000E+00 0.11488854E+03 0.11488854E+03 0.00000000E+00 0.0000E+00 0.9000E+01
        1 -1    0    0  501    0 -.00000000E+00 -.00000000E+00 -.15349134E+04 0.15349134E+04 0.00000000E+00 0.0000E+00 0.9000E+01
      -24  2    1    2    0    0 -.22965981E+03 0.23981284E+03 -.29670752E+03 0.45261525E+03 0.81064112E+02 0.0000E+00 0.0000E+00
  9900012  1    3    3    0    0 -.18659855E+03 0.18132675E+03 -.20149562E+03 0.33286468E+03 0.50000000E+02 0.0000E+00 0.9000E+01
       13  1    3    3    0    0 -.43061256E+02 0.58486097E+02 -.95211896E+02 0.11975058E+03 0.00000000E+00 0.0000E+00 0.9000E+01
        2  1    1    2  502    0 0.16143079E+03 -.19178248E+03 -.10681207E+04 0.10971428E+04 0.00000000E+00 0.0000E+00 0.9000E+01
       21  1    1    2  501  502 0.68229022E+02 -.48030362E+02 -.55196619E+02 0.10004390E+03 0.00000000E+00 0.0000E+00 0.9000E+01
#aMCatNLO 2  0  0  5  2 0.10377065D+03 0.00000000D+00  -5  6  0 0.00000000D+00 0.00000000D+00 0.00000000D+00 0.00000000D+00 0.00000000D+00
  <mgrwgt>
 -.3316852080D-05    2    2    0
 0.419933282972396D+03 0.000000000000000D+00 0.000000000000000D+00 0.419933282972396D+03
 0.419933282972396D+03 -.000000000000000D+00 -.000000000000000D+00 -.419933282972396D+03
 0.342803821062160D+03 -.204813580099097D+03 0.200347043923465D+03 0.181457761291540D+03
 0.810416252040268D+02 -.473733408291530D+02 0.629888150417303D+02 0.188658626633809D+02
 0.416021119678606D+03 0.252186920928250D+03 -.263335858965195D+03 -.200323623954921D+03
 0.000000000000000D+00 0.000000000000000D+00 0.000000000000000D+00 0.000000000000000D+00
 0.419933282972396D+03 0.000000000000000D+00 0.000000000000000D+00 0.419933282972396D+03
 0.419933282972396D+03 -.000000000000000D+00 -.000000000000000D+00 -.419933282972396D+03
 0.313183084803741D+03 -.186598551797276D+03 0.181326746969604D+03 0.166988729882491D+03
 0.742516442834096D+02 -.430612558263859D+02 0.584860969627953D+02 0.154405760094322D+02
 0.349234432973934D+03 0.161430785299736D+03 -.191782482047937D+03 -.243154827860087D+03
 0.103197403883708D+03 0.682290223239264D+02 -.480303618844622D+02 0.607255219681639D+02
-.219023628396D-05 0.000000000000D+00 0.000000000000D+00 0.490220686638D-06 0.000000000000D+00  6 22 1 9900012 13 2 21 2 0.17675160D-01 0.23614052D+00 0.11279438D+06 0.11279438D+06 0.11279438D+06 0.11134059D+01  1  2 13  2  6  5        2 -.473549974530D-05 0.100000000000D+01
0.656144811913D-06 0.000000000000D+00 0.000000000000D+00 0.490220686638D-06 0.621581278622D-10  6 22 1 9900012 13 2 21 2 0.17675160D-01 0.23614052D+00 0.11279438D+06 0.11279438D+06 0.11279438D+06 0.11134059D+01  1  2  1  2  6  5        2 0.141864766484D-05 0.100000000000D+01
  </mgrwgt>
  </event>
  <event>
  6     66 0.15202802E-05 0.34304193E+02 0.78161638E-02 0.12141268E+00
       22 -1    0    0    0    0 0.00000000E+00 0.00000000E+00 0.26339544E+03 0.26339544E+03 0.00000000E+00 0.0000E+00 0.9000E+01
        1 -1    0    0  501    0 0.00000000E+00 0.00000000E+00 -.99983040E+02 0.99983040E+02 0.00000000E+00 0.0000E+00 0.9000E+01
      -24  2    1    2    0    0 0.39986923E+02 0.34887523E+02 0.24708684E+03 0.26429516E+03 0.77355866E+02 0.0000E+00 0.0000E+00
  9900012  1    3    3    0    0 0.24753739E+02 0.77797417E-01 0.14433233E+03 0.15474035E+03 0.50000000E+02 0.0000E+00 0.9000E+01
       13  1    3    3    0    0 0.15233184E+02 0.34809725E+02 0.10275451E+03 0.10955481E+03 0.00000000E+00 0.0000E+00 0.9000E+01
        2  1    1    2  501    0 -.39986923E+02 -.34887523E+02 -.83674440E+02 0.99083324E+02 0.00000000E+00 0.0000E+00 0.9000E+01
#aMCatNLO 1  0  0  5  2 0.42246581D+01 0.00000000D+00  -5  6  0 0.00000000D+00 0.00000000D+00 0.00000000D+00 0.00000000D+00 0.00000000D+00
  <mgrwgt>
 0.3196724337D-03    5    2    0
 0.162280858363502D+03 0.000000000000000D+00 0.000000000000000D+00 0.162280858363502D+03
 0.162280858363502D+03 -.000000000000000D+00 -.000000000000000D+00 -.162280858363502D+03
 0.100577544705993D+03 0.247537394609416D+02 0.777974172011840D-01 0.836844599035429D+02
 0.709217915199345D+02 0.152331836584612D+02 0.348097251468020D+02 0.598843357083365D+02
 0.153062380501077D+03 -.399869231194028D+02 -.348875225640032D+02 -.143568795611879D+03
 0.000000000000000D+00 0.000000000000000D+00 0.000000000000000D+00 0.000000000000000D+00
 0.162280858363502D+03 0.000000000000000D+00 0.000000000000000D+00 0.162280858363502D+03
 0.162280858363502D+03 -.000000000000000D+00 -.000000000000000D+00 -.162280858363502D+03
 0.997437581292283D+02 0.244954982096118D+02 -.147511178206938D+00 0.827572721496860D+02
 0.702533006936018D+02 0.150511898717104D+02 0.346509404280374D+02 0.592309063685839D+02
 0.288265089259836D+01 0.162136677750969D+01 0.227568287736909D+01 -.708599592882333D+00
 0.151682007011576D+03 -.411680548588319D+02 -.367791121271996D+02 -.141279578925388D+03
0.145571361523D-04 0.000000000000D+00 0.000000000000D+00 0.154797493943D-05 0.000000000000D+00  6 22 1 9900012 13 2 21 0 0.40522376D-01 0.15382006D-01 0.53916613D+04 0.53916613D+04 0.53916613D+04 0.12381750D+01  1  2  2  2  6  5        2 0.324102142241D-03 0.100000000000D+01
0.466218825721D-06 0.000000000000D+00 -.279516179035D-07 0.154797493943D-05 0.000000000000D+00  6 22 1 9900012 13 2 21 2 0.40522376D-01 0.15382006D-01 0.53916613D+04 0.53916613D+04 0.53916613D+04 0.12381750D+01  1  2  3  2  6  5        2 0.159132838262D-04 0.100000000000D+01
-.209869629969D-05 0.000000000000D+00 0.000000000000D+00 0.154797493943D-05 0.000000000000D+00  6 22 1 9900012 13 2 21 2 0.40522376D-01 0.15382006D-01 0.53916613D+04 0.53916613D+04 0.53916613D+04 0.12381750D+01  1  2 15  2  6  5        2 -.716340654633D-04 0.100000000000D+01
0.293805387361D-06 0.000000000000D+00 0.000000000000D+00 0.154797493943D-05 0.000000000000D+00  6 22 1 9900012 13 2 21 2 0.40522376D-01 0.15382006D-01 0.57346712D+04 0.57346712D+04 0.57346712D+04 0.12351990D+01  1  2 12  2  6  5        2 0.100285851609D-04 0.100000000000D+01
0.120885858225D-05 0.000000000000D+00 0.000000000000D+00 0.154797493943D-05 0.536083743188D-08  6 22 1 9900012 13 2 21 2 0.40522376D-01 0.15382006D-01 0.57346712D+04 0.57346712D+04 0.57346712D+04 0.12351990D+01  1  2 11  2  6  5        2 0.412624878953D-04 0.100000000000D+01
  </mgrwgt>
  </event>
  <event>
  6     66 0.15202802E-05 0.25539955E+02 0.78161638E-02 0.12841382E+00
       22 -1    0    0    0    0 0.00000000E+00 0.00000000E+00 0.13811024E+03 0.13811024E+03 0.00000000E+00 0.0000E+00 0.9000E+01
        1 -1    0    0  501    0 0.00000000E+00 0.00000000E+00 -.22294921E+02 0.22294921E+02 0.00000000E+00 0.0000E+00 0.9000E+01
      -24  2    1    2    0    0 0.25619768E+02 0.50283303E+01 0.77853563E+02 0.11433183E+03 0.79554600E+02 0.0000E+00 0.0000E+00
  9900012  1    3    3    0    0 0.41312781E+02 0.40745616E+01 0.73307076E+02 0.97965684E+02 0.50000000E+02 0.0000E+00 0.9000E+01
       13  1    3    3    0    0 -.15693013E+02 0.95376874E+00 0.45464876E+01 0.16366150E+02 0.00000000E+00 0.0000E+00 0.9000E+01
        2  1    1    2  501    0 -.25619768E+02 -.50283303E+01 0.37961757E+02 0.46073328E+02 0.00000000E+00 0.0000E+00 0.9000E+01
#aMCatNLO 1  0  0  5  2 0.37812338D+01 0.00000000D+00  -5  6  0 0.00000000D+00 0.00000000D+00 0.00000000D+00 0.00000000D+00 0.00000000D+00
  <mgrwgt>
 0.6030230470D-04    8    2    0
 0.554901519078159D+02 0.000000000000000D+00 0.000000000000000D+00 0.554901519078159D+02
 0.554901519078159D+02 -.000000000000000D+00 -.000000000000000D+00 -.554901519078159D+02
 0.650937039151275D+02 0.413127805880450D+02 0.407456159304682D+01 0.372053723255304D+01
 0.189102210675909D+02 -.156930127652025D+02 0.953768740156548D+00 -.105079082774190D+02
 0.269763788329133D+02 -.256197678228425D+02 -.502833033320336D+01 0.678737104486592D+01
 0.000000000000000D+00 0.000000000000000D+00 -.000000000000000D+00 0.000000000000000D+00
 0.554901519078159D+02 0.000000000000000D+00 0.000000000000000D+00 0.554901519078159D+02
 0.554901519078159D+02 -.000000000000000D+00 -.000000000000000D+00 -.554901519078159D+02
 0.647169373209306D+02 0.407133333151030D+02 0.395690951569261D+01 0.387934706609347D+01
 0.190286147571931D+02 -.158682089698989D+02 0.919383401599677D+00 -.104614940532484D+02
 0.143314351555340D+02 -.134480578260223D+02 0.925365337890247D+00 0.486656689224217D+01
 0.129033165819739D+02 -.113970665191818D+02 -.580165825518252D+01 0.171558009491278D+01
0.201988861050D-06 0.000000000000D+00 0.000000000000D+00 0.170358804276D-06 0.000000000000D+00  6 22 1 9900012 13 2 21 0 0.21247729D-01 0.34299879D-02 0.28525113D+04 0.28525113D+04 0.28525113D+04 0.12702603D+01  1  2  2  2  6  5        2 0.804265151896D-04 0.100000000000D+01
-.456001427714D-08 0.000000000000D+00 -.387845205660D-09 0.170358804276D-06 0.000000000000D+00  6 22 1 9900012 13 2 21 2 0.21247729D-01 0.34299879D-02 0.28525113D+04 0.28525113D+04 0.28525113D+04 0.12702603D+01  1  2  3  2  6  5        2 -.292970223811D-05 0.100000000000D+01
-.185273547324D-07 0.000000000000D+00 0.000000000000D+00 0.170358804276D-06 0.000000000000D+00  6 22 1 9900012 13 2 21 2 0.21247729D-01 0.34299879D-02 0.28525113D+04 0.28525113D+04 0.28525113D+04 0.12702603D+01  1  2 15  2  6  5        2 -.119033909385D-04 0.100000000000D+01
0.184402155097D-07 0.000000000000D+00 0.000000000000D+00 0.170358804276D-06 0.000000000000D+00  6 22 1 9900012 13 2 21 2 0.21247729D-01 0.34299879D-02 0.28496379D+04 0.28496379D+04 0.28496379D+04 0.12703132D+01  1  2 12  2  6  5        2 0.118468703918D-04 0.100000000000D+01
-.482431285893D-06 0.000000000000D+00 0.000000000000D+00 0.170358804276D-06 0.000000000000D+00  6 22 1 9900012 13 2 21 2 0.21247729D-01 0.34299879D-02 0.28525113D+04 0.28525113D+04 0.28525113D+04 0.12702603D+01  1  2  4  2  6  5        2 -.309950787896D-03 0.100000000000D+01
-.250802727984D-06 0.000000000000D+00 0.000000000000D+00 0.170358804276D-06 0.000000000000D+00  6 22 1 9900012 13 2 21 2 0.21247729D-01 0.34299879D-02 0.28525113D+04 0.28525113D+04 0.28525113D+04 0.12702603D+01  1  2  5  2  6  5        2 -.161134871262D-03 0.100000000000D+01
0.399596152073D-06 0.000000000000D+00 -.000000000000D+00 0.170358804276D-06 0.000000000000D+00  6 22 1 9900012 13 2 21 2 0.21247729D-01 0.34299879D-02 0.28525113D+04 0.28525113D+04 0.28525113D+04 0.12702603D+01  1  2  6  2  6  5        2 0.256731156948D-03 0.100000000000D+01
0.306976856266D-06 0.000000000000D+00 0.000000000000D+00 0.170358804276D-06 0.443222116273D-07  6 22 1 9900012 13 2 21 2 0.21247729D-01 0.34299879D-02 0.28496379D+04 0.28496379D+04 0.28496379D+04 0.12703132D+01  1  2 11  2  6  5        2 0.197216514501D-03 0.100000000000D+01
  </mgrwgt>
  </event>
  <event>
  6     66 0.15202802E-05 0.25878589E+02 0.78161638E-02 0.12642615E+00
       22 -1    0    0    0    0 0.00000000E+00 0.00000000E+00 0.57467018E+02 0.57467018E+02 0.00000000E+00 0.0000E+00 0.9000E+01
        1 -1    0    0  501    0 -.00000000E+00 -.00000000E+00 -.71871408E+02 0.71871408E+02 0.00000000E+00 0.0000E+00 0.9000E+01
      -24  2    1    2    0    0 0.23467343E+02 -.23950042E+02 -.33963991E+02 0.90519634E+02 0.76915088E+02 0.0000E+00 0.0000E+00
  9900012  1    3    3    0    0 -.10007530E+01 -.30490292E+02 -.24256663E+02 0.63395939E+02 0.50000000E+02 0.0000E+00 0.9000E+01
       13  1    3    3    0    0 0.24468096E+02 0.65402502E+01 -.97073281E+01 0.27123695E+02 0.00000000E+00 0.0000E+00 0.9000E+01
        2  1    1    2  501    0 -.23467343E+02 0.23950042E+02 0.19559601E+02 0.38818793E+02 0.00000000E+00 0.0000E+00 0.9000E+01
#aMCatNLO 1  0  0  5  2 0.37812338D+01 0.00000000D+00  -5  6  0 0.00000000D+00 0.00000000D+00 0.00000000D+00 0.00000000D+00 0.00000000D+00
  <mgrwgt>
 0.6923681196D-04    1    2    0
 0.642669085591271D+02 0.000000000000000D+00 0.000000000000000D+00 0.642669085591271D+02
 0.642669085591271D+02 -.000000000000000D+00 -.000000000000000D+00 -.642669085591271D+02
 0.610744220035559D+02 -.100075297038642D+01 -.304902917570496D+02 -.173039193574950D+02
 0.262056159025195D+02 0.244680958832700D+02 0.654025016304658D+01 -.672842600332770D+01
 0.412537792121788D+02 -.234673429128836D+02 0.239500415940030D+02 0.240323453608227D+02
 0.000000000000000D+00 0.000000000000000D+00 0.000000000000000D+00 -.000000000000000D+00
 0.642669085591271D+02 0.000000000000000D+00 0.000000000000000D+00 0.642669085591271D+02
 0.642669085591271D+02 -.000000000000000D+00 -.000000000000000D+00 -.642669085591271D+02
 0.595005511633127D+02 -.313079194093840D+01 -.283164401143244D+02 -.151225973236224D+02
 0.253832584427519D+02 0.235567433039063D+02 0.747034831108106D+01 -.579513159441013D+01
 0.645418278137142D+01 0.566001881070460D+01 0.262035639614138D+01 0.165963694675143D+01
 0.371958247308181D+02 -.260859701736725D+02 0.182257354071020D+02 0.192580919712811D+02
0.141027946103D-06 0.000000000000D+00 0.000000000000D+00 0.145437369396D-07 0.000000000000D+00  6 22 1 9900012 13 2 21 2 0.88410798D-02 0.11057140D-01 0.34474415D+04 0.34474415D+04 0.34474415D+04 0.12604435D+01  1  2 14  2  6  5        2 0.692368119619D-04 0.100000000000D+01
  </mgrwgt>
  </event>
  <event>
  6     66 0.15202802E-05 0.29844719E+02 0.78161638E-02 0.12066386E+00
       22 -1    0    0    0    0 0.00000000E+00 0.00000000E+00 0.79573162E+02 0.79573162E+02 0.00000000E+00 0.0000E+00 0.9000E+01
        1 -1    0    0  501    0 0.00000000E+00 0.00000000E+00 -.37980197E+03 0.37980197E+03 0.00000000E+00 0.0000E+00 0.9000E+01
      -24  2    1    2    0    0 0.80122373E+01 -.55910507E+02 0.45500564E+02 0.10906244E+03 0.81450197E+02 0.0000E+00 0.0000E+00
  9900012  1    3    3    0    0 0.29204999E+02 -.38679040E+02 0.21992421E+02 0.73025110E+02 0.50000000E+02 0.0000E+00 0.9000E+01
       13  1    3    3    0    0 -.21192762E+02 -.17231467E+02 0.23508143E+02 0.36037334E+02 0.00000000E+00 0.0000E+00 0.9000E+01
        2  1    1    2  501    0 -.80122373E+01 0.55910507E+02 -.34572937E+03 0.35031269E+03 0.00000000E+00 0.0000E+00 0.9000E+01
#aMCatNLO 1  0  0  2  5 0.19520600D+02 0.00000000D+00  -5  6  0 0.00000000D+00 0.00000000D+00 0.00000000D+00 0.00000000D+00 0.00000000D+00
  <mgrwgt>
 0.3600874188D-03    8    2    0
 0.173844883346020D+03 0.000000000000000D+00 0.000000000000000D+00 0.173844883346020D+03
 0.173844883346020D+03 0.000000000000000D+00 0.000000000000000D+00 -.173844883346020D+03
 0.115472704568909D+03 0.292049994073270D+02 -.386790404714953D+02 0.921137630231279D+02
 0.679124862541080D+02 -.211927620639822D+02 -.172314668135000D+02 0.621775616824035D+02
 0.164304575869022D+03 -.801223734334475D+01 0.559105072849953D+02 -.154291324705531D+03
 0.000000000000000D+00 -.000000000000000D+00 -.000000000000000D+00 0.000000000000000D+00
 0.183664378361500D+03 0.000000000000000D+00 0.000000000000000D+00 0.183664378361500D+03
 0.174263193941694D+03 0.000000000000000D+00 0.000000000000000D+00 -.174263193941694D+03
 0.115463808744088D+03 0.302396350974727D+02 -.378485172837995D+02 0.921137630231279D+02
 0.676031245337042D+02 -.205856285904507D+02 -.167441083813515D+02 0.621775616824035D+02
 0.164645785537118D+03 -.653848259008130D+01 0.570935203080527D+02 -.154291324705531D+03
 0.102148534882846D+02 -.311552391694062D+01 -.250089464290175D+01 0.940118441980569D+01
0.750645499760D-05 0.000000000000D+00 0.000000000000D+00 0.401381052782D-05 0.000000000000D+00  6 22 1 9900012 13 2 21 0 0.12242025D-01 0.58431072D-01 0.58852284D+04 0.58852284D+04 0.58852284D+04 0.12339554D+01  1  2  2  1  6  2        1 0.193033792479D-03 0.100000000000D+01
0.224391610297D-06 0.000000000000D+00 -.144133818429D-07 0.401381052782D-05 0.000000000000D+00  6 22 1 9900012 13 2 21 2 0.12242025D-01 0.58431072D-01 0.58852284D+04 0.58852284D+04 0.58852284D+04 0.12339554D+01  1  2  3  1  6  2        1 0.878625933727D-05 0.100000000000D+01
-.110409439000D-05 0.000000000000D+00 0.000000000000D+00 0.401381052782D-05 0.000000000000D+00  6 22 1 9900012 13 2 21 2 0.12242025D-01 0.58431072D-01 0.58852284D+04 0.58852284D+04 0.58852284D+04 0.12339554D+01  1  2 15  1  6  2        1 -.432318286345D-04 0.100000000000D+01
0.530203867419D-05 0.000000000000D+00 0.000000000000D+00 0.401381052782D-05 0.000000000000D+00  6 22 1 9900012 13 2 21 2 0.12242025D-01 0.61880046D-01 0.62108064D+04 0.62108064D+04 0.62108064D+04 0.12313841D+01  1  2 12  1  6  2        1 0.192839267105D-03 0.100000000000D+01
-.827111950395D-07 0.000000000000D+00 0.000000000000D+00 0.401381052782D-05 0.000000000000D+00  6 22 1 9900012 13 2 21 2 0.12242025D-01 0.58431072D-01 0.58852284D+04 0.58852284D+04 0.58852284D+04 0.12339554D+01  1  2  4  1  6  2        1 -.323863271336D-05 0.100000000000D+01
0.124260920701D-06 0.000000000000D+00 0.000000000000D+00 0.401381052782D-05 0.000000000000D+00  6 22 1 9900012 13 2 21 2 0.12242025D-01 0.61678307D-01 0.58852284D+04 0.58852284D+04 0.58852284D+04 0.12339554D+01  1  2  5  1  6  2        1 0.454235488343D-05 0.100000000000D+01
-.124079402221D-06 0.000000000000D+00 0.000000000000D+00 0.401381052782D-05 0.000000000000D+00  6 22 1 9900012 13 2 21 2 0.12242025D-01 0.58431072D-01 0.58852284D+04 0.58852284D+04 0.58852284D+04 0.12339554D+01  1  2  6  1  6  2        1 -.485844281290D-05 0.100000000000D+01
0.854759538939D-07 0.000000000000D+00 0.000000000000D+00 0.401381052782D-05 0.000000000000D+00  6 22 21 9900012 13 2 -1 2 0.12242025D-01 0.61880046D-01 0.62108064D+04 0.62108064D+04 0.62108064D+04 0.12313841D+01  1  2 12  3  6  2        1 0.122146491370D-04 0.100000000000D+01
  </mgrwgt>
  </event>
  <event>
  6     66 0.15202802E-05 0.14932048E+02 0.78161638E-02 0.13340600E+00
       22 -1    0    0    0    0 0.00000000E+00 0.00000000E+00 0.24543600E+03 0.24543600E+03 0.00000000E+00 0.0000E+00 0.9000E+01
        1 -1    0    0  501    0 0.00000000E+00 0.00000000E+00 -.38028624E+02 0.38028624E+02 0.00000000E+00 0.0000E+00 0.9000E+01
      -24  2    1    2    0    0 -.41627450E+01 0.14340070E+02 0.23690291E+03 0.25040479E+03 0.79728331E+02 0.0000E+00 0.0000E+00
  9900012  1    3    3    0    0 0.28205809E+01 0.20711636E+02 0.23445907E+03 0.24064078E+03 0.50000000E+02 0.0000E+00 0.9000E+01
       13  1    3    3    0    0 -.69833259E+01 -.63715661E+01 0.24438381E+01 0.97640176E+01 0.00000000E+00 0.0000E+00 0.9000E+01
        2  1    1    2  501    0 0.41627450E+01 -.14340070E+02 -.29495532E+02 0.33059831E+02 0.00000000E+00 0.0000E+00 0.9000E+01
#aMCatNLO 1  0  0  5  2 0.11100766D+02 0.00000000D+00  -5  6  0 0.00000000D+00 0.00000000D+00 0.00000000D+00 0.00000000D+00 0.00000000D+00
  <mgrwgt>
 0.3140526898D-04    4    2    0
 0.966105243557356D+02 0.000000000000000D+00 0.000000000000000D+00 0.966105243557356D+02
 0.966105243557356D+02 -.000000000000000D+00 -.000000000000000D+00 -.966105243557356D+02
 0.101358556846165D+03 0.282058089751243D+01 0.207116357812748D+02 0.856541272362386D+02
 0.117010209469443D+02 -.698332589731268D+01 -.637156613833937D+01 -.689566498298164D+01
 0.801614709183615D+02 0.416274499980025D+01 -.143400696429355D+02 -.787584622532570D+02
 0.000000000000000D+00 0.000000000000000D+00 0.000000000000000D+00 0.000000000000000D+00
 0.966105243557356D+02 0.000000000000000D+00 0.000000000000000D+00 0.966105243557356D+02
 0.966105243557356D+02 -.000000000000000D+00 -.000000000000000D+00 -.966105243557356D+02
 0.975061524017632D+02 0.305330731741301D+01 0.199099260754712D+02 0.812509810050967D+02
 0.120534728344610D+02 -.695552660444064D+01 -.646733078302181D+01 -.742162310879410D+01
 0.751791473642346D+02 0.104881970413248D+02 -.809992681071055D+01 -.740019804255047D+02
 0.848227611101237D+01 -.658597775429717D+01 -.534266848173886D+01 0.172622529202162D+00
0.429710363923D-06 0.000000000000D+00 0.000000000000D+00 0.375937830912D-05 0.000000000000D+00  6 22 1 9900012 13 2 21 0 0.37759385D-01 0.58505576D-02 0.15436535D+04 0.15436535D+04 0.15436535D+04 0.13037872D+01  1  2  2  2  6  5        2 0.327612782093D-04 0.100000000000D+01
0.501607076596D-07 0.000000000000D+00 -.825100471401D-09 0.375937830912D-05 0.000000000000D+00  6 22 1 9900012 13 2 21 2 0.37759385D-01 0.58505576D-02 0.15436535D+04 0.15436535D+04 0.15436535D+04 0.13037872D+01  1  2  3  2  6  5        2 0.650072985737D-05 0.100000000000D+01
-.556326021365D-07 0.000000000000D+00 0.000000000000D+00 0.375937830912D-05 0.000000000000D+00  6 22 1 9900012 13 2 21 2 0.37759385D-01 0.58505576D-02 0.15436535D+04 0.15436535D+04 0.15436535D+04 0.13037872D+01  1  2 15  2  6  5        2 -.720987670680D-05 0.100000000000D+01
-.499129722094D-08 0.000000000000D+00 0.000000000000D+00 0.375937830912D-05 0.000000000000D+00  6 22 1 9900012 13 2 21 2 0.37759385D-01 0.58505576D-02 0.15436535D+04 0.15436535D+04 0.15436535D+04 0.13037872D+01  1  2  4  2  6  5        2 -.646862382631D-06 0.100000000000D+01
  </mgrwgt>
  </event>
  <event>
  6     66 0.15202802E-05 0.15032492E+02 0.78161638E-02 0.13020351E+00
       22 -1    0    0    0    0 0.00000000E+00 0.00000000E+00 0.72493492E+03 0.72493492E+03 0.00000000E+00 0.0000E+00 0.9000E+01
        1 -1    0    0  501    0 0.00000000E+00 0.00000000E+00 -.24058795E+02 0.24058795E+02 0.00000000E+00 0.0000E+00 0.9000E+01
      -24  2    1    2    0    0 0.14788231E+02 -.26988989E+01 0.72004953E+03 0.72462990E+03 0.79945008E+02 0.0000E+00 0.0000E+00
  9900012  1    3    3    0    0 -.27503956E+01 -.17255674E+02 0.36183416E+03 0.36569014E+03 0.50000000E+02 0.0000E+00 0.9000E+01
       13  1    3    3    0    0 0.17538626E+02 0.14556775E+02 0.35821537E+03 0.35893976E+03 0.00000000E+00 0.0000E+00 0.9000E+01
        2  1    1    2  501    0 -.14788231E+02 0.26988989E+01 -.19173402E+02 0.24363808E+02 0.00000000E+00 0.0000E+00 0.9000E+01
#aMCatNLO 1  0  0  2  5 0.77852268D+01 0.00000000D+00  -5  6  0 0.00000000D+00 0.00000000D+00 0.00000000D+00 0.00000000D+00 0.00000000D+00
  <mgrwgt>
 0.6746061744D-04   11    2    0
 0.132064606989484D+03 0.000000000000000D+00 0.000000000000000D+00 0.132064606989484D+03
 0.132064606989484D+03 0.000000000000000D+00 0.000000000000000D+00 -.132064606989484D+03
 0.768513862698630D+02 -.275039557965245D+01 -.172556743012993D+02 0.556849405150315D+02
 0.673118527592338D+02 0.175386261564890D+02 0.145567754508753D+02 0.633354750743727D+02
 0.119965974949871D+03 -.147882305768366D+02 0.269889885042401D+01 -.119020415589404D+03
 0.000000000000000D+00 0.000000000000000D+00 -.000000000000000D+00 -.000000000000000D+00
 0.134773259947816D+03 0.000000000000000D+00 0.000000000000000D+00 0.134773259947816D+03
 0.135067430939575D+03 0.000000000000000D+00 0.000000000000000D+00 -.135067430939575D+03
 0.766696272341991D+02 -.398203234853862D+01 -.161728957964748D+02 0.556849405150315D+02
 0.672511335821090D+02 0.164590819434440D+02 0.155058436326819D+02 0.633354750743727D+02
 0.120268737680528D+03 -.167155361520475D+02 0.439326613612471D+01 -.119020415589404D+03
 0.565119239055509D+01 0.423848655714214D+01 -.372621397233184D+01 -.294170991758471D+00
0.132591645287D-05 0.000000000000D+00 0.000000000000D+00 0.986936364526D-05 0.000000000000D+00  6 22 1 9900012 13 2 21 0 0.11152845D+00 0.37013530D-02 0.20607243D+04 0.20607243D+04 0.20607243D+04 0.12876715D+01  1  2  2  1  6  2        1 0.288038312325D-04 0.100000000000D+01
0.221957941296D-06 0.000000000000D+00 -.254593415042D-08 0.986936364526D-05 0.000000000000D+00  6 22 1 9900012 13 2 21 2 0.11152845D+00 0.37013530D-02 0.20607243D+04 0.20607243D+04 0.20607243D+04 0.12876715D+01  1  2  3  1  6  2        1 0.799493479065D-05 0.100000000000D+01
-.189336925509D-06 0.000000000000D+00 0.000000000000D+00 0.986936364526D-05 0.000000000000D+00  6 22 1 9900012 13 2 21 2 0.11152845D+00 0.37013530D-02 0.20607243D+04 0.20607243D+04 0.20607243D+04 0.12876715D+01  1  2 15  1  6  2        1 -.681992436979D-05 0.100000000000D+01
0.141678530045D-05 0.000000000000D+00 0.000000000000D+00 0.986936364526D-05 0.000000000000D+00  6 22 1 9900012 13 2 21 2 0.11152845D+00 0.38631538D-02 0.24128062D+04 0.24128062D+04 0.24128062D+04 0.12791347D+01  1  2 12  1  6  2        1 0.484132451061D-04 0.100000000000D+01
-.545710517216D-08 0.000000000000D+00 0.000000000000D+00 0.986936364526D-05 0.000000000000D+00  6 22 1 9900012 13 2 21 2 0.11152845D+00 0.37013530D-02 0.20607243D+04 0.20607243D+04 0.20607243D+04 0.12876715D+01  1  2  4  1  6  2        1 -.196565167898D-06 0.100000000000D+01
-.178967079227D-04 0.000000000000D+00 -.396711995651D-05 0.986936364526D-05 0.000000000000D+00  6 22 1 9900012 13 2 21 2 0.11152845D+00 0.38644448D-02 0.20607243D+04 0.20607243D+04 0.20607243D+04 0.12876715D+01  1  2  5  1  6  2        1 -.608933980138D-03 0.100000000000D+01
0.180546665708D-04 0.000000000000D+00 0.396343478040D-05 0.986936364526D-05 0.000000000000D+00  6 22 1 9900012 13 2 21 2 0.11152845D+00 0.37013530D-02 0.20607243D+04 0.20607243D+04 0.20607243D+04 0.12876715D+01  1  2  6  1  6  2        1 0.650329882581D-03 0.100000000000D+01
0.982777420978D-10 0.000000000000D+00 0.000000000000D+00 0.986936364526D-05 0.782921711205D-08  6 22 1 9900012 13 2 21 2 0.11381590D+00 0.37855127D-02 0.24128062D+04 0.24128062D+04 0.24128062D+04 0.12791347D+01  1  2 11  1  6  2        1 0.331362510200D-08 0.100000000000D+01
0.312164945684D-07 0.000000000000D+00 0.000000000000D+00 0.986936364526D-05 0.000000000000D+00  6 22 21 9900012 13 2 -1 2 0.11152845D+00 0.38631538D-02 0.24128062D+04 0.24128062D+04 0.24128062D+04 0.12791347D+01  1  2 12  3  6  2        1 0.160702780503D-04 0.100000000000D+01
-.133159389889D-06 0.000000000000D+00 -.300977290775D-07 0.986936364526D-05 0.000000000000D+00  6 22 21 9900012 13 2 -1 2 0.11152845D+00 0.38644448D-02 0.20607243D+04 0.20607243D+04 0.20607243D+04 0.12876715D+01  1  2  5  3  6  2        1 -.682085366386D-04 0.100000000000D+01
0.811343632156D-11 0.000000000000D+00 0.000000000000D+00 0.986936364526D-05 0.322352864836D-08  6 22 21 9900012 13 2 -1 2 0.11381590D+00 0.37855127D-02 0.24128062D+04 0.24128062D+04 0.24128062D+04 0.12791347D+01  1  2 11  3  6  2        1 0.413837352158D-08 0.100000000000D+01
  </mgrwgt>
  </event>
  <event>
  6     66 0.15202802E-05 0.28194456E+02 0.78161638E-02 0.12457536E+00
       22 -1    0    0    0    0 0.00000000E+00 0.00000000E+00 0.35701710E+03 0.35701710E+03 0.00000000E+00 0.0000E+00 0.9000E+01
        1 -1    0    0  501    0 0.00000000E+00 0.00000000E+00 -.11458681E+03 0.11458681E+03 0.00000000E+00 0.0000E+00 0.9000E+01
      -24  2    1    2    0    0 -.27791955E+02 -.47470629E+01 0.34990542E+03 0.36049212E+03 0.82011204E+02 0.0000E+00 0.0000E+00
  9900012  1    3    3    0    0 -.42260750E+02 0.98058286E+01 0.26577876E+03 0.27389865E+03 0.50000000E+02 0.0000E+00 0.9000E+01
       13  1    3    3    0    0 0.14468795E+02 -.14552892E+02 0.84126659E+02 0.86593461E+02 0.00000000E+00 0.0000E+00 0.9000E+01
        2  1    1    2  501    0 0.27791955E+02 0.47470629E+01 -.10747512E+03 0.11111179E+03 0.00000000E+00 0.0000E+00 0.9000E+01
#aMCatNLO 1  0  0  5  2 0.17114644D+02 0.00000000D+00  -5  6  0 0.00000000D+00 0.00000000D+00 0.00000000D+00 0.00000000D+00 0.00000000D+00
  <mgrwgt>
 0.5415226889D-04    6    2    0
 0.202260843934881D+03 0.000000000000000D+00 0.000000000000000D+00 0.202260843934881D+03
 0.202260843934881D+03 -.000000000000000D+00 -.000000000000000D+00 -.202260843934881D+03
 0.160038027658187D+03 -.422607501838629D+02 0.980582864522968D+01 0.145705336261923D+03
 0.505361377141510D+02 0.144687951006751D+02 -.145528915853701D+02 0.461819069539444D+02
 0.193947522497425D+03 0.277919550831878D+02 0.474706294014042D+01 -.191887243215868D+03
 0.000000000000000D+00 0.000000000000000D+00 0.000000000000000D+00 0.000000000000000D+00
 0.202260843934881D+03 0.000000000000000D+00 0.000000000000000D+00 0.202260843934881D+03
 0.202260843934881D+03 -.000000000000000D+00 -.000000000000000D+00 -.202260843934881D+03
 0.158843286322549D+03 -.420779634520532D+02 0.983704991476348D+01 0.144443300469248D+03
 0.501859390575866D+02 0.145265302467216D+02 -.145430300131518D+02 0.457832794382343D+02
 0.122207656100771D+03 0.765016521476790D+01 0.170062112391929D+02 -.120776549715244D+03
 0.732848063888566D+02 0.199012679905636D+02 -.123002311408046D+02 -.694500301922378D+02
0.163452558124D-05 0.000000000000D+00 0.000000000000D+00 0.777033125029D-05 0.000000000000D+00  6 22 1 9900012 13 2 21 0 0.54925707D-01 0.17628739D-01 0.33012837D+04 0.33012837D+04 0.33012837D+04 0.12626668D+01  1  2  2  2  6  5        2 0.179279486724D-04 0.100000000000D+01
0.159839671741D-06 0.000000000000D+00 -.313850430621D-08 0.777033125029D-05 0.000000000000D+00  6 22 1 9900012 13 2 21 2 0.54925707D-01 0.17628739D-01 0.33012837D+04 0.33012837D+04 0.33012837D+04 0.12626668D+01  1  2  3  2  6  5        2 0.279512322180D-05 0.100000000000D+01
-.229492301957D-06 0.000000000000D+00 0.000000000000D+00 0.777033125029D-05 0.000000000000D+00  6 22 1 9900012 13 2 21 2 0.54925707D-01 0.17628739D-01 0.33012837D+04 0.33012837D+04 0.33012837D+04 0.12626668D+01  1  2 15  2  6  5        2 -.401314176535D-05 0.100000000000D+01
-.609436975195D-06 0.000000000000D+00 0.000000000000D+00 0.777033125029D-05 0.000000000000D+00  6 22 1 9900012 13 2 21 2 0.54925707D-01 0.17628739D-01 0.33012837D+04 0.33012837D+04 0.33012837D+04 0.12626668D+01  1  2  4  2  6  5        2 -.106572506252D-04 0.100000000000D+01
-.622446104937D-05 0.000000000000D+00 0.000000000000D+00 0.777033125029D-05 0.000000000000D+00  6 22 1 9900012 13 2 21 2 0.54925707D-01 0.17628739D-01 0.33012837D+04 0.33012837D+04 0.33012837D+04 0.12626668D+01  1  2  5  2  6  5        2 -.108847418371D-03 0.100000000000D+01
0.897504553805D-05 0.000000000000D+00 -.000000000000D+00 0.777033125029D-05 0.000000000000D+00  6 22 1 9900012 13 2 21 2 0.54925707D-01 0.17628739D-01 0.33012837D+04 0.33012837D+04 0.33012837D+04 0.12626668D+01  1  2  6  2  6  5        2 0.156947007754D-03 0.100000000000D+01
  </mgrwgt>
  </event>
  <event>
  6     66 0.15202802E-05 0.88721405E+02 0.78161638E-02 0.96751969E-01
       22 -1    0    0    0    0 0.00000000E+00 0.00000000E+00 0.55268812E+03 0.55268812E+03 0.00000000E+00 0.0000E+00 0.9000E+01
        1 -1    0    0  501    0 0.00000000E+00 0.00000000E+00 -.30910693E+03 0.30910693E+03 0.00000000E+00 0.0000E+00 0.9000E+01
      -24  2    1    2    0    0 0.24963058E+02 0.85137145E+02 0.53959541E+03 0.55277093E+03 0.80752753E+02 0.0000E+00 0.0000E+00
  9900012  1    3    3    0    0 0.26478282E+02 0.60020561E+02 0.49264992E+03 0.49950727E+03 0.50000000E+02 0.0000E+00 0.9000E+01
       13  1    3    3    0    0 -.15152248E+01 0.25116583E+02 0.46945489E+02 0.53263662E+02 0.00000000E+00 0.0000E+00 0.9000E+01
        2  1    1    2  501    0 -.24963058E+02 -.85137145E+02 -.29601422E+03 0.30902412E+03 0.00000000E+00 0.0000E+00 0.9000E+01
#aMCatNLO 1  0  0  5  2 0.42280477D+02 0.00000000D+00  -5  6  0 0.00000000D+00 0.00000000D+00 0.00000000D+00 0.00000000D+00 0.00000000D+00
  <mgrwgt>
 0.3670439635D-03    3    2    0
 0.413327627029479D+03 0.000000000000000D+00 0.000000000000000D+00 0.413327627029479D+03
 0.413327627029479D+03 -.000000000000000D+00 -.000000000000000D+00 -.413327627029479D+03
 0.375576922553410D+03 0.264782822993395D+02 0.600205614011921D+02 0.366407502011425D+03
 0.416949164721058D+02 -.151522476047619D+01 0.251165833803450D+02 0.332464643659938D+02
 0.409383415033443D+03 -.249630575388633D+02 -.851371447815372D+02 -.399653966377419D+03
 0.000000000000000D+00 0.000000000000000D+00 0.000000000000000D+00 0.000000000000000D+00
 0.413327627029479D+03 0.000000000000000D+00 0.000000000000000D+00 0.413327627029479D+03
 0.413327627029479D+03 -.000000000000000D+00 -.000000000000000D+00 -.413327627029479D+03
 0.870510362769456D+02 0.801073875693979D+01 -.296346713300689D+01 0.707455217240625D+02
 0.181139873274485D+02 -.390272321157281D+01 0.169739589850658D+02 -.497694733808996D+01
 0.353277928498094D+03 -.138117156432588D+03 0.324892940252366D+03 -.131728219092426D+02
 0.368212301956470D+03 0.134009140887221D+03 -.338903432104425D+03 -.525957524767296D+02
0.287053549405D-03 0.000000000000D+00 0.000000000000D+00 0.142451442666D-03 0.000000000000D+00  6 22 1 9900012 13 2 21 0 0.85028941D-01 0.47554912D-01 0.96400380D+04 0.96400380D+04 0.96400380D+04 0.12109837D+01  1  2  2  2  6  5        2 0.453429565237D-03 0.100000000000D+01
0.393245229763D-05 0.000000000000D+00 -.551180606325D-06 0.142451442666D-03 0.000000000000D+00  6 22 1 9900012 13 2 21 2 0.85028941D-01 0.47554912D-01 0.96400380D+04 0.96400380D+04 0.96400380D+04 0.12109837D+01  1  2  3  2  6  5        2 0.910934062064D-05 0.100000000000D+01
-.412246419422D-04 0.000000000000D+00 0.000000000000D+00 0.142451442666D-03 0.000000000000D+00  6 22 1 9900012 13 2 21 2 0.85028941D-01 0.47554912D-01 0.96400380D+04 0.96400380D+04 0.96400380D+04 0.12109837D+01  1  2 15  2  6  5        2 -.954949423397D-04 0.100000000000D+01
  </mgrwgt>
  </event>
  <event>
  6     66 0.15202802E-05 0.39018962E+02 0.78161638E-02 0.12435957E+00
       22 -1    0    0    0    0 0.00000000E+00 0.00000000E+00 0.16811676E+02 0.16811676E+02 0.00000000E+00 0.0000E+00 0.9000E+01
        1 -1    0    0  501    0 -.00000000E+00 -.00000000E+00 -.40156809E+03 0.40156809E+03 0.00000000E+00 0.0000E+00 0.9000E+01
      -24  2    1    2    0    0 -.32373727E+02 -.21781212E+02 -.93724115E+02 0.12474346E+03 0.72486152E+02 0.0000E+00 0.0000E+00
  9900012  1    3    3    0    0 -.20451762E+02 -.34015677E+02 -.82452400E+02 0.10427722E+03 0.50000000E+02 0.0000E+00 0.9000E+01
       13  1    3    3    0    0 -.11921966E+02 0.12234466E+02 -.11271715E+02 0.20466240E+02 0.00000000E+00 0.0000E+00 0.9000E+01
        2  1    1    2  501    0 0.32373727E+02 0.21781212E+02 -.29103230E+03 0.29363630E+03 0.00000000E+00 0.0000E+00 0.9000E+01
#aMCatNLO 1  0  0  5  2 0.14054336D+02 0.00000000D+00  -5  6  0 0.00000000D+00 0.00000000D+00 0.00000000D+00 0.00000000D+00 0.00000000D+00
  <mgrwgt>
 0.6414598769D-04    7    2    0
 0.821646667990224D+02 0.000000000000000D+00 0.000000000000000D+00 0.821646667990224D+02
 0.821646667990224D+02 -.000000000000000D+00 -.000000000000000D+00 -.821646667990224D+02
 0.724361857584817D+02 -.204517616864490D+02 -.340156773069556D+02 0.342295215933122D+02
 0.257154084147562D+02 -.119219655271052D+02 0.122344657484067D+02 0.192215196006791D+02
 0.661777394248069D+02 0.323737272135542D+02 0.217812115585488D+02 -.534510411939914D+02
 0.000000000000000D+00 0.000000000000000D+00 0.000000000000000D+00 -.000000000000000D+00
 0.821646667990224D+02 0.000000000000000D+00 0.000000000000000D+00 0.821646667990224D+02
 0.821646667990224D+02 -.000000000000000D+00 -.000000000000000D+00 -.821646667990224D+02
 0.694246174813878D+02 -.182070643999470D+02 -.325054333316579D+02 0.305233864814235D+02
 0.246469760214716D+02 -.111250695198647D+02 0.127706215147591D+02 0.179057946293356D+02
 0.576437878082176D+02 0.327096415682712D+02 0.272398682678351D+02 -.388699781078538D+02
 0.126139522869678D+02 -.337750764845955D+01 -.750505645093641D+01 -.955920300290532D+01
0.162806733267D-06 0.000000000000D+00 0.000000000000D+00 0.198162914368D-07 0.000000000000D+00  6 22 1 9900012 13 2 21 0 0.25864116D-02 0.61779706D-01 0.35963987D+04 0.35963987D+04 0.35963987D+04 0.12582846D+01  1  2  2  2  6  5        2 0.319153214458D-04 0.100000000000D+01
0.340804970154D-08 0.000000000000D+00 -.312610361872D-09 0.198162914368D-07 0.000000000000D+00  6 22 1 9900012 13 2 21 2 0.25864116D-02 0.61779706D-01 0.35963987D+04 0.35963987D+04 0.35963987D+04 0.12582846D+01  1  2  3  2  6  5        2 0.105776823373D-05 0.100000000000D+01
-.244433344632D-07 0.000000000000D+00 0.000000000000D+00 0.198162914368D-07 0.000000000000D+00  6 22 1 9900012 13 2 21 2 0.25864116D-02 0.61779706D-01 0.35963987D+04 0.35963987D+04 0.35963987D+04 0.12582846D+01  1  2 15  2  6  5        2 -.758656269300D-05 0.100000000000D+01
0.119809775623D-06 0.000000000000D+00 0.000000000000D+00 0.198162914368D-07 0.000000000000D+00  6 22 1 9900012 13 2 21 2 0.25864116D-02 0.61779706D-01 0.42307396D+04 0.42307396D+04 0.42307396D+04 0.12500994D+01  1  2 12  2  6  5        2 0.372373511444D-04 0.100000000000D+01
-.182228779473D-07 0.000000000000D+00 0.000000000000D+00 0.198162914368D-07 0.000000000000D+00  6 22 1 9900012 13 2 21 2 0.25864116D-02 0.61779706D-01 0.35963987D+04 0.35963987D+04 0.35963987D+04 0.12582846D+01  1  2  4  2  6  5        2 -.565589797914D-05 0.100000000000D+01
-.110987947852D-06 0.000000000000D+00 0.000000000000D+00 0.198162914368D-07 0.000000000000D+00  6 22 1 9900012 13 2 21 2 0.25864116D-02 0.61779706D-01 0.35963987D+04 0.35963987D+04 0.35963987D+04 0.12582846D+01  1  2  5  2  6  5        2 -.344477152172D-04 0.100000000000D+01
0.134114948343D-06 0.000000000000D+00 -.000000000000D+00 0.198162914368D-07 0.000000000000D+00  6 22 1 9900012 13 2 21 2 0.25864116D-02 0.61779706D-01 0.35963987D+04 0.35963987D+04 0.35963987D+04 0.12582846D+01  1  2  6  2  6  5        2 0.416257227589D-04 0.100000000000D+01
  </mgrwgt>
  </event>
  <event>
  7     66 -.15202802E-05 0.56663148E+02 0.78161638E-02 0.11888782E+00
       22 -1    0    0    0    0 0.00000000E+00 0.00000000E+00 0.12514172E+04 0.12514172E+04 0.00000000E+00 0.0000E+00 0.9000E+01
        1 -1    0    0  501    0 0.00000000E+00 0.00000000E+00 -.17278968E+03 0.17278968E+03 0.00000000E+00 0.0000E+00 0.9000E+01
      -24  2    1    2    0    0 -.19822365E+02 0.61202998E+02 0.12321053E+04 0.12360146E+04 0.74227862E+02 0.0000E+00 0.0000E+00
  9900012  1    3    3    0    0 -.25073205E+02 0.36710050E+02 0.66521322E+03 0.66856931E+03 0.50000000E+02 0.0000E+00 0.9000E+01
       13  1    3    3    0    0 0.52508399E+01 0.24492948E+02 0.56689209E+03 0.56744526E+03 0.00000000E+00 0.0000E+00 0.9000E+01
        2  1    1    2  502    0 0.35148917E+02 -.54669318E+02 -.15806978E+03 0.17091003E+03 0.00000000E+00 0.0000E+00 0.9000E+01
       21  1    1    2  501  502 -.15326552E+02 -.65336807E+01 0.45920305E+01 0.17282329E+02 0.00000000E+00 0.0000E+00 0.9000E+01
#aMCatNLO 2  0  0  5  2 0.18283598D+02 0.00000000D+00  -5  6  0 0.00000000D+00 0.00000000D+00 0.00000000D+00 0.00000000D+00 0.00000000D+00
  <mgrwgt>
 -.8673900365D-03    3    2    0
 0.465007511764712D+03 0.000000000000000D+00 0.000000000000000D+00 0.465007511764712D+03
 0.465007511764712D+03 -.000000000000000D+00 -.000000000000000D+00 -.465007511764712D+03
 0.254561199346418D+03 -.251722513067221D+02 0.370158629401917D+02 0.245555671625868D+03
 0.213408509475367D+03 0.516781271016092D+01 0.247493006549546D+02 0.211905539676010D+03
 0.462045314707638D+03 0.200044385965612D+02 -.617651635951462D+02 -.457461211301878D+03
 0.000000000000000D+00 0.000000000000000D+00 0.000000000000000D+00 -.000000000000000D+00
 0.465007511764712D+03 0.000000000000000D+00 0.000000000000000D+00 0.465007511764712D+03
 0.465007511764712D+03 -.000000000000000D+00 -.000000000000000D+00 -.465007511764712D+03
 0.252322511849614D+03 -.250732050509345D+02 0.367100503995059D+02 0.243290683286965D+03
 0.211495538819211D+03 0.525083994919623D+01 0.244929479971624D+02 0.210006873979555D+03
 0.445056967488633D+03 0.351489166827072D+02 -.546693176518661D+02 -.440285729582154D+03
 0.211400053719651D+02 -.153265515809690D+02 -.653368074480214D+01 -.130118276843653D+02
-.101652355306D-02 0.000000000000D+00 0.000000000000D+00 0.194601234033D-04 0.000000000000D+00  6 22 1 9900012 13 2 21 2 0.19252573D+00 0.26583028D-01 0.75350533D+04 0.75350533D+04 0.75350533D+04 0.12222882D+01  1  2 13  2  6  5        2 -.878467841263D-03 0.100000000000D+01
-.187257660990D-04 0.000000000000D+00 0.000000000000D+00 0.194601234033D-04 0.000000000000D+00  6 22 1 9900012 13 2 21 2 0.19252573D+00 0.26583028D-01 0.61871959D+04 0.61871959D+04 0.61871959D+04 0.12315654D+01  1  2  8  2  6  5        2 -.162795464236D-04 0.100000000000D+01
0.316566988280D-04 0.000000000000D+00 0.000000000000D+00 0.194601234033D-04 0.106826278840D-07  6 22 1 9900012 13 2 21 2 0.19252573D+00 0.26583028D-01 0.75350533D+04 0.75350533D+04 0.75350533D+04 0.12222882D+01  1  2  1  2  6  5        2 0.273573512363D-04 0.100000000000D+01
  </mgrwgt>
  </event>
  <event>
  7     66 -.15202802E-05 0.13540707E+02 0.78161638E-02 0.13212031E+00
       22 -1    0    0    0    0 0.00000000E+00 0.00000000E+00 0.36887171E+02 0.36887171E+02 0.00000000E+00 0.0000E+00 0.9000E+01
        1 -1    0    0  502    0 0.00000000E+00 0.00000000E+00 -.12872324E+03 0.12872324E+03 0.00000000E+00 0.0000E+00 0.9000E+01
      -24  2    1    2    0    0 0.56904373E+01 -.10987474E+02 -.16271028E+02 0.82819349E+02 0.80257041E+02 0.0000E+00 0.0000E+00
  9900012  1    3    3    0    0 0.15645474E+02 0.45645483E+01 -.29318461E+02 0.60209535E+02 0.50000000E+02 0.0000E+00 0.9000E+01
       13  1    3    3    0    0 -.99550368E+01 -.15552023E+02 0.13047433E+02 0.22609814E+02 0.00000000E+00 0.0000E+00 0.9000E+01
        2  1    1    2  501    0 -.49090378E+01 0.14568505E+02 -.77244399E+02 0.78759362E+02 0.00000000E+00 0.0000E+00 0.9000E+01
       21  1    1    2  502  501 -.78139952E+00 -.35810308E+01 0.16793574E+01 0.40317004E+01 0.00000000E+00 0.0000E+00 0.9000E+01
#aMCatNLO 2  0  0  2  5 0.11280663D+02 0.00000000D+00  -5  6  0 0.00000000D+00 0.00000000D+00 0.00000000D+00 0.00000000D+00 0.00000000D+00
  <mgrwgt>
 -.3528714313D-04    3    2    0
 0.658580112073989D+02 0.000000000000000D+00 0.000000000000000D+00 0.658580112073989D+02
 0.658580112073989D+02 0.000000000000000D+00 0.000000000000000D+00 -.658580112073989D+02
 0.528278900174621D+02 0.153315532310225D+02 0.312589823808868D+01 0.677924770358098D+01
 0.374811805326054D+02 -.101758777165503D+02 -.165641016174561D+02 0.320456072562553D+02
 0.414069518647303D+02 -.515567551447215D+01 0.134382033793674D+02 -.388248549598363D+02
 0.000000000000000D+00 -.000000000000000D+00 -.000000000000000D+00 0.000000000000000D+00
 0.714116616805955D+02 0.000000000000000D+00 0.000000000000000D+00 0.714116616805955D+02
 0.664910477855907D+02 0.000000000000000D+00 0.000000000000000D+00 -.664910477855907D+02
 0.530242789822618D+02 0.156454741428384D+02 0.456454828082665D+01 0.677924770358098D+01
 0.369849849503984D+02 -.995503683261981D+01 -.155520226665284D+02 0.320456072562553D+02
 0.417577460791999D+02 -.490903779267428D+01 0.145685051708369D+02 -.388248549598363D+02
 0.613569945432620D+01 -.781399517544328D+00 -.358103078513519D+01 0.492061389500481D+01
-.820488335716D-07 0.000000000000D+00 0.000000000000D+00 0.361281608712D-06 0.000000000000D+00  6 22 1 9900012 13 2 21 2 0.52336113D-02 0.21473564D-01 0.20291913D+04 0.20291913D+04 0.20291913D+04 0.12885157D+01  1  2 13  1  6  2        1 -.356552841053D-04 0.100000000000D+01
-.228968870220D-10 0.000000000000D+00 0.000000000000D+00 0.361281608712D-06 0.000000000000D+00  6 22 1 9900012 13 2 21 2 0.52336113D-02 0.19615033D-01 0.18586656D+04 0.18586656D+04 0.18586656D+04 0.12933562D+01  1  2  8  1  6  2        1 -.110881505915D-07 0.100000000000D+01
0.882292463610D-09 0.000000000000D+00 0.000000000000D+00 0.361281608712D-06 0.742670327185D-09  6 22 1 9900012 13 2 21 2 0.56749494D-02 0.19803576D-01 0.20291913D+04 0.20291913D+04 0.20291913D+04 0.12885157D+01  1  2  1  1  6  2        1 0.379229124966D-06 0.100000000000D+01
  </mgrwgt>
  </event>
  <event>
  6     66 0.15202802E-05 0.72371847E+02 0.78161638E-02 0.10481792E+00
       22 -1    0    0    0    0 0.00000000E+00 0.00000000E+00 0.73921305E+02 0.73921305E+02 0.00000000E+00 0.0000E+00 0.9000E+01
        1 -1    0    0  501    0 0.00000000E+00 0.00000000E+00 -.87966796E+03 0.87966796E+03 0.00000000E+00 0.0000E+00 0.9000E+01
      -24  2    1    2    0    0 -.39234947E+02 -.60813676E+02 0.31777362E+02 0.11294418E+03 0.80677769E+02 0.0000E+00 0.0000E+00
  9900012  1    3    3    0    0 -.27219652E+02 -.65415263E+02 0.42148205E+02 0.96418552E+02 0.50000000E+02 0.0000E+00 0.9000E+01
       13  1    3    3    0    0 -.12015295E+02 0.46015873E+01 -.10370843E+02 0.16525626E+02 0.00000000E+00 0.0000E+00 0.9000E+01
        2  1    1    2  501    0 0.39234947E+02 0.60813676E+02 -.83752402E+03 0.84064509E+03 0.00000000E+00 0.0000E+00 0.9000E+01
#aMCatNLO 1  0  0  2  2 0.14782053D-02 0.00000000D+00  -5  6  0 0.00000000D+00 0.00000000D+00 0.00000000D+00 0.00000000D+00 0.00000000D+00
  <mgrwgt>
 0.4088985887D-03    6    2    0
 0.255002360532696D+03 0.000000000000000D+00 0.000000000000000D+00 0.255002360532696D+03
 0.255002360532696D+03 0.000000000000000D+00 0.000000000000000D+00 -.255002360532696D+03
 0.246869227556211D+03 -.272196517186304D+02 -.654152630606965D+02 0.231137079312724D+03
 0.145143507518838D+02 -.120152952052694D+02 0.460158728397242D+01 0.671747373250703D+01
 0.248621142757298D+03 0.392349469238998D+02 0.608136757767241D+02 -.237854553045231D+03
 0.000000000000000D+00 -.000000000000000D+00 0.000000000000000D+00 -.000000000000000D+00
 0.314765957267743D+03 0.000000000000000D+00 0.000000000000000D+00 0.314765957267743D+03
 0.431410318062799D+03 0.000000000000000D+00 0.000000000000000D+00 -.431410318062799D+03
 0.266336680791360D+03 0.404234025781482D+02 -.115658231984355D+03 0.231137079312724D+03
 0.111375050467274D+02 -.863425487355243D+01 0.209026507828390D+01 0.671747373250703D+01
 0.260788667744349D+03 0.106377656917289D+03 0.109423456495047D+02 -.237854553045231D+03
 0.207913421748105D+03 -.138166804621884D+03 0.102625621256567D+03 -.116644360795056D+03
0.447919447013D-04 0.000000000000D+00 0.000000000000D+00 0.356325526256D-04 0.000000000000D+00  6 22 1 9900012 13 2 21 0 0.11372509D-01 0.13533353D+00 0.73922570D+04 0.73922570D+04 0.73922570D+04 0.12231796D+01  1  2  2  1  6  2        1 0.405803709440D-03 0.100000000000D+01
0.834915331139D-06 0.000000000000D+00 -.860064308215D-07 0.356325526256D-04 0.000000000000D+00  6 22 1 9900012 13 2 21 2 0.11372509D-01 0.13533353D+00 0.73922570D+04 0.73922570D+04 0.73922570D+04 0.12231796D+01  1  2  3  1  6  2        1 0.113172004464D-04 0.100000000000D+01
-.678189837621D-05 0.000000000000D+00 0.000000000000D+00 0.356325526256D-04 0.000000000000D+00  6 22 1 9900012 13 2 21 2 0.11372509D-01 0.13533353D+00 0.73922570D+04 0.73922570D+04 0.73922570D+04 0.12231796D+01  1  2 15  1  6  2        1 -.919280081084D-04 0.100000000000D+01
0.472276678289D-05 0.000000000000D+00 -.125944333170D-04 0.356325526256D-04 0.000000000000D+00  6 22 1 9900012 13 2 21 2 0.11372509D-01 0.25586087D+00 0.73922570D+04 0.73922570D+04 0.73922570D+04 0.12231796D+01  1  2  5  1  6  2        1 0.186930206798D-04 0.100000000000D+01
0.453171250260D-05 0.000000000000D+00 0.104106493297D-04 0.356325526256D-04 0.000000000000D+00  6 22 1 9900012 13 2 21 2 0.11372509D-01 0.13533353D+00 0.73922570D+04 0.73922570D+04 0.73922570D+04 0.12231796D+01  1  2  6  1  6  2        1 0.614269457569D-04 0.100000000000D+01
0.104212588275D-05 0.000000000000D+00 -.872129854422D-06 0.356325526256D-04 0.000000000000D+00  6 22 21 9900012 13 2 -1 2 0.11372509D-01 0.25586087D+00 0.73922570D+04 0.73922570D+04 0.73922570D+04 0.12231796D+01  1  2  5  3  6  2        1 0.358572052322D-05 0.100000000000D+01
  </mgrwgt>
  </event>
  <event>
  6     66 0.15202802E-05 0.54189054E+02 0.78161638E-02 0.11982826E+00
       22 -1    0    0    0    0 0.00000000E+00 0.00000000E+00 0.71690917E+03 0.71690917E+03 0.00000000E+00 0.0000E+00 0.9000E+01
        1 -1    0    0  501    0 0.00000000E+00 0.00000000E+00 -.11945850E+02 0.11945850E+02 0.00000000E+00 0.0000E+00 0.9000E+01
      -24  2    1    2    0    0 0.45488797E+02 0.45138483E+02 0.26218192E+03 0.28146025E+03 0.79836079E+02 0.0000E+00 0.0000E+00
  9900012  1    3    3    0    0 0.42786035E+02 0.95555542E+01 0.17867058E+03 0.19064399E+03 0.50000000E+02 0.0000E+00 0.9000E+01
       13  1    3    3    0    0 0.27027625E+01 0.35582929E+02 0.83511339E+02 0.90816263E+02 0.00000000E+00 0.0000E+00 0.9000E+01
        2  1    1    2  501    0 -.45488797E+02 -.45138483E+02 0.44278140E+03 0.44739477E+03 0.00000000E+00 0.0000E+00 0.9000E+01
#aMCatNLO 1  0  0  5  2 0.32253421D+01 0.00000000D+00  -5  6  0 0.00000000D+00 0.00000000D+00 0.00000000D+00 0.00000000D+00 0.00000000D+00
  <mgrwgt>
 0.8513505406D-04    6    2    0
 0.925423673713031D+02 0.000000000000000D+00 0.000000000000000D+00 0.925423673713031D+02
 0.925423673713031D+02 -.000000000000000D+00 -.000000000000000D+00 -.925423673713031D+02
 0.702144421601893D+02 0.427860346626269D+02 0.955555419115697D+01 -.225413954717742D+02
 0.395465239949831D+02 0.270276245847368D+01 0.355829287226519D+02 -.170434098318827D+02
 0.753237685874338D+02 -.454887971211006D+02 -.451384829138088D+02 0.395848053036569D+02
 0.000000000000000D+00 0.000000000000000D+00 0.000000000000000D+00 0.000000000000000D+00
 0.925423673713031D+02 0.000000000000000D+00 0.000000000000000D+00 0.925423673713031D+02
 0.925423673713031D+02 -.000000000000000D+00 -.000000000000000D+00 -.925423673713031D+02
 0.698125464143707D+02 0.423916285858525D+02 0.916418547876417D+01 -.221981793669797D+02
 0.392505582568791D+02 0.248081918604747D+01 0.353626946596676D+02 -.168502725808787D+02
 0.319573122753307D+01 -.226445926238536D+01 -.163510219965057D+01 -.155285644034679D+01
 0.728258988438233D+02 -.426079885095147D+02 -.428917779387812D+02 0.406013083882051D+02
0.153709370569D-05 0.000000000000D+00 0.000000000000D+00 0.194459149714D-06 0.000000000000D+00  6 22 1 9900012 13 2 21 0 0.11029372D+00 0.18378231D-02 0.69111655D+04 0.69111655D+04 0.69111655D+04 0.12263305D+01  1  2  2  2  6  5        2 0.998369401948D-04 0.100000000000D+01
-.933350061558D-07 0.000000000000D+00 -.295142227796D-08 0.194459149714D-06 0.000000000000D+00  6 22 1 9900012 13 2 21 2 0.11029372D+00 0.18378231D-02 0.69111655D+04 0.69111655D+04 0.69111655D+04 0.12263305D+01  1  2  3  2  6  5        2 -.911696976629D-05 0.100000000000D+01
-.148800650159D-06 0.000000000000D+00 0.000000000000D+00 0.194459149714D-06 0.000000000000D+00  6 22 1 9900012 13 2 21 2 0.11029372D+00 0.18378231D-02 0.69111655D+04 0.69111655D+04 0.69111655D+04 0.12263305D+01  1  2 15  2  6  5        2 -.145348576550D-04 0.100000000000D+01
0.678301251124D-08 0.000000000000D+00 0.000000000000D+00 0.194459149714D-06 0.000000000000D+00  6 22 1 9900012 13 2 21 2 0.11029372D+00 0.18378231D-02 0.67971665D+04 0.67971665D+04 0.67971665D+04 0.12271130D+01  1  2 12  2  6  5        2 0.662201623794D-06 0.100000000000D+01
-.207599284193D-06 0.000000000000D+00 0.000000000000D+00 0.194459149714D-06 0.000000000000D+00  6 22 1 9900012 13 2 21 2 0.11029372D+00 0.18378231D-02 0.69111655D+04 0.69111655D+04 0.69111655D+04 0.12263305D+01  1  2  5  2  6  5        2 -.202783122372D-04 0.100000000000D+01
0.292605575781D-06 0.000000000000D+00 0.000000000000D+00 0.194459149714D-06 0.354320552587D-08  6 22 1 9900012 13 2 21 2 0.11029372D+00 0.18378231D-02 0.67971665D+04 0.67971665D+04 0.67971665D+04 0.12271130D+01  1  2 11  2  6  5        2 0.285660518969D-04 0.100000000000D+01
  </mgrwgt>
  </event>
  <event>
  6     66 0.15202802E-05 0.11891540E+02 0.78161638E-02 0.12608921E+00
       22 -1    0    0    0    0 0.00000000E+00 0.00000000E+00 0.44430935E+01 0.44430935E+01 0.00000000E+00 0.0000E+00 0.9000E+01
        1 -1    0    0  501    0 -.00000000E+00 -.00000000E+00 -.92227483E+03 0.92227483E+03 0.00000000E+00 0.0000E+00 0.9000E+01
      -24  2    1    2    0    0 -.10843685E+02 0.48809050E+01 -.39197792E+03 0.40072967E+03 0.82438876E+02 0.0000E+00 0.0000E+00
  9900012  1    3    3    0    0 0.16434395E+02 -.75390938E+01 -.23889825E+03 0.24474334E+03 0.50000000E+02 0.0000E+00 0.9000E+01
       13  1    3    3    0    0 -.27278080E+02 0.12419999E+02 -.15307967E+03 0.15598633E+03 0.00000000E+00 0.0000E+00 0.9000E+01
        2  1    1    2  501    0 0.10843685E+02 -.48809050E+01 -.52585382E+03 0.52598825E+03 0.00000000E+00 0.0000E+00 0.9000E+01
#aMCatNLO 1  0  0  5  2 0.47382069D+00 0.00000000D+00  -5  6  0 0.00000000D+00 0.00000000D+00 0.00000000D+00 0.00000000D+00 0.00000000D+00
  <mgrwgt>
 0.1622129423D-03    4    2    0
 0.640136964085857D+02 0.000000000000000D+00 0.000000000000000D+00 0.640136964085857D+02
 0.640136964085857D+02 -.000000000000000D+00 -.000000000000000D+00 -.640136964085857D+02
 0.588908474347959D+02 0.164343948119503D+02 -.753909377535606D+01 0.253220189518872D+02
 0.316647011692329D+02 -.272780796791240D+02 0.124199987484254D+02 0.102128987190364D+02
 0.374718442131425D+02 0.108436848671738D+02 -.488090497306931D+01 -.355349176709236D+02
 0.000000000000000D+00 0.000000000000000D+00 0.000000000000000D+00 0.000000000000000D+00
 0.640136964085857D+02 0.000000000000000D+00 0.000000000000000D+00 0.640136964085857D+02
 0.640136964085857D+02 -.000000000000000D+00 -.000000000000000D+00 -.640136964085857D+02
 0.560049479243939D+02 0.212738325320884D+02 -.971739717723626D+01 0.946310908267296D+01
 0.273262482315155D+02 -.247933671203723D+02 0.113015924102467D+02 0.207045846070344D+01
 0.236170146642859D+02 -.148926665743592D+02 0.718694452610394D+01 -.168617820035951D+02
 0.210791819969760D+02 0.184122011626431D+02 -.877113975911441D+01 0.532821446021870D+01
0.460530705501D-06 0.000000000000D+00 0.000000000000D+00 0.642537010244D-07 0.000000000000D+00  6 22 1 9900012 13 2 21 0 0.68355285D-03 0.14188844D+00 0.22578123D+04 0.22578123D+04 0.22578123D+04 0.12827064D+01  1  2  2  2  6  5        2 0.159217696362D-03 0.100000000000D+01
0.678903011653D-07 0.000000000000D+00 -.884279584821D-09 0.642537010244D-07 0.000000000000D+00  6 22 1 9900012 13 2 21 2 0.68355285D-03 0.14188844D+00 0.22578123D+04 0.22578123D+04 0.22578123D+04 0.12827064D+01  1  2  3  2  6  5        2 0.386184648316D-04 0.100000000000D+01
-.614399196272D-07 0.000000000000D+00 0.000000000000D+00 0.642537010244D-07 0.000000000000D+00  6 22 1 9900012 13 2 21 2 0.68355285D-03 0.14188844D+00 0.22578123D+04 0.22578123D+04 0.22578123D+04 0.12827064D+01  1  2 15  2  6  5        2 -.349492539384D-04 0.100000000000D+01
-.118481356403D-08 0.000000000000D+00 0.000000000000D+00 0.642537010244D-07 0.000000000000D+00  6 22 1 9900012 13 2 21 2 0.68355285D-03 0.14188844D+00 0.22578123D+04 0.22578123D+04 0.22578123D+04 0.12827064D+01  1  2  4  2  6  5        2 -.673964913535D-06 0.100000000000D+01
  </mgrwgt>
  </event>
  <event>
  6     66 0.15202802E-05 0.47621020E+02 0.78161638E-02 0.11886972E+00
       22 -1    0    0    0    0 0.00000000E+00 0.00000000E+00 0.35955622E+02 0.35955622E+02 0.00000000E+00 0.0000E+00 0.9000E+01
        1 -1    0    0  501    0 -.00000000E+00 -.00000000E+00 -.29756707E+03 0.29756707E+03 0.00000000E+00 0.0000E+00 0.9000E+01
      -24  2    1    2    0    0 0.52768147E+02 0.41762934E+02 -.59492237E+02 0.12049501E+03 0.80318741E+02 0.0000E+00 0.0000E+00
  9900012  1    3    3    0    0 0.91511745E+01 0.20945843E+02 -.21546373E+02 0.59048442E+02 0.50000000E+02 0.0000E+00 0.9000E+01
       13  1    3    3    0    0 0.43616973E+02 0.20817091E+02 -.37945863E+02 0.61446563E+02 0.00000000E+00 0.0000E+00 0.9000E+01
        2  1    1    2  501    0 -.52768147E+02 -.41762934E+02 -.20211921E+03 0.21302769E+03 0.00000000E+00 0.0000E+00 0.9000E+01
#aMCatNLO 1  0  0  5  2 0.16898761D+02 0.00000000D+00  -5  6  0 0.00000000D+00 0.00000000D+00 0.00000000D+00 0.00000000D+00 0.00000000D+00
  <mgrwgt>
 0.2585223252D-03    4    2    0
 0.103436982015324D+03 0.000000000000000D+00 0.000000000000000D+00 0.103436982015324D+03
 0.103436982015324D+03 -.000000000000000D+00 -.000000000000000D+00 -.103436982015324D+03
 0.679506368316495D+02 0.915117448923352D+01 0.209458431264963D+02 0.399351562788294D+02
 0.510782060129802D+02 0.436169726277429D+02 0.208170909218594D+02 0.165285073084720D+02
 0.878451211860176D+02 -.527681471169764D+02 -.417629340483557D+02 -.564636635873014D+02
 0.000000000000000D+00 0.000000000000000D+00 0.000000000000000D+00 0.000000000000000D+00
 0.103436982015324D+03 0.000000000000000D+00 0.000000000000000D+00 0.103436982015324D+03
 0.103436982015324D+03 -.000000000000000D+00 -.000000000000000D+00 -.103436982015324D+03
 0.650627129668190D+02 0.616520754525896D+01 0.185826231279745D+02 0.367400728389346D+02
 0.477241501637908D+02 0.413989954850153D+02 0.190616903972370D+02 0.141551983697731D+02
 0.119115760214963D+02 0.805724619409133D+01 -.851341843105388D+01 0.211852158390666D+01
 0.821755248785412D+02 -.556214492243656D+02 -.291308950941576D+02 -.530137927926144D+02
0.238465827374D-05 0.000000000000D+00 0.000000000000D+00 0.914641585886D-06 0.000000000000D+00  6 22 1 9900012 13 2 21 0 0.55316342D-02 0.45779549D-01 0.72762663D+04 0.72762663D+04 0.72762663D+04 0.12239180D+01  1  2  2  2  6  5        2 0.257380964818D-03 0.100000000000D+01
-.955410193646D-08 0.000000000000D+00 -.457885783304D-08 0.914641585886D-06 0.000000000000D+00  6 22 1 9900012 13 2 21 2 0.55316342D-02 0.45779549D-01 0.72762663D+04 0.72762663D+04 0.72762663D+04 0.12239180D+01  1  2  3  2  6  5        2 -.154470216502D-05 0.100000000000D+01
-.279012680455D-06 0.000000000000D+00 0.000000000000D+00 0.914641585886D-06 0.000000000000D+00  6 22 1 9900012 13 2 21 2 0.55316342D-02 0.45779549D-01 0.72762663D+04 0.72762663D+04 0.72762663D+04 0.12239180D+01  1  2 15  2  6  5        2 -.451106231053D-04 0.100000000000D+01
0.295595644637D-06 0.000000000000D+00 0.000000000000D+00 0.914641585886D-06 0.000000000000D+00  6 22 1 9900012 13 2 21 2 0.55316342D-02 0.45779549D-01 0.75501339D+04 0.75501339D+04 0.75501339D+04 0.12221951D+01  1  2 12  2  6  5        2 0.477966856472D-04 0.100000000000D+01
  </mgrwgt>
  </event>
  <event>
  7     66 -.15202802E-05 0.35094917E+02 0.78161638E-02 0.12525793E+00
       22 -1    0    0    0    0 0.00000000E+00 0.00000000E+00 0.20090232E+03 0.20090232E+03 0.00000000E+00 0.0000E+00 0.9000E+01
        1 -1    0    0  502    0 0.00000000E+00 0.00000000E+00 -.23493843E+02 0.23493843E+02 0.00000000E+00 0.0000E+00 0.9000E+01
      -24  2    1    2    0    0 -.53587094E+01 0.39896792E+02 0.14886478E+03 0.17374068E+03 0.80028947E+02 0.0000E+00 0.0000E+00
  9900012  1    3    3    0    0 0.96887258E+01 0.14398967E+02 0.59669122E+02 0.79759675E+02 0.50000000E+02 0.0000E+00 0.9000E+01
       13  1    3    3    0    0 -.15047435E+02 0.25497825E+02 0.89195658E+02 0.93981008E+02 0.00000000E+00 0.0000E+00 0.9000E+01
        2  1    1    2  501    0 0.86242763E+01 -.21671432E+02 0.16394956E+02 0.28510063E+02 0.00000000E+00 0.0000E+00 0.9000E+01
       21  1    1    2  502  501 -.32655669E+01 -.18225360E+02 0.12148745E+02 0.22145421E+02 0.00000000E+00 0.0000E+00 0.9000E+01
#aMCatNLO 2  0  0  2  5 0.21917152D+02 0.00000000D+00  -5  6  0 0.00000000D+00 0.00000000D+00 0.00000000D+00 0.00000000D+00 0.00000000D+00
  <mgrwgt>
 -.3633002964D-04    2    2    0
 0.575581358701359D+02 0.000000000000000D+00 0.000000000000000D+00 0.575581358701359D+02
 0.575581358701359D+02 0.000000000000000D+00 0.000000000000000D+00 -.575581358701359D+02
 0.519169425708354D+02 0.819911333210980D+01 0.608533452386999D+01 -.954526951967509D+01
 0.334592951188209D+02 -.160347799329525D+02 0.199873838778812D+02 0.215154537035209D+02
 0.297400340506155D+02 0.783566660084272D+01 -.260727184017512D+02 -.119701841838458D+02
 0.000000000000000D+00 -.000000000000000D+00 -.000000000000000D+00 -.000000000000000D+00
 0.637379639995615D+02 0.000000000000000D+00 0.000000000000000D+00 0.637379639995615D+02
 0.740526894930946D+02 0.000000000000000D+00 0.000000000000000D+00 -.740526894930946D+02
 0.537802364709809D+02 0.968872579788625D+01 0.143989672228516D+02 -.954526951967509D+01
 0.365988951167340D+02 -.150474351953665D+02 0.254978248040610D+02 0.215154537035209D+02
 0.262166818177964D+02 0.862427630885129D+01 -.216714317544774D+02 -.119701841838458D+02
 0.211948400871449D+02 -.326556691137100D+01 -.182253602724352D+02 -.103147254935331D+02
-.134930473395D-06 0.000000000000D+00 0.000000000000D+00 0.131486863554D-06 0.000000000000D+00  6 22 1 9900012 13 2 21 2 0.27911305D-01 0.40025077D-02 0.38671762D+04 0.38671762D+04 0.38671762D+04 0.12546065D+01  1  2 13  1  6  2        1 -.474225358767D-04 0.100000000000D+01
0.322126431086D-07 0.000000000000D+00 0.000000000000D+00 0.131486863554D-06 0.223024612106D-07  6 22 1 9900012 13 2 21 2 0.30908050D-01 0.36144374D-02 0.38671762D+04 0.38671762D+04 0.38671762D+04 0.12546065D+01  1  2  1  1  6  2        1 0.110925062327D-04 0.100000000000D+01
  </mgrwgt>
  </event>
  <event>
  6     66 0.15202802E-05 0.26143963E+02 0.78161638E-02 0.12303223E+00
       22 -1    0    0    0    0 0.00000000E+00 0.00000000E+00 0.77420673E+02 0.77420673E+02 0.00000000E+00 0.0000E+00 0.9000E+01
        3 -1    0    0  501    0 0.00000000E+00 0.00000000E+00 -.85228174E+02 0.85228174E+02 0.00000000E+00 0.0000E+00 0.9000E+01
      -24  2    1    2    0    0 0.15271232E+02 0.39466823E+02 0.41529508E+02 0.97648992E+02 0.77587273E+02 0.0000E+00 0.0000E+00
  9900012  1    3    3    0    0 0.23680998E+02 0.16745794E+02 0.11280381E+02 0.58893618E+02 0.50000000E+02 0.0000E+00 0.9000E+01
       13  1    3    3    0    0 -.84097659E+01 0.22721029E+02 0.30249127E+02 0.38755374E+02 0.00000000E+00 0.0000E+00 0.9000E+01
        4  1    1    2  501    0 -.15271232E+02 -.39466823E+02 -.49337009E+02 0.64999855E+02 0.00000000E+00 0.0000E+00 0.9000E+01
#aMCatNLO 1  0  0  2  5 0.16141066D+02 0.00000000D+00  -5  6  0 0.00000000D+00 0.00000000D+00 0.00000000D+00 0.00000000D+00 0.00000000D+00
  <mgrwgt>
 0.7677538142D-04    9    2    0
 0.812306752799126D+02 0.000000000000000D+00 0.000000000000000D+00 0.812306752799126D+02
 0.812306752799126D+02 0.000000000000000D+00 0.000000000000000D+00 -.812306752799126D+02
 0.595036952669792D+02 0.236809975959444D+02 0.167457941531333D+02 0.141236851234829D+02
 0.402538018294441D+02 -.840976592002352D+01 0.227210291610381D+02 0.321465275381001D+02
 0.627038534634019D+02 -.152712316759209D+02 -.394668233141714D+02 -.462702126615829D+02
 0.000000000000000D+00 0.000000000000000D+00 -.000000000000000D+00 -.000000000000000D+00
 0.857064113153242D+02 0.000000000000000D+00 0.000000000000000D+00 0.857064113153242D+02
 0.925258991899301D+02 0.000000000000000D+00 0.000000000000000D+00 -.925258991899301D+02
 0.590813078888934D+02 0.198707649220625D+02 0.199066612420831D+02 0.141236851234829D+02
 0.421490965645869D+02 -.110574381174160D+02 0.249174671813281D+02 0.321465275381001D+02
 0.617982331547909D+02 -.192715850576681D+02 -.361482371723829D+02 -.462702126615829D+02
 0.152036728969831D+02 0.104582582530216D+02 -.867589125102818D+01 -.681948787460591D+01
0.299289442333D-06 0.000000000000D+00 0.000000000000D+00 0.955718152083D-07 0.000000000000D+00  6 22 3 9900012 13 4 21 0 0.11910873D-01 0.13112027D-01 0.38656676D+04 0.38656676D+04 0.38656676D+04 0.12546262D+01  1  2  2  1  6  2        3 0.299437416321D-04 0.100000000000D+01
0.250281007089D-08 0.000000000000D+00 -.574675131640D-09 0.955718152083D-07 0.000000000000D+00  6 22 3 9900012 13 4 21 2 0.11910873D-01 0.13112027D-01 0.38656676D+04 0.38656676D+04 0.38656676D+04 0.12546262D+01  1  2  3  1  6  2        3 0.394158853145D-06 0.100000000000D+01
-.404302257088D-07 0.000000000000D+00 0.000000000000D+00 0.955718152083D-07 0.000000000000D+00  6 22 3 9900012 13 4 21 2 0.11910873D-01 0.13112027D-01 0.38656676D+04 0.38656676D+04 0.38656676D+04 0.12546262D+01  1  2 15  1  6  2        3 -.636721562820D-05 0.100000000000D+01
0.386909537116D-06 0.000000000000D+00 0.000000000000D+00 0.955718152083D-07 0.000000000000D+00  6 22 3 9900012 13 4 21 2 0.11910873D-01 0.15758190D-01 0.48429056D+04 0.48429056D+04 0.48429056D+04 0.12434101D+01  1  2 12  1  6  2        3 0.453321895977D-04 0.100000000000D+01
-.711209198443D-07 0.000000000000D+00 0.000000000000D+00 0.955718152083D-07 0.000000000000D+00  6 22 3 9900012 13 4 21 2 0.11910873D-01 0.13112027D-01 0.38656676D+04 0.38656676D+04 0.38656676D+04 0.12546262D+01  1  2  4  1  6  2        3 -.112005863036D-04 0.100000000000D+01
-.890908601825D-06 0.000000000000D+00 -.229301595875D-06 0.955718152083D-07 0.000000000000D+00  6 22 3 9900012 13 4 21 2 0.11910873D-01 0.15717907D-01 0.38656676D+04 0.38656676D+04 0.38656676D+04 0.12546262D+01  1  2  5  1  6  2        3 -.104140514184D-03 0.100000000000D+01
0.921017319048D-06 0.000000000000D+00 0.225585175866D-06 0.955718152083D-07 0.000000000000D+00  6 22 3 9900012 13 4 21 2 0.11910873D-01 0.13112027D-01 0.38656676D+04 0.38656676D+04 0.38656676D+04 0.12546262D+01  1  2  6  1  6  2        3 0.145047814225D-03 0.100000000000D+01
0.103734807070D-07 0.000000000000D+00 0.000000000000D+00 0.955718152083D-07 0.000000000000D+00  6 22 21 9900012 13 4 -3 2 0.11910873D-01 0.15758190D-01 0.48429056D+04 0.48429056D+04 0.48429056D+04 0.12434101D+01  1  2 12  3  6  2        3 0.207857761790D-04 0.100000000000D+01
-.213996753145D-07 0.000000000000D+00 -.608093077926D-08 0.955718152083D-07 0.000000000000D+00  6 22 21 9900012 13 4 -3 2 0.11910873D-01 0.15717907D-01 0.38656676D+04 0.38656676D+04 0.38656676D+04 0.12546262D+01  1  2  5  3  6  2        3 -.430199829495D-04 0.100000000000D+01
  </mgrwgt>
  </event>
  <event>
  6     66 0.15202802E-05 0.38600985E+02 0.78161638E-02 0.12239756E+00
       22 -1    0    0    0    0 0.00000000E+00 0.00000000E+00 0.19899527E+03 0.19899527E+03 0.00000000E+00 0.0000E+00 0.9000E+01
        3 -1    0    0  501    0 0.00000000E+00 0.00000000E+00 -.47745136E+02 0.47745136E+02 0.00000000E+00 0.0000E+00 0.9000E+01
      -24  2    1    2    0    0 -.29819713E+02 0.24511645E+02 0.17950323E+03 0.19890451E+03 0.76495493E+02 0.0000E+00 0.0000E+00
  9900012  1    3    3    0    0 -.44532840E+02 0.17286187E+02 0.14939920E+03 0.16462717E+03 0.50000000E+02 0.0000E+00 0.9000E+01
       13  1    3    3    0    0 0.14713127E+02 0.72254580E+01 0.30104032E+02 0.34277341E+02 0.00000000E+00 0.0000E+00 0.9000E+01
        4  1    1    2  501    0 0.29819713E+02 -.24511645E+02 -.28253090E+02 0.47835898E+02 0.00000000E+00 0.0000E+00 0.9000E+01
#aMCatNLO 1  0  0  2  5 0.51127626D+02 0.00000000D+00  -5  6  0 0.00000000D+00 0.00000000D+00 0.00000000D+00 0.00000000D+00 0.00000000D+00
  <mgrwgt>
 0.4965887652D-04    4    2    0
 0.974733628721510D+02 0.000000000000000D+00 0.000000000000000D+00 0.974733628721510D+02
 0.974733628721510D+02 0.000000000000000D+00 0.000000000000000D+00 -.974733628721510D+02
 0.924536022482250D+02 -.445328400615243D+02 0.172861870585180D+02 0.613651567398439D+02
 0.200278621059383D+02 0.147131271407640D+02 0.722545799994336D+01 0.115079062806944D+02
 0.824652613901387D+02 0.298197129207602D+02 -.245116450584614D+02 -.728730630205384D+02
 0.000000000000000D+00 -.000000000000000D+00 -.000000000000000D+00 0.000000000000000D+00
 0.124676515470668D+03 0.000000000000000D+00 0.000000000000000D+00 0.124676515470668D+03
 0.100563045071905D+03 0.000000000000000D+00 0.000000000000000D+00 -.100563045071905D+03
 0.890684695457341D+02 -.366345268517351D+02 0.180394359075678D+02 0.613651567398439D+02
 0.214474486513857D+02 0.165177836852669D+02 0.739756505989030D+01 0.115079062806944D+02
 0.851771160212209D+02 0.371140986169061D+02 -.238159917608261D+02 -.728730630205384D+02
 0.295465263242319D+02 -.169973554504379D+02 -.162100920663205D+01 0.241134703987628D+02
0.958302339600D-06 0.000000000000D+00 0.000000000000D+00 0.190518488264D-06 0.000000000000D+00  6 22 3 9900012 13 4 21 0 0.30614657D-01 0.73454056D-02 0.38529614D+04 0.38529614D+04 0.38529614D+04 0.12547923D+01  1  2  2  1  6  2        3 0.596455204939D-04 0.100000000000D+01
0.342151012815D-07 0.000000000000D+00 -.184006665543D-08 0.190518488264D-06 0.000000000000D+00  6 22 3 9900012 13 4 21 2 0.30614657D-01 0.73454056D-02 0.38529614D+04 0.38529614D+04 0.38529614D+04 0.12547923D+01  1  2  3  1  6  2        3 0.335302523883D-05 0.100000000000D+01
-.128191680953D-06 0.000000000000D+00 0.000000000000D+00 0.190518488264D-06 0.000000000000D+00  6 22 3 9900012 13 4 21 2 0.30614657D-01 0.73454056D-02 0.38529614D+04 0.38529614D+04 0.38529614D+04 0.12547923D+01  1  2 15  1  6  2        3 -.125625798418D-04 0.100000000000D+01
-.792961274828D-08 0.000000000000D+00 0.000000000000D+00 0.190518488264D-06 0.000000000000D+00  6 22 3 9900012 13 4 21 2 0.30614657D-01 0.73454056D-02 0.38529614D+04 0.38529614D+04 0.38529614D+04 0.12547923D+01  1  2  4  1  6  2        3 -.777089375254D-06 0.100000000000D+01
  </mgrwgt>
  </event>
  <event>
  7     66 0.15202802E-05 0.15646399E+02 0.78161638E-02 0.12477937E+00
       22 -1    0    0    0    0 0.00000000E+00 0.00000000E+00 0.14039325E+03 0.14039325E+03 0.00000000E+00 0.0000E+00 0.9000E+01
       21 -1    0    0  501  502 0.00000000E+00 0.00000000E+00 -.89832155E+02 0.89832155E+02 0.00000000E+00 0.0000E+00 0.9000E+01
      -24  2    1    2    0    0 0.92545257E+00 -.35992109E+02 0.11658023E+03 0.14560983E+03 0.79466872E+02 0.0000E+00 0.0000E+00
  9900012  1    3    3    0    0 -.13726494E+02 -.43541306E+02 0.10677185E+03 0.12642978E+03 0.50000000E+02 0.0000E+00 0.9000E+01
       13  1    3    3    0    0 0.14651946E+02 0.75491960E+01 0.98083829E+01 0.19180049E+02 0.00000000E+00 0.0000E+00 0.9000E+01
        4  1    1    2  501    0 0.11163754E+02 0.22174540E+02 -.12024474E+02 0.27584916E+02 0.00000000E+00 0.0000E+00 0.9000E+01
       -3  1    1    2    0  502 -.12089207E+02 0.13817570E+02 -.53994654E+02 0.57030666E+02 0.00000000E+00 0.0000E+00 0.9000E+01
#aMCatNLO 2  0  0  2  5 0.18519503D+02 0.00000000D+00  -5  6  0 0.00000000D+00 0.00000000D+00 0.00000000D+00 0.00000000D+00 0.00000000D+00
  <mgrwgt>
 0.7126840684D-04    2    2    0
 0.684241172387121D+02 0.000000000000000D+00 0.000000000000000D+00 0.684241172387121D+02
 0.684241172387121D+02 0.000000000000000D+00 0.000000000000000D+00 -.684241172387121D+02
 0.752488306967385D+02 -.204537224303638D+02 -.358523019688990D+02 0.381922008203106D+02
 0.162482319871740D+02 0.132061282742588D+02 0.920171890288177D+01 -.222071788960104D+01
 0.453511717935118D+02 0.724759415610504D+01 0.266505830660172D+02 -.359714829307095D+02
 0.000000000000000D+00 -.000000000000000D+00 0.000000000000000D+00 -.000000000000000D+00
 0.697917774340614D+02 0.000000000000000D+00 0.000000000000000D+00 0.697917774340614D+02
 0.180706510408572D+03 0.000000000000000D+00 0.000000000000000D+00 -.180706510408572D+03
 0.777361313627745D+02 -.137264936499830D+02 -.435413055365658D+02 0.381922008203106D+02
 0.166313402025810D+02 0.146519462248851D+02 0.754919603745113D+01 -.222071788960104D+01
 0.437068324481085D+02 0.111637540269324D+02 0.221745397796403D+02 -.359714829307095D+02
 0.112423983829169D+03 -.120892066018345D+02 0.138175697194743D+02 -.110914732974510D+03
-.127152000805D-06 0.000000000000D+00 0.000000000000D+00 0.502321783502D-06 0.000000000000D+00  6 22 21 9900012 13 4 -3 2 0.21175703D-01 0.14096572D-01 0.40561204D+04 0.40561204D+04 0.40561204D+04 0.12522076D+01  1  2 13  3  6  2        3 -.133593799859D-03 0.100000000000D+01
0.194189724637D-06 0.000000000000D+00 0.000000000000D+00 0.502321783502D-06 0.325548047359D-08  6 22 21 9900012 13 4 -3 2 0.21598962D-01 0.13820332D-01 0.40561204D+04 0.40561204D+04 0.40561204D+04 0.12522076D+01  1  2  1  3  6  2        3 0.204862206703D-03 0.100000000000D+01
  </mgrwgt>
  </event>
  <event>
  6     66 0.15202802E-05 0.67053957E+02 0.78161638E-02 0.11789670E+00
       22 -1    0    0    0    0 0.00000000E+00 0.00000000E+00 0.90540490E+02 0.90540490E+02 0.00000000E+00 0.0000E+00 0.9000E+01
        3 -1    0    0  501    0 -.00000000E+00 -.00000000E+00 -.10104287E+03 0.10104287E+03 0.00000000E+00 0.0000E+00 0.9000E+01
      -24  2    1    2    0    0 -.35120442E+02 -.67908189E+02 0.13466000E+02 0.11146189E+03 0.79984067E+02 0.0000E+00 0.0000E+00
  9900012  1    3    3    0    0 -.17185567E+02 -.15652789E+02 0.29186674E+01 0.55216593E+02 0.50000000E+02 0.0000E+00 0.9000E+01
       13  1    3    3    0    0 -.17934875E+02 -.52255401E+02 0.10547333E+02 0.56245292E+02 0.00000000E+00 0.0000E+00 0.9000E+01
        4  1    1    2  501    0 0.35120442E+02 0.67908189E+02 -.23968381E+02 0.80121476E+02 0.00000000E+00 0.0000E+00 0.9000E+01
#aMCatNLO 1  0  0  5  2 0.17663326D+02 0.00000000D+00  -5  6  0 0.00000000D+00 0.00000000D+00 0.00000000D+00 0.00000000D+00 0.00000000D+00
  <mgrwgt>
 0.1651254762D-03    7    2    0
 0.956476401987287D+02 0.000000000000000D+00 0.000000000000000D+00 0.956476401987287D+02
 0.956476401987287D+02 -.000000000000000D+00 -.000000000000000D+00 -.956476401987287D+02
 0.554599851921269D+02 -.171855672032074D+02 -.156527885629514D+02 0.595453168758971D+01
 0.569090581371396D+02 -.179348750847171D+02 -.522554008520915D+02 0.136511624244664D+02
 0.789262370681910D+02 0.351204422879245D+02 0.679081894150429D+02 -.196056941120561D+02
 0.000000000000000D+00 0.000000000000000D+00 0.000000000000000D+00 0.000000000000000D+00
 0.956476401987287D+02 0.000000000000000D+00 0.000000000000000D+00 0.956476401987287D+02
 0.956476401987287D+02 -.000000000000000D+00 -.000000000000000D+00 -.956476401987287D+02
 0.539914413018816D+02 -.154535921031490D+02 -.123038759213432D+02 0.498767102726374D+01
 0.530415733022838D+02 -.161950004938710D+02 -.488912139120478D+02 0.126798919392654D+02
 0.683982162061747D+02 0.401540747634076D+02 0.496660000083646D+02 -.244796793943550D+02
 0.158640495871174D+02 -.850548216638763D+01 0.115290898250263D+02 0.681211642782587D+01
0.157925717393D-05 0.000000000000D+00 0.000000000000D+00 0.488917968444D-06 0.000000000000D+00  6 22 3 9900012 13 4 21 0 0.13929306D-01 0.15545057D-01 0.87272303D+04 0.87272303D+04 0.87272303D+04 0.12155080D+01  1  2  2  2  6  5        4 0.103944576218D-03 0.100000000000D+01
-.440295393652D-07 0.000000000000D+00 -.303238168793D-08 0.488917968444D-06 0.000000000000D+00  6 22 3 9900012 13 4 21 2 0.13929306D-01 0.15545057D-01 0.87272303D+04 0.87272303D+04 0.87272303D+04 0.12155080D+01  1  2  3  2  6  5        4 -.428162600221D-05 0.100000000000D+01
-.180561460289D-06 0.000000000000D+00 0.000000000000D+00 0.488917968444D-06 0.000000000000D+00  6 22 3 9900012 13 4 21 2 0.13929306D-01 0.15545057D-01 0.87272303D+04 0.87272303D+04 0.87272303D+04 0.12155080D+01  1  2 15  2  6  5        4 -.175585903127D-04 0.100000000000D+01
0.107685765280D-05 0.000000000000D+00 0.000000000000D+00 0.488917968444D-06 0.000000000000D+00  6 22 3 9900012 13 4 21 2 0.13929306D-01 0.15545057D-01 0.84142814D+04 0.84142814D+04 0.84142814D+04 0.12171827D+01  1  2 12  2  6  5        4 0.104626908085D-03 0.100000000000D+01
-.440808707132D-06 0.000000000000D+00 0.000000000000D+00 0.488917968444D-06 0.000000000000D+00  6 22 3 9900012 13 4 21 2 0.13929306D-01 0.15545057D-01 0.87272303D+04 0.87272303D+04 0.87272303D+04 0.12155080D+01  1  2  4  2  6  5        4 -.428661768819D-04 0.100000000000D+01
-.990611136984D-06 0.000000000000D+00 0.000000000000D+00 0.488917968444D-06 0.000000000000D+00  6 22 3 9900012 13 4 21 2 0.13929306D-01 0.15545057D-01 0.87272303D+04 0.87272303D+04 0.87272303D+04 0.12155080D+01  1  2  5  2  6  5        4 -.963313825978D-04 0.100000000000D+01
0.120923951859D-05 0.000000000000D+00 -.000000000000D+00 0.488917968444D-06 0.000000000000D+00  6 22 3 9900012 13 4 21 2 0.13929306D-01 0.15545057D-01 0.87272303D+04 0.87272303D+04 0.87272303D+04 0.12155080D+01  1  2  6  2  6  5        4 0.117591767716D-03 0.100000000000D+01
  </mgrwgt>
  </event>
  <event>
  7     66 -.15202802E-05 0.23558963E+02 0.78161638E-02 0.12393370E+00
       22 -1    0    0    0    0 0.00000000E+00 0.00000000E+00 0.27368888E+03 0.27368888E+03 0.00000000E+00 0.0000E+00 0.9000E+01
        3 -1    0    0  501    0 0.00000000E+00 0.00000000E+00 -.35616962E+02 0.35616962E+02 0.00000000E+00 0.0000E+00 0.9000E+01
      -24  2    1    2    0    0 -.16805161E+02 -.42738100E+02 0.24034604E+03 0.25713310E+03 0.79007945E+02 0.0000E+00 0.0000E+00
  9900012  1    3    3    0    0 -.20343414E+02 -.12666705E+02 0.19403907E+03 0.20180550E+03 0.50000000E+02 0.0000E+00 0.9000E+01
       13  1    3    3    0    0 0.35382527E+01 -.30071394E+02 0.46306965E+02 0.55327597E+02 0.00000000E+00 0.0000E+00 0.9000E+01
        4  1    1    2  502    0 0.69774933E+00 0.15740942E+02 -.11388212E+02 0.19441077E+02 0.00000000E+00 0.0000E+00 0.9000E+01
       21  1    1    2  501  502 0.16107412E+02 0.26997157E+02 0.91140951E+01 0.32731666E+02 0.00000000E+00 0.0000E+00 0.9000E+01
#aMCatNLO 2  0  0  5  2 0.12314309D+02 0.00000000D+00  -5  6  0 0.00000000D+00 0.00000000D+00 0.00000000D+00 0.00000000D+00 0.00000000D+00
  <mgrwgt>
 -.5183623691D-04    2    2    0
 0.987317902839157D+02 0.000000000000000D+00 0.000000000000000D+00 0.987317902839157D+02
 0.987317902839157D+02 -.000000000000000D+00 -.000000000000000D+00 -.987317902839157D+02
 0.833220678019423D+02 -.206670629928175D+02 -.134897944815129D+02 0.619149815060049D+02
 0.312158154097296D+02 0.341689706302415D+01 -.303800200632109D+02 0.630922555579598D+01
 0.829256973561594D+02 0.172501659297933D+02 0.438698145447239D+02 -.682242070618009D+02
 0.000000000000000D+00 0.000000000000000D+00 0.000000000000000D+00 0.000000000000000D+00
 0.987317902839157D+02 0.000000000000000D+00 0.000000000000000D+00 0.987317902839157D+02
 0.987317902839157D+02 -.000000000000000D+00 -.000000000000000D+00 -.987317902839157D+02
 0.821638452716087D+02 -.203434139401261D+02 -.126667053601138D+02 0.606349532398402D+02
 0.308348555778892D+02 0.353825265463319D+01 -.300713942030586D+02 0.582926559229541D+01
 0.441825890546116D+02 0.697749326989202D+00 0.157409423825645D+02 -.412775611483304D+02
 0.402822906637219D+02 0.161074119585037D+02 0.269971571806079D+02 -.251866576838052D+02
-.879672122831D-06 0.000000000000D+00 0.000000000000D+00 0.872243026963D-06 0.000000000000D+00  6 22 3 9900012 13 4 21 2 0.42105982D-01 0.54795326D-02 0.44168498D+04 0.44168498D+04 0.44168498D+04 0.12479570D+01  1  2 13  2  6  5        4 -.819397487905D-04 0.100000000000D+01
0.323179172353D-06 0.000000000000D+00 0.000000000000D+00 0.872243026963D-06 0.625762028022D-08  6 22 3 9900012 13 4 21 2 0.42105982D-01 0.54795326D-02 0.44168498D+04 0.44168498D+04 0.44168498D+04 0.12479570D+01  1  2  1  2  6  5        4 0.301035118763D-04 0.100000000000D+01
  </mgrwgt>
  </event>
  <event>
  6     66 0.15202802E-05 0.35540330E+02 0.78161638E-02 0.10703595E+00
       22 -1    0    0    0    0 0.00000000E+00 0.00000000E+00 0.12772769E+03 0.12772769E+03 0.00000000E+00 0.0000E+00 0.9000E+01
        1 -1    0    0  501    0 -.00000000E+00 -.00000000E+00 -.51851308E+03 0.51851308E+03 0.00000000E+00 0.0000E+00 0.9000E+01
      -24  2    1    2    0    0 -.35540052E+02 0.14079211E+00 0.11179101E+03 0.14240930E+03 0.80746899E+02 0.0000E+00 0.0000E+00
  9900012  1    3    3    0    0 -.26905496E+02 -.14883386E+02 0.11038829E+03 0.12502398E+03 0.50000000E+02 0.0000E+00 0.9000E+01
       13  1    3    3    0    0 -.86345557E+01 0.15024178E+02 0.14027196E+01 0.17385313E+02 0.00000000E+00 0.0000E+00 0.9000E+01
        2  1    1    2  501    0 0.35540052E+02 -.14079211E+00 -.50257640E+03 0.50383147E+03 0.00000000E+00 0.0000E+00 0.9000E+01
#aMCatNLO 1  0  0  5  2 0.14567593D+01 0.00000000D+00  -5  6  0 0.00000000D+00 0.00000000D+00 0.00000000D+00 0.00000000D+00 0.00000000D+00
  <mgrwgt>
 0.5396491862D-03    3    2    0
 0.257348942928028D+03 0.000000000000000D+00 0.000000000000000D+00 0.257348942928028D+03
 0.257348942928028D+03 -.000000000000000D+00 -.000000000000000D+00 -.257348942928028D+03
 0.240789268638958D+03 -.269054957586429D+02 -.148833858991500D+02 0.233525268469694D+03
 0.228935469519962D+02 -.863455574777397D+01 0.150241780136328D+02 0.149610498995395D+02
 0.251015070265103D+03 0.355400515064167D+02 -.140792114482793D+00 -.248486318369234D+03
 0.000000000000000D+00 0.000000000000000D+00 0.000000000000000D+00 0.000000000000000D+00
 0.257348942928028D+03 0.000000000000000D+00 0.000000000000000D+00 0.257348942928028D+03
 0.257348942928028D+03 -.000000000000000D+00 -.000000000000000D+00 -.257348942928028D+03
 0.159464115527120D+03 -.149507790199346D+02 -.149307445769331D+02 0.149941159172263D+03
 0.179429002869800D+02 -.741485797963568D+01 0.150193461740455D+02 0.643325674557809D+01
 0.176684247724635D+03 -.130953248040116D+03 -.254828647589813D+02 -.115841244060306D+03
 0.160606622317323D+03 0.153318885039686D+03 0.253942631618689D+02 -.405331718575352D+02
0.749159902277D-04 0.000000000000D+00 0.000000000000D+00 0.794186416088D-04 0.000000000000D+00  6 22 1 9900012 13 2 21 0 0.19650414D-01 0.79771243D-01 0.31117804D+04 0.31117804D+04 0.31117804D+04 0.12657212D+01  1  2  2  2  6  5        2 0.627962979342D-03 0.100000000000D+01
0.423141769732D-05 0.000000000000D+00 -.143848564154D-06 0.794186416088D-04 0.000000000000D+00  6 22 1 9900012 13 2 21 2 0.19650414D-01 0.79771243D-01 0.31117804D+04 0.31117804D+04 0.31117804D+04 0.12657212D+01  1  2  3  2  6  5        2 0.568226544149D-04 0.100000000000D+01
-.108078888426D-04 0.000000000000D+00 0.000000000000D+00 0.794186416088D-04 0.000000000000D+00  6 22 1 9900012 13 2 21 2 0.19650414D-01 0.79771243D-01 0.31117804D+04 0.31117804D+04 0.31117804D+04 0.12657212D+01  1  2 15  2  6  5        2 -.145136447542D-03 0.100000000000D+01
  </mgrwgt>
  </event>
  <event>
  6     66 0.15202802E-05 0.12647066E+02 0.78161638E-02 0.10789402E+00
       22 -1    0    0    0    0 0.00000000E+00 0.00000000E+00 0.51669393E+03 0.51669393E+03 0.00000000E+00 0.0000E+00 0.9000E+01
        3 -1    0    0  501    0 0.00000000E+00 0.00000000E+00 -.27019270E+02 0.27019270E+02 0.00000000E+00 0.0000E+00 0.9000E+01
      -24  2    1    2    0    0 -.71989828E+01 0.10398217E+02 0.51194816E+03 0.51809960E+03 0.78589607E+02 0.0000E+00 0.0000E+00
  9900012  1    3    3    0    0 0.10245564E+02 -.10281318E+02 0.30889099E+03 0.31324802E+03 0.50000000E+02 0.0000E+00 0.9000E+01
       13  1    3    3    0    0 -.17444547E+02 0.20679535E+02 0.20305717E+03 0.20485158E+03 0.00000000E+00 0.0000E+00 0.9000E+01
        4  1    1    2  501    0 0.71989828E+01 -.10398217E+02 -.22273495E+02 0.25613607E+02 0.00000000E+00 0.0000E+00 0.9000E+01
#aMCatNLO 1  0  0  2  5 0.15226308D+03 0.00000000D+00  -5  6  0 0.00000000D+00 0.00000000D+00 0.00000000D+00 0.00000000D+00 0.00000000D+00
  <mgrwgt>
 0.8285626928D-04    5    2    0
 0.118155375847228D+03 0.000000000000000D+00 0.000000000000000D+00 0.118155375847228D+03
 0.118155375847228D+03 0.000000000000000D+00 0.000000000000000D+00 -.118155375847228D+03
 0.806607043056430D+02 0.102455640161951D+02 -.102813179803301D+02 0.616074032698974D+02
 0.505629010377433D+02 -.174445468532930D+02 0.206795351547437D+02 0.427159404932117D+02
 0.105087146351069D+03 0.719898283709796D+01 -.103982171744136D+02 -.104323343763109D+03
 0.000000000000000D+00 0.000000000000000D+00 -.000000000000000D+00 -.000000000000000D+00
 0.218454633061011D+03 0.000000000000000D+00 0.000000000000000D+00 0.218454633061011D+03
 0.221216387638173D+03 0.000000000000000D+00 0.000000000000000D+00 -.221216387638173D+03
 0.890875260897648D+02 0.361708340356648D+01 0.403488769953565D+02 0.616074032698974D+02
 0.756851988372430D+02 -.223743954912037D+02 0.583351024445540D+02 0.427159404932117D+02
 0.118559287863503D+03 -.153416300967554D+01 0.563080014620027D+02 -.104323343763109D+03
 0.156339007908674D+03 0.202914750973128D+02 -.154991980901913D+03 -.276175457716196D+01
0.157746197103D-05 0.000000000000D+00 0.000000000000D+00 0.226871184778D-05 0.000000000000D+00  6 22 3 9900012 13 4 21 0 0.79491375D-01 0.41568107D-02 0.21052452D+04 0.21052452D+04 0.21052452D+04 0.12865041D+01  1  2  2  1  6  2        3 0.442903813480D-04 0.100000000000D+01
0.326859936113D-06 0.000000000000D+00 -.302893466201D-08 0.226871184778D-05 0.000000000000D+00  6 22 3 9900012 13 4 21 2 0.79491375D-01 0.41568107D-02 0.21052452D+04 0.21052452D+04 0.21052452D+04 0.12865041D+01  1  2  3  1  6  2        3 0.151891883199D-04 0.100000000000D+01
-.255481290741D-06 0.000000000000D+00 0.000000000000D+00 0.226871184778D-05 0.000000000000D+00  6 22 3 9900012 13 4 21 2 0.79491375D-01 0.41568107D-02 0.21052452D+04 0.21052452D+04 0.21052452D+04 0.12865041D+01  1  2 15  1  6  2        3 -.118722211214D-04 0.100000000000D+01
0.137280912854D-05 0.000000000000D+00 -.525700521328D-06 0.226871184778D-05 0.000000000000D+00  6 22 3 9900012 13 4 21 2 0.79491375D-01 0.14461450D-01 0.21052452D+04 0.21052452D+04 0.21052452D+04 0.12865041D+01  1  2  5  1  6  2        3 0.934467696919D-05 0.100000000000D+01
0.217260412432D-06 0.000000000000D+00 -.766006922066D-07 0.226871184778D-05 0.000000000000D+00  6 22 21 9900012 13 4 -3 2 0.79491375D-01 0.14461450D-01 0.21052452D+04 0.21052452D+04 0.21052452D+04 0.12865041D+01  1  2  5  3  6  2        3 0.259042437662D-04 0.100000000000D+01
  </mgrwgt>
  </event>
  <event>
  6     66 0.15202802E-05 0.51562338E+02 0.78161638E-02 0.11946043E+00
       22 -1    0    0    0    0 0.00000000E+00 0.00000000E+00 0.14262993E+04 0.14262993E+04 0.00000000E+00 0.0000E+00 0.9000E+01
        1 -1    0    0  501    0 0.00000000E+00 0.00000000E+00 -.57133320E+01 0.57133320E+01 0.00000000E+00 0.0000E+00 0.9000E+01
      -24  2    1    2    0    0 0.50282819E+02 -.19212827E+02 0.12354686E+04 0.12392280E+04 0.80035876E+02 0.0000E+00 0.0000E+00
  9900012  1    3    3    0    0 0.62809007E+01 -.81317459E+01 0.63792557E+03 0.63996454E+03 0.50000000E+02 0.0000E+00 0.9000E+01
       13  1    3    3    0    0 0.44001918E+02 -.11081081E+02 0.59754308E+03 0.59926346E+03 0.00000000E+00 0.0000E+00 0.9000E+01
        2  1    1    2  501    0 -.50282819E+02 0.19212827E+02 0.18511727E+03 0.19278459E+03 0.00000000E+00 0.0000E+00 0.9000E+01
#aMCatNLO 1  0  0  2  5 0.36360779D+02 0.00000000D+00  -5  6  0 0.00000000D+00 0.00000000D+00 0.00000000D+00 0.00000000D+00 0.00000000D+00
  <mgrwgt>
 0.2536378364D-03    6    2    0
 0.902713753839997D+02 0.000000000000000D+00 0.000000000000000D+00 0.902713753839997D+02
 0.902713753839997D+02 0.000000000000000D+00 0.000000000000000D+00 -.902713753839997D+02
 0.565471984079496D+02 0.628090072543587D+01 -.813174586870805D+01 0.243312688323478D+02
 0.514644112402503D+02 0.440019177990425D+02 -.110810810102406D+02 0.242822259679049D+02
 0.725311411197996D+02 -.502828185244784D+02 0.192128268789487D+02 -.486134948002527D+02
 0.000000000000000D+00 0.000000000000000D+00 -.000000000000000D+00 0.000000000000000D+00
 0.107970160734161D+03 0.000000000000000D+00 0.000000000000000D+00 0.107970160734161D+03
 0.945521946623498D+02 0.000000000000000D+00 0.000000000000000D+00 -.945521946623498D+02
 0.558824209992028D+02 0.441061616625041D+01 -.337354394875284D+01 0.243312688323478D+02
 0.492708202278290D+02 0.423261712388906D+02 -.681780435497824D+01 0.242822259679049D+02
 0.761377262144505D+02 -.527559487233800D+02 0.255047319277920D+02 -.486134948002527D+02
 0.212313879550279D+02 0.601916131823893D+01 -.153133836240609D+02 0.134179660718108D+02
0.568255804046D-05 0.000000000000D+00 0.000000000000D+00 0.871197583548D-06 0.000000000000D+00  6 22 1 9900012 13 2 21 0 0.21943065D+00 0.87897416D-03 0.56436881D+04 0.56436881D+04 0.56436881D+04 0.12359685D+01  1  2  2  1  6  2        1 0.208843397563D-03 0.100000000000D+01
0.184862249644D-07 0.000000000000D+00 -.109112595636D-07 0.871197583548D-06 0.000000000000D+00  6 22 1 9900012 13 2 21 2 0.21943065D+00 0.87897416D-03 0.56436881D+04 0.56436881D+04 0.56436881D+04 0.12359685D+01  1  2  3  1  6  2        1 0.103786269349D-05 0.100000000000D+01
-.660078417461D-06 0.000000000000D+00 0.000000000000D+00 0.871197583548D-06 0.000000000000D+00  6 22 1 9900012 13 2 21 2 0.21943065D+00 0.87897416D-03 0.56436881D+04 0.56436881D+04 0.56436881D+04 0.12359685D+01  1  2 15  1  6  2        1 -.370584457119D-04 0.100000000000D+01
0.136976293106D-05 0.000000000000D+00 0.000000000000D+00 0.871197583548D-06 0.000000000000D+00  6 22 1 9900012 13 2 21 2 0.21943065D+00 0.11011623D-02 0.70753880D+04 0.70753880D+04 0.70753880D+04 0.12252282D+01  1  2 12  1  6  2        1 0.571099447440D-04 0.100000000000D+01
-.166207903802D-06 0.000000000000D+00 0.000000000000D+00 0.871197583548D-06 0.000000000000D+00  6 22 1 9900012 13 2 21 2 0.21943065D+00 0.87897416D-03 0.56436881D+04 0.56436881D+04 0.56436881D+04 0.12359685D+01  1  2  4  1  6  2        1 -.933132551677D-05 0.100000000000D+01
0.429145353932D-07 0.000000000000D+00 0.000000000000D+00 0.871197583548D-06 0.000000000000D+00  6 22 21 9900012 13 2 -1 2 0.21943065D+00 0.11011623D-02 0.70753880D+04 0.70753880D+04 0.70753880D+04 0.12252282D+01  1  2 12  3  6  2        1 0.330364026716D-04 0.100000000000D+01
  </mgrwgt>
  </event>
  <event>
  6     66 0.15202802E-05 0.40668182E+02 0.78161638E-02 0.11998927E+00
       22 -1    0    0    0    0 0.00000000E+00 0.00000000E+00 0.28750608E+02 0.28750608E+02 0.00000000E+00 0.0000E+00 0.9000E+01
        3 -1    0    0  501    0 0.00000000E+00 0.00000000E+00 -.35807406E+03 0.35807406E+03 0.00000000E+00 0.0000E+00 0.9000E+01
      -24  2    1    2    0    0 0.33318342E+02 -.48465446E+02 -.72521059E+02 0.12337357E+03 0.80639462E+02 0.0000E+00 0.0000E+00
  9900012  1    3    3    0    0 0.13865155E+02 -.52213264E+01 -.33691474E+02 0.62085588E+02 0.50000000E+02 0.0000E+00 0.9000E+01
       13  1    3    3    0    0 0.19453187E+02 -.43244120E+02 -.38829585E+02 0.61287984E+02 0.00000000E+00 0.0000E+00 0.9000E+01
        4  1    1    2  501    0 -.33318342E+02 0.48465446E+02 -.25680239E+03 0.26345110E+03 0.00000000E+00 0.0000E+00 0.9000E+01
#aMCatNLO 1  0  0  2  5 0.89010646D+01 0.00000000D+00  -5  6  0 0.00000000D+00 0.00000000D+00 0.00000000D+00 0.00000000D+00 0.00000000D+00
  <mgrwgt>
 0.1011082856D-03    8    2    0
 0.101463525869084D+03 0.000000000000000D+00 0.000000000000000D+00 0.101463525869084D+03
 0.101463525869084D+03 0.000000000000000D+00 0.000000000000000D+00 -.101463525869084D+03
 0.636723605103019D+02 0.138651552912468D+02 -.522132639478287D+01 0.365330632767443D+02
 0.538134818732774D+02 0.194531865398538D+02 -.432441195074126D+02 0.254442624730964D+02
 0.854412093545882D+02 -.333183418311007D+02 0.484654459021955D+02 -.619773257498406D+02
 0.000000000000000D+00 0.000000000000000D+00 0.000000000000000D+00 0.000000000000000D+00
 0.105078487500253D+03 0.000000000000000D+00 0.000000000000000D+00 0.105078487500253D+03
 0.103506359900022D+03 0.000000000000000D+00 0.000000000000000D+00 -.103506359900022D+03
 0.637875912536027D+02 0.136632432053873D+02 -.689259535041294D+01 0.365330632767443D+02
 0.549048572640514D+02 0.192809634507766D+02 -.446696463697202D+02 0.254442624730964D+02
 0.843054114957329D+02 -.335872411505276D+02 0.462397094742096D+02 -.619773257498406D+02
 0.558698738688794D+01 0.643034494363671D+00 0.532253224592357D+01 0.157212760023070D+01
0.127348383651D-05 0.000000000000D+00 0.000000000000D+00 0.888604670724D-06 0.000000000000D+00  6 22 3 9900012 13 4 21 0 0.44231705D-02 0.55088317D-01 0.62710858D+04 0.62710858D+04 0.62710858D+04 0.12309246D+01  1  2  2  1  6  2        3 0.407271611155D-04 0.100000000000D+01
0.728136474494D-08 0.000000000000D+00 -.244525662409D-08 0.888604670724D-06 0.000000000000D+00  6 22 3 9900012 13 4 21 2 0.44231705D-02 0.55088317D-01 0.62710858D+04 0.62710858D+04 0.62710858D+04 0.12309246D+01  1  2  3  1  6  2        3 0.352830727784D-06 0.100000000000D+01
-.153677725689D-06 0.000000000000D+00 0.000000000000D+00 0.888604670724D-06 0.000000000000D+00  6 22 3 9900012 13 4 21 2 0.44231705D-02 0.55088317D-01 0.62710858D+04 0.62710858D+04 0.62710858D+04 0.12309246D+01  1  2 15  1  6  2        3 -.744671166716D-05 0.100000000000D+01
0.134568973055D-05 0.000000000000D+00 0.000000000000D+00 0.888604670724D-06 0.000000000000D+00  6 22 3 9900012 13 4 21 2 0.44231705D-02 0.58199661D-01 0.66793617D+04 0.66793617D+04 0.66793617D+04 0.12279372D+01  1  2 12  1  6  2        3 0.584842797999D-04 0.100000000000D+01
-.126267729701D-06 0.000000000000D+00 0.000000000000D+00 0.888604670724D-06 0.000000000000D+00  6 22 3 9900012 13 4 21 2 0.44231705D-02 0.55088317D-01 0.62710858D+04 0.62710858D+04 0.62710858D+04 0.12309246D+01  1  2  4  1  6  2        3 -.611851438936D-05 0.100000000000D+01
0.649276661758D-10 0.000000000000D+00 0.000000000000D+00 0.888604670724D-06 0.352472384071D-07  6 22 3 9900012 13 4 21 2 0.45807601D-02 0.56197447D-01 0.66793617D+04 0.66793617D+04 0.66793617D+04 0.12279372D+01  1  2 11  1  6  2        3 0.288478207406D-08 0.100000000000D+01
0.224817560940D-07 0.000000000000D+00 0.000000000000D+00 0.888604670724D-06 0.000000000000D+00  6 22 21 9900012 13 4 -3 2 0.44231705D-02 0.58199661D-01 0.66793617D+04 0.66793617D+04 0.66793617D+04 0.12279372D+01  1  2 12  3  6  2        3 0.151003751514D-04 0.100000000000D+01
0.867360210518D-11 0.000000000000D+00 0.000000000000D+00 0.888604670724D-06 0.133659295107D-08  6 22 21 9900012 13 4 -3 2 0.45807601D-02 0.56197447D-01 0.66793617D+04 0.66793617D+04 0.66793617D+04 0.12279372D+01  1  2 11  3  6  2        3 0.598003852169D-08 0.100000000000D+01
  </mgrwgt>
  </event>
  <event>
  7     66 0.15202802E-05 0.13221708E+02 0.78161638E-02 0.12827355E+00
       22 -1    0    0    0    0 0.00000000E+00 0.00000000E+00 0.73780523E+03 0.73780523E+03 0.00000000E+00 0.0000E+00 0.9000E+01
        3 -1    0    0  502    0 0.00000000E+00 0.00000000E+00 -.14499134E+02 0.14499134E+02 0.00000000E+00 0.0000E+00 0.9000E+01
      -24  2    1    2    0    0 -.24739520E+02 0.21460640E+02 0.68791292E+03 0.69326266E+03 0.79475321E+02 0.0000E+00 0.0000E+00
  9900012  1    3    3    0    0 -.13392213E+02 0.23962185E+01 0.28049969E+03 0.28524581E+03 0.50000000E+02 0.0000E+00 0.9000E+01
       13  1    3    3    0    0 -.11347308E+02 0.19064421E+02 0.40741323E+03 0.40801686E+03 0.00000000E+00 0.0000E+00 0.9000E+01
        4  1    1    2  501    0 0.17083276E+02 -.10343833E+02 0.40057966E+02 0.44760181E+02 0.00000000E+00 0.0000E+00 0.9000E+01
       21  1    1    2  502  501 0.76562442E+01 -.11116807E+02 -.46647942E+01 0.14281518E+02 0.00000000E+00 0.0000E+00 0.9000E+01
#aMCatNLO 2  0  0  2  5 0.13565356D+02 0.00000000D+00  -5  6  0 0.00000000D+00 0.00000000D+00 0.00000000D+00 0.00000000D+00 0.00000000D+00
  <mgrwgt>
 0.8684264459D-04    2    2    0
 0.603197766754702D+02 0.000000000000000D+00 0.000000000000000D+00 0.603197766754702D+02
 0.603197766754702D+02 0.000000000000000D+00 0.000000000000000D+00 -.603197766754702D+02
 0.513358939253455D+02 -.101207854458580D+02 -.235386846068555D+01 -.523478847166033D+01
 0.351623894158945D+02 -.905174071660280D+01 0.157312764054161D+02 0.301162175926992D+02
 0.341412700097003D+02 0.191725261624608D+02 -.133774079447306D+02 -.248814291210389D+02
 0.000000000000000D+00 0.000000000000000D+00 -.000000000000000D+00 -.000000000000000D+00
 0.610943352097159D+02 0.000000000000000D+00 0.000000000000000D+00 0.610943352097159D+02
 0.175098668749437D+03 0.000000000000000D+00 0.000000000000000D+00 -.175098668749437D+03
 0.520816305439657D+02 -.133922129055132D+02 0.239621853521777D+01 -.523478847166033D+01
 0.374058834444116D+02 -.113473075632585D+02 0.190644214502020D+02 0.301162175926992D+02
 0.319048387166246D+02 0.170832762524536D+02 -.103438334726978D+02 -.248814291210389D+02
 0.114800651254151D+03 0.765624421631807D+01 -.111168065127220D+02 -.114004333539722D+03
-.771547776174D-06 0.000000000000D+00 0.000000000000D+00 0.162334181105D-06 0.000000000000D+00  6 22 3 9900012 13 4 21 2 0.11206943D+00 0.22592793D-02 0.28875998D+04 0.28875998D+04 0.28875998D+04 0.12696192D+01  1  2 13  1  6  2        3 -.459556455720D-04 0.100000000000D+01
0.224535463609D-05 0.000000000000D+00 0.000000000000D+00 0.162334181105D-06 0.399873528045D-07  6 22 3 9900012 13 4 21 2 0.11350850D+00 0.22306360D-02 0.28875998D+04 0.28875998D+04 0.28875998D+04 0.12696192D+01  1  2  1  1  6  2        3 0.132798290159D-03 0.100000000000D+01
  </mgrwgt>
  </event>
  <event>
  7     66 0.15202802E-05 0.19387120E+02 0.78161638E-02 0.13321347E+00
       22 -1    0    0    0    0 0.00000000E+00 0.00000000E+00 0.38080873E+02 0.38080873E+02 0.00000000E+00 0.0000E+00 0.9000E+01
       21 -1    0    0  501  502 0.00000000E+00 0.00000000E+00 -.24951888E+03 0.24951888E+03 0.00000000E+00 0.0000E+00 0.9000E+01
      -24  2    1    2    0    0 -.22398814E+02 0.39530059E+01 -.10846178E+02 0.85516328E+02 0.81719457E+02 0.0000E+00 0.0000E+00
  9900012  1    3    3    0    0 -.20124562E+02 -.34708240E+01 -.32141301E+02 0.62849883E+02 0.50000000E+02 0.0000E+00 0.9000E+01
       13  1    3    3    0    0 -.22742523E+01 0.74238299E+01 0.21295123E+02 0.22666445E+02 0.00000000E+00 0.0000E+00 0.9000E+01
        2  1    1    2  501    0 0.79534808E+01 0.23867096E+01 -.88172366E+02 0.88562523E+02 0.00000000E+00 0.0000E+00 0.9000E+01
       -1  1    1    2    0  502 0.14445334E+02 -.63397155E+01 -.11241946E+03 0.11352090E+03 0.00000000E+00 0.0000E+00 0.9000E+01
#aMCatNLO 2  0  0  2  2 0.16025254D+02 0.00000000D+00  -5  6  0 0.00000000D+00 0.00000000D+00 0.00000000D+00 0.00000000D+00 0.00000000D+00
  <mgrwgt>
 0.3450093826D-04    1    2    0
 0.711510972126369D+02 0.000000000000000D+00 0.000000000000000D+00 0.711510972126369D+02
 0.711510972126369D+02 0.000000000000000D+00 0.000000000000000D+00 -.711510972126369D+02
 0.526312942886071D+02 -.147194359382594D+02 -.584300610975698D+01 0.438755327657460D+01
 0.419841975179788D+02 0.198992917271894D+01 0.555238145489740D+01 0.415678250970090D+02
 0.476867026186880D+02 0.127295067655405D+02 0.290624654859579D+00 -.459553783735836D+02
 0.000000000000000D+00 0.000000000000000D+00 -.000000000000000D+00 -.000000000000000D+00
 0.726374364621243D+02 0.000000000000000D+00 0.000000000000000D+00 0.726374364621243D+02
 0.130812666169485D+03 0.000000000000000D+00 0.000000000000000D+00 -.130812666169485D+03
 0.541875930483283D+02 -.201245620433203D+02 -.347082399164964D+01 0.438755327657460D+01
 0.422867539266682D+02 -.227425229282119D+01 0.742382993256527D+01 0.415678250970090D+02
 0.466995828829906D+02 0.795348083563502D+01 0.238670957245857D+01 -.459553783735836D+02
 0.602761727736219D+02 0.144453335005065D+02 -.633971551337420D+01 -.581752297073604D+02
0.317409045718D-07 0.000000000000D+00 0.000000000000D+00 0.153852988555D-06 0.425938505727D-08  6 22 21 9900012 13 2 -1 2 0.58585958D-02 0.38387520D-01 0.18426929D+04 0.18426929D+04 0.18426929D+04 0.12938353D+01  1  2  1  3  6  2        1 0.345009382642D-04 0.100000000000D+01
  </mgrwgt>
  </event>
  <event>
  6     66 0.15202802E-05 0.32094376E+02 0.78161638E-02 0.12761476E+00
       22 -1    0    0    0    0 0.00000000E+00 0.00000000E+00 0.22055451E+02 0.22055451E+02 0.00000000E+00 0.0000E+00 0.9000E+01
        1 -1    0    0  501    0 -.00000000E+00 -.00000000E+00 -.23963058E+03 0.23963058E+03 0.00000000E+00 0.0000E+00 0.9000E+01
      -24  2    1    2    0    0 0.36311464E+02 -.17183397E+02 -.87497639E+02 0.12554660E+03 0.80574934E+02 0.0000E+00 0.0000E+00
  9900012  1    3    3    0    0 0.23823536E+02 -.92981040E+01 -.25258757E+02 0.61579383E+02 0.50000000E+02 0.0000E+00 0.9000E+01
       13  1    3    3    0    0 0.12487927E+02 -.78852932E+01 -.62238882E+02 0.63967216E+02 0.00000000E+00 0.0000E+00 0.9000E+01
        2  1    1    2  501    0 -.36311464E+02 0.17183397E+02 -.13007749E+03 0.13613943E+03 0.00000000E+00 0.0000E+00 0.9000E+01
#aMCatNLO 1  0  0  5  2 0.37193506D+01 0.00000000D+00  -5  6  0 0.00000000D+00 0.00000000D+00 0.00000000D+00 0.00000000D+00 0.00000000D+00
  <mgrwgt>
 0.2469626990D-03    8    2    0
 0.726991088732547D+02 0.000000000000000D+00 0.000000000000000D+00 0.726991088732547D+02
 0.726991088732547D+02 -.000000000000000D+00 -.000000000000000D+00 -.726991088732547D+02
 0.730324428582065D+02 0.238235364993028D+02 -.929810397597671D+01 0.466874938388806D+02
 0.219926619187252D+02 0.124879273507437D+02 -.788529317045873D+01 -.162957356498505D+02
 0.503731129695777D+02 -.363114638500465D+02 0.171833971464354D+02 -.303917581890301D+02
 0.000000000000000D+00 -.000000000000000D+00 0.000000000000000D+00 0.000000000000000D+00
 0.726991088732547D+02 0.000000000000000D+00 0.000000000000000D+00 0.726991088732547D+02
 0.726991088732547D+02 -.000000000000000D+00 -.000000000000000D+00 -.726991088732547D+02
 0.728440539095330D+02 0.236187647074832D+02 -.920120138241139D+01 0.465161051334675D+02
 0.219855845390026D+02 0.124261935928884D+02 -.785607937497669D+01 -.163474052120743D+02
 0.294007525857647D+02 -.184468325031249D+02 0.112031232306451D+02 -.199651860269317D+02
 0.211678267122091D+02 -.175981257972467D+02 0.585415752674301D+01 -.102035138944615D+02
0.339269755692D-06 0.000000000000D+00 0.000000000000D+00 0.445621547971D-06 0.000000000000D+00  6 22 1 9900012 13 2 21 0 0.33931463D-02 0.36866243D-01 0.30858993D+04 0.30858993D+04 0.30858993D+04 0.12661547D+01  1  2  2  2  6  5        2 0.862104450232D-04 0.100000000000D+01
-.390695124863D-08 0.000000000000D+00 -.651442596817D-09 0.445621547971D-06 0.000000000000D+00  6 22 1 9900012 13 2 21 2 0.33931463D-02 0.36866243D-01 0.30858993D+04 0.30858993D+04 0.30858993D+04 0.12661547D+01  1  2  3  2  6  5        2 -.159157184729D-05 0.100000000000D+01
-.404662097578D-07 0.000000000000D+00 0.000000000000D+00 0.445621547971D-06 0.000000000000D+00  6 22 1 9900012 13 2 21 2 0.33931463D-02 0.36866243D-01 0.30858993D+04 0.30858993D+04 0.30858993D+04 0.12661547D+01  1  2 15  2  6  5        2 -.164846900098D-04 0.100000000000D+01
0.111322736736D-06 0.000000000000D+00 0.000000000000D+00 0.445621547971D-06 0.000000000000D+00  6 22 1 9900012 13 2 21 2 0.33931463D-02 0.36866243D-01 0.30740359D+04 0.30740359D+04 0.30740359D+04 0.12663547D+01  1  2 12  2  6  5        2 0.453465585527D-04 0.100000000000D+01
-.163303637116D-05 0.000000000000D+00 0.000000000000D+00 0.445621547971D-06 0.000000000000D+00  6 22 1 9900012 13 2 21 2 0.33931463D-02 0.36866243D-01 0.30858993D+04 0.30858993D+04 0.30858993D+04 0.12661547D+01  1  2  4  2  6  5        2 -.665248821533D-03 0.100000000000D+01
-.171005597862D-05 0.000000000000D+00 0.000000000000D+00 0.445621547971D-06 0.000000000000D+00  6 22 1 9900012 13 2 21 2 0.33931463D-02 0.36866243D-01 0.30858993D+04 0.30858993D+04 0.30858993D+04 0.12661547D+01  1  2  5  2  6  5        2 -.696624242193D-03 0.100000000000D+01
0.255968815962D-05 0.000000000000D+00 -.000000000000D+00 0.445621547971D-06 0.000000000000D+00  6 22 1 9900012 13 2 21 2 0.33931463D-02 0.36866243D-01 0.30858993D+04 0.30858993D+04 0.30858993D+04 0.12661547D+01  1  2  6  2  6  5        2 0.104273827684D-02 0.100000000000D+01
0.111114351927D-05 0.000000000000D+00 0.000000000000D+00 0.445621547971D-06 0.740505663869D-07  6 22 1 9900012 13 2 21 2 0.33931463D-02 0.36866243D-01 0.30740359D+04 0.30740359D+04 0.30740359D+04 0.12663547D+01  1  2 11  2  6  5        2 0.452616744202D-03 0.100000000000D+01
  </mgrwgt>
  </event>
  <event>
  7     66 -.15202802E-05 0.46578028E+02 0.78161638E-02 0.12196090E+00
       22 -1    0    0    0    0 0.00000000E+00 0.00000000E+00 0.85222008E+02 0.85222008E+02 0.00000000E+00 0.0000E+00 0.9000E+01
        1 -1    0    0  501    0 -.00000000E+00 -.00000000E+00 -.13117043E+04 0.13117043E+04 0.00000000E+00 0.0000E+00 0.9000E+01
      -24  2    1    2    0    0 0.55280938E+02 -.15316195E+02 0.56209821E+02 0.11272119E+03 0.79094599E+02 0.0000E+00 0.0000E+00
  9900012  1    3    3    0    0 0.30349737E+02 -.12254815E+02 0.10658479E+02 0.60703297E+02 0.50000000E+02 0.0000E+00 0.9000E+01
       13  1    3    3    0    0 0.24931200E+02 -.30613795E+01 0.45551342E+02 0.52017896E+02 0.00000000E+00 0.0000E+00 0.9000E+01
        2  1    1    2  502    0 -.29248467E+02 0.20506902E+02 -.76197942E+03 0.76281626E+03 0.00000000E+00 0.0000E+00 0.9000E+01
       21  1    1    2  501  502 -.26032471E+02 -.51907071E+01 -.52071272E+03 0.52138888E+03 0.00000000E+00 0.0000E+00 0.9000E+01
#aMCatNLO 2  0  0  5  2 0.11961851D+02 0.00000000D+00  -5  6  0 0.00000000D+00 0.00000000D+00 0.00000000D+00 0.00000000D+00 0.00000000D+00
  <mgrwgt>
 -.8819849723D-03    2    2    0
 0.334344249057805D+03 0.000000000000000D+00 0.000000000000000D+00 0.334344249057805D+03
 0.334344249057805D+03 -.000000000000000D+00 -.000000000000000D+00 -.334344249057805D+03
 0.146546708298268D+03 0.303828460078408D+02 -.122639885681539D+02 0.133799906449600D+03
 0.192475320871163D+03 0.249746838345957D+02 -.307342711202441D+01 0.190823395729156D+03
 0.329666468946180D+03 -.553575298424366D+02 0.153374156801783D+02 -.324623302178756D+03
 0.000000000000000D+00 -.000000000000000D+00 0.000000000000000D+00 0.000000000000000D+00
 0.334344249057805D+03 0.000000000000000D+00 0.000000000000000D+00 0.334344249057805D+03
 0.334344249057805D+03 -.000000000000000D+00 -.000000000000000D+00 -.334344249057805D+03
 0.146361825986540D+03 0.303497371953082D+02 -.122548154055881D+02 0.133605752337483D+03
 0.192216682500024D+03 0.249312003101108D+02 -.306137952080851D+01 0.190568403041642D+03
 0.195971418104990D+03 -.292484668111660D+02 0.205069020602866D+02 -.192688325726202D+03
 0.134138571524057D+03 -.260324706942531D+02 -.519070713389004D+01 -.131485829652923D+03
-.450362705334D-03 0.000000000000D+00 0.000000000000D+00 0.139194891459D-03 0.000000000000D+00  6 22 1 9900012 13 2 21 2 0.13111078D-01 0.20180067D+00 0.54129017D+04 0.54129017D+04 0.54129017D+04 0.12379846D+01  1  2 13  2  6  5        2 -.249936518924D-02 0.100000000000D+01
0.291437094976D-03 0.000000000000D+00 0.000000000000D+00 0.139194891459D-03 0.245905480384D-05  6 22 1 9900012 13 2 21 2 0.13111078D-01 0.20180067D+00 0.54129017D+04 0.54129017D+04 0.54129017D+04 0.12379846D+01  1  2  1  2  6  5        2 0.161738021690D-02 0.100000000000D+01
  </mgrwgt>
  </event>
  <event>
  7     66 -.15202802E-05 0.24663108E+02 0.78161638E-02 0.13005156E+00
       22 -1    0    0    0    0 0.00000000E+00 0.00000000E+00 0.18389441E+01 0.18389441E+01 0.00000000E+00 0.0000E+00 0.9000E+01
        1 -1    0    0  501    0 -.00000000E+00 -.00000000E+00 -.34023085E+04 0.34023085E+04 0.00000000E+00 0.0000E+00 0.9000E+01
      -24  2    1    2    0    0 -.15349242E+02 0.19149568E+02 -.11218646E+04 0.11252847E+04 0.84160338E+02 0.0000E+00 0.0000E+00
  9900012  1    3    3    0    0 -.92804389E+01 0.24972965E+02 -.11048795E+04 0.11063311E+04 0.50000000E+02 0.0000E+00 0.9000E+01
       13  1    3    3    0    0 -.60688034E+01 -.58233971E+01 -.16985150E+02 0.18953566E+02 0.00000000E+00 0.0000E+00 0.9000E+01
        2  1    1    2  502    0 0.12669425E+02 -.24666101E+02 -.17101699E+04 0.17103947E+04 0.00000000E+00 0.0000E+00 0.9000E+01
       21  1    1    2  501  502 0.26798174E+01 0.55165325E+01 -.56843507E+03 0.56846816E+03 0.00000000E+00 0.0000E+00 0.9000E+01
#aMCatNLO 2  0  0  5  2 0.10193427D+02 0.00000000D+00  -5  6  0 0.00000000D+00 0.00000000D+00 0.00000000D+00 0.00000000D+00 0.00000000D+00
  <mgrwgt>
 -.3154664531D-04    2    2    0
 0.790990223188179D+02 0.000000000000000D+00 0.000000000000000D+00 0.790990223188179D+02
 0.790990223188179D+02 -.000000000000000D+00 -.000000000000000D+00 -.790990223188179D+02
 0.574969991515641D+02 -.982127079327699D+01 0.256477019821663D+02 0.718630186355037D+01
 0.439884011283293D+02 -.647880152516526D+01 -.531188735102670D+01 0.431831960071776D+02
 0.567126443577425D+02 0.163000723184423D+02 -.203358146311396D+02 -.503694978707280D+02
 0.000000000000000D+00 0.000000000000000D+00 0.000000000000000D+00 -.000000000000000D+00
 0.790990223188179D+02 0.000000000000000D+00 0.000000000000000D+00 0.790990223188179D+02
 0.790990223188179D+02 -.000000000000000D+00 -.000000000000000D+00 -.790990223188179D+02
 0.569226789433867D+02 -.928043886769982D+01 0.249729652343608D+02 0.551505574932550D+01
 0.427517705813475D+02 -.606880339484620D+01 -.582339710475024D+01 0.419162445760025D+02
 0.445963418531720D+02 0.126694248456362D+02 -.246661006601549D+02 -.349271077959350D+02
 0.139272532597298D+02 0.267981741690983D+01 0.551653253054431D+01 -.125041925293930D+02
-.100227436955D-05 0.000000000000D+00 0.000000000000D+00 0.460868408547D-07 0.000000000000D+00  6 22 1 9900012 13 2 21 2 0.28291448D-03 0.52343208D+00 0.24467030D+04 0.24467030D+04 0.24467030D+04 0.12783881D+01  1  2 13  2  6  5        2 -.384048292768D-04 0.100000000000D+01
0.178982230659D-06 0.000000000000D+00 0.000000000000D+00 0.460868408547D-07 0.203886113868D-08  6 22 1 9900012 13 2 21 2 0.28291448D-03 0.52343208D+00 0.24467030D+04 0.24467030D+04 0.24467030D+04 0.12783881D+01  1  2  1  2  6  5        2 0.685818396721D-05 0.100000000000D+01
  </mgrwgt>
  </event>
  <event>
  6     66 0.15202802E-05 0.30046575E+02 0.78161638E-02 0.12502810E+00
       22 -1    0    0    0    0 0.00000000E+00 0.00000000E+00 0.29053311E+02 0.29053311E+02 0.00000000E+00 0.0000E+00 0.9000E+01
        1 -1    0    0  501    0 -.00000000E+00 -.00000000E+00 -.37226484E+03 0.37226484E+03 0.00000000E+00 0.0000E+00 0.9000E+01
      -24  2    1    2    0    0 0.31051742E+02 0.18492400E+02 -.32851925E+02 0.88861333E+02 0.74235490E+02 0.0000E+00 0.0000E+00
  9900012  1    3    3    0    0 0.94513229E+01 -.34549193E+01 -.26275512E+02 0.57373047E+02 0.50000000E+02 0.0000E+00 0.9000E+01
       13  1    3    3    0    0 0.21600420E+02 0.21947319E+02 -.65764122E+01 0.31488286E+02 0.00000000E+00 0.0000E+00 0.9000E+01
        2  1    1    2  501    0 -.31051742E+02 -.18492400E+02 -.31035961E+03 0.31245682E+03 0.00000000E+00 0.0000E+00 0.9000E+01
#aMCatNLO 1  0  0  5  2 0.16820788D+02 0.00000000D+00  -5  6  0 0.00000000D+00 0.00000000D+00 0.00000000D+00 0.00000000D+00 0.00000000D+00
  <mgrwgt>
 0.2208006049D-03    7    2    0
 0.103997722433936D+03 0.000000000000000D+00 0.000000000000000D+00 0.103997722433936D+03
 0.103997722433936D+03 -.000000000000000D+00 -.000000000000000D+00 -.103997722433936D+03
 0.673417940870569D+02 0.945132290961282D+01 -.345491931234661D+01 0.439733243986279D+02
 0.499035932826577D+02 0.216004195452250D+02 0.219473188336122D+02 0.392696536018202D+02
 0.907500574981568D+02 -.310517424548379D+02 -.184923995212656D+02 -.832429780004481D+02
 0.000000000000000D+00 0.000000000000000D+00 -.000000000000000D+00 0.000000000000000D+00
 0.103997722433936D+03 0.000000000000000D+00 0.000000000000000D+00 0.103997722433936D+03
 0.103997722433936D+03 -.000000000000000D+00 -.000000000000000D+00 -.103997722433936D+03
 0.657928987791351D+02 0.860381250973728D+01 -.395964142047695D+01 0.417013330707790D+02
 0.481558165678957D+02 0.209761917961324D+02 0.215755693594798D+02 0.375962345703258D+02
 0.666797841530131D+02 -.230173865781546D+02 0.297697516650325D+01 -.625102483490686D+02
 0.273669453678275D+02 -.656261772771505D+01 -.205929031055061D+02 -.167873192920362D+02
0.796793066807D-06 0.000000000000D+00 0.000000000000D+00 0.890858627591D-07 0.000000000000D+00  6 22 1 9900012 13 2 21 0 0.44697402D-02 0.57271514D-01 0.34773177D+04 0.34773177D+04 0.34773177D+04 0.12600021D+01  1  2  2  2  6  5        2 0.819982840463D-04 0.100000000000D+01
0.343369420424D-07 0.000000000000D+00 -.152994758849D-08 0.890858627591D-07 0.000000000000D+00  6 22 1 9900012 13 2 21 2 0.44697402D-02 0.57271514D-01 0.34773177D+04 0.34773177D+04 0.34773177D+04 0.12600021D+01  1  2  3  2  6  5        2 0.561000695668D-05 0.100000000000D+01
-.127964217006D-06 0.000000000000D+00 0.000000000000D+00 0.890858627591D-07 0.000000000000D+00  6 22 1 9900012 13 2 21 2 0.44697402D-02 0.57271514D-01 0.34773177D+04 0.34773177D+04 0.34773177D+04 0.12600021D+01  1  2 15  2  6  5        2 -.209069330264D-04 0.100000000000D+01
0.784162010533D-06 0.000000000000D+00 0.000000000000D+00 0.890858627591D-07 0.000000000000D+00  6 22 1 9900012 13 2 21 2 0.44697402D-02 0.57271514D-01 0.39566103D+04 0.39566103D+04 0.39566103D+04 0.12534550D+01  1  2 12  2  6  5        2 0.128130913670D-03 0.100000000000D+01
-.101774912489D-06 0.000000000000D+00 0.000000000000D+00 0.890858627591D-07 0.000000000000D+00  6 22 1 9900012 13 2 21 2 0.44697402D-02 0.57271514D-01 0.34773177D+04 0.34773177D+04 0.34773177D+04 0.12600021D+01  1  2  4  2  6  5        2 -.166280959548D-04 0.100000000000D+01
-.757340390533D-06 0.000000000000D+00 0.000000000000D+00 0.890858627591D-07 0.000000000000D+00  6 22 1 9900012 13 2 21 2 0.44697402D-02 0.57271514D-01 0.34773177D+04 0.34773177D+04 0.34773177D+04 0.12600021D+01  1  2  5  2  6  5        2 -.123735097151D-03 0.100000000000D+01
0.101805862689D-05 0.000000000000D+00 -.000000000000D+00 0.890858627591D-07 0.000000000000D+00  6 22 1 9900012 13 2 21 2 0.44697402D-02 0.57271514D-01 0.34773177D+04 0.34773177D+04 0.34773177D+04 0.12600021D+01  1  2  6  2  6  5        2 0.166331526322D-03 0.100000000000D+01
  </mgrwgt>
  </event>
  <event>
  7     66 -.15202802E-05 0.37777044E+02 0.78161638E-02 0.12360468E+00
       22 -1    0    0    0    0 0.00000000E+00 0.00000000E+00 0.27531206E+03 0.27531206E+03 0.00000000E+00 0.0000E+00 0.9000E+01
        1 -1    0    0  501    0 -.00000000E+00 -.00000000E+00 -.50850156E+03 0.50850156E+03 0.00000000E+00 0.0000E+00 0.9000E+01
      -24  2    1    2    0    0 -.33398515E+02 0.30667707E+02 0.26584825E+03 0.28163467E+03 0.81159270E+02 0.0000E+00 0.0000E+00
  9900012  1    3    3    0    0 -.94278336E+01 0.10189046E+02 0.21970175E+03 0.22574667E+03 0.50000000E+02 0.0000E+00 0.9000E+01
       13  1    3    3    0    0 -.23970681E+02 0.20478661E+02 0.46146501E+02 0.55888001E+02 0.00000000E+00 0.0000E+00 0.9000E+01
        2  1    1    2  502    0 0.24862555E+02 -.34385277E+02 -.46362665E+03 0.46556435E+03 0.00000000E+00 0.0000E+00 0.9000E+01
       21  1    1    2  501  502 0.85359601E+01 0.37175707E+01 -.35411095E+02 0.36614596E+02 0.00000000E+00 0.0000E+00 0.9000E+01
#aMCatNLO 2  0  0  5  2 0.86241937D+01 0.00000000D+00  -5  6  0 0.00000000D+00 0.00000000D+00 0.00000000D+00 0.00000000D+00 0.00000000D+00
  <mgrwgt>
 -.2710165833D-02    5    2    0
 0.374161208945869D+03 0.000000000000000D+00 0.000000000000000D+00 0.374161208945869D+03
 0.374161208945869D+03 -.000000000000000D+00 -.000000000000000D+00 -.374161208945869D+03
 0.305507317616114D+03 -.948225030254137D+01 0.102390129727137D+02 0.301064728355113D+03
 0.730549536378309D+02 -.239836942973379D+02 0.204906101132036D+02 0.658934257423770D+02
 0.369760146637793D+03 0.334659445998793D+02 -.307296230859173D+02 -.366958154097490D+03
 0.000000000000000D+00 0.000000000000000D+00 0.000000000000000D+00 0.000000000000000D+00
 0.374161208945869D+03 0.000000000000000D+00 0.000000000000000D+00 0.374161208945869D+03
 0.374161208945869D+03 -.000000000000000D+00 -.000000000000000D+00 -.374161208945869D+03
 0.304915964229085D+03 -.942783358885682D+01 0.101890456067512D+02 0.300468042469073D+03
 0.729186435353079D+02 -.239706813542227D+02 0.204786611650430D+02 0.657507372379275D+02
 0.343171345151457D+03 0.248625547968800D+02 -.343852774792491D+02 -.340537924752453D+03
 0.273164649758885D+02 0.853596014619951D+01 0.371757070745479D+01 -.256808549545476D+02
-.698651463992D-03 0.000000000000D+00 0.000000000000D+00 0.166055018035D-03 0.000000000000D+00  6 22 1 9900012 13 2 21 2 0.42355701D-01 0.78231009D-01 0.45671314D+04 0.45671314D+04 0.45671314D+04 0.12462994D+01  1  2 13  2  6  5        2 -.292087315711D-02 0.100000000000D+01
-.643600474496D-05 0.000000000000D+00 0.000000000000D+00 0.166055018035D-03 0.000000000000D+00  6 22 1 9900012 13 2 21 2 0.42355701D-01 0.78231009D-01 0.41531746D+04 0.41531746D+04 0.41531746D+04 0.12510236D+01  1  2  8  2  6  5        2 -.270075716618D-04 0.100000000000D+01
-.326240005247D-04 0.000000000000D+00 0.000000000000D+00 0.166055018035D-03 0.000000000000D+00  6 22 1 9900012 13 2 21 2 0.42355701D-01 0.78231009D-01 0.41531746D+04 0.41531746D+04 0.41531746D+04 0.12510236D+01  1  2  9  2  6  5        2 -.136900929533D-03 0.100000000000D+01
0.351229011481D-04 0.000000000000D+00 0.000000000000D+00 0.166055018035D-03 0.000000000000D+00  6 22 1 9900012 13 2 21 2 0.42355701D-01 0.78231009D-01 0.41531746D+04 0.41531746D+04 0.41531746D+04 0.12510236D+01  1  2 10  2  6  5        2 0.147387130264D-03 0.100000000000D+01
0.543514394655D-04 0.000000000000D+00 0.000000000000D+00 0.166055018035D-03 0.199945206045D-05  6 22 1 9900012 13 2 21 2 0.42355701D-01 0.78231009D-01 0.45671314D+04 0.45671314D+04 0.45671314D+04 0.12462994D+01  1  2  1  2  6  5        2 0.227228695233D-03 0.100000000000D+01
  </mgrwgt>
  </event>
  <event>
  6     66 0.15202802E-05 0.28516900E+02 0.78161638E-02 0.12348328E+00
       22 -1    0    0    0    0 0.00000000E+00 0.00000000E+00 0.20939572E+02 0.20939572E+02 0.00000000E+00 0.0000E+00 0.9000E+01
        1 -1    0    0  501    0 0.00000000E+00 0.00000000E+00 -.43859695E+03 0.43859695E+03 0.00000000E+00 0.0000E+00 0.9000E+01
      -24  2    1    2    0    0 0.24491689E+02 0.14607217E+02 -.78489331E+02 0.11917175E+03 0.85018336E+02 0.0000E+00 0.0000E+00
  9900012  1    3    3    0    0 -.78544279E+01 0.10347311E+02 -.66953965E+02 0.84567088E+02 0.50000000E+02 0.0000E+00 0.9000E+01
       13  1    3    3    0    0 0.32346117E+02 0.42599058E+01 -.11535366E+02 0.34604663E+02 0.00000000E+00 0.0000E+00 0.9000E+01
        2  1    1    2  501    0 -.24491689E+02 -.14607217E+02 -.33916805E+03 0.34036477E+03 0.00000000E+00 0.0000E+00 0.9000E+01
#aMCatNLO 1  0  0  2  5 0.21419533D+02 0.00000000D+00  -5  6  0 0.00000000D+00 0.00000000D+00 0.00000000D+00 0.00000000D+00 0.00000000D+00
  <mgrwgt>
 0.2739289821D-03    9    2    0
 0.958333581399963D+02 0.000000000000000D+00 0.000000000000000D+00 0.958333581399963D+02
 0.958333581399963D+02 0.000000000000000D+00 0.000000000000000D+00 -.958333581399963D+02
 0.568583223734484D+02 -.785442793475977D+01 0.103473112406888D+02 0.237509986111945D+02
 0.578309896447861D+02 0.323461165301651D+02 0.425990575664582D+01 0.477494011654265D+02
 0.769774042617582D+02 -.244916885954053D+02 -.146072169973346D+02 -.715003997766210D+02
 0.000000000000000D+00 0.000000000000000D+00 -.000000000000000D+00 -.000000000000000D+00
 0.981622169732014D+02 0.000000000000000D+00 0.000000000000000D+00 0.981622169732014D+02
 0.158795706037724D+03 0.000000000000000D+00 0.000000000000000D+00 -.158795706037724D+03
 0.584625211512189D+02 -.135086168150518D+02 0.130871584414590D+02 0.237509986111945D+02
 0.551970566171281D+02 0.268043436571758D+02 0.694527959448972D+01 0.477494011654265D+02
 0.791484181292796D+02 -.321465483927240D+02 -.108979057889533D+02 -.715003997766210D+02
 0.641499271132988D+02 0.188508215506001D+02 -.913453224699540D+01 -.606334890645226D+02
0.439286179945D-06 0.000000000000D+00 0.000000000000D+00 0.839120376388D-07 0.000000000000D+00  6 22 1 9900012 13 2 21 0 0.32214726D-02 0.67476454D-01 0.31810927D+04 0.31810927D+04 0.31810927D+04 0.12645802D+01  1  2  2  1  6  2        1 0.567651795731D-04 0.100000000000D+01
0.267870820452D-07 0.000000000000D+00 -.843487298849D-09 0.839120376388D-07 0.000000000000D+00  6 22 1 9900012 13 2 21 2 0.32214726D-02 0.67476454D-01 0.31810927D+04 0.31810927D+04 0.31810927D+04 0.12645802D+01  1  2  3  1  6  2        1 0.553544589262D-05 0.100000000000D+01
-.690627594623D-07 0.000000000000D+00 0.000000000000D+00 0.839120376388D-07 0.000000000000D+00  6 22 1 9900012 13 2 21 2 0.32214726D-02 0.67476454D-01 0.31810927D+04 0.31810927D+04 0.31810927D+04 0.12645802D+01  1  2 15  1  6  2        1 -.142715495310D-04 0.100000000000D+01
0.152638204807D-05 0.000000000000D+00 0.000000000000D+00 0.839120376388D-07 0.000000000000D+00  6 22 1 9900012 13 2 21 2 0.32214726D-02 0.11452544D+00 0.46240701D+04 0.46240701D+04 0.46240701D+04 0.12456872D+01  1  2 12  1  6  2        1 0.154149923494D-03 0.100000000000D+01
-.340169433597D-06 0.000000000000D+00 0.000000000000D+00 0.839120376388D-07 0.000000000000D+00  6 22 1 9900012 13 2 21 2 0.32214726D-02 0.67476454D-01 0.31810927D+04 0.31810927D+04 0.31810927D+04 0.12645802D+01  1  2  4  1  6  2        1 -.702946849837D-04 0.100000000000D+01
-.159471103056D-05 0.000000000000D+00 -.146310586854D-06 0.839120376388D-07 0.000000000000D+00  6 22 1 9900012 13 2 21 2 0.32214726D-02 0.11295464D+00 0.31810927D+04 0.31810927D+04 0.31810927D+04 0.12645802D+01  1  2  5  1  6  2        1 -.165067031381D-03 0.100000000000D+01
0.148595500754D-05 0.000000000000D+00 0.128830677496D-06 0.839120376388D-07 0.000000000000D+00  6 22 1 9900012 13 2 21 2 0.32214726D-02 0.67476454D-01 0.31810927D+04 0.31810927D+04 0.31810927D+04 0.12645802D+01  1  2  6  1  6  2        1 0.307066799183D-03 0.100000000000D+01
0.900539452788D-07 0.000000000000D+00 0.000000000000D+00 0.839120376388D-07 0.000000000000D+00  6 22 21 9900012 13 2 -1 2 0.32214726D-02 0.11452544D+00 0.46240701D+04 0.46240701D+04 0.46240701D+04 0.12456872D+01  1  2 12  3  6  2        1 0.197873122967D-04 0.100000000000D+01
-.852684367998D-07 0.000000000000D+00 -.844907123335D-08 0.839120376388D-07 0.000000000000D+00  6 22 21 9900012 13 2 -1 2 0.32214726D-02 0.11295464D+00 0.31810927D+04 0.31810927D+04 0.31810927D+04 0.12645802D+01  1  2  5  3  6  2        1 -.197424124761D-04 0.100000000000D+01
  </mgrwgt>
  </event>
  <event>
  6     66 0.15202802E-05 0.21097498E+02 0.78161638E-02 0.13065177E+00
       22 -1    0    0    0    0 0.00000000E+00 0.00000000E+00 0.34228286E+02 0.34228286E+02 0.00000000E+00 0.0000E+00 0.9000E+01
        3 -1    0    0  501    0 -.00000000E+00 -.00000000E+00 -.10205246E+03 0.10205246E+03 0.00000000E+00 0.0000E+00 0.9000E+01
      -24  2    1    2    0    0 -.10758040E+02 0.18148526E+02 -.20038894E+02 0.84045343E+02 0.78847689E+02 0.0000E+00 0.0000E+00
  9900012  1    3    3    0    0 -.24400125E+02 -.17320428E+01 -.22003974E+02 0.59854331E+02 0.50000000E+02 0.0000E+00 0.9000E+01
       13  1    3    3    0    0 0.13642086E+02 0.19880569E+02 0.19650800E+01 0.24191012E+02 0.00000000E+00 0.0000E+00 0.9000E+01
        4  1    1    2  501    0 0.10758040E+02 -.18148526E+02 -.47785275E+02 0.52235399E+02 0.00000000E+00 0.0000E+00 0.9000E+01
#aMCatNLO 1  0  0  5  2 0.12217682D+02 0.00000000D+00  -5  6  0 0.00000000D+00 0.00000000D+00 0.00000000D+00 0.00000000D+00 0.00000000D+00
  <mgrwgt>
 0.3986975631D-04    5    2    0
 0.591022900402143D+02 0.000000000000000D+00 0.000000000000000D+00 0.591022900402143D+02
 0.591022900402143D+02 -.000000000000000D+00 -.000000000000000D+00 -.591022900402143D+02
 0.563818373803391D+02 -.244001253288410D+02 -.173204282461560D+01 0.897471436724043D+01
 0.290179024490502D+02 0.136420857636603D+02 0.198805687581094D+02 0.161460566211572D+02
 0.328048402510393D+02 0.107580395651806D+02 -.181485259334938D+02 -.251207709883977D+02
 0.000000000000000D+00 0.000000000000000D+00 0.000000000000000D+00 0.000000000000000D+00
 0.591022900402143D+02 0.000000000000000D+00 0.000000000000000D+00 0.591022900402143D+02
 0.591022900402143D+02 -.000000000000000D+00 -.000000000000000D+00 -.591022900402143D+02
 0.551197543124888D+02 -.222224160637207D+02 -.540578029640942D+01 0.388961169616850D+01
 0.269666065984594D+02 0.147355049893862D+02 0.180359996752355D+02 0.135928466429498D+02
 0.268645065125228D+02 0.955489795713041D+01 -.662987660415956D+01 -.242167374227789D+02
 0.925371265695766D+01 -.206798688279587D+01 -.600034277466657D+01 0.673427908366065D+01
0.147377273135D-06 0.000000000000D+00 0.000000000000D+00 0.104435651639D-06 0.000000000000D+00  6 22 3 9900012 13 4 21 0 0.52658902D-02 0.15700378D-01 0.25437665D+04 0.25437665D+04 0.25437665D+04 0.12763129D+01  1  2  2  2  6  5        4 0.323521690978D-04 0.100000000000D+01
0.666474548550D-08 0.000000000000D+00 -.282983767083D-09 0.104435651639D-06 0.000000000000D+00  6 22 3 9900012 13 4 21 2 0.52658902D-02 0.15700378D-01 0.25437665D+04 0.25437665D+04 0.25437665D+04 0.12763129D+01  1  2  3  2  6  5        4 0.238325658564D-05 0.100000000000D+01
-.233137901550D-07 0.000000000000D+00 0.000000000000D+00 0.104435651639D-06 0.000000000000D+00  6 22 3 9900012 13 4 21 2 0.52658902D-02 0.15700378D-01 0.25437665D+04 0.25437665D+04 0.25437665D+04 0.12763129D+01  1  2 15  2  6  5        4 -.833681406797D-05 0.100000000000D+01
0.423906865272D-07 0.000000000000D+00 0.000000000000D+00 0.104435651639D-06 0.000000000000D+00  6 22 3 9900012 13 4 21 2 0.52658902D-02 0.15700378D-01 0.23159670D+04 0.23159670D+04 0.23159670D+04 0.12813347D+01  1  2 12  2  6  5        4 0.150938869771D-04 0.100000000000D+01
-.453797730449D-08 0.000000000000D+00 0.000000000000D+00 0.104435651639D-06 0.000000000000D+00  6 22 3 9900012 13 4 21 2 0.52658902D-02 0.15700378D-01 0.25437665D+04 0.25437665D+04 0.25437665D+04 0.12763129D+01  1  2  4  2  6  5        4 -.162274228174D-05 0.100000000000D+01
  </mgrwgt>
  </event>
  <event>
  6     66 -.15202802E-05 0.30608256E+02 0.78161638E-02 0.12331348E+00
       22 -1    0    0    0    0 0.00000000E+00 0.00000000E+00 0.47598862E+03 0.47598862E+03 0.00000000E+00 0.0000E+00 0.9000E+01
        3 -1    0    0  501    0 0.00000000E+00 0.00000000E+00 -.19957936E+02 0.19957936E+02 0.00000000E+00 0.0000E+00 0.9000E+01
      -24  2    1    2    0    0 -.14561131E+02 0.44779189E+02 0.43447574E+03 0.44416028E+03 0.79322048E+02 0.0000E+00 0.0000E+00
  9900012  1    3    3    0    0 -.21935712E+01 0.45868581E+02 0.41827973E+03 0.42375308E+03 0.50000000E+02 0.0000E+00 0.9000E+01
       13  1    3    3    0    0 -.12367559E+02 -.10893913E+01 0.16196005E+02 0.20407201E+02 0.00000000E+00 0.0000E+00 0.9000E+01
        4  1    1    2  501    0 0.14561131E+02 -.44779189E+02 0.21554944E+02 0.51786272E+02 0.00000000E+00 0.0000E+00 0.9000E+01
#aMCatNLO 1  0  0  2  5 0.10130301D+02 0.00000000D+00  -5  6  0 0.00000000D+00 0.00000000D+00 0.00000000D+00 0.00000000D+00 0.00000000D+00
  <mgrwgt>
 -.3690024455D-03    9    2    0
 0.974666633193585D+02 0.000000000000000D+00 0.000000000000000D+00 0.974666633193585D+02
 0.974666633193585D+02 0.000000000000000D+00 0.000000000000000D+00 -.974666633193585D+02
 0.995750124578911D+02 -.219357115884863D+01 0.458685807488956D+02 0.728453474948283D+02
 0.140304695764361D+02 -.123675593557979D+02 -.108939132227582D+01 -.653534839645631D+01
 0.813278446043897D+02 0.145611305146466D+02 -.447791894266198D+02 -.663099990983720D+02
 0.000000000000000D+00 -.000000000000000D+00 -.000000000000000D+00 -.000000000000000D+00
 0.979468042975936D+02 0.000000000000000D+00 0.000000000000000D+00 0.979468042975936D+02
 0.170352557691131D+03 0.000000000000000D+00 0.000000000000000D+00 -.170352557691131D+03
 0.102060515412086D+03 -.169776559065482D+01 0.510590026003007D+02 0.728453474948283D+02
 0.139322605658372D+02 -.122988012482715D+02 -.369585804425853D+00 -.653534839645631D+01
 0.792014197464586D+02 0.149558590823945D+02 -.406469087205434D+02 -.663099990983720D+02
 0.731051662643428D+02 -.959292243468181D+00 -.100425080753315D+02 -.724057533935372D+02
0.392264670417D-06 0.000000000000D+00 0.000000000000D+00 0.134175285191D-05 0.000000000000D+00  6 22 3 9900012 13 4 21 0 0.73229018D-01 0.30704517D-02 0.40570730D+04 0.40570730D+04 0.40570730D+04 0.12521958D+01  1  2  2  1  6  2        3 0.215358297574D-04 0.100000000000D+01
0.350096137052D-08 0.000000000000D+00 -.753199810030D-09 0.134175285191D-05 0.000000000000D+00  6 22 3 9900012 13 4 21 2 0.73229018D-01 0.30704517D-02 0.40570730D+04 0.40570730D+04 0.40570730D+04 0.12521958D+01  1  2  3  1  6  2        3 0.301379854016D-06 0.100000000000D+01
-.535141263650D-07 0.000000000000D+00 0.000000000000D+00 0.134175285191D-05 0.000000000000D+00  6 22 3 9900012 13 4 21 2 0.73229018D-01 0.30704517D-02 0.40570730D+04 0.40570730D+04 0.40570730D+04 0.12521958D+01  1  2 15  1  6  2        3 -.460675736884D-05 0.100000000000D+01
0.808055034791D-05 0.000000000000D+00 0.000000000000D+00 0.134175285191D-05 0.000000000000D+00  6 22 3 9900012 13 4 21 2 0.73229018D-01 0.53929824D-02 0.47050847D+04 0.47050847D+04 0.47050847D+04 0.12448305D+01  1  2 12  1  6  2        3 0.303088383393D-03 0.100000000000D+01
-.115971729350D-04 0.000000000000D+00 0.000000000000D+00 0.134175285191D-05 0.000000000000D+00  6 22 3 9900012 13 4 21 2 0.73229018D-01 0.30704517D-02 0.40570730D+04 0.40570730D+04 0.40570730D+04 0.12521958D+01  1  2  4  1  6  2        3 -.998341288649D-03 0.100000000000D+01
-.799972845771D-05 0.000000000000D+00 -.133877828499D-06 0.134175285191D-05 0.000000000000D+00  6 22 3 9900012 13 4 21 2 0.73229018D-01 0.53845678D-02 0.40570730D+04 0.40570730D+04 0.40570730D+04 0.12521958D+01  1  2  5  1  6  2        3 -.299508412073D-03 0.100000000000D+01
0.696550883688D-05 0.000000000000D+00 0.115218005849D-06 0.134175285191D-05 0.000000000000D+00  6 22 3 9900012 13 4 21 2 0.73229018D-01 0.30704517D-02 0.40570730D+04 0.40570730D+04 0.40570730D+04 0.12521958D+01  1  2  6  1  6  2        3 0.599625021311D-03 0.100000000000D+01
0.502239608811D-06 0.000000000000D+00 0.000000000000D+00 0.134175285191D-05 0.000000000000D+00  6 22 21 9900012 13 4 -3 2 0.73229018D-01 0.53929824D-02 0.47050847D+04 0.47050847D+04 0.47050847D+04 0.12448305D+01  1  2 12  3  6  2        3 0.343640356439D-03 0.100000000000D+01
-.489227697739D-06 0.000000000000D+00 -.830155975702D-08 0.134175285191D-05 0.000000000000D+00  6 22 21 9900012 13 4 -3 2 0.73229018D-01 0.53845678D-02 0.40570730D+04 0.40570730D+04 0.40570730D+04 0.12521958D+01  1  2  5  3  6  2        3 -.334736958186D-03 0.100000000000D+01
  </mgrwgt>
  </event>
  <event>
  6     66 0.15202802E-05 0.12370025E+02 0.78161638E-02 0.12519813E+00
       22 -1    0    0    0    0 0.00000000E+00 0.00000000E+00 0.54893251E+02 0.54893251E+02 0.00000000E+00 0.0000E+00 0.9000E+01
        1 -1    0    0  501    0 0.00000000E+00 0.00000000E+00 -.19267113E+03 0.19267113E+03 0.00000000E+00 0.0000E+00 0.9000E+01
      -24  2    1    2    0    0 0.11692560E+02 -.40375175E+01 0.22977068E+02 0.86334202E+02 0.82295998E+02 0.0000E+00 0.0000E+00
  9900012  1    3    3    0    0 0.47248613E+01 -.27296795E+01 -.11117050E+02 0.51510817E+02 0.50000000E+02 0.0000E+00 0.9000E+01
       13  1    3    3    0    0 0.69676988E+01 -.13078381E+01 0.34094118E+02 0.34823385E+02 0.00000000E+00 0.0000E+00 0.9000E+01
        2  1    1    2  501    0 -.11692560E+02 0.40375175E+01 -.16075494E+03 0.16123018E+03 0.00000000E+00 0.0000E+00 0.9000E+01
#aMCatNLO 1  0  0  2  5 0.47377136D+02 0.00000000D+00  -5  6  0 0.00000000D+00 0.00000000D+00 0.00000000D+00 0.00000000D+00 0.00000000D+00
  <mgrwgt>
 0.1153088362D-03    4    2    0
 0.102841355753078D+03 0.000000000000000D+00 0.000000000000000D+00 0.102841355753078D+03
 0.102841355753078D+03 0.000000000000000D+00 0.000000000000000D+00 -.102841355753078D+03
 0.545527609654129D+02 0.472486133493813D+01 -.272967947436960D+01 0.211241157041493D+02
 0.647523782733265D+02 0.696769884692880D+01 -.130783805966234D+01 0.643631200645227D+02
 0.863775722674162D+02 -.116925601818669D+02 0.403751753403195D+01 -.854872357686720D+02
 0.000000000000000D+00 0.000000000000000D+00 0.000000000000000D+00 0.000000000000000D+00
 0.177116773897781D+03 0.000000000000000D+00 0.000000000000000D+00 0.177116773897781D+03
 0.109987630751789D+03 0.000000000000000D+00 0.000000000000000D+00 -.109987630751789D+03
 0.550624815881322D+02 -.394833992443618D+01 -.837013895955242D+01 0.211241157041493D+02
 0.649397000770150D+02 -.329406284857250D+01 -.798138907723110D+01 0.643631200645227D+02
 0.893780876291183D+02 -.255990587239119D+02 -.500632213501518D+01 -.854872357686720D+02
 0.777241353553053D+02 0.328414614969206D+02 0.213578501717987D+02 0.671291431459921D+02
0.135951077594D-05 0.000000000000D+00 0.000000000000D+00 0.763918606715D-06 0.000000000000D+00  6 22 1 9900012 13 2 21 0 0.84451155D-02 0.29641712D-01 0.12164845D+04 0.12164845D+04 0.12164845D+04 0.13175497D+01  1  2  2  1  6  2        1 0.119123058652D-03 0.100000000000D+01
0.179095398234D-06 0.000000000000D+00 -.261043967351D-08 0.763918606715D-06 0.000000000000D+00  6 22 1 9900012 13 2 21 2 0.84451155D-02 0.29641712D-01 0.12164845D+04 0.12164845D+04 0.12164845D+04 0.13175497D+01  1  2  3  1  6  2        1 0.272415380813D-04 0.100000000000D+01
-.203646467945D-06 0.000000000000D+00 0.000000000000D+00 0.763918606715D-06 0.000000000000D+00  6 22 1 9900012 13 2 21 2 0.84451155D-02 0.29641712D-01 0.12164845D+04 0.12164845D+04 0.12164845D+04 0.13175497D+01  1  2 15  1  6  2        1 -.309759104162D-04 0.100000000000D+01
-.524962734234D-09 0.000000000000D+00 0.000000000000D+00 0.763918606715D-06 0.000000000000D+00  6 22 1 9900012 13 2 21 2 0.84451155D-02 0.29641712D-01 0.12164845D+04 0.12164845D+04 0.12164845D+04 0.13175497D+01  1  2  4  1  6  2        1 -.798501382891D-07 0.100000000000D+01
  </mgrwgt>
  </event>
  <event>
  6     66 0.15202802E-05 0.43314856E+02 0.78161638E-02 0.12334730E+00
       22 -1    0    0    0    0 0.00000000E+00 0.00000000E+00 0.11486170E+03 0.11486170E+03 0.00000000E+00 0.0000E+00 0.9000E+01
        1 -1    0    0  501    0 0.00000000E+00 0.00000000E+00 -.41605055E+02 0.41605055E+02 0.00000000E+00 0.0000E+00 0.9000E+01
      -24  2    1    2    0    0 -.38250873E+02 0.20323569E+02 0.31598610E+02 0.96370427E+02 0.80078776E+02 0.0000E+00 0.0000E+00
  9900012  1    3    3    0    0 -.26547465E+02 -.78680788E+01 0.78410158E+01 0.57690173E+02 0.50000000E+02 0.0000E+00 0.9000E+01
       13  1    3    3    0    0 -.11703408E+02 0.28191648E+02 0.23757595E+02 0.38680254E+02 0.00000000E+00 0.0000E+00 0.9000E+01
        2  1    1    2  501    0 0.38250873E+02 -.20323569E+02 0.41658037E+02 0.60096329E+02 0.00000000E+00 0.0000E+00 0.9000E+01
#aMCatNLO 1  0  0  2  5 0.71300216D+01 0.00000000D+00  -5  6  0 0.00000000D+00 0.00000000D+00 0.00000000D+00 0.00000000D+00 0.00000000D+00
  <mgrwgt>
 0.2743357799D-04   11    2    0
 0.691290632139101D+02 0.000000000000000D+00 0.000000000000000D+00 0.691290632139101D+02
 0.691290632139101D+02 0.000000000000000D+00 0.000000000000000D+00 -.691290632139101D+02
 0.611333884468599D+02 -.265474647124548D+02 -.786807875979407D+01 -.216937003981642D+02
 0.311863924620608D+02 -.117034080961483D+02 0.281916478152664D+02 0.639158096191241D+01
 0.459383455188996D+02 0.382508728086031D+02 -.203235690554723D+02 0.153021194362518D+02
 0.000000000000000D+00 -.000000000000000D+00 0.000000000000000D+00 -.000000000000000D+00
 0.712436666000531D+02 0.000000000000000D+00 0.000000000000000D+00 0.712436666000531D+02
 0.732645435867878D+02 0.000000000000000D+00 0.000000000000000D+00 -.732645435867878D+02
 0.608949797298625D+02 -.252290750326717D+02 -.100536407500408D+02 -.216937003981642D+02
 0.299504132206036D+02 -.110428884573852D+02 0.270966706333080D+02 0.639158096191241D+01
 0.475337632899649D+02 0.392607417877794D+02 -.219976805035989D+02 0.153021194362518D+02
 0.612905394640990D+01 -.298877829772238D+01 0.495465062033165D+01 -.202087698673465D+01
0.559516838908D-07 0.000000000000D+00 0.000000000000D+00 0.118444547319D-06 0.000000000000D+00  6 22 1 9900012 13 2 21 0 0.17671031D-01 0.64007776D-02 0.42898624D+04 0.42898624D+04 0.42898624D+04 0.12494076D+01  1  2  2  1  6  2        1 0.134183112118D-04 0.100000000000D+01
-.254634652104D-08 0.000000000000D+00 -.107434599279D-09 0.118444547319D-06 0.000000000000D+00  6 22 1 9900012 13 2 21 2 0.17671031D-01 0.64007776D-02 0.42898624D+04 0.42898624D+04 0.42898624D+04 0.12494076D+01  1  2  3  1  6  2        1 -.953258013084D-06 0.100000000000D+01
-.597584517594D-08 0.000000000000D+00 0.000000000000D+00 0.118444547319D-06 0.000000000000D+00  6 22 1 9900012 13 2 21 2 0.17671031D-01 0.64007776D-02 0.42898624D+04 0.42898624D+04 0.42898624D+04 0.12494076D+01  1  2 15  1  6  2        1 -.223713553982D-05 0.100000000000D+01
0.115232548183D-06 0.000000000000D+00 0.000000000000D+00 0.118444547319D-06 0.000000000000D+00  6 22 1 9900012 13 2 21 2 0.17671031D-01 0.69911965D-02 0.46888190D+04 0.46888190D+04 0.46888190D+04 0.12450012D+01  1  2 12  1  6  2        1 0.385172506425D-04 0.100000000000D+01
-.602063928605D-07 0.000000000000D+00 0.000000000000D+00 0.118444547319D-06 0.000000000000D+00  6 22 1 9900012 13 2 21 2 0.17671031D-01 0.64007776D-02 0.42898624D+04 0.42898624D+04 0.42898624D+04 0.12494076D+01  1  2  4  1  6  2        1 -.225390479885D-04 0.100000000000D+01
-.465427459720D-06 0.000000000000D+00 -.841998820488D-07 0.118444547319D-06 0.000000000000D+00  6 22 1 9900012 13 2 21 2 0.17671031D-01 0.69871748D-02 0.42898624D+04 0.42898624D+04 0.42898624D+04 0.12494076D+01  1  2  5  1  6  2        1 -.155285024594D-03 0.100000000000D+01
0.471318705085D-06 0.000000000000D+00 0.838774304576D-07 0.118444547319D-06 0.000000000000D+00  6 22 1 9900012 13 2 21 2 0.17671031D-01 0.64007776D-02 0.42898624D+04 0.42898624D+04 0.42898624D+04 0.12494076D+01  1  2  6  1  6  2        1 0.176444301130D-03 0.100000000000D+01
0.204839071832D-08 0.000000000000D+00 0.000000000000D+00 0.118444547319D-06 0.133159032679D-07  6 22 1 9900012 13 2 21 2 0.18211574D-01 0.67836888D-02 0.46888190D+04 0.46888190D+04 0.46888190D+04 0.12450012D+01  1  2 11  1  6  2        1 0.681578114319D-06 0.100000000000D+01
0.173513955653D-08 0.000000000000D+00 0.000000000000D+00 0.118444547319D-06 0.000000000000D+00  6 22 21 9900012 13 2 -1 2 0.17671031D-01 0.69911965D-02 0.46888190D+04 0.46888190D+04 0.46888190D+04 0.12450012D+01  1  2 12  3  6  2        1 0.755460768753D-05 0.100000000000D+01
-.652278917190D-08 0.000000000000D+00 -.121926362567D-08 0.118444547319D-06 0.000000000000D+00  6 22 21 9900012 13 2 -1 2 0.17671031D-01 0.69871748D-02 0.42898624D+04 0.42898624D+04 0.42898624D+04 0.12494076D+01  1  2  5  3  6  2        1 -.283611501188D-04 0.100000000000D+01
0.441798082770D-10 0.000000000000D+00 0.000000000000D+00 0.118444547319D-06 0.207623844950D-09  6 22 21 9900012 13 2 -1 2 0.18211574D-01 0.67836888D-02 0.46888190D+04 0.46888190D+04 0.46888190D+04 0.12450012D+01  1  2 11  3  6  2        1 0.193145459747D-06 0.100000000000D+01
  </mgrwgt>
  </event>
  <event>
  7     66 0.15202802E-05 0.22902703E+02 0.78161638E-02 0.13039550E+00
       22 -1    0    0    0    0 0.00000000E+00 0.00000000E+00 0.19961448E+03 0.19961448E+03 0.00000000E+00 0.0000E+00 0.9000E+01
       21 -1    0    0  501  502 0.00000000E+00 0.00000000E+00 -.20012382E+03 0.20012382E+03 0.00000000E+00 0.0000E+00 0.9000E+01
      -24  2    1    2    0    0 -.26609933E+02 -.16256619E+01 0.18941132E+03 0.20770293E+03 0.80951394E+02 0.0000E+00 0.0000E+00
  9900012  1    3    3    0    0 -.10993576E+02 0.84157627E+01 0.71505668E+02 0.88344464E+02 0.50000000E+02 0.0000E+00 0.9000E+01
       13  1    3    3    0    0 -.15616357E+02 -.10041425E+02 0.11790566E+03 0.11935847E+03 0.00000000E+00 0.0000E+00 0.9000E+01
        4  1    1    2  501    0 0.16805063E+02 -.83028019E+00 -.86447753E+02 0.88069935E+02 0.00000000E+00 0.0000E+00 0.9000E+01
       -3  1    1    2    0  502 0.98048694E+01 0.24559421E+01 -.10347292E+03 0.10396543E+03 0.00000000E+00 0.0000E+00 0.9000E+01
#aMCatNLO 2  0  0  2  5 0.10119798D+02 0.00000000D+00  -5  6  0 0.00000000D+00 0.00000000D+00 0.00000000D+00 0.00000000D+00 0.00000000D+00
  <mgrwgt>
 0.1583342550D-03    2    2    0
 0.138544150341226D+03 0.000000000000000D+00 0.000000000000000D+00 0.138544150341226D+03
 0.138544150341226D+03 0.000000000000000D+00 0.000000000000000D+00 -.138544150341226D+03
 0.674163965829856D+02 -.860405055635580D+01 0.901429550070239D+01 0.434704879071318D+02
 0.829527354176787D+02 -.126716552881896D+02 -.930383025964055D+01 0.814495193849080D+02
 0.126719168681788D+03 0.212757058445454D+02 0.289534758938159D+00 -.124920007292040D+03
 0.000000000000000D+00 0.000000000000000D+00 0.000000000000000D+00 -.000000000000000D+00
 0.138807542009917D+03 0.000000000000000D+00 0.000000000000000D+00 0.138807542009917D+03
 0.287791371761973D+03 0.000000000000000D+00 0.000000000000000D+00 -.287791371761973D+03
 0.676857968109977D+02 -.109935757914601D+02 0.841576273269360D+01 0.434704879071318D+02
 0.835387635627149D+02 -.156163568378071D+02 -.100414246334348D+02 0.814495193849080D+02
 0.126048037424501D+03 0.168050632707684D+02 -.830280188043912D+00 -.124920007292040D+03
 0.149326315973676D+03 0.980486935849880D+01 0.245594208878513D+01 -.148983829752055D+03
-.954865205613D-06 0.000000000000D+00 0.000000000000D+00 0.689142031499D-05 0.000000000000D+00  6 22 21 9900012 13 4 -3 2 0.30651647D-01 0.30846814D-01 0.23707597D+04 0.23707597D+04 0.23707597D+04 0.12800774D+01  1  2 13  3  6  2        3 -.145791640597D-03 0.100000000000D+01
0.199071081531D-05 0.000000000000D+00 0.000000000000D+00 0.689142031499D-05 0.145283711049D-06  6 22 21 9900012 13 4 -3 2 0.30709920D-01 0.30788281D-01 0.23707597D+04 0.23707597D+04 0.23707597D+04 0.12800774D+01  1  2  1  3  6  2        3 0.304125895552D-03 0.100000000000D+01
  </mgrwgt>
  </event>
  <event>
  6     66 0.15202802E-05 0.66532722E+02 0.78161638E-02 0.11975969E+00
       22 -1    0    0    0    0 0.00000000E+00 0.00000000E+00 0.12004319E+03 0.12004319E+03 0.00000000E+00 0.0000E+00 0.9000E+01
        3 -1    0    0  501    0 0.00000000E+00 0.00000000E+00 -.13082737E+03 0.13082737E+03 0.00000000E+00 0.0000E+00 0.9000E+01
      -24  2    1    2    0    0 0.41019799E+02 0.52383005E+02 0.84960805E+02 0.13427850E+03 0.79911046E+02 0.0000E+00 0.0000E+00
  9900012  1    3    3    0    0 0.26884448E+02 0.60261821E+02 0.84190251E+02 0.11807734E+03 0.50000000E+02 0.0000E+00 0.9000E+01
       13  1    3    3    0    0 0.14135351E+02 -.78788162E+01 0.77055419E+00 0.16201162E+02 0.00000000E+00 0.0000E+00 0.9000E+01
        4  1    1    2  501    0 -.41019799E+02 -.52383005E+02 -.95744989E+02 0.11659205E+03 0.00000000E+00 0.0000E+00 0.9000E+01
#aMCatNLO 1  0  0  2  5 0.10119798D+02 0.00000000D+00  -5  6  0 0.00000000D+00 0.00000000D+00 0.00000000D+00 0.00000000D+00 0.00000000D+00
  <mgrwgt>
 0.3780614056D-05    1    2    0
 0.125319328613788D+03 0.000000000000000D+00 0.000000000000000D+00 0.125319328613788D+03
 0.125319328613788D+03 0.000000000000000D+00 0.000000000000000D+00 -.125319328613788D+03
 0.121809030088657D+03 0.268844484370597D+02 0.602618214167054D+02 0.893486380585370D+02
 0.162493057875176D+02 0.141353506383340D+02 -.787881619326753D+01 0.146835155882652D+01
 0.112580321351401D+03 -.410197990753937D+02 -.523830052234378D+02 -.908169896173635D+02
 0.000000000000000D+00 0.000000000000000D+00 -.000000000000000D+00 0.000000000000000D+00
 0.500254860883197D+03 0.000000000000000D+00 0.000000000000000D+00 0.500254860883197D+03
 0.165715860186297D+03 0.000000000000000D+00 0.000000000000000D+00 -.165715860186297D+03
 0.136223193347734D+03 -.455232430046934D+02 0.774675004713216D+02 0.893486380585370D+02
 0.939911894292630D+01 0.693802001382450D+01 -.616857024688367D+01 0.146835155882652D+01
 0.150502113568465D+03 -.114844655202786D+03 -.348405762978737D+02 -.908169896173635D+02
 0.369846295210368D+03 0.153429878193655D+03 -.364583539265643D+02 0.334539000696900D+03
0.914151266623D-07 0.000000000000D+00 0.000000000000D+00 0.278055724386D-05 0.000000000000D+00  6 22 3 9900012 13 4 21 2 0.18468182D-01 0.20127288D-01 0.68480600D+04 0.68480600D+04 0.68480600D+04 0.12267618D+01  1  2 14  1  6  2        3 0.378061405610D-05 0.100000000000D+01
  </mgrwgt>
  </event>
  <event>
  7     66 0.15202802E-05 0.14271530E+02 0.78161638E-02 0.12802013E+00
       22 -1    0    0    0    0 0.00000000E+00 0.00000000E+00 0.58959919E+02 0.58959919E+02 0.00000000E+00 0.0000E+00 0.9000E+01
       21 -1    0    0  501  502 0.00000000E+00 0.00000000E+00 -.53704126E+03 0.53704126E+03 0.00000000E+00 0.0000E+00 0.9000E+01
      -24  2    1    2    0    0 -.24857069E+02 -.15661189E+01 0.24854657E+02 0.87605358E+02 0.80228538E+02 0.0000E+00 0.0000E+00
  9900012  1    3    3    0    0 -.34391467E+02 0.16972057E+02 0.20878396E+02 0.66383215E+02 0.50000000E+02 0.0000E+00 0.9000E+01
       13  1    3    3    0    0 0.95343988E+01 -.18538176E+02 0.39762613E+01 0.21222144E+02 0.00000000E+00 0.0000E+00 0.9000E+01
        4  1    1    2  501    0 0.17771769E+02 0.12719816E+01 -.26652114E+02 0.32059147E+02 0.00000000E+00 0.0000E+00 0.9000E+01
       -3  1    1    2    0  502 0.70852995E+01 0.29413725E+00 -.47628388E+03 0.47633667E+03 0.00000000E+00 0.0000E+00 0.9000E+01
#aMCatNLO 2  0  0  2  5 0.70931917D+01 0.00000000D+00  -5  6  0 0.00000000D+00 0.00000000D+00 0.00000000D+00 0.00000000D+00 0.00000000D+00
  <mgrwgt>
 0.2433387267D-04    2    2    0
 0.597203378879309D+02 0.000000000000000D+00 0.000000000000000D+00 0.597203378879309D+02
 0.597203378879309D+02 0.000000000000000D+00 0.000000000000000D+00 -.597203378879309D+02
 0.648234847796185D+02 -.304937404161513D+02 0.171338664747661D+02 0.218779933730382D+02
 0.218416865995619D+02 0.108124036192517D+02 -.184851213952197D+02 0.429551958345730D+01
 0.327755043966814D+02 0.196813367968996D+02 0.135125492045367D+01 -.261735129564955D+02
 0.000000000000000D+00 0.000000000000000D+00 0.000000000000000D+00 -.000000000000000D+00
 0.598522965809618D+02 0.000000000000000D+00 0.000000000000000D+00 0.598522965809618D+02
 0.529034151415637D+03 0.000000000000000D+00 0.000000000000000D+00 -.529034151415637D+03
 0.667043503466346D+02 -.343914674488617D+02 0.169720572662759D+02 0.218779933730382D+02
 0.212842717292718D+02 0.953439875109210D+01 -.185381761510885D+02 0.429551958345730D+01
 0.316623830008424D+02 0.177717691726854D+02 0.127198163547512D+01 -.261735129564955D+02
 0.469235442919850D+03 0.708529952508423D+01 0.294137249337539D+00 -.469181854834675D+03
-.326045047162D-06 0.000000000000D+00 0.000000000000D+00 0.293789567540D-06 0.000000000000D+00  6 22 21 9900012 13 4 -3 2 0.90507581D-02 0.82804294D-01 0.29576966D+04 0.29576966D+04 0.29576966D+04 0.12683645D+01  1  2 13  3  6  2        3 -.387859454412D-04 0.100000000000D+01
0.529562401804D-06 0.000000000000D+00 0.000000000000D+00 0.293789567540D-06 0.962643482767D-07  6 22 21 9900012 13 4 -3 2 0.90707567D-02 0.82621732D-01 0.29576966D+04 0.29576966D+04 0.29576966D+04 0.12683645D+01  1  2  1  3  6  2        3 0.631198181103D-04 0.100000000000D+01
  </mgrwgt>
  </event>
  <event>
  6     66 0.15202802E-05 0.41510092E+02 0.78161638E-02 0.12117797E+00
       22 -1    0    0    0    0 0.00000000E+00 0.00000000E+00 0.71930805E+03 0.71930805E+03 0.00000000E+00 0.0000E+00 0.9000E+01
        1 -1    0    0  501    0 0.00000000E+00 0.00000000E+00 -.77335427E+01 0.77335427E+01 0.00000000E+00 0.0000E+00 0.9000E+01
      -24  2    1    2    0    0 0.46596680E+02 -.21036693E+02 0.54955351E+03 0.55714576E+03 0.76082426E+02 0.0000E+00 0.0000E+00
  9900012  1    3    3    0    0 0.37523353E+02 -.58596389E+01 0.27734265E+03 0.28436118E+03 0.50000000E+02 0.0000E+00 0.9000E+01
       13  1    3    3    0    0 0.90733268E+01 -.15177055E+02 0.27221087E+03 0.27278457E+03 0.00000000E+00 0.0000E+00 0.9000E+01
        2  1    1    2  501    0 -.46596680E+02 0.21036693E+02 0.16202099E+03 0.16989584E+03 0.00000000E+00 0.0000E+00 0.9000E+01
#aMCatNLO 1  0  0  2  5 0.28605037D+02 0.00000000D+00  -5  6  0 0.00000000D+00 0.00000000D+00 0.00000000D+00 0.00000000D+00 0.00000000D+00
  <mgrwgt>
 0.1705652131D-03    6    2    0
 0.745841773677323D+02 0.000000000000000D+00 0.000000000000000D+00 0.745841773677323D+02
 0.745841773677323D+02 0.000000000000000D+00 0.000000000000000D+00 -.745841773677323D+02
 0.629654227473615D+02 0.375233531118714D+02 -.585963890949011D+01 -.472303555419167D+01
 0.310214476843165D+02 0.907332676684062D+01 -.151770545892943D+02 0.254884674275740D+02
 0.551814843037866D+02 -.465966798787120D+02 0.210366934987844D+02 -.207654318733823D+02
 0.000000000000000D+00 -.000000000000000D+00 0.000000000000000D+00 0.000000000000000D+00
 0.858273534474782D+02 0.000000000000000D+00 0.000000000000000D+00 0.858273534474782D+02
 0.840858663700114D+02 0.000000000000000D+00 0.000000000000000D+00 -.840858663700114D+02
 0.674361917555008D+02 0.433917278950223D+02 -.119369528742836D+02 -.472303555419167D+01
 0.335236384014935D+02 0.119780051867076D+02 -.181851519546799D+02 0.254884674275740D+02
 0.494659801504658D+02 -.418873015181355D+02 0.161596411744506D+02 -.207654318733823D+02
 0.194874095100293D+02 -.134824315635943D+02 0.139624636545129D+02 0.174148707746682D+01
0.109292038131D-05 0.000000000000D+00 0.000000000000D+00 0.126208318675D-07 0.000000000000D+00  6 22 1 9900012 13 2 21 0 0.11066278D+00 0.11897758D-02 0.43293591D+04 0.43293591D+04 0.43293591D+04 0.12489513D+01  1  2  2  1  6  2        1 0.120368568068D-03 0.100000000000D+01
-.248481800655D-07 0.000000000000D+00 -.209855101839D-08 0.126208318675D-07 0.000000000000D+00  6 22 1 9900012 13 2 21 2 0.11066278D+00 0.11897758D-02 0.43293591D+04 0.43293591D+04 0.43293591D+04 0.12489513D+01  1  2  3  1  6  2        1 -.426884294990D-05 0.100000000000D+01
-.129765647902D-06 0.000000000000D+00 0.000000000000D+00 0.126208318675D-07 0.000000000000D+00  6 22 1 9900012 13 2 21 2 0.11066278D+00 0.11897758D-02 0.43293591D+04 0.43293591D+04 0.43293591D+04 0.12489513D+01  1  2 15  1  6  2        1 -.222933498439D-04 0.100000000000D+01
0.456151551636D-06 0.000000000000D+00 0.000000000000D+00 0.126208318675D-07 0.000000000000D+00  6 22 1 9900012 13 2 21 2 0.11066278D+00 0.15435491D-02 0.58791981D+04 0.58791981D+04 0.58791981D+04 0.12340045D+01  1  2 12  1  6  2        1 0.557825332768D-04 0.100000000000D+01
-.777633633382D-07 0.000000000000D+00 0.000000000000D+00 0.126208318675D-07 0.000000000000D+00  6 22 1 9900012 13 2 21 2 0.11066278D+00 0.11897758D-02 0.43293591D+04 0.43293591D+04 0.43293591D+04 0.12489513D+01  1  2  4  1  6  2        1 -.133595130296D-04 0.100000000000D+01
0.159038304775D-07 0.000000000000D+00 0.000000000000D+00 0.126208318675D-07 0.000000000000D+00  6 22 21 9900012 13 2 -1 2 0.11066278D+00 0.15435491D-02 0.58791981D+04 0.58791981D+04 0.58791981D+04 0.12340045D+01  1  2 12  3  6  2        1 0.343358175731D-04 0.100000000000D+01
  </mgrwgt>
  </event>
  <event>
  6     66 0.15202802E-05 0.51270488E+02 0.78161638E-02 0.83282667E-01
       22 -1    0    0    0    0 0.00000000E+00 0.00000000E+00 0.17287660E+03 0.17287660E+03 0.00000000E+00 0.0000E+00 0.9000E+01
        1 -1    0    0  501    0 0.00000000E+00 0.00000000E+00 -.81535452E+03 0.81535452E+03 0.00000000E+00 0.0000E+00 0.9000E+01
      -24  2    1    2    0    0 -.45528354E+02 0.23576089E+02 0.15901391E+03 0.18510111E+03 0.79676431E+02 0.0000E+00 0.0000E+00
  9900012  1    3    3    0    0 -.22101845E+02 -.81312565E+01 0.89667759E+02 0.10533241E+03 0.50000000E+02 0.0000E+00 0.9000E+01
       13  1    3    3    0    0 -.23426509E+02 0.31707345E+02 0.69346155E+02 0.79768705E+02 0.00000000E+00 0.0000E+00 0.9000E+01
        2  1    1    2  501    0 0.45528354E+02 -.23576089E+02 -.80149183E+03 0.80313002E+03 0.00000000E+00 0.0000E+00 0.9000E+01
#aMCatNLO 1  0  0  2  5 0.32910410D+02 0.00000000D+00  -5  6  0 0.00000000D+00 0.00000000D+00 0.00000000D+00 0.00000000D+00 0.00000000D+00
  <mgrwgt>
 0.2416720449D-03    5    2    0
 0.375440702212650D+03 0.000000000000000D+00 0.000000000000000D+00 0.375440702212650D+03
 0.375440702212650D+03 0.000000000000000D+00 0.000000000000000D+00 -.375440702212650D+03
 0.215350010401274D+03 -.221018445489569D+02 -.813125654177458D+01 0.208137017645623D+03
 0.164317946380992D+03 -.234265091688253D+02 0.317073454400235D+02 0.159518746284493D+03
 0.371213447643033D+03 0.455283537177822D+02 -.235760888982489D+02 -.367655763930116D+03
 0.000000000000000D+00 -.000000000000000D+00 -.000000000000000D+00 -.000000000000000D+00
 0.114254601666502D+04 0.000000000000000D+00 0.000000000000000D+00 0.114254601666502D+04
 0.251987119555714D+04 0.000000000000000D+00 0.000000000000000D+00 -.251987119555714D+04
 0.452407492836259D+03 0.230127012170725D+02 0.397896892476768D+03 0.208137017645623D+03
 0.417464790035521D+03 0.158794720604297D+02 0.385458769351934D+03 0.159518746284493D+03
 0.779325142147017D+03 0.123260203398253D+03 0.676005797822513D+03 -.367655763930116D+03
 0.201321978720336D+04 -.162152376675755D+03 -.145936145965121D+04 -.137732517889213D+04
0.100393792874D-03 0.000000000000D+00 0.000000000000D+00 0.335632144358D-03 0.000000000000D+00  6 22 1 9900012 13 2 21 0 0.26596401D-01 0.12543916D+00 0.53262120D+04 0.53262120D+04 0.53262120D+04 0.12387670D+01  1  2  2  1  6  2        1 0.290510916748D-03 0.100000000000D+01
0.450241814981D-05 0.000000000000D+00 -.192769299464D-06 0.335632144358D-03 0.000000000000D+00  6 22 1 9900012 13 2 21 2 0.26596401D-01 0.12543916D+00 0.53262120D+04 0.53262120D+04 0.53262120D+04 0.12387670D+01  1  2  3  1  6  2        1 0.199931252800D-04 0.100000000000D+01
-.155096032137D-04 0.000000000000D+00 0.000000000000D+00 0.335632144358D-03 0.000000000000D+00  6 22 1 9900012 13 2 21 2 0.26596401D-01 0.12543916D+00 0.53262120D+04 0.53262120D+04 0.53262120D+04 0.12387670D+01  1  2 15  1  6  2        1 -.688708666713D-04 0.100000000000D+01
0.223251007499D-03 0.000000000000D+00 -.477298899450D-04 0.335632144358D-03 0.000000000000D+00  6 22 1 9900012 13 2 21 2 0.26596401D-01 0.91160555D+00 0.53262120D+04 0.53262120D+04 0.53262120D+04 0.12387670D+01  1  2  5  1  6  2        1 0.381532149060D-07 0.100000000000D+01
0.492028192953D-04 0.000000000000D+00 -.115535701163D-04 0.335632144358D-03 0.000000000000D+00  6 22 21 9900012 13 2 -1 2 0.26596401D-01 0.91160555D+00 0.53262120D+04 0.53262120D+04 0.53262120D+04 0.12387670D+01  1  2  5  3  6  2        1 0.716350388737D-09 0.100000000000D+01
  </mgrwgt>
  </event>
  <event>
  6     66 0.15202802E-05 0.79841945E+02 0.78161638E-02 0.10742735E+00
       22 -1    0    0    0    0 0.00000000E+00 0.00000000E+00 0.27794892E+03 0.27794892E+03 0.00000000E+00 0.0000E+00 0.9000E+01
        1 -1    0    0  501    0 0.00000000E+00 0.00000000E+00 -.12099671E+03 0.12099671E+03 0.00000000E+00 0.0000E+00 0.9000E+01
      -24  2    1    2    0    0 -.40058291E+02 -.16686314E+03 0.11723617E+03 0.22280553E+03 0.80311936E+02 0.0000E+00 0.0000E+00
  9900012  1    3    3    0    0 -.16031005E+01 -.10293460E+03 0.78142664E+02 0.13857986E+03 0.50000000E+02 0.0000E+00 0.9000E+01
       13  1    3    3    0    0 -.38455191E+02 -.63928540E+02 0.39093508E+02 0.84225662E+02 0.00000000E+00 0.0000E+00 0.9000E+01
        2  1    1    2  501    0 0.40058291E+02 0.16686314E+03 0.39716039E+02 0.17614011E+03 0.00000000E+00 0.0000E+00 0.9000E+01
#aMCatNLO 1  0  0  5  2 0.81887939D+02 0.00000000D+00  -5  6  0 0.00000000D+00 0.00000000D+00 0.00000000D+00 0.00000000D+00 0.00000000D+00
  <mgrwgt>
 0.5197581620D-04    4    2    0
 0.183387313068394D+03 0.000000000000000D+00 0.000000000000000D+00 0.183387313068394D+03
 0.183387313068394D+03 -.000000000000000D+00 -.000000000000000D+00 -.183387313068394D+03
 0.117295923379320D+03 -.160310047075362D+01 -.102934604305892D+03 0.256949595578093D+02
 0.748842649653881D+02 -.384551909161968D+02 -.639285395878230D+02 0.648022045716506D+01
 0.174594437792080D+03 0.400582913869504D+02 0.166863143893715D+03 -.321751800149743D+02
 0.000000000000000D+00 -.000000000000000D+00 0.000000000000000D+00 0.000000000000000D+00
 0.183387313068394D+03 0.000000000000000D+00 0.000000000000000D+00 0.183387313068394D+03
 0.183387313068394D+03 -.000000000000000D+00 -.000000000000000D+00 -.183387313068394D+03
 0.905744087734171D+02 0.566826781765957D+01 -.726456595954609D+02 0.198545311337681D+02
 0.562477396086294D+02 -.338681529787438D+02 -.448211951429600D+02 0.279587031982629D+01
 0.615555669249786D+02 0.451690709821114D+02 -.320208489459816D+02 0.268981054880659D+02
 0.158396910829763D+03 -.169691858210272D+02 0.149487703684402D+03 -.495485069416603D+02
0.292630364297D-05 0.000000000000D+00 0.000000000000D+00 0.428184609133D-06 0.000000000000D+00  6 22 1 9900012 13 2 21 0 0.42761373D-01 0.18614879D-01 0.32517902D+05 0.32517902D+05 0.32517902D+05 0.11595875D+01  1  2  2  2  6  5        2 0.530333874464D-04 0.100000000000D+01
-.106540295997D-06 0.000000000000D+00 -.561888825122D-08 0.428184609133D-06 0.000000000000D+00  6 22 1 9900012 13 2 21 2 0.42761373D-01 0.18614879D-01 0.32517902D+05 0.32517902D+05 0.32517902D+05 0.11595875D+01  1  2  3  2  6  5        2 -.259627641774D-05 0.100000000000D+01
-.331729479712D-06 0.000000000000D+00 0.000000000000D+00 0.428184609133D-06 0.000000000000D+00  6 22 1 9900012 13 2 21 2 0.42761373D-01 0.18614879D-01 0.32517902D+05 0.32517902D+05 0.32517902D+05 0.11595875D+01  1  2 15  2  6  5        2 -.808390306397D-05 0.100000000000D+01
0.394719667536D-06 0.000000000000D+00 0.000000000000D+00 0.428184609133D-06 0.000000000000D+00  6 22 1 9900012 13 2 21 2 0.42761373D-01 0.18614879D-01 0.30688932D+05 0.30688932D+05 0.30688932D+05 0.11618829D+01  1  2 12  2  6  5        2 0.962260823041D-05 0.100000000000D+01
  </mgrwgt>
  </event>
  <event>
  6     66 0.15202802E-05 0.55528411E+02 0.78161638E-02 0.11743801E+00
       22 -1    0    0    0    0 0.00000000E+00 0.00000000E+00 0.34720702E+02 0.34720702E+02 0.00000000E+00 0.0000E+00 0.9000E+01
        1 -1    0    0  501    0 0.00000000E+00 0.00000000E+00 -.29228025E+04 0.29228025E+04 0.00000000E+00 0.0000E+00 0.9000E+01
      -24  2    1    2    0    0 0.44753605E+01 -.74804093E+02 -.54154434E+02 0.12260522E+03 0.80521147E+02 0.0000E+00 0.0000E+00
  9900012  1    3    3    0    0 -.53339050E+01 -.41947479E+02 -.58792406E+02 0.88003344E+02 0.50000000E+02 0.0000E+00 0.9000E+01
       13  1    3    3    0    0 0.98092656E+01 -.32856614E+02 0.46379721E+01 0.34601872E+02 0.00000000E+00 0.0000E+00 0.9000E+01
        2  1    1    2  501    0 -.44753605E+01 0.74804093E+02 -.28339273E+04 0.28349180E+04 0.00000000E+00 0.0000E+00 0.9000E+01
#aMCatNLO 1  0  0  2  5 0.14249863D+02 0.00000000D+00  -5  6  0 0.00000000D+00 0.00000000D+00 0.00000000D+00 0.00000000D+00 0.00000000D+00
  <mgrwgt>
 0.7893743424D-03    9    2    0
 0.318562008510817D+03 0.000000000000000D+00 0.000000000000000D+00 0.318562008510817D+03
 0.318562008510817D+03 0.000000000000000D+00 0.000000000000000D+00 -.318562008510817D+03
 0.142004776269850D+03 -.533390504997998D+01 -.419474791700871D+02 0.126005217874670D+03
 0.181645452827351D+03 0.980926555780851D+01 -.328566136297234D+02 0.178379628273121D+03
 0.313473787924433D+03 -.447536050782853D+01 0.748040927998105D+02 -.304384846147791D+03
 0.000000000000000D+00 -.000000000000000D+00 0.000000000000000D+00 -.000000000000000D+00
 0.320670406560756D+03 0.000000000000000D+00 0.000000000000000D+00 0.320670406560756D+03
 0.341405242538322D+03 0.000000000000000D+00 0.000000000000000D+00 -.341405242538322D+03
 0.142556372444650D+03 -.308543754544651D+01 -.439941412927669D+02 0.126005217874670D+03
 0.182314652540742D+03 0.126851060355534D+02 -.354743404880401D+02 0.178379628273121D+03
 0.312398481845883D+03 0.469985920959823D+00 0.703026031412215D+02 -.304384846147791D+03
 0.248061422678031D+02 -.100696544110667D+02 0.916587863958557D+01 -.207348359775660D+02
0.802559698132D-04 0.000000000000D+00 0.000000000000D+00 0.978789783089D-04 0.000000000000D+00  6 22 1 9900012 13 2 21 0 0.53416464D-02 0.44966192D+00 0.76309500D+04 0.76309500D+04 0.76309500D+04 0.12217000D+01  1  2  2  1  6  2        1 0.882754642949D-04 0.100000000000D+01
0.147249858923D-05 0.000000000000D+00 -.154102027982D-06 0.978789783089D-04 0.000000000000D+00  6 22 1 9900012 13 2 21 2 0.53416464D-02 0.44966192D+00 0.76309500D+04 0.76309500D+04 0.76309500D+04 0.12217000D+01  1  2  3  1  6  2        1 0.241738975866D-05 0.100000000000D+01
-.122195662595D-04 0.000000000000D+00 0.000000000000D+00 0.978789783089D-04 0.000000000000D+00  6 22 1 9900012 13 2 21 2 0.53416464D-02 0.44966192D+00 0.76309500D+04 0.76309500D+04 0.76309500D+04 0.12217000D+01  1  2 15  1  6  2        1 -.200607691899D-04 0.100000000000D+01
0.413112472392D-03 0.000000000000D+00 0.000000000000D+00 0.978789783089D-04 0.000000000000D+00  6 22 1 9900012 13 2 21 2 0.53416464D-02 0.48509547D+00 0.88609991D+04 0.88609991D+04 0.88609991D+04 0.12148126D+01  1  2 12  1  6  2        1 0.452935562080D-03 0.100000000000D+01
-.358216018606D-04 0.000000000000D+00 0.000000000000D+00 0.978789783089D-04 0.000000000000D+00  6 22 1 9900012 13 2 21 2 0.53416464D-02 0.44966192D+00 0.76309500D+04 0.76309500D+04 0.76309500D+04 0.12217000D+01  1  2  4  1  6  2        1 -.588080519128D-04 0.100000000000D+01
-.635026448287D-03 0.000000000000D+00 -.818302584765D-04 0.978789783089D-04 0.000000000000D+00  6 22 1 9900012 13 2 21 2 0.53416464D-02 0.48273754D+00 0.76309500D+04 0.76309500D+04 0.76309500D+04 0.12217000D+01  1  2  5  1  6  2        1 -.724214289519D-03 0.100000000000D+01
0.639428894179D-03 0.000000000000D+00 0.816245700537D-04 0.978789783089D-04 0.000000000000D+00  6 22 1 9900012 13 2 21 2 0.53416464D-02 0.44966192D+00 0.76309500D+04 0.76309500D+04 0.76309500D+04 0.12217000D+01  1  2  6  1  6  2        1 0.104974556274D-02 0.100000000000D+01
0.597866495883D-05 0.000000000000D+00 0.000000000000D+00 0.978789783089D-04 0.000000000000D+00  6 22 21 9900012 13 2 -1 2 0.53416464D-02 0.48509547D+00 0.88609991D+04 0.88609991D+04 0.88609991D+04 0.12148126D+01  1  2 12  3  6  2        1 0.284303899683D-05 0.100000000000D+01
-.747983478783D-05 0.000000000000D+00 -.982059153641D-06 0.978789783089D-04 0.000000000000D+00  6 22 21 9900012 13 2 -1 2 0.53416464D-02 0.48273754D+00 0.76309500D+04 0.76309500D+04 0.76309500D+04 0.12217000D+01  1  2  5  3  6  2        1 -.375956488887D-05 0.100000000000D+01
  </mgrwgt>
  </event>
  <event>
  7     66 0.15202802E-05 0.31024925E+02 0.78161638E-02 0.12348223E+00
       22 -1    0    0    0    0 0.00000000E+00 0.00000000E+00 0.30402968E+02 0.30402968E+02 0.00000000E+00 0.0000E+00 0.9000E+01
        3 -1    0    0  501    0 -.00000000E+00 -.00000000E+00 -.19719935E+03 0.19719935E+03 0.00000000E+00 0.0000E+00 0.9000E+01
      -24  2    1    2    0    0 0.14825038E+02 0.19018606E+02 -.85124126E+02 0.12030072E+03 0.81514765E+02 0.0000E+00 0.0000E+00
  9900012  1    3    3    0    0 -.11589892E+02 0.19484802E+01 -.39076104E+02 0.64537308E+02 0.50000000E+02 0.0000E+00 0.9000E+01
       13  1    3    3    0    0 0.26414930E+02 0.17070126E+02 -.46048022E+02 0.55763411E+02 0.00000000E+00 0.0000E+00 0.9000E+01
        4  1    1    2  502    0 0.12323502E+02 0.81598274E+01 0.23014858E+01 0.14958219E+02 0.00000000E+00 0.0000E+00 0.9000E+01
       21  1    1    2  501  502 -.27148541E+02 -.27178433E+02 -.83973739E+02 0.92343377E+02 0.00000000E+00 0.0000E+00 0.9000E+01
#aMCatNLO 2  0  0  5  2 0.31153994D+02 0.00000000D+00  -5  6  0 0.00000000D+00 0.00000000D+00 0.00000000D+00 0.00000000D+00 0.00000000D+00
  <mgrwgt>
 0.4237610213D-05    2    2    0
 0.774302620689852D+02 0.000000000000000D+00 0.000000000000000D+00 0.774302620689852D+02
 0.774302620689852D+02 -.000000000000000D+00 -.000000000000000D+00 -.774302620689852D+02
 0.547794676681317D+02 -.477268374137445D+00 0.162045380358037D+02 0.154264461218105D+02
 0.441044767409698D+02 0.343160704128352D+02 0.272062668317022D+02 -.523748270625353D+01
 0.559765797288688D+02 -.338388020386978D+02 -.434108048675059D+02 -.101889634155570D+02
 0.000000000000000D+00 0.000000000000000D+00 0.000000000000000D+00 0.000000000000000D+00
 0.774302620689852D+02 0.000000000000000D+00 0.000000000000000D+00 0.774302620689852D+02
 0.774302620689852D+02 -.000000000000000D+00 -.000000000000000D+00 -.774302620689852D+02
 0.527641761434869D+02 -.115898915796557D+02 0.194848024187853D+01 0.120804023947776D+02
 0.323596876584993D+02 0.264149298379024D+02 0.170701257432294D+02 -.761653951113389D+01
 0.244633349380328D+02 0.123235023062210D+02 0.815982737745740D+01 0.194936724187373D+02
 0.452733253979513D+02 -.271485405644677D+02 -.271784333625653D+02 -.239575353023810D+02
-.406690170110D-07 0.000000000000D+00 0.000000000000D+00 0.105947281252D-06 0.000000000000D+00  6 22 3 9900012 13 4 21 2 0.46773797D-02 0.30338361D-01 0.46245641D+04 0.46245641D+04 0.46245641D+04 0.12456820D+01  1  2 13  2  6  5        4 -.560553279738D-05 0.100000000000D+01
0.714135417650D-07 0.000000000000D+00 0.000000000000D+00 0.105947281252D-06 0.504900921096D-09  6 22 3 9900012 13 4 21 2 0.46773797D-02 0.30338361D-01 0.46245641D+04 0.46245641D+04 0.46245641D+04 0.12456820D+01  1  2  1  2  6  5        4 0.984314301064D-05 0.100000000000D+01
  </mgrwgt>
  </event>
  <event>
  6     66 0.15202802E-05 0.38393199E+02 0.78161638E-02 0.11845447E+00
       22 -1    0    0    0    0 0.00000000E+00 0.00000000E+00 0.80714613E+01 0.80714613E+01 0.00000000E+00 0.0000E+00 0.9000E+01
        1 -1    0    0  501    0 0.00000000E+00 0.00000000E+00 -.11274499E+04 0.11274499E+04 0.00000000E+00 0.0000E+00 0.9000E+01
      -24  2    1    2    0    0 -.25211622E+02 0.66574262E+02 -.44618784E+03 0.45857724E+03 0.78369255E+02 0.0000E+00 0.0000E+00
  9900012  1    3    3    0    0 -.29098258E+02 0.73214856E+02 -.35477480E+03 0.36684095E+03 0.50000000E+02 0.0000E+00 0.9000E+01
       13  1    3    3    0    0 0.38866368E+01 -.66405938E+01 -.91413038E+02 0.91736290E+02 0.00000000E+00 0.0000E+00 0.9000E+01
        2  1    1    2  501    0 0.25211622E+02 -.66574262E+02 -.67319057E+03 0.67694409E+03 0.00000000E+00 0.0000E+00 0.9000E+01
#aMCatNLO 1  0  0  2  5 0.65238630D+01 0.00000000D+00  -5  6  0 0.00000000D+00 0.00000000D+00 0.00000000D+00 0.00000000D+00 0.00000000D+00
  <mgrwgt>
 0.3481127632D-03   11    2    0
 0.953948007078943D+02 0.000000000000000D+00 0.000000000000000D+00 0.953948007078943D+02
 0.953948007078943D+02 0.000000000000000D+00 0.000000000000000D+00 -.953948007078943D+02
 0.101831926335771D+03 -.290982584324360D+02 0.732148557355904D+02 0.407752066465613D+02
 0.965845827825433D+01 0.388663675645902D+01 -.664059377707634D+01 -.583801210378808D+01
 0.792992168017631D+02 0.252116216759770D+02 -.665742619585141D+02 -.349371945427732D+02
 0.000000000000000D+00 0.000000000000000D+00 0.000000000000000D+00 -.000000000000000D+00
 0.971525678831028D+02 0.000000000000000D+00 0.000000000000000D+00 0.971525678831028D+02
 0.998625379369444D+02 0.000000000000000D+00 0.000000000000000D+00 -.998625379369444D+02
 0.100846779416697D+03 -.310394866980586D+02 0.710211637976404D+02 0.407752066465613D+02
 0.973180612387798D+01 0.370091951894476D+01 -.685046420493287D+01 -.583801210378808D+01
 0.802907381058108D+02 0.236830914328721D+02 -.683015830214684D+02 -.349371945427732D+02
 0.614578217366114D+01 0.365547574624176D+01 0.413088342876083D+01 -.270997005384165D+01
0.631695365591D-06 0.000000000000D+00 0.000000000000D+00 0.168367773640D-06 0.000000000000D+00  6 22 1 9900012 13 2 21 0 0.12417633D-02 0.17345383D+00 0.74127395D+04 0.74127395D+04 0.74127395D+04 0.12230506D+01  1  2  2  1  6  2        1 0.779999000657D-04 0.100000000000D+01
-.122661687481D-07 0.000000000000D+00 -.121293826654D-08 0.168367773640D-06 0.000000000000D+00  6 22 1 9900012 13 2 21 2 0.12417633D-02 0.17345383D+00 0.74127395D+04 0.74127395D+04 0.74127395D+04 0.12230506D+01  1  2  3  1  6  2        1 -.226560466996D-05 0.100000000000D+01
-.766976427457D-07 0.000000000000D+00 0.000000000000D+00 0.168367773640D-06 0.000000000000D+00  6 22 1 9900012 13 2 21 2 0.12417633D-02 0.17345383D+00 0.74127395D+04 0.74127395D+04 0.74127395D+04 0.12230506D+01  1  2 15  1  6  2        1 -.141663253741D-04 0.100000000000D+01
0.138530384205D-05 0.000000000000D+00 0.000000000000D+00 0.168367773640D-06 0.000000000000D+00  6 22 1 9900012 13 2 21 2 0.12417633D-02 0.18492318D+00 0.79058062D+04 0.79058062D+04 0.79058062D+04 0.12200585D+01  1  2 12  1  6  2        1 0.227212001014D-03 0.100000000000D+01
-.521449906118D-06 0.000000000000D+00 0.000000000000D+00 0.168367773640D-06 0.000000000000D+00  6 22 1 9900012 13 2 21 2 0.12417633D-02 0.17345383D+00 0.74127395D+04 0.74127395D+04 0.74127395D+04 0.12230506D+01  1  2  4  1  6  2        1 -.963136384888D-04 0.100000000000D+01
-.796119988695D-05 0.000000000000D+00 -.120595079650D-05 0.168367773640D-06 0.000000000000D+00  6 22 1 9900012 13 2 21 2 0.12417633D-02 0.18353147D+00 0.74127395D+04 0.74127395D+04 0.74127395D+04 0.12230506D+01  1  2  5  1  6  2        1 -.132531620739D-02 0.100000000000D+01
0.801843581238D-05 0.000000000000D+00 0.120403022336D-05 0.168367773640D-06 0.000000000000D+00  6 22 1 9900012 13 2 21 2 0.12417633D-02 0.17345383D+00 0.74127395D+04 0.74127395D+04 0.74127395D+04 0.12230506D+01  1  2  6  1  6  2        1 0.148103340132D-02 0.100000000000D+01
0.678857098741D-07 0.000000000000D+00 0.000000000000D+00 0.168367773640D-06 0.145515157820D-07  6 22 1 9900012 13 2 21 2 0.12646443D-02 0.18157739D+00 0.79058062D+04 0.79058062D+04 0.79058062D+04 0.12200585D+01  1  2 11  1  6  2        1 0.112448293665D-04 0.100000000000D+01
0.208245478580D-07 0.000000000000D+00 0.000000000000D+00 0.168367773640D-06 0.000000000000D+00  6 22 21 9900012 13 2 -1 2 0.12417633D-02 0.18492318D+00 0.79058062D+04 0.79058062D+04 0.79058062D+04 0.12200585D+01  1  2 12  3  6  2        1 0.428732890996D-05 0.100000000000D+01
-.762593781316D-07 0.000000000000D+00 -.117550353522D-07 0.168367773640D-06 0.000000000000D+00  6 22 21 9900012 13 2 -1 2 0.12417633D-02 0.18353147D+00 0.74127395D+04 0.74127395D+04 0.74127395D+04 0.12230506D+01  1  2  5  3  6  2        1 -.161127994584D-04 0.100000000000D+01
0.240186438600D-08 0.000000000000D+00 0.000000000000D+00 0.168367773640D-06 0.365336980483D-09  6 22 21 9900012 13 2 -1 2 0.12646443D-02 0.18157739D+00 0.79058062D+04 0.79058062D+04 0.79058062D+04 0.12200585D+01  1  2 11  3  6  2        1 0.509877885683D-06 0.100000000000D+01
  </mgrwgt>
  </event>
  <event>
  6     66 0.15202802E-05 0.44518373E+02 0.78161638E-02 0.10138756E+00
       22 -1    0    0    0    0 0.00000000E+00 0.00000000E+00 0.55771983E+03 0.55771983E+03 0.00000000E+00 0.0000E+00 0.9000E+01
        3 -1    0    0  501    0 0.00000000E+00 0.00000000E+00 -.30630955E+03 0.30630955E+03 0.00000000E+00 0.0000E+00 0.9000E+01
      -24  2    1    2    0    0 0.39162181E+02 -.21170951E+02 0.55162529E+03 0.56053154E+03 0.89012679E+02 0.0000E+00 0.0000E+00
  9900012  1    3    3    0    0 0.16542178E+02 -.36538278E+02 0.26660260E+03 0.27419999E+03 0.50000000E+02 0.0000E+00 0.9000E+01
       13  1    3    3    0    0 0.22620003E+02 0.15367327E+02 0.28502270E+03 0.28633155E+03 0.00000000E+00 0.0000E+00 0.9000E+01
        4  1    1    2  501    0 -.39162181E+02 0.21170951E+02 -.30021501E+03 0.30349784E+03 0.00000000E+00 0.0000E+00 0.9000E+01
#aMCatNLO 1  0  0  2  2 0.16511282D+02 0.00000000D+00  -5  6  0 0.00000000D+00 0.00000000D+00 0.00000000D+00 0.00000000D+00 0.00000000D+00
  <mgrwgt>
 0.1215012428D-03    3    2    0
 0.413321801124683D+03 0.000000000000000D+00 0.000000000000000D+00 0.413321801124683D+03
 0.413321801124683D+03 0.000000000000000D+00 0.000000000000000D+00 -.413321801124683D+03
 0.205518090913551D+03 0.165421778045733D+02 -.365382779106770D+02 0.195266475088671D+03
 0.212596136495513D+03 0.226200031554228D+02 0.153673272393859D+02 0.210830021495007D+03
 0.408529374840301D+03 -.391621809599960D+02 0.211709506712910D+02 -.406096496583679D+03
 0.000000000000000D+00 0.000000000000000D+00 0.000000000000000D+00 0.000000000000000D+00
 0.892067515816612D+03 0.000000000000000D+00 0.000000000000000D+00 0.892067515816612D+03
 0.468454009922457D+03 0.000000000000000D+00 0.000000000000000D+00 -.468454009922457D+03
 0.218234018908689D+03 -.335699441256026D+02 -.766169013135308D+02 0.195266475088671D+03
 0.214124120390342D+03 -.278431262248893D+02 -.249920245553969D+02 0.210830021495007D+03
 0.433085743878043D+03 -.138689990898653D+03 -.584293029000961D+02 -.406096496583679D+03
 0.495077642561995D+03 0.200103061249145D+03 0.160038228769024D+03 0.423613505894154D+03
0.303254495383D-03 0.000000000000D+00 0.000000000000D+00 0.845989098965D-05 0.000000000000D+00  6 22 3 9900012 13 4 21 0 0.85803051D-01 0.47124546D-01 0.46215331D+04 0.46215331D+04 0.46215331D+04 0.12457143D+01  1  2  2  1  6  2        3 0.142777555411D-03 0.100000000000D+01
0.165597127444D-04 0.000000000000D+00 -.582288555506D-06 0.845989098965D-05 0.000000000000D+00  6 22 3 9900012 13 4 21 2 0.85803051D-01 0.47124546D-01 0.46215331D+04 0.46215331D+04 0.46215331D+04 0.12457143D+01  1  2  3  1  6  2        3 0.120988031645D-04 0.100000000000D+01
-.456807439989D-04 0.000000000000D+00 0.000000000000D+00 0.845989098965D-05 0.000000000000D+00  6 22 3 9900012 13 4 21 2 0.85803051D-01 0.47124546D-01 0.46215331D+04 0.46215331D+04 0.46215331D+04 0.12457143D+01  1  2 15  1  6  2        3 -.333751157753D-04 0.100000000000D+01
  </mgrwgt>
  </event>
  <event>
  6     66 0.15202802E-05 0.79699627E+02 0.78161638E-02 0.10521253E+00
       22 -1    0    0    0    0 0.00000000E+00 0.00000000E+00 0.10695895E+03 0.10695895E+03 0.00000000E+00 0.0000E+00 0.9000E+01
        1 -1    0    0  501    0 -.00000000E+00 -.00000000E+00 -.14687952E+04 0.14687952E+04 0.00000000E+00 0.0000E+00 0.9000E+01
      -24  2    1    2    0    0 -.76224180E+02 -.23278852E+02 0.75030558E+02 0.13667866E+03 0.81850105E+02 0.0000E+00 0.0000E+00
  9900012  1    3    3    0    0 -.20879153E+02 -.12118623E+02 0.50742476E+02 0.75217012E+02 0.50000000E+02 0.0000E+00 0.9000E+01
       13  1    3    3    0    0 -.55345027E+02 -.11160228E+02 0.24288082E+02 0.61461644E+02 0.00000000E+00 0.0000E+00 0.9000E+01
        2  1    1    2  501    0 0.76224180E+02 0.23278852E+02 -.14368668E+04 0.14390755E+04 0.00000000E+00 0.0000E+00 0.9000E+01
#aMCatNLO 1  0  0  5  2 0.25927973D+00 0.00000000D+00  -5  6  0 0.00000000D+00 0.00000000D+00 0.00000000D+00 0.00000000D+00 0.00000000D+00
  <mgrwgt>
 0.4896346983D-03    6    2    0
 0.396359417860052D+03 0.000000000000000D+00 0.000000000000000D+00 0.396359417860052D+03
 0.396359417860052D+03 -.000000000000000D+00 -.000000000000000D+00 -.396359417860052D+03
 0.236687278410208D+03 -.208791532539539D+02 -.121186234600822D+02 0.230082740956514D+03
 0.163897748473444D+03 -.553450268773264D+02 -.111602284827462D+02 0.153866335677513D+03
 0.392133808836453D+03 0.762241801312805D+02 0.232788519428284D+02 -.383949076634027D+03
 0.000000000000000D+00 0.000000000000000D+00 0.000000000000000D+00 -.000000000000000D+00
 0.396359417860052D+03 0.000000000000000D+00 0.000000000000000D+00 0.396359417860052D+03
 0.396359417860052D+03 -.000000000000000D+00 -.000000000000000D+00 -.396359417860052D+03
 0.203726229573102D+03 -.142559861222175D+02 -.100959093188903D+02 0.196721163301715D+03
 0.140642489081837D+03 -.507651925736433D+02 -.976154784761827D+01 0.130797236751065D+03
 0.292461934900712D+03 0.181924608670227D+03 0.374610937920155D+02 -.225907252158843D+03
 0.155888182164454D+03 -.116903429974367D+03 -.176036366255069D+02 -.101611147893937D+03
0.240076029976D-03 0.000000000000D+00 0.000000000000D+00 0.496105752644D-04 0.000000000000D+00  6 22 1 9900012 13 2 21 0 0.16455222D-01 0.22596850D+00 0.91854620D+04 0.91854620D+04 0.91854620D+04 0.12131737D+01  1  2  2  2  6  5        2 0.498864741835D-03 0.100000000000D+01
0.554270628500D-05 0.000000000000D+00 -.460977584289D-06 0.496105752644D-04 0.000000000000D+00  6 22 1 9900012 13 2 21 2 0.16455222D-01 0.22596850D+00 0.91854620D+04 0.91854620D+04 0.91854620D+04 0.12131737D+01  1  2  3  2  6  5        2 0.169512548667D-04 0.100000000000D+01
-.360466108586D-04 0.000000000000D+00 0.000000000000D+00 0.496105752644D-04 0.000000000000D+00  6 22 1 9900012 13 2 21 2 0.16455222D-01 0.22596850D+00 0.91854620D+04 0.91854620D+04 0.91854620D+04 0.12131737D+01  1  2 15  2  6  5        2 -.110241325506D-03 0.100000000000D+01
-.100614670000D-05 0.000000000000D+00 0.000000000000D+00 0.496105752644D-04 0.000000000000D+00  6 22 1 9900012 13 2 21 2 0.16455222D-01 0.22596850D+00 0.91854620D+04 0.91854620D+04 0.91854620D+04 0.12131737D+01  1  2  4  2  6  5        2 -.307709776923D-05 0.100000000000D+01
-.609592793103D-04 0.000000000000D+00 0.000000000000D+00 0.496105752644D-04 0.000000000000D+00  6 22 1 9900012 13 2 21 2 0.16455222D-01 0.22596850D+00 0.91854620D+04 0.91854620D+04 0.91854620D+04 0.12131737D+01  1  2  5  2  6  5        2 -.186431722510D-03 0.100000000000D+01
0.894512991206D-04 0.000000000000D+00 -.000000000000D+00 0.496105752644D-04 0.000000000000D+00  6 22 1 9900012 13 2 21 2 0.16455222D-01 0.22596850D+00 0.91854620D+04 0.91854620D+04 0.91854620D+04 0.12131737D+01  1  2  6  2  6  5        2 0.273568847344D-03 0.100000000000D+01
  </mgrwgt>
  </event>
  <event>
  6     66 -.15202802E-05 0.10883131E+02 0.78161638E-02 0.13243473E+00
       22 -1    0    0    0    0 0.00000000E+00 0.00000000E+00 0.89243965E+01 0.89243965E+01 0.00000000E+00 0.0000E+00 0.9000E+01
        1 -1    0    0  501    0 -.00000000E+00 -.00000000E+00 -.85788746E+03 0.85788746E+03 0.00000000E+00 0.0000E+00 0.9000E+01
      -24  2    1    2    0    0 -.27847477E+01 0.10520823E+02 -.17618616E+03 0.19394693E+03 0.80345550E+02 0.0000E+00 0.0000E+00
  9900012  1    3    3    0    0 0.18527660E+02 -.17841373E+01 -.93219045E+02 0.10740693E+03 0.50000000E+02 0.0000E+00 0.9000E+01
       13  1    3    3    0    0 -.21312408E+02 0.12304960E+02 -.82967112E+02 0.86540005E+02 0.00000000E+00 0.0000E+00 0.9000E+01
        2  1    1    2  501    0 0.27847477E+01 -.10520823E+02 -.67277691E+03 0.67286493E+03 0.00000000E+00 0.0000E+00 0.9000E+01
#aMCatNLO 1  0  0  5  2 0.25927973D+00 0.00000000D+00  -5  6  0 0.00000000D+00 0.00000000D+00 0.00000000D+00 0.00000000D+00 0.00000000D+00
  <mgrwgt>
 -.1094330177D-04    1    2    0
 0.874993022671920D+02 0.000000000000000D+00 0.000000000000000D+00 0.874993022671920D+02
 0.874993022671920D+02 -.000000000000000D+00 -.000000000000000D+00 -.874993022671920D+02
 0.797838975227329D+02 0.185276603262354D+02 -.178413726185167D+01 0.593212690439479D+02
 0.261595731433958D+02 -.213124080109919D+02 0.123049602905413D+02 0.887087842695884D+01
 0.690551338682553D+02 0.278474768475650D+01 -.105208230286896D+02 -.681921474709068D+02
 0.000000000000000D+00 0.000000000000000D+00 0.000000000000000D+00 0.000000000000000D+00
 0.874993022671920D+02 0.000000000000000D+00 0.000000000000000D+00 0.874993022671920D+02
 0.874993022671920D+02 -.000000000000000D+00 -.000000000000000D+00 -.874993022671920D+02
 0.760102637265399D+02 0.187436502529736D+02 -.260015079429174D+01 0.540321661866271D+02
 0.254302322451950D+02 -.212408849308138D+02 0.120347449050900D+02 0.711944060091070D+01
 0.654157125922729D+02 -.487029801596970D+01 -.907593849452207D+01 -.645997135569048D+02
 0.814239597037613D+01 0.736753269380982D+01 -.358655616276123D+00 0.344810676936698D+01
-.427834088516D-07 0.000000000000D+00 0.000000000000D+00 0.170438422205D-05 0.000000000000D+00  6 22 1 9900012 13 2 21 2 0.13729841D-02 0.13198269D+00 0.19733540D+04 0.19733540D+04 0.19733540D+04 0.12900480D+01  1  2 14  2  6  5        2 -.109433017687D-04 0.100000000000D+01
  </mgrwgt>
  </event>
  <event>
  6     66 -.15202802E-05 0.38193713E+02 0.78161638E-02 0.12067270E+00
       22 -1    0    0    0    0 0.00000000E+00 0.00000000E+00 0.22136417E+03 0.22136417E+03 0.00000000E+00 0.0000E+00 0.9000E+01
        3 -1    0    0  501    0 0.00000000E+00 0.00000000E+00 -.17412703E+03 0.17412703E+03 0.00000000E+00 0.0000E+00 0.9000E+01
      -24  2    1    2    0    0 0.36303466E+02 0.21229122E+02 0.20923128E+03 0.22812717E+03 0.80595646E+02 0.0000E+00 0.0000E+00
  9900012  1    3    3    0    0 0.12239805E+02 0.32104550E+02 0.17273752E+03 0.18308131E+03 0.50000000E+02 0.0000E+00 0.9000E+01
       13  1    3    3    0    0 0.24063661E+02 -.10875427E+02 0.36493756E+02 0.45045854E+02 0.00000000E+00 0.0000E+00 0.9000E+01
        4  1    1    2  501    0 -.36303466E+02 -.21229122E+02 -.16199414E+03 0.16736403E+03 0.00000000E+00 0.0000E+00 0.9000E+01
#aMCatNLO 1  0  0  2  5 0.31514363D+02 0.00000000D+00  -5  6  0 0.00000000D+00 0.00000000D+00 0.00000000D+00 0.00000000D+00 0.00000000D+00
  <mgrwgt>
 -.1060171042D-03    7    2    0
 0.196330039969034D+03 0.000000000000000D+00 0.000000000000000D+00 0.196330039969034D+03
 0.196330039969034D+03 0.000000000000000D+00 0.000000000000000D+00 -.196330039969034D+03
 0.163620963283082D+03 0.122398054759413D+02 0.321045497690818D+02 0.151958233313366D+03
 0.409804270696947D+02 0.240636605314488D+02 -.108754274795430D+02 0.313378480719234D+02
 0.188058689585291D+03 -.363034660073901D+02 -.212291222895388D+02 -.183296081385290D+03
 0.000000000000000D+00 -.000000000000000D+00 0.000000000000000D+00 -.000000000000000D+00
 0.197971655446792D+03 0.000000000000000D+00 0.000000000000000D+00 0.197971655446792D+03
 0.439052258038054D+03 0.000000000000000D+00 0.000000000000000D+00 -.439052258038054D+03
 0.164279321756216D+03 0.246760673757322D+02 0.280621200879632D+02 0.151958233313366D+03
 0.432077959905498D+02 0.272566641323141D+02 -.119133191412065D+02 0.313378480719234D+02
 0.186423956201238D+03 -.221004766462502D+02 -.258458299639767D+02 -.183296081385290D+03
 0.243112839536842D+03 -.298322548617961D+02 0.969702901721999D+01 -.241080602591263D+03
0.680050091029D-05 0.000000000000D+00 0.000000000000D+00 0.229172408557D-04 0.000000000000D+00  6 22 3 9900012 13 4 21 0 0.34056026D-01 0.26788773D-01 0.41685924D+04 0.41685924D+04 0.41685924D+04 0.12508383D+01  1  2  2  1  6  2        3 0.429573165955D-04 0.100000000000D+01
0.341407471162D-06 0.000000000000D+00 -.130578570543D-07 0.229172408557D-04 0.000000000000D+00  6 22 3 9900012 13 4 21 2 0.34056026D-01 0.26788773D-01 0.41685924D+04 0.41685924D+04 0.41685924D+04 0.12508383D+01  1  2  3  1  6  2        3 0.337420620329D-05 0.100000000000D+01
-.979865376816D-06 0.000000000000D+00 0.000000000000D+00 0.229172408557D-04 0.000000000000D+00  6 22 3 9900012 13 4 21 2 0.34056026D-01 0.26788773D-01 0.41685924D+04 0.41685924D+04 0.41685924D+04 0.12508383D+01  1  2 15  1  6  2        3 -.968422812068D-05 0.100000000000D+01
0.777020556912D-04 0.000000000000D+00 0.000000000000D+00 0.229172408557D-04 0.000000000000D+00  6 22 3 9900012 13 4 21 2 0.34056026D-01 0.60408569D-01 0.62049258D+04 0.62049258D+04 0.62049258D+04 0.12314292D+01  1  2 12  1  6  2        3 0.165043441540D-03 0.100000000000D+01
-.104531894914D-03 0.000000000000D+00 -.203309244031D-05 0.229172408557D-04 0.000000000000D+00  6 22 3 9900012 13 4 21 2 0.34056026D-01 0.60080719D-01 0.41685924D+04 0.41685924D+04 0.41685924D+04 0.12508383D+01  1  2  5  1  6  2        3 -.226055579502D-03 0.100000000000D+01
0.686244608007D-05 0.000000000000D+00 0.000000000000D+00 0.229172408557D-04 0.000000000000D+00  6 22 21 9900012 13 4 -3 2 0.34056026D-01 0.60408569D-01 0.62049258D+04 0.62049258D+04 0.62049258D+04 0.12314292D+01  1  2 12  3  6  2        3 0.224918352300D-03 0.100000000000D+01
-.903716306781D-05 0.000000000000D+00 -.178267098211D-06 0.229172408557D-04 0.000000000000D+00  6 22 21 9900012 13 4 -3 2 0.34056026D-01 0.60080719D-01 0.41685924D+04 0.41685924D+04 0.41685924D+04 0.12508383D+01  1  2  5  3  6  2        3 -.306570613185D-03 0.100000000000D+01
  </mgrwgt>
  </event>
  <event>
  7     66 0.15202802E-05 0.58969665E+02 0.78161638E-02 0.11832089E+00
       22 -1    0    0    0    0 0.00000000E+00 0.00000000E+00 0.49376768E+02 0.49376768E+02 0.00000000E+00 0.0000E+00 0.9000E+01
        1 -1    0    0  502    0 0.00000000E+00 0.00000000E+00 -.26596017E+03 0.26596017E+03 0.00000000E+00 0.0000E+00 0.9000E+01
      -24  2    1    2    0    0 -.62803044E+02 0.36542190E+02 -.27661672E+02 0.11114758E+03 0.79429603E+02 0.0000E+00 0.0000E+00
  9900012  1    3    3    0    0 -.61907087E+02 0.11840108E+02 -.10681584E+02 0.81158929E+02 0.50000000E+02 0.0000E+00 0.9000E+01
       13  1    3    3    0    0 -.89595749E+00 0.24702083E+02 -.16980088E+02 0.29988648E+02 0.00000000E+00 0.0000E+00 0.9000E+01
        2  1    1    2  501    0 0.52801312E+02 -.36122211E+02 -.13557124E+03 0.14990782E+03 0.00000000E+00 0.0000E+00 0.9000E+01
       21  1    1    2  502  501 0.10001733E+02 -.41997886E+00 -.53350485E+02 0.54281538E+02 0.00000000E+00 0.0000E+00 0.9000E+01
#aMCatNLO 2  0  0  2  5 0.10241105D+02 0.00000000D+00  -5  6  0 0.00000000D+00 0.00000000D+00 0.00000000D+00 0.00000000D+00 0.00000000D+00
  <mgrwgt>
 0.2947114165D-04    2    2    0
 0.101740754886253D+03 0.000000000000000D+00 0.000000000000000D+00 0.101740754886253D+03
 0.101740754886253D+03 0.000000000000000D+00 0.000000000000000D+00 -.101740754886253D+03
 0.924862393307156D+02 -.572913509916354D+02 0.116462899520698D+02 0.513397457867095D+02
 0.247573046118268D+02 0.321800202436437D+00 0.246509483883508D+02 0.226965191766394D+01
 0.862379658299644D+02 0.569695507891989D+02 -.362972383404206D+02 -.536093977043734D+02
 0.000000000000000D+00 0.000000000000000D+00 -.000000000000000D+00 -.000000000000000D+00
 0.102833317663147D+03 0.000000000000000D+00 0.000000000000000D+00 0.102833317663147D+03
 0.127704265675227D+03 0.000000000000000D+00 0.000000000000000D+00 -.127704265675227D+03
 0.954381740197208D+02 -.619070869658443D+02 0.118401075239180D+02 0.513397457867095D+02
 0.248223075717033D+02 -.895957487811619D+00 0.247020827773068D+02 0.226965191766394D+01
 0.834671205104523D+02 0.528013117719139D+02 -.361222114390278D+02 -.536093977043734D+02
 0.268099812364972D+02 0.100017326817421D+02 -.419978862197020D+00 -.248709480120805D+02
-.446387792362D-06 0.000000000000D+00 0.000000000000D+00 0.673972906544D-06 0.000000000000D+00  6 22 1 9900012 13 2 21 2 0.75157168D-02 0.41356343D-01 0.80242853D+04 0.80242853D+04 0.80242853D+04 0.12193704D+01  1  2 13  1  6  2        1 -.535511344958D-04 0.100000000000D+01
0.693177067042D-06 0.000000000000D+00 0.000000000000D+00 0.673972906544D-06 0.127584532404D-06  6 22 1 9900012 13 2 21 2 0.75964258D-02 0.40916949D-01 0.80242853D+04 0.80242853D+04 0.80242853D+04 0.12193704D+01  1  2  1  1  6  2        1 0.830222761455D-04 0.100000000000D+01
  </mgrwgt>
  </event>
  <event>
  6     66 0.15202802E-05 0.53934302E+02 0.78161638E-02 0.12101529E+00
       22 -1    0    0    0    0 0.00000000E+00 0.00000000E+00 0.29334322E+02 0.29334322E+02 0.00000000E+00 0.0000E+00 0.9000E+01
        1 -1    0    0  501    0 -.00000000E+00 -.00000000E+00 -.46693629E+03 0.46693629E+03 0.00000000E+00 0.0000E+00 0.9000E+01
      -24  2    1    2    0    0 -.12507496E+02 0.52464001E+02 -.59168401E+02 0.11401301E+03 0.81173628E+02 0.0000E+00 0.0000E+00
  9900012  1    3    3    0    0 -.53033122E+01 0.65207827E+02 -.45983411E+02 0.94311505E+02 0.50000000E+02 0.0000E+00 0.9000E+01
       13  1    3    3    0    0 -.72041841E+01 -.12743826E+02 -.13184990E+02 0.19701506E+02 0.00000000E+00 0.0000E+00 0.9000E+01
        2  1    1    2  501    0 0.12507496E+02 -.52464001E+02 -.37843356E+03 0.38225760E+03 0.00000000E+00 0.0000E+00 0.9000E+01
#aMCatNLO 1  0  0  5  2 0.77097149D+01 0.00000000D+00  -5  6  0 0.00000000D+00 0.00000000D+00 0.00000000D+00 0.00000000D+00 0.00000000D+00
  <mgrwgt>
 0.8481600060D-04    8    2    0
 0.117035290549090D+03 0.000000000000000D+00 0.000000000000000D+00 0.117035290549090D+03
 0.117035290549090D+03 -.000000000000000D+00 -.000000000000000D+00 -.117035290549090D+03
 0.113989535469653D+03 -.530331218396802D+01 0.652078270496958D+02 0.788253028406718D+02
 0.171209069320306D+02 -.720418414162538D+01 -.127438256994250D+02 0.887806800894661D+01
 0.102960138696496D+03 0.125074963255934D+02 -.524640013502708D+02 -.877033708496184D+02
 0.000000000000000D+00 0.000000000000000D+00 0.000000000000000D+00 -.000000000000000D+00
 0.117035290549090D+03 0.000000000000000D+00 0.000000000000000D+00 0.117035290549090D+03
 0.117035290549090D+03 -.000000000000000D+00 -.000000000000000D+00 -.117035290549090D+03
 0.112533053219984D+03 -.510330259215914D+01 0.643688659001925D+02 0.774228226841915D+02
 0.170944555587786D+02 -.717397346495526D+01 -.128705475420987D+02 0.866622879583445D+01
 0.945666572618135D+02 0.143648010404933D+02 -.534979183128268D+02 -.766451426571473D+02
 0.987641505760275D+01 -.208752498337891D+01 0.199959995473300D+01 -.944390882287854D+01
0.187619784315D-06 0.000000000000D+00 0.000000000000D+00 0.102843220973D-05 0.000000000000D+00  6 22 1 9900012 13 2 21 0 0.45129726D-02 0.71836352D-01 0.56938613D+04 0.56938613D+04 0.56938613D+04 0.12355425D+01  1  2  2  2  6  5        2 0.148347597498D-04 0.100000000000D+01
0.385945074970D-08 0.000000000000D+00 -.360254686597D-09 0.102843220973D-05 0.000000000000D+00  6 22 1 9900012 13 2 21 2 0.45129726D-02 0.71836352D-01 0.56938613D+04 0.56938613D+04 0.56938613D+04 0.12355425D+01  1  2  3  2  6  5        2 0.465846395890D-06 0.100000000000D+01
-.305510030516D-07 0.000000000000D+00 0.000000000000D+00 0.102843220973D-05 0.000000000000D+00  6 22 1 9900012 13 2 21 2 0.45129726D-02 0.71836352D-01 0.56938613D+04 0.56938613D+04 0.56938613D+04 0.12355425D+01  1  2 15  2  6  5        2 -.368759069241D-05 0.100000000000D+01
0.674186550593D-06 0.000000000000D+00 0.000000000000D+00 0.102843220973D-05 0.000000000000D+00  6 22 1 9900012 13 2 21 2 0.45129726D-02 0.71836352D-01 0.59818517D+04 0.59818517D+04 0.59818517D+04 0.12331760D+01  1  2 12  2  6  5        2 0.813574322358D-04 0.100000000000D+01
-.138407577538D-06 0.000000000000D+00 0.000000000000D+00 0.102843220973D-05 0.000000000000D+00  6 22 1 9900012 13 2 21 2 0.45129726D-02 0.71836352D-01 0.56938613D+04 0.56938613D+04 0.56938613D+04 0.12355425D+01  1  2  4  2  6  5        2 -.167061779879D-04 0.100000000000D+01
-.692376108323D-06 0.000000000000D+00 0.000000000000D+00 0.102843220973D-05 0.000000000000D+00  6 22 1 9900012 13 2 21 2 0.45129726D-02 0.71836352D-01 0.56938613D+04 0.56938613D+04 0.56938613D+04 0.12355425D+01  1  2  5  2  6  5        2 -.835717141067D-04 0.100000000000D+01
0.761961376835D-06 0.000000000000D+00 -.000000000000D+00 0.102843220973D-05 0.000000000000D+00  6 22 1 9900012 13 2 21 2 0.45129726D-02 0.71836352D-01 0.56938613D+04 0.56938613D+04 0.56938613D+04 0.12355425D+01  1  2  6  2  6  5        2 0.919708487623D-04 0.100000000000D+01
0.126452290248D-08 0.000000000000D+00 0.000000000000D+00 0.102843220973D-05 0.384781409357D-06  6 22 1 9900012 13 2 21 2 0.45129726D-02 0.71836352D-01 0.59818517D+04 0.59818517D+04 0.59818517D+04 0.12331760D+01  1  2 11  2  6  5        2 0.152596245443D-06 0.100000000000D+01
  </mgrwgt>
  </event>
  <event>
  6     66 0.15202802E-05 0.66679121E+02 0.78161638E-02 0.11800057E+00
       22 -1    0    0    0    0 0.00000000E+00 0.00000000E+00 0.51280109E+02 0.51280109E+02 0.00000000E+00 0.0000E+00 0.9000E+01
        1 -1    0    0  501    0 0.00000000E+00 0.00000000E+00 -.18118943E+04 0.18118943E+04 0.00000000E+00 0.0000E+00 0.9000E+01
      -24  2    1    2    0    0 -.82811189E+01 0.72830471E+02 -.73727945E+01 0.10840142E+03 0.79521413E+02 0.0000E+00 0.0000E+00
  9900012  1    3    3    0    0 0.15499972E+02 0.59351548E+02 -.13770564E+02 0.80327354E+02 0.50000000E+02 0.0000E+00 0.9000E+01
       13  1    3    3    0    0 -.23781091E+02 0.13478923E+02 0.63977692E+01 0.28074065E+02 0.00000000E+00 0.0000E+00 0.9000E+01
        2  1    1    2  501    0 0.82811189E+01 -.72830471E+02 -.17532414E+04 0.17547730E+04 0.00000000E+00 0.0000E+00 0.9000E+01
#aMCatNLO 1  0  0  2  2 0.28156742D+01 0.00000000D+00  -5  6  0 0.00000000D+00 0.00000000D+00 0.00000000D+00 0.00000000D+00 0.00000000D+00
  <mgrwgt>
 0.1023586447D-02   10    2    0
 0.304818201661114D+03 0.000000000000000D+00 0.000000000000000D+00 0.304818201661114D+03
 0.304818201661114D+03 0.000000000000000D+00 0.000000000000000D+00 -.304818201661114D+03
 0.205727901480633D+03 0.154999723926920D+02 0.593515477284296D+02 0.189897641074582D+03
 0.104276715435039D+03 -.237810912968234D+02 0.134789234774067D+02 0.100630073539387D+03
 0.299631786406557D+03 0.828111890413134D+01 -.728304712058362D+02 -.290527714613969D+03
 0.000000000000000D+00 0.000000000000000D+00 0.000000000000000D+00 -.000000000000000D+00
 0.305649517790118D+03 0.000000000000000D+00 0.000000000000000D+00 0.305649517790118D+03
 0.306379421519339D+03 0.000000000000000D+00 0.000000000000000D+00 -.306379421519339D+03
 0.205503683388796D+03 0.151858536703230D+02 0.586518511981942D+02 0.189897641074582D+03
 0.104267903301825D+03 -.239403878382487D+02 0.131240919141264D+02 0.100630073539387D+03
 0.299869057827296D+03 0.782319094777150D+01 -.738505014661986D+02 -.290527714613969D+03
 0.238829479154104D+01 0.931343220154149D+00 0.207455835387803D+01 -.729903729220385D+00
0.749333132242D-04 0.000000000000D+00 0.000000000000D+00 0.677907996526D-04 0.000000000000D+00  6 22 1 9900012 13 2 21 0 0.78892476D-02 0.27875296D+00 0.80796114D+04 0.80796114D+04 0.80796114D+04 0.12190529D+01  1  2  2  1  6  2        1 0.267185370290D-03 0.100000000000D+01
0.181253332802D-05 0.000000000000D+00 -.143881826588D-06 0.677907996526D-04 0.000000000000D+00  6 22 1 9900012 13 2 21 2 0.78892476D-02 0.27875296D+00 0.80796114D+04 0.80796114D+04 0.80796114D+04 0.12190529D+01  1  2  3  1  6  2        1 0.960436917272D-05 0.100000000000D+01
-.112778147774D-04 0.000000000000D+00 0.000000000000D+00 0.677907996526D-04 0.000000000000D+00  6 22 1 9900012 13 2 21 2 0.78892476D-02 0.27875296D+00 0.80796114D+04 0.80796114D+04 0.80796114D+04 0.12190529D+01  1  2 15  1  6  2        1 -.597596165045D-04 0.100000000000D+01
-.300210416238D-04 0.000000000000D+00 0.000000000000D+00 0.677907996526D-04 0.000000000000D+00  6 22 1 9900012 13 2 21 2 0.78892476D-02 0.27875296D+00 0.80796114D+04 0.80796114D+04 0.80796114D+04 0.12190529D+01  1  2  4  1  6  2        1 -.159077442742D-03 0.100000000000D+01
-.891715935693D-02 0.000000000000D+00 -.106316824823D-02 0.677907996526D-04 0.000000000000D+00  6 22 1 9900012 13 2 21 2 0.78892476D-02 0.28055889D+00 0.80796114D+04 0.80796114D+04 0.80796114D+04 0.12190529D+01  1  2  5  1  6  2        1 -.464404486214D-01 0.100000000000D+01
0.892386108468D-02 0.000000000000D+00 0.106314608048D-02 0.677907996526D-04 0.000000000000D+00  6 22 1 9900012 13 2 21 2 0.78892476D-02 0.27875296D+00 0.80796114D+04 0.80796114D+04 0.80796114D+04 0.12190529D+01  1  2  6  1  6  2        1 0.472863339827D-01 0.100000000000D+01
0.298817811137D-04 0.000000000000D+00 0.000000000000D+00 0.677907996526D-04 0.225946874088D-05  6 22 1 9900012 13 2 21 2 0.79107636D-02 0.28018068D+00 0.83167963D+04 0.83167963D+04 0.83167963D+04 0.12177187D+01  1  2 11  1  6  2        1 0.155326486493D-03 0.100000000000D+01
0.236938769843D-07 0.000000000000D+00 0.000000000000D+00 0.677907996526D-04 0.000000000000D+00  6 22 21 9900012 13 2 -1 2 0.78892476D-02 0.28094481D+00 0.83167963D+04 0.83167963D+04 0.83167963D+04 0.12177187D+01  1  2 12  3  6  2        1 0.955008938204D-07 0.100000000000D+01
-.106767508711D-04 0.000000000000D+00 -.127492579828D-05 0.677907996526D-04 0.000000000000D+00  6 22 21 9900012 13 2 -1 2 0.78892476D-02 0.28055889D+00 0.80796114D+04 0.80796114D+04 0.80796114D+04 0.12190529D+01  1  2  5  3  6  2        1 -.433941362128D-04 0.100000000000D+01
0.190290233706D-05 0.000000000000D+00 0.000000000000D+00 0.677907996526D-04 0.914509714490D-07  6 22 21 9900012 13 2 -1 2 0.79107636D-02 0.28018068D+00 0.83167963D+04 0.83167963D+04 0.83167963D+04 0.12177187D+01  1  2 11  3  6  2        1 0.772055390189D-05 0.100000000000D+01
  </mgrwgt>
  </event>
  <event>
  6     66 0.15202802E-05 0.20192533E+02 0.78161638E-02 0.12455507E+00
       22 -1    0    0    0    0 0.00000000E+00 0.00000000E+00 0.39320273E+03 0.39320273E+03 0.00000000E+00 0.0000E+00 0.9000E+01
        3 -1    0    0  501    0 0.00000000E+00 0.00000000E+00 -.62541086E+02 0.62541086E+02 0.00000000E+00 0.0000E+00 0.9000E+01
      -24  2    1    2    0    0 0.11623961E+02 -.40895492E+02 0.38039088E+03 0.39031787E+03 0.76441247E+02 0.0000E+00 0.0000E+00
  9900012  1    3    3    0    0 0.15110968E+00 -.39045907E+02 0.36760924E+03 0.37304311E+03 0.50000000E+02 0.0000E+00 0.9000E+01
       13  1    3    3    0    0 0.11472852E+02 -.18495854E+01 0.12781637E+02 0.17274766E+02 0.00000000E+00 0.0000E+00 0.9000E+01
        4  1    1    2  501    0 -.11623961E+02 0.40895492E+02 -.49729232E+02 0.65425945E+02 0.00000000E+00 0.0000E+00 0.9000E+01
#aMCatNLO 1  0  0  2  5 0.11022171D+02 0.00000000D+00  -5  6  0 0.00000000D+00 0.00000000D+00 0.00000000D+00 0.00000000D+00 0.00000000D+00
  <mgrwgt>
 0.2531724652D-03    9    2    0
 0.156816216954890D+03 0.000000000000000D+00 0.000000000000000D+00 0.156816216954890D+03
 0.156816216954890D+03 0.000000000000000D+00 0.000000000000000D+00 -.156816216954890D+03
 0.154505108542223D+03 0.151109681115839D+00 -.390459070183957D+02 0.140880172049225D+03
 0.116265738715360D+02 0.114728517860344D+02 -.184958540397307D+01 0.360452104144478D+00
 0.147500751496022D+03 -.116239614671502D+02 0.408954924223688D+02 -.141240624153369D+03
 0.000000000000000D+00 -.000000000000000D+00 -.000000000000000D+00 -.000000000000000D+00
 0.159439352819401D+03 0.000000000000000D+00 0.000000000000000D+00 0.159439352819401D+03
 0.166156738032754D+03 0.000000000000000D+00 0.000000000000000D+00 -.166156738032754D+03
 0.153371207407655D+03 0.388166431849151D+00 -.342834320318722D+02 0.140880172049225D+03
 0.115925894884682D+02 0.114907299375378D+02 -.149041297341812D+01 0.360452104144478D+00
 0.148819139163535D+03 -.113958028631320D+02 0.454792034588008D+02 -.141240624153369D+03
 0.118131547924966D+02 -.483093506254984D+00 -.970535845351049D+01 -.671738521335297D+01
0.324046930267D-05 0.000000000000D+00 0.000000000000D+00 0.149907569951D-05 0.000000000000D+00  6 22 3 9900012 13 4 21 0 0.60492728D-01 0.96217056D-02 0.34560376D+04 0.34560376D+04 0.34560376D+04 0.12603161D+01  1  2  2  1  6  2        3 0.434645154609D-04 0.100000000000D+01
0.103395053359D-06 0.000000000000D+00 -.622212767871D-08 0.149907569951D-05 0.000000000000D+00  6 22 3 9900012 13 4 21 2 0.60492728D-01 0.96217056D-02 0.34560376D+04 0.34560376D+04 0.34560376D+04 0.12603161D+01  1  2  3  1  6  2        3 0.220285360276D-05 0.100000000000D+01
-.475654707531D-06 0.000000000000D+00 0.000000000000D+00 0.149907569951D-05 0.000000000000D+00  6 22 3 9900012 13 4 21 2 0.60492728D-01 0.96217056D-02 0.34560376D+04 0.34560376D+04 0.34560376D+04 0.12603161D+01  1  2 15  1  6  2        3 -.101339247103D-04 0.100000000000D+01
0.111280123595D-04 0.000000000000D+00 0.000000000000D+00 0.149907569951D-05 0.000000000000D+00  6 22 3 9900012 13 4 21 2 0.60492728D-01 0.10365341D-01 0.41483583D+04 0.41483583D+04 0.41483583D+04 0.12510816D+01  1  2 12  1  6  2        3 0.211445560156D-03 0.100000000000D+01
-.433544049961D-06 0.000000000000D+00 0.000000000000D+00 0.149907569951D-05 0.000000000000D+00  6 22 3 9900012 13 4 21 2 0.60492728D-01 0.96217056D-02 0.34560376D+04 0.34560376D+04 0.34560376D+04 0.12603161D+01  1  2  4  1  6  2        3 -.923674819431D-05 0.100000000000D+01
-.274948381606D-04 0.000000000000D+00 -.572883369828D-05 0.149907569951D-05 0.000000000000D+00  6 22 3 9900012 13 4 21 2 0.60492728D-01 0.10358473D-01 0.34560376D+04 0.34560376D+04 0.34560376D+04 0.12603161D+01  1  2  5  1  6  2        3 -.521265687559D-03 0.100000000000D+01
0.278572275876D-04 0.000000000000D+00 0.571327516825D-05 0.149907569951D-05 0.000000000000D+00  6 22 3 9900012 13 4 21 2 0.60492728D-01 0.96217056D-02 0.34560376D+04 0.34560376D+04 0.34560376D+04 0.12603161D+01  1  2  6  1  6  2        3 0.593504158669D-03 0.100000000000D+01
0.161020551715D-06 0.000000000000D+00 0.000000000000D+00 0.149907569951D-05 0.000000000000D+00  6 22 21 9900012 13 4 -3 2 0.60492728D-01 0.10365341D-01 0.41483583D+04 0.41483583D+04 0.41483583D+04 0.12510816D+01  1  2 12  3  6  2        3 0.536754259260D-04 0.100000000000D+01
-.331020279609D-06 0.000000000000D+00 -.711896139764D-07 0.149907569951D-05 0.000000000000D+00  6 22 21 9900012 13 4 -3 2 0.60492728D-01 0.10358473D-01 0.34560376D+04 0.34560376D+04 0.34560376D+04 0.12603161D+01  1  2  5  3  6  2        3 -.110483688128D-03 0.100000000000D+01
  </mgrwgt>
  </event>
  <event>
  7     66 0.15202802E-05 0.51567142E+02 0.78161638E-02 0.11817603E+00
       22 -1    0    0    0    0 0.00000000E+00 0.00000000E+00 0.10318948E+03 0.10318948E+03 0.00000000E+00 0.0000E+00 0.9000E+01
        1 -1    0    0  501    0 -.00000000E+00 -.00000000E+00 -.10376419E+03 0.10376419E+03 0.00000000E+00 0.0000E+00 0.9000E+01
      -24  2    1    2    0    0 -.27926879E+02 0.65795049E+02 -.19705175E+02 0.11819016E+03 0.92041955E+02 0.0000E+00 0.0000E+00
  9900012  1    3    3    0    0 -.38252491E+02 0.49094602E+02 0.12166207E+02 0.80756112E+02 0.50000000E+02 0.0000E+00 0.9000E+01
       13  1    3    3    0    0 0.10325612E+02 0.16700447E+02 -.31871381E+02 0.37434050E+02 0.00000000E+00 0.0000E+00 0.9000E+01
        2  1    1    2  502    0 0.37568625E+02 -.48597015E+02 0.27554953E+02 0.67322707E+02 0.00000000E+00 0.0000E+00 0.9000E+01
       21  1    1    2  501  502 -.96417459E+01 -.17198034E+02 -.84244901E+01 0.21440795E+02 0.00000000E+00 0.0000E+00 0.9000E+01
#aMCatNLO 2  0  0  5  2 0.20974495D+02 0.00000000D+00  -5  6  0 0.00000000D+00 0.00000000D+00 0.00000000D+00 0.00000000D+00 0.00000000D+00
  <mgrwgt>
 0.1523038590D-04    2    2    0
 0.103476432899491D+03 0.000000000000000D+00 0.000000000000000D+00 0.103476432899491D+03
 0.103476432899491D+03 -.000000000000000D+00 -.000000000000000D+00 -.103476432899491D+03
 0.850701162942987D+02 -.405654611550678D+02 0.545439046653284D+02 0.107856623098332D+02
 0.388740724317526D+02 0.926270503426263D+01 0.192046296130998D+02 -.325050458283179D+02
 0.830086770729310D+02 0.313027561208051D+02 -.737485342784283D+02 0.217193835184846D+02
 0.000000000000000D+00 0.000000000000000D+00 -.000000000000000D+00 0.000000000000000D+00
 0.103476432899491D+03 0.000000000000000D+00 0.000000000000000D+00 0.103476432899491D+03
 0.103476432899491D+03 -.000000000000000D+00 -.000000000000000D+00 -.103476432899491D+03
 0.807902088138416D+02 -.382524905891112D+02 0.490946021051915D+02 0.123905144383520D+02
 0.373456874089145D+02 0.103256117959659D+02 0.167004470597257D+02 -.317675491199536D+02
 0.673994871195849D+02 0.375686246941281D+02 -.485970149369720D+02 0.277420158206026D+02
 0.214174824566413D+02 -.964174590098277D+01 -.171980342279453D+02 -.836498113900098D+01
-.314779163080D-06 0.000000000000D+00 0.000000000000D+00 0.162386350667D-08 0.000000000000D+00  6 22 1 9900012 13 2 21 2 0.15875304D-01 0.15963721D-01 0.81550713D+04 0.81550713D+04 0.81550713D+04 0.12186237D+01  1  2 13  2  6  5        2 -.427693781389D-04 0.100000000000D+01
0.426873571140D-06 0.000000000000D+00 0.000000000000D+00 0.162386350667D-08 0.398298633713D-10  6 22 1 9900012 13 2 21 2 0.15875304D-01 0.15963721D-01 0.81550713D+04 0.81550713D+04 0.81550713D+04 0.12186237D+01  1  2  1  2  6  5        2 0.579997640343D-04 0.100000000000D+01
  </mgrwgt>
  </event>
  <event>
  7     66 -.15202802E-05 0.83684190E+02 0.78161638E-02 0.11181939E+00
       22 -1    0    0    0    0 0.00000000E+00 0.00000000E+00 0.35015316E+03 0.35015316E+03 0.00000000E+00 0.0000E+00 0.9000E+01
        1 -1    0    0  502    0 0.00000000E+00 0.00000000E+00 -.17679212E+03 0.17679212E+03 0.00000000E+00 0.0000E+00 0.9000E+01
      -24  2    1    2    0    0 -.10834848E+03 -.32497847E+02 0.30286713E+03 0.33241418E+03 0.77299342E+02 0.0000E+00 0.0000E+00
  9900012  1    3    3    0    0 -.77928389E+02 -.59427263E+01 0.24385690E+03 0.26091059E+03 0.50000000E+02 0.0000E+00 0.9000E+01
       13  1    3    3    0    0 -.30420093E+02 -.26555120E+02 0.59010233E+02 0.71503595E+02 0.00000000E+00 0.0000E+00 0.9000E+01
        2  1    1    2  501    0 0.84409105E+02 0.51914803E+02 -.13029468E+03 0.16369712E+03 0.00000000E+00 0.0000E+00 0.9000E+01
       21  1    1    2  502  501 0.23939377E+02 -.19416957E+02 0.78860278E+00 0.30833973E+02 0.00000000E+00 0.0000E+00 0.9000E+01
#aMCatNLO 2  0  0  2  5 0.38144527D+02 0.00000000D+00  -5  6  0 0.00000000D+00 0.00000000D+00 0.00000000D+00 0.00000000D+00 0.00000000D+00
  <mgrwgt>
 -.2183261210D-04    2    2    0
 0.232053371013078D+03 0.000000000000000D+00 0.000000000000000D+00 0.232053371013078D+03
 0.232053371013078D+03 0.000000000000000D+00 0.000000000000000D+00 -.232053371013078D+03
 0.184456585502002D+03 -.683377967204248D+02 -.137215462190422D+02 0.163296958464675D+03
 0.540340851627329D+02 -.276272781752486D+02 -.288203409704916D+02 0.364115889016877D+02
 0.225616071361422D+03 0.959650748956734D+02 0.425418871895338D+02 -.199708547366363D+03
 0.000000000000000D+00 0.000000000000000D+00 -.000000000000000D+00 -.000000000000000D+00
 0.243562765307450D+03 0.000000000000000D+00 0.000000000000000D+00 0.243562765307450D+03
 0.254161668305241D+03 0.000000000000000D+00 0.000000000000000D+00 -.254161668305241D+03
 0.187813860995753D+03 -.779283885549846D+02 -.594272627178849D+01 0.163296958464675D+03
 0.543724222668400D+02 -.304200933845899D+02 -.265551203215289D+02 0.364115889016877D+02
 0.222942924584121D+03 0.844091045405043D+02 0.519148032993339D+02 -.199708547366363D+03
 0.325952257659769D+02 0.239393773990702D+02 -.194169567060164D+02 -.105989029977905D+02
-.226206411327D-05 0.000000000000D+00 0.000000000000D+00 0.161789081208D-05 0.000000000000D+00  6 22 1 9900012 13 2 21 2 0.51324140D-01 0.28547794D-01 0.17302809D+05 0.17302809D+05 0.17302809D+05 0.11853961D+01  1  2 13  1  6  2        1 -.238057633089D-04 0.100000000000D+01
0.191394357050D-06 0.000000000000D+00 0.000000000000D+00 0.161789081208D-05 0.163575735213D-08  6 22 1 9900012 13 2 21 2 0.53869718D-01 0.27198787D-01 0.17302809D+05 0.17302809D+05 0.17302809D+05 0.11853961D+01  1  2  1  1  6  2        1 0.197315121358D-05 0.100000000000D+01
  </mgrwgt>
  </event>
  <event>
  6     66 0.15202802E-05 0.53495804E+02 0.78161638E-02 0.98312758E-01
       22 -1    0    0    0    0 0.00000000E+00 0.00000000E+00 0.16638088E+02 0.16638088E+02 0.00000000E+00 0.0000E+00 0.9000E+01
        1 -1    0    0  501    0 0.00000000E+00 0.00000000E+00 -.10531365E+04 0.10531365E+04 0.00000000E+00 0.0000E+00 0.9000E+01
      -24  2    1    2    0    0 0.22079884E+02 0.48726581E+02 -.12999217E+03 0.16169124E+03 0.79901763E+02 0.0000E+00 0.0000E+00
  9900012  1    3    3    0    0 0.11097933E+02 0.32219606E+02 -.12822690E+03 0.14178647E+03 0.50000000E+02 0.0000E+00 0.9000E+01
       13  1    3    3    0    0 0.10981951E+02 0.16506975E+02 -.17652727E+01 0.19904765E+02 0.00000000E+00 0.0000E+00 0.9000E+01
        2  1    1    2  501    0 -.22079884E+02 -.48726581E+02 -.90650622E+03 0.90808333E+03 0.00000000E+00 0.0000E+00 0.9000E+01
#aMCatNLO 1  0  0  2  2 0.53170585D+02 0.00000000D+00  -5  6  0 0.00000000D+00 0.00000000D+00 0.00000000D+00 0.00000000D+00 0.00000000D+00
  <mgrwgt>
 0.3231615855D-03    5    2    0
 0.132371361989783D+03 0.000000000000000D+00 0.000000000000000D+00 0.132371361989783D+03
 0.132371361989783D+03 0.000000000000000D+00 0.000000000000000D+00 -.132371361989783D+03
 0.709088102138406D+02 0.110979328396862D+02 0.322196062360259D+02 0.369701531863707D+02
 0.735200912060335D+02 0.109819513013166D+02 0.165069752323458D+02 0.707963298853671D+02
 0.120313822559692D+03 -.220798841410028D+02 -.487265814683716D+02 -.107766483071738D+03
 0.000000000000000D+00 0.000000000000000D+00 0.000000000000000D+00 -.000000000000000D+00
 0.347314261368036D+03 0.000000000000000D+00 0.000000000000000D+00 0.347314261368036D+03
 0.415305108658386D+03 0.000000000000000D+00 0.000000000000000D+00 -.415305108658386D+03
 0.717550037960554D+02 0.164868336026540D+01 -.357668867295686D+02 0.369701531863707D+02
 0.954460137653265D+02 -.209414151240559D+00 -.640138841515372D+02 0.707963298853671D+02
 0.257030442820971D+03 -.470730481606003D+02 -.228550129730795D+03 -.107766483071738D+03
 0.338387909644069D+03 0.456337789515754D+02 0.328330900611901D+03 -.679908472903493D+02
0.796008642553D-05 0.000000000000D+00 0.000000000000D+00 0.492728507416D-05 0.000000000000D+00  6 22 1 9900012 13 2 21 0 0.25597059D-02 0.16202100D+00 0.44776535D+04 0.44776535D+04 0.44776535D+04 0.12472789D+01  1  2  2  1  6  2        1 0.407919224182D-03 0.100000000000D+01
0.996356878653D-07 0.000000000000D+00 -.152844139065D-07 0.492728507416D-05 0.000000000000D+00  6 22 1 9900012 13 2 21 2 0.25597059D-02 0.16202100D+00 0.44776535D+04 0.44776535D+04 0.44776535D+04 0.12472789D+01  1  2  3  1  6  2        1 0.794325426215D-05 0.100000000000D+01
-.118700790198D-05 0.000000000000D+00 0.000000000000D+00 0.492728507416D-05 0.000000000000D+00  6 22 1 9900012 13 2 21 2 0.25597059D-02 0.16202100D+00 0.44776535D+04 0.44776535D+04 0.44776535D+04 0.12472789D+01  1  2 15  1  6  2        1 -.946318109364D-04 0.100000000000D+01
0.579503412944D-05 0.000000000000D+00 -.245412720282D-05 0.492728507416D-05 0.000000000000D+00  6 22 1 9900012 13 2 21 2 0.25597059D-02 0.67770419D+00 0.44776535D+04 0.44776535D+04 0.44776535D+04 0.12472789D+01  1  2  5  1  6  2        1 0.184091656246D-05 0.100000000000D+01
0.100529068479D-05 0.000000000000D+00 -.421407365805D-06 0.492728507416D-05 0.000000000000D+00  6 22 21 9900012 13 2 -1 2 0.25597059D-02 0.67770419D+00 0.44776535D+04 0.44776535D+04 0.44776535D+04 0.12472789D+01  1  2  5  3  6  2        1 0.900014462593D-07 0.100000000000D+01
  </mgrwgt>
  </event>
  <event>
  6     66 -.15202802E-05 0.17043918E+02 0.78161638E-02 0.12980140E+00
       22 -1    0    0    0    0 0.00000000E+00 0.00000000E+00 0.11508255E+02 0.11508255E+02 0.00000000E+00 0.0000E+00 0.9000E+01
        1 -1    0    0  501    0 -.00000000E+00 -.00000000E+00 -.32869922E+03 0.32869922E+03 0.00000000E+00 0.0000E+00 0.9000E+01
      -24  2    1    2    0    0 0.17099706E+02 0.16990995E+02 -.15918378E+03 0.18037204E+03 0.81323459E+02 0.0000E+00 0.0000E+00
  9900012  1    3    3    0    0 -.55462542E+01 0.55219861E+01 -.62549446E+02 0.80459222E+02 0.50000000E+02 0.0000E+00 0.9000E+01
       13  1    3    3    0    0 0.22645960E+02 0.11469009E+02 -.96634333E+02 0.99912822E+02 0.00000000E+00 0.0000E+00 0.9000E+01
        2  1    1    2  501    0 -.17099706E+02 -.16990995E+02 -.15800718E+03 0.15983543E+03 0.00000000E+00 0.0000E+00 0.9000E+01
#aMCatNLO 1  0  0  5  2 0.20856251D+01 0.00000000D+00  -5  6  0 0.00000000D+00 0.00000000D+00 0.00000000D+00 0.00000000D+00 0.00000000D+00
  <mgrwgt>
 -.2656431603D-03    8    2    0
 0.615040999744564D+02 0.000000000000000D+00 0.000000000000000D+00 0.615040999744564D+02
 0.615040999744564D+02 -.000000000000000D+00 -.000000000000000D+00 -.615040999744564D+02
 0.612374594637643D+02 -.554625424673728D+01 0.552198613047828D+01 0.344785900898156D+02
 0.271490151437191D+02 0.226459603037342D+02 0.114690088677485D+02 -.962763422586728D+01
 0.346217253414294D+02 -.170997060569969D+02 -.169909949982268D+02 -.248509558639484D+02
 0.000000000000000D+00 0.000000000000000D+00 0.000000000000000D+00 -.000000000000000D+00
 0.615040999744564D+02 0.000000000000000D+00 0.000000000000000D+00 0.615040999744564D+02
 0.615040999744564D+02 -.000000000000000D+00 -.000000000000000D+00 -.615040999744564D+02
 0.611869500872988D+02 -.560818750869572D+01 0.546044660806472D+01 0.343885826502544D+02
 0.271287856633269D+02 0.226185017170991D+02 0.114417248485601D+02 -.966753971443423D+01
 0.175953686367072D+02 -.103695433728474D+02 -.849999677054200D+01 -.113938414330299D+02
 0.170970955615799D+02 -.664077083555590D+01 -.840217468608279D+01 -.133272015027903D+02
0.146155914712D-06 0.000000000000D+00 0.000000000000D+00 0.160290817771D-06 0.000000000000D+00  6 22 1 9900012 13 2 21 0 0.17705007D-02 0.50569110D-01 0.25049680D+04 0.25049680D+04 0.25049680D+04 0.12771315D+01  1  2  2  2  6  5        2 0.587605286157D-04 0.100000000000D+01
0.357713949348D-08 0.000000000000D+00 -.280638598115D-09 0.160290817771D-06 0.000000000000D+00  6 22 1 9900012 13 2 21 2 0.17705007D-02 0.50569110D-01 0.25049680D+04 0.25049680D+04 0.25049680D+04 0.12771315D+01  1  2  3  2  6  5        2 0.234572143675D-05 0.100000000000D+01
-.177177391457D-07 0.000000000000D+00 0.000000000000D+00 0.160290817771D-06 0.000000000000D+00  6 22 1 9900012 13 2 21 2 0.17705007D-02 0.50569110D-01 0.25049680D+04 0.25049680D+04 0.25049680D+04 0.12771315D+01  1  2 15  2  6  5        2 -.116184679408D-04 0.100000000000D+01
0.150403800860D-08 0.000000000000D+00 0.000000000000D+00 0.160290817771D-06 0.000000000000D+00  6 22 1 9900012 13 2 21 2 0.17705007D-02 0.50569110D-01 0.25037262D+04 0.25037262D+04 0.25037262D+04 0.12771580D+01  1  2 12  2  6  5        2 0.986267932877D-06 0.100000000000D+01
-.236612348397D-05 0.000000000000D+00 0.000000000000D+00 0.160290817771D-06 0.000000000000D+00  6 22 1 9900012 13 2 21 2 0.17705007D-02 0.50569110D-01 0.25049680D+04 0.25049680D+04 0.25049680D+04 0.12771315D+01  1  2  4  2  6  5        2 -.155159355358D-02 0.100000000000D+01
-.930508180941D-06 0.000000000000D+00 0.000000000000D+00 0.160290817771D-06 0.000000000000D+00  6 22 1 9900012 13 2 21 2 0.17705007D-02 0.50569110D-01 0.25049680D+04 0.25049680D+04 0.25049680D+04 0.12771315D+01  1  2  5  2  6  5        2 -.610183916808D-03 0.100000000000D+01
0.148145029808D-05 0.000000000000D+00 -.000000000000D+00 0.160290817771D-06 0.000000000000D+00  6 22 1 9900012 13 2 21 2 0.17705007D-02 0.50569110D-01 0.25049680D+04 0.25049680D+04 0.25049680D+04 0.12771315D+01  1  2  6  2  6  5        2 0.971466091278D-03 0.100000000000D+01
0.133312785796D-05 0.000000000000D+00 0.000000000000D+00 0.160290817771D-06 0.146717244273D-06  6 22 1 9900012 13 2 21 2 0.17705007D-02 0.50569110D-01 0.25037262D+04 0.25037262D+04 0.25037262D+04 0.12771580D+01  1  2 11  2  6  5        2 0.874194168768D-03 0.100000000000D+01
  </mgrwgt>
  </event>
  <event>
  6     66 0.15202802E-05 0.26048457E+02 0.78161638E-02 0.12227607E+00
       22 -1    0    0    0    0 0.00000000E+00 0.00000000E+00 0.61280847E+03 0.61280847E+03 0.00000000E+00 0.0000E+00 0.9000E+01
        1 -1    0    0  501    0 0.00000000E+00 0.00000000E+00 -.72323556E+02 0.72323556E+02 0.00000000E+00 0.0000E+00 0.9000E+01
      -24  2    1    2    0    0 -.68746902E+01 -.56719239E+02 0.59692238E+03 0.60482312E+03 0.78932481E+02 0.0000E+00 0.0000E+00
  9900012  1    3    3    0    0 0.96333940E+01 -.50039512E+02 0.55036621E+03 0.55497722E+03 0.50000000E+02 0.0000E+00 0.9000E+01
       13  1    3    3    0    0 -.16508084E+02 -.66797271E+01 0.46556175E+02 0.49845892E+02 0.00000000E+00 0.0000E+00 0.9000E+01
        2  1    1    2  501    0 0.68746902E+01 0.56719239E+02 -.56437468E+02 0.80308912E+02 0.00000000E+00 0.0000E+00 0.9000E+01
#aMCatNLO 1  0  0  5  2 0.14658589D+02 0.00000000D+00  -5  6  0 0.00000000D+00 0.00000000D+00 0.00000000D+00 0.00000000D+00 0.00000000D+00
  <mgrwgt>
 0.3505105601D-03    7    2    0
 0.210524316536689D+03 0.000000000000000D+00 0.000000000000000D+00 0.210524316536689D+03
 0.210524316536689D+03 -.000000000000000D+00 -.000000000000000D+00 -.210524316536689D+03
 0.196575953961720D+03 0.963339396870340D+01 -.500395120461424D+02 0.183153898759453D+03
 0.213469574434976D+02 -.165080841374094D+02 -.667972709372189D+01 0.117710235816647D+02
 0.203125721668162D+03 0.687469016870604D+01 0.567192391398642D+02 -.194924922341117D+03
 0.000000000000000D+00 0.000000000000000D+00 0.000000000000000D+00 0.000000000000000D+00
 0.210524316536689D+03 0.000000000000000D+00 0.000000000000000D+00 0.210524316536689D+03
 0.210524316536689D+03 -.000000000000000D+00 -.000000000000000D+00 -.210524316536689D+03
 0.192874670425729D+03 0.976350046456654D+01 -.489660758226303D+02 0.179464859983910D+03
 0.210802388806534D+02 -.164939101869845D+02 -.656278572415025D+01 0.113691354793577D+02
 0.192788205122399D+03 0.223274749130201D+01 0.422282063916859D+02 -.188093289242060D+03
 0.143055186445972D+02 0.449766223111594D+01 0.133006551550947D+02 -.274070622120733D+01
0.887491580061D-05 0.000000000000D+00 0.000000000000D+00 0.183667212732D-04 0.000000000000D+00  6 22 1 9900012 13 2 21 0 0.94278226D-01 0.11126701D-01 0.53534251D+04 0.53534251D+04 0.53534251D+04 0.12385199D+01  1  2  2  2  6  5        2 0.691305187052D-04 0.100000000000D+01
0.232316664726D-06 0.000000000000D+00 -.170410067467D-07 0.183667212732D-04 0.000000000000D+00  6 22 1 9900012 13 2 21 2 0.94278226D-01 0.11126701D-01 0.53534251D+04 0.53534251D+04 0.53534251D+04 0.12385199D+01  1  2  3  2  6  5        2 0.277582376247D-05 0.100000000000D+01
-.132371754301D-05 0.000000000000D+00 0.000000000000D+00 0.183667212732D-04 0.000000000000D+00  6 22 1 9900012 13 2 21 2 0.94278226D-01 0.11126701D-01 0.53534251D+04 0.53534251D+04 0.53534251D+04 0.12385199D+01  1  2 15  2  6  5        2 -.158163712234D-04 0.100000000000D+01
0.233296356731D-04 0.000000000000D+00 0.000000000000D+00 0.183667212732D-04 0.000000000000D+00  6 22 1 9900012 13 2 21 2 0.94278226D-01 0.11126701D-01 0.52374529D+04 0.52374529D+04 0.52374529D+04 0.12395831D+01  1  2 12  2  6  5        2 0.278761930405D-03 0.100000000000D+01
-.735884610003D-06 0.000000000000D+00 0.000000000000D+00 0.183667212732D-04 0.000000000000D+00  6 22 1 9900012 13 2 21 2 0.94278226D-01 0.11126701D-01 0.53534251D+04 0.53534251D+04 0.53534251D+04 0.12385199D+01  1  2  4  2  6  5        2 -.879267954924D-05 0.100000000000D+01
-.280712542112D-04 0.000000000000D+00 0.000000000000D+00 0.183667212732D-04 0.000000000000D+00  6 22 1 9900012 13 2 21 2 0.94278226D-01 0.11126701D-01 0.53534251D+04 0.53534251D+04 0.53534251D+04 0.12385199D+01  1  2  5  2  6  5        2 -.335407942317D-03 0.100000000000D+01
0.301176569323D-04 0.000000000000D+00 -.000000000000D+00 0.183667212732D-04 0.000000000000D+00  6 22 1 9900012 13 2 21 2 0.94278226D-01 0.11126701D-01 0.53534251D+04 0.53534251D+04 0.53534251D+04 0.12385199D+01  1  2  6  2  6  5        2 0.359859280354D-03 0.100000000000D+01
  </mgrwgt>
  </event>
  <event>
  7     66 -.15202802E-05 0.11918219E+03 0.78161638E-02 0.11097607E+00
       22 -1    0    0    0    0 0.00000000E+00 0.00000000E+00 0.10595798E+03 0.10595798E+03 0.00000000E+00 0.0000E+00 0.9000E+01
        1 -1    0    0  501    0 -.00000000E+00 -.00000000E+00 -.85824356E+03 0.85824356E+03 0.00000000E+00 0.0000E+00 0.9000E+01
      -24  2    1    2    0    0 0.76705819E+02 -.10458171E+03 0.40250544E+02 0.15743972E+03 0.79662043E+02 0.0000E+00 0.0000E+00
  9900012  1    3    3    0    0 0.78819501E+02 -.80493246E+02 0.47661149E+02 0.13214863E+03 0.50000000E+02 0.0000E+00 0.9000E+01
       13  1    3    3    0    0 -.21136816E+01 -.24088466E+02 -.74106046E+01 0.25291083E+02 0.00000000E+00 0.0000E+00 0.9000E+01
        2  1    1    2  502    0 -.74317206E+02 0.97756198E+02 -.78937560E+03 0.79886992E+03 0.00000000E+00 0.0000E+00 0.9000E+01
       21  1    1    2  501  502 -.23886133E+01 0.68255143E+01 -.31605341E+01 0.78919006E+01 0.00000000E+00 0.0000E+00 0.9000E+01
#aMCatNLO 2  0  0  5  2 0.12878563D+02 0.00000000D+00  -5  6  0 0.00000000D+00 0.00000000D+00 0.00000000D+00 0.00000000D+00 0.00000000D+00
  <mgrwgt>
 -.1595353941D-03    3    2    0
 0.301558869392396D+03 0.000000000000000D+00 0.000000000000000D+00 0.301558869392396D+03
 0.301558869392396D+03 -.000000000000000D+00 -.000000000000000D+00 -.301558869392396D+03
 0.275195581742375D+03 0.800227774308034D+02 -.821338092804012D+02 0.245118340145887D+03
 0.316243176984276D+02 -.197522997363806D+01 -.242772323638849D+02 0.201695792021614D+02
 0.296297839343990D+03 -.780475474571653D+02 0.106411041644286D+03 -.265287919348049D+03
 0.000000000000000D+00 0.000000000000000D+00 0.000000000000000D+00 0.000000000000000D+00
 0.301558869392396D+03 0.000000000000000D+00 0.000000000000000D+00 0.301558869392396D+03
 0.301558869392396D+03 -.000000000000000D+00 -.000000000000000D+00 -.301558869392396D+03
 0.270714490762992D+03 0.788195008560732D+02 -.804932463431292D+02 0.241028336688884D+03
 0.311892837716534D+02 -.211368159603901D+01 -.240884656205723D+02 0.196989744998514D+02
 0.292539441619349D+03 -.743172059644944D+02 0.977561976142151D+02 -.265518367780088D+03
 0.867452263079749D+01 -.238861329553974D+01 0.682551434948635D+01 0.479105659135274D+01
-.206295871321D-04 0.000000000000D+00 0.000000000000D+00 0.196792494232D-04 0.000000000000D+00  6 22 1 9900012 13 2 21 2 0.16301227D-01 0.13203747D+00 0.19246683D+05 0.19246683D+05 0.19246683D+05 0.11809176D+01  1  2 13  2  6  5        2 -.166606750458D-03 0.100000000000D+01
-.524166066130D-05 0.000000000000D+00 0.000000000000D+00 0.196792494232D-04 0.000000000000D+00  6 22 1 9900012 13 2 21 2 0.16301227D-01 0.13203747D+00 0.19799406D+05 0.19799406D+05 0.19799406D+05 0.11797355D+01  1  2  8  2  6  5        2 -.422869887004D-04 0.100000000000D+01
0.611165080523D-05 0.000000000000D+00 0.000000000000D+00 0.196792494232D-04 0.552546955564D-07  6 22 1 9900012 13 2 21 2 0.16301227D-01 0.13203747D+00 0.19246683D+05 0.19246683D+05 0.19246683D+05 0.11809176D+01  1  2  1  2  6  5        2 0.493583450834D-04 0.100000000000D+01
  </mgrwgt>
  </event>
  <event>
  6     66 0.15202802E-05 0.95094279E+02 0.78161638E-02 0.11396711E+00
       22 -1    0    0    0    0 0.00000000E+00 0.00000000E+00 0.96784148E+01 0.96784148E+01 0.00000000E+00 0.0000E+00 0.9000E+01
        1 -1    0    0  501    0 -.00000000E+00 -.00000000E+00 -.33090289E+04 0.33090289E+04 0.00000000E+00 0.0000E+00 0.9000E+01
      -24  2    1    2    0    0 0.10646632E+03 -.14341657E+02 -.50771057E+03 0.52500114E+03 0.79469600E+02 0.0000E+00 0.0000E+00
  9900012  1    3    3    0    0 0.68598969E+02 -.24803435E+02 -.27134402E+03 0.28539202E+03 0.50000000E+02 0.0000E+00 0.9000E+01
       13  1    3    3    0    0 0.37867348E+02 0.10461779E+02 -.23636655E+03 0.23960912E+03 0.00000000E+00 0.0000E+00 0.9000E+01
        2  1    1    2  501    0 -.10646632E+03 0.14341657E+02 -.27916399E+04 0.27937062E+04 0.00000000E+00 0.0000E+00 0.9000E+01
#aMCatNLO 1  0  0  5  2 0.28013458D+02 0.00000000D+00  -5  6  0 0.00000000D+00 0.00000000D+00 0.00000000D+00 0.00000000D+00 0.00000000D+00
  <mgrwgt>
 0.1178957843D-03    7    2    0
 0.178958527804043D+03 0.000000000000000D+00 0.000000000000000D+00 0.178958527804043D+03
 0.178958527804043D+03 -.000000000000000D+00 -.000000000000000D+00 -.178958527804043D+03
 0.144931811493392D+03 0.685989693011079D+02 -.248034351751272D+02 0.114822476010122D+03
 0.428491755542453D+02 0.378673478057567D+02 0.104617785589256D+02 0.171075131220288D+02
 0.170136068560449D+03 -.106466317106865D+03 0.143416566162016D+02 -.131929989132151D+03
 0.000000000000000D+00 -.000000000000000D+00 0.000000000000000D+00 0.000000000000000D+00
 0.178958527804043D+03 0.000000000000000D+00 0.000000000000000D+00 0.178958527804043D+03
 0.178958527804043D+03 -.000000000000000D+00 -.000000000000000D+00 -.178958527804043D+03
 0.141187212509915D+03 0.660598978669442D+02 -.244614069015632D+02 0.111676131928559D+03
 0.418428866451731D+02 0.371157752859634D+02 0.105630199213955D+02 0.161761861346510D+02
 0.111706531908204D+03 -.462032250903246D+02 0.151454030673155D+02 -.100569518384747D+03
 0.631804245447948D+02 -.569724480625831D+02 -.124701608714775D+01 -.272827996784637D+02
0.141331793874D-04 0.000000000000D+00 0.000000000000D+00 0.284839716615D-05 0.000000000000D+00  6 22 1 9900012 13 2 21 0 0.14889869D-02 0.50908137D+00 0.13823933D+05 0.13823933D+05 0.13823933D+05 0.11950188D+01  1  2  2  2  6  5        2 0.454258050530D-04 0.100000000000D+01
-.362764302263D-07 0.000000000000D+00 -.271375650995D-07 0.284839716615D-05 0.000000000000D+00  6 22 1 9900012 13 2 21 2 0.14889869D-02 0.50908137D+00 0.13823933D+05 0.13823933D+05 0.13823933D+05 0.11950188D+01  1  2  3  2  6  5        2 -.166508645479D-06 0.100000000000D+01
-.185154249476D-05 0.000000000000D+00 0.000000000000D+00 0.284839716615D-05 0.000000000000D+00  6 22 1 9900012 13 2 21 2 0.14889869D-02 0.50908137D+00 0.13823933D+05 0.13823933D+05 0.13823933D+05 0.11950188D+01  1  2 15  2  6  5        2 -.849857141195D-05 0.100000000000D+01
0.162794175897D-04 0.000000000000D+00 0.000000000000D+00 0.284839716615D-05 0.000000000000D+00  6 22 1 9900012 13 2 21 2 0.14889869D-02 0.50908137D+00 0.13292057D+05 0.13292057D+05 0.13292057D+05 0.11967259D+01  1  2 12  2  6  5        2 0.749114720399D-04 0.100000000000D+01
-.556012402471D-05 0.000000000000D+00 0.000000000000D+00 0.284839716615D-05 0.000000000000D+00  6 22 1 9900012 13 2 21 2 0.14889869D-02 0.50908137D+00 0.13823933D+05 0.13823933D+05 0.13823933D+05 0.11950188D+01  1  2  4  2  6  5        2 -.255209433309D-04 0.100000000000D+01
-.159543527119D-04 0.000000000000D+00 0.000000000000D+00 0.284839716615D-05 0.000000000000D+00  6 22 1 9900012 13 2 21 2 0.14889869D-02 0.50908137D+00 0.13823933D+05 0.13823933D+05 0.13823933D+05 0.11950188D+01  1  2  5  2  6  5        2 -.732304045072D-04 0.100000000000D+01
0.228703794826D-04 0.000000000000D+00 -.000000000000D+00 0.284839716615D-05 0.000000000000D+00  6 22 1 9900012 13 2 21 2 0.14889869D-02 0.50908137D+00 0.13823933D+05 0.13823933D+05 0.13823933D+05 0.11950188D+01  1  2  6  2  6  5        2 0.104974935116D-03 0.100000000000D+01
  </mgrwgt>
  </event>
  <event>
  6     66 0.15202802E-05 0.32416667E+02 0.78161638E-02 0.99295649E-01
       22 -1    0    0    0    0 0.00000000E+00 0.00000000E+00 0.12152754E+02 0.12152754E+02 0.00000000E+00 0.0000E+00 0.9000E+01
        3 -1    0    0  501    0 0.00000000E+00 0.00000000E+00 -.15301490E+04 0.15301490E+04 0.00000000E+00 0.0000E+00 0.9000E+01
      -24  2    1    2    0    0 -.74942521E+01 0.31538492E+02 -.14572764E+03 0.16965032E+03 0.80584394E+02 0.0000E+00 0.0000E+00
  9900012  1    3    3    0    0 0.12790097E+02 0.39037356E+02 -.11686004E+03 0.13358057E+03 0.50000000E+02 0.0000E+00 0.9000E+01
       13  1    3    3    0    0 -.20284349E+02 -.74988640E+01 -.28867604E+02 0.36069743E+02 0.00000000E+00 0.0000E+00 0.9000E+01
        4  1    1    2  501    0 0.74942521E+01 -.31538492E+02 -.13722686E+04 0.13726514E+04 0.00000000E+00 0.0000E+00 0.9000E+01
#aMCatNLO 1  0  0  2  5 0.48573724D+01 0.00000000D+00  -5  6  0 0.00000000D+00 0.00000000D+00 0.00000000D+00 0.00000000D+00 0.00000000D+00
  <mgrwgt>
 0.2495507413D-04    3    2    0
 0.136365405819476D+03 0.000000000000000D+00 0.000000000000000D+00 0.136365405819476D+03
 0.136365405819476D+03 0.000000000000000D+00 0.000000000000000D+00 -.136365405819476D+03
 0.104969649009356D+03 0.127900966985630D+02 0.390373559699940D+02 0.826506229768465D+02
 0.433009839877718D+02 -.202843487502375D+02 -.749886404806522D+01 0.375138300907365D+02
 0.124460178641825D+03 0.749425205167444D+01 -.315384919219288D+02 -.120164453067583D+03
 0.000000000000000D+00 0.000000000000000D+00 -.000000000000000D+00 0.000000000000000D+00
 0.755946882471365D+03 0.000000000000000D+00 0.000000000000000D+00 0.755946882471365D+03
 0.251927822539730D+03 0.000000000000000D+00 0.000000000000000D+00 -.251927822539730D+03
 0.204024458375109D+03 0.939783482873769D+01 0.179461792137846D+03 0.826506229768465D+02
 0.578292501883277D+02 -.213945972277440D+02 0.384604464187582D+02 0.375138300907365D+02
 0.152958916302900D+03 0.444863339665100D+01 0.945364689229955D+02 -.120164453067583D+03
 0.593062080144758D+03 0.754812900235529D+01 -.312458707479599D+03 0.504019059931635D+03
0.115841422794D-04 0.000000000000D+00 0.000000000000D+00 0.530894067946D-05 0.000000000000D+00  6 22 3 9900012 13 4 21 0 0.18696544D-02 0.23540754D+00 0.35256083D+04 0.35256083D+04 0.35256083D+04 0.12592977D+01  1  2  2  1  6  2        3 0.287679117215D-04 0.100000000000D+01
0.805887588329D-06 0.000000000000D+00 -.222430782637D-07 0.530894067946D-05 0.000000000000D+00  6 22 3 9900012 13 4 21 2 0.18696544D-02 0.23540754D+00 0.35256083D+04 0.35256083D+04 0.35256083D+04 0.12592977D+01  1  2  3  1  6  2        3 0.317377231532D-05 0.100000000000D+01
-.177404730006D-05 0.000000000000D+00 0.000000000000D+00 0.530894067946D-05 0.000000000000D+00  6 22 3 9900012 13 4 21 2 0.18696544D-02 0.23540754D+00 0.35256083D+04 0.35256083D+04 0.35256083D+04 0.12592977D+01  1  2 15  1  6  2        3 -.698660990507D-05 0.100000000000D+01
  </mgrwgt>
  </event>
  <event>
  7     66 -.15202802E-05 0.21993918E+02 0.78161638E-02 0.11904765E+00
       22 -1    0    0    0    0 0.00000000E+00 0.00000000E+00 0.10630508E+03 0.10630508E+03 0.00000000E+00 0.0000E+00 0.9000E+01
        3 -1    0    0  502    0 0.00000000E+00 0.00000000E+00 -.12464944E+03 0.12464944E+03 0.00000000E+00 0.0000E+00 0.9000E+01
      -24  2    1    2    0    0 0.55035928E+02 -.40066768E+02 0.53948409E+02 0.11922768E+03 0.81673187E+02 0.0000E+00 0.0000E+00
  9900012  1    3    3    0    0 0.51584576E+02 -.51647572E+02 0.58768593E+02 0.10621764E+03 0.50000000E+02 0.0000E+00 0.9000E+01
       13  1    3    3    0    0 0.34513515E+01 0.11580804E+02 -.48201843E+01 0.13010036E+02 0.00000000E+00 0.0000E+00 0.9000E+01
        4  1    1    2  501    0 -.23412204E+02 0.30567973E+02 -.68381494E+02 0.78476500E+02 0.00000000E+00 0.0000E+00 0.9000E+01
       21  1    1    2  502  501 -.31623724E+02 0.94987945E+01 -.39112744E+01 0.33250340E+02 0.00000000E+00 0.0000E+00 0.9000E+01
#aMCatNLO 2  0  0  2  5 0.45821469D+02 0.00000000D+00  -5  6  0 0.00000000D+00 0.00000000D+00 0.00000000D+00 0.00000000D+00 0.00000000D+00
  <mgrwgt>
 -.7730613158D-05    2    2    0
 0.971961181774060D+02 0.000000000000000D+00 0.000000000000000D+00 0.971961181774060D+02
 0.971961181774060D+02 0.000000000000000D+00 0.000000000000000D+00 -.971961181774060D+02
 0.101475236088907D+03 0.344405997039406D+02 -.464980488448139D+02 0.667008252194657D+02
 0.128782274258549D+02 0.138625838235111D+01 0.122010948580989D+02 -.388076198614069D+01
 0.800387728400497D+02 -.358268580862917D+02 0.342969539867150D+02 -.628200632333250D+02
 0.000000000000000D+00 -.000000000000000D+00 0.000000000000000D+00 -.000000000000000D+00
 0.114370893439182D+03 0.000000000000000D+00 0.000000000000000D+00 0.114370893439182D+03
 0.115858748723948D+03 0.000000000000000D+00 0.000000000000000D+00 -.115858748723948D+03
 0.110803611582062D+03 0.515845763935989D+02 -.516475723820950D+02 0.667008252194657D+02
 0.126920120822680D+02 0.345135151285330D+01 0.115808043692175D+02 -.388076198614069D+01
 0.736810194455711D+02 -.234122036607664D+02 0.305679734631929D+02 -.628200632333250D+02
 0.330529990532282D+02 -.316237242456858D+02 0.949879454968464D+01 -.148785528476628D+01
-.206952800340D-06 0.000000000000D+00 0.000000000000D+00 0.377770538470D-06 0.000000000000D+00  6 22 3 9900012 13 4 21 2 0.13898696D-01 0.22565428D-01 0.74033799D+04 0.74033799D+04 0.74033799D+04 0.12231095D+01  1  2 13  1  6  2        3 -.106371578767D-04 0.100000000000D+01
0.540467579757D-07 0.000000000000D+00 0.000000000000D+00 0.377770538470D-06 0.669252233626D-09  6 22 3 9900012 13 4 21 2 0.16354628D-01 0.19176837D-01 0.74033799D+04 0.74033799D+04 0.74033799D+04 0.12231095D+01  1  2  1  1  6  2        3 0.290654471820D-05 0.100000000000D+01
  </mgrwgt>
  </event>
  <event>
  6     66 -.15202802E-05 0.35438545E+02 0.78161638E-02 0.11845680E+00
       22 -1    0    0    0    0 0.00000000E+00 0.00000000E+00 0.26454796E+03 0.26454796E+03 0.00000000E+00 0.0000E+00 0.9000E+01
        1 -1    0    0  501    0 0.00000000E+00 0.00000000E+00 -.36707998E+02 0.36707998E+02 0.00000000E+00 0.0000E+00 0.9000E+01
      -24  2    1    2    0    0 0.69383141E+02 0.27314034E+02 0.19171510E+03 0.21840017E+03 0.73374894E+02 0.0000E+00 0.0000E+00
  9900012  1    3    3    0    0 0.39739218E+02 0.13049182E+01 0.10132586E+03 0.11978246E+03 0.50000000E+02 0.0000E+00 0.9000E+01
       13  1    3    3    0    0 0.29643923E+02 0.26009116E+02 0.90389247E+02 0.98617708E+02 0.00000000E+00 0.0000E+00 0.9000E+01
        2  1    1    2  501    0 -.69383141E+02 -.27314034E+02 0.36124856E+02 0.82855790E+02 0.00000000E+00 0.0000E+00 0.9000E+01
#aMCatNLO 1  0  0  5  2 0.35532539D+01 0.00000000D+00  -5  6  0 0.00000000D+00 0.00000000D+00 0.00000000D+00 0.00000000D+00 0.00000000D+00
  <mgrwgt>
 -.7534049977D-04    8    2    0
 0.985445384339138D+02 0.000000000000000D+00 0.000000000000000D+00 0.985445384339138D+02
 0.985445384339138D+02 -.000000000000000D+00 -.000000000000000D+00 -.985445384339138D+02
 0.659554572203015D+02 0.397392179134018D+02 0.130491820179499D+01 0.164077446730748D+02
 0.462475628830255D+02 0.296439231848239D+02 0.260091157326159D+02 0.241578308140249D+02
 0.848860567645006D+02 -.693831410982256D+02 -.273140339344109D+02 -.405655754870997D+02
 0.000000000000000D+00 0.000000000000000D+00 0.000000000000000D+00 -.000000000000000D+00
 0.985445384339138D+02 0.000000000000000D+00 0.000000000000000D+00 0.985445384339138D+02
 0.985445384339138D+02 -.000000000000000D+00 -.000000000000000D+00 -.985445384339138D+02
 0.658683914939636D+02 0.396238899596709D+02 0.125951709149745D+01 0.163403169847518D+02
 0.461531710834722D+02 0.295630850991852D+02 0.259772922351584D+02 0.241105679860050D+02
 0.655937467377720D+02 -.555507943105922D+02 -.189946190421002D+02 -.292549706888715D+02
 0.194737675526198D+02 -.136361807482639D+02 -.824219028455568D+01 -.111959142818853D+02
0.288543749196D-06 0.000000000000D+00 0.000000000000D+00 0.133542129008D-07 0.000000000000D+00  6 22 1 9900012 13 2 21 0 0.40699686D-01 0.56473844D-02 0.79107143D+04 0.79107143D+04 0.79107143D+04 0.12200298D+01  1  2  2  2  6  5        2 0.243217700245D-04 0.100000000000D+01
-.485881765184D-08 0.000000000000D+00 -.554041986114D-09 0.133542129008D-07 0.000000000000D+00  6 22 1 9900012 13 2 21 2 0.40699686D-01 0.56473844D-02 0.79107143D+04 0.79107143D+04 0.79107143D+04 0.12200298D+01  1  2  3  2  6  5        2 -.609614072003D-06 0.100000000000D+01
-.327861857947D-07 0.000000000000D+00 0.000000000000D+00 0.133542129008D-07 0.000000000000D+00  6 22 1 9900012 13 2 21 2 0.40699686D-01 0.56473844D-02 0.79107143D+04 0.79107143D+04 0.79107143D+04 0.12200298D+01  1  2 15  2  6  5        2 -.411353577350D-05 0.100000000000D+01
0.249099832518D-06 0.000000000000D+00 0.000000000000D+00 0.133542129008D-07 0.000000000000D+00  6 22 1 9900012 13 2 21 2 0.40699686D-01 0.56473844D-02 0.79037620D+04 0.79037620D+04 0.79037620D+04 0.12200705D+01  1  2 12  2  6  5        2 0.312528639307D-04 0.100000000000D+01
-.836671964056D-05 0.000000000000D+00 0.000000000000D+00 0.133542129008D-07 0.000000000000D+00  6 22 1 9900012 13 2 21 2 0.40699686D-01 0.56473844D-02 0.79107143D+04 0.79107143D+04 0.79107143D+04 0.12200298D+01  1  2  4  2  6  5        2 -.104973481099D-02 0.100000000000D+01
-.518316010614D-05 0.000000000000D+00 0.000000000000D+00 0.133542129008D-07 0.000000000000D+00  6 22 1 9900012 13 2 21 2 0.40699686D-01 0.56473844D-02 0.79107143D+04 0.79107143D+04 0.79107143D+04 0.12200298D+01  1  2  5  2  6  5        2 -.650307865937D-03 0.100000000000D+01
0.650412145543D-05 0.000000000000D+00 -.000000000000D+00 0.133542129008D-07 0.000000000000D+00  6 22 1 9900012 13 2 21 2 0.40699686D-01 0.56473844D-02 0.79107143D+04 0.79107143D+04 0.79107143D+04 0.12200298D+01  1  2  6  2  6  5        2 0.816042965463D-03 0.100000000000D+01
0.604007934890D-05 0.000000000000D+00 0.000000000000D+00 0.133542129008D-07 0.634226435170D-08  6 22 1 9900012 13 2 21 2 0.40699686D-01 0.56473844D-02 0.79037620D+04 0.79037620D+04 0.79037620D+04 0.12200705D+01  1  2 11  2  6  5        2 0.757807727584D-03 0.100000000000D+01
  </mgrwgt>
  </event>
  <event>
  7     66 -.15202802E-05 0.22035834E+02 0.78161638E-02 0.12453811E+00
       22 -1    0    0    0    0 0.00000000E+00 0.00000000E+00 0.82798294E+02 0.82798294E+02 0.00000000E+00 0.0000E+00 0.9000E+01
        3 -1    0    0  502    0 0.00000000E+00 0.00000000E+00 -.17884179E+03 0.17884179E+03 0.00000000E+00 0.0000E+00 0.9000E+01
      -24  2    1    2    0    0 0.17885922E+02 0.31603622E+02 0.49605775E+02 0.10152181E+03 0.80791391E+02 0.0000E+00 0.0000E+00
  9900012  1    3    3    0    0 -.89645907E+01 0.31448431E+02 0.43722284E+02 0.74033815E+02 0.50000000E+02 0.0000E+00 0.9000E+01
       13  1    3    3    0    0 0.26850513E+02 0.15519063E+00 0.58834911E+01 0.27487990E+02 0.00000000E+00 0.0000E+00 0.9000E+01
        4  1    1    2  501    0 -.21914394E+02 -.18687781E+02 -.14356961E+03 0.14642987E+03 0.00000000E+00 0.0000E+00 0.9000E+01
       21  1    1    2  502  501 0.40284724E+01 -.12915841E+02 -.20796611E+01 0.13688409E+02 0.00000000E+00 0.0000E+00 0.9000E+01
#aMCatNLO 2  0  0  2  5 0.21774563D+02 0.00000000D+00  -5  6  0 0.00000000D+00 0.00000000D+00 0.00000000D+00 0.00000000D+00 0.00000000D+00
  <mgrwgt>
 -.3454923970D-04    2    2    0
 0.114529237064893D+03 0.000000000000000D+00 0.000000000000000D+00 0.114529237064893D+03
 0.114529237064893D+03 0.000000000000000D+00 0.000000000000000D+00 -.114529237064893D+03
 0.961449954049437D+02 -.725968632707988D+01 0.259822714693718D+02 0.775633848226141D+02
 0.326322386493260D+02 0.274193554550025D+02 -.166859812385193D+01 0.176141342676803D+02
 0.100281240075516D+03 -.201596691279226D+02 -.243136733455199D+02 -.951775190902944D+02
 0.000000000000000D+00 0.000000000000000D+00 -.000000000000000D+00 0.000000000000000D+00
 0.123377958647065D+03 0.000000000000000D+00 0.000000000000000D+00 0.123377958647065D+03
 0.120019779721810D+03 0.000000000000000D+00 0.000000000000000D+00 -.120019779721810D+03
 0.979052929820550D+02 -.896459072297887D+01 0.314484314701162D+02 0.775633848226141D+02
 0.321127987394744D+02 0.268505127092671D+02 0.155190629894006D+00 0.176141342676803D+02
 0.994395996206405D+02 -.219143943611649D+02 -.186877808290140D+02 -.951775190902944D+02
 0.139400470267047D+02 0.402847237487674D+01 -.129158412709962D+02 0.335817892525473D+01
-.894108930098D-06 0.000000000000D+00 0.000000000000D+00 0.250114991796D-05 0.000000000000D+00  6 22 3 9900012 13 4 21 2 0.11824610D-01 0.29639910D-01 0.41554294D+04 0.41554294D+04 0.41554294D+04 0.12509964D+01  1  2 13  1  6  2        3 -.353751648207D-04 0.100000000000D+01
0.203112317949D-07 0.000000000000D+00 0.000000000000D+00 0.250114991796D-05 0.231947236251D-08  6 22 3 9900012 13 4 21 2 0.12738199D-01 0.27514122D-01 0.41554294D+04 0.41554294D+04 0.41554294D+04 0.12509964D+01  1  2  1  1  6  2        3 0.825925123491D-06 0.100000000000D+01
  </mgrwgt>
  </event>
  <event>
  6     66 -.15202802E-05 0.64425159E+02 0.78161638E-02 0.11451647E+00
       22 -1    0    0    0    0 0.00000000E+00 0.00000000E+00 0.18866941E+03 0.18866941E+03 0.00000000E+00 0.0000E+00 0.9000E+01
        1 -1    0    0  501    0 0.00000000E+00 0.00000000E+00 -.73034429E+03 0.73034429E+03 0.00000000E+00 0.0000E+00 0.9000E+01
      -24  2    1    2    0    0 0.18482679E+02 -.98184086E+02 0.16321025E+03 0.20708339E+03 0.79146828E+02 0.0000E+00 0.0000E+00
  9900012  1    3    3    0    0 0.68283978E+01 -.89830553E+02 0.10490765E+03 0.14704343E+03 0.50000000E+02 0.0000E+00 0.9000E+01
       13  1    3    3    0    0 0.11654281E+02 -.83535332E+01 0.58302593E+02 0.60039955E+02 0.00000000E+00 0.0000E+00 0.9000E+01
        2  1    1    2  501    0 -.18482679E+02 0.98184086E+02 -.70488513E+03 0.71193031E+03 0.00000000E+00 0.0000E+00 0.9000E+01
#aMCatNLO 1  0  0  2  5 0.64660727D+01 0.00000000D+00  -5  6  0 0.00000000D+00 0.00000000D+00 0.00000000D+00 0.00000000D+00 0.00000000D+00
  <mgrwgt>
 -.1327234442D-02   11    2    0
 0.371205637640989D+03 0.000000000000000D+00 0.000000000000000D+00 0.371205637640989D+03
 0.371205637640989D+03 0.000000000000000D+00 0.000000000000000D+00 -.371205637640989D+03
 0.258563920396831D+03 0.682839776198924D+01 -.898305526634893D+02 0.237147940583836D+03
 0.116860551594994D+03 0.116542812371452D+02 -.835353318848611D+01 0.115977518214525D+03
 0.366986803290154D+03 -.184826789991344D+02 0.981840858519754D+02 -.353125458798362D+03
 0.000000000000000D+00 0.000000000000000D+00 0.000000000000000D+00 -.000000000000000D+00
 0.371391091850298D+03 0.000000000000000D+00 0.000000000000000D+00 0.371391091850298D+03
 0.431995899304734D+03 0.000000000000000D+00 0.000000000000000D+00 -.431995899304734D+03
 0.259201827463253D+03 0.562402248953864D+01 -.917322844377733D+02 0.237147940583836D+03
 0.116872115748345D+03 0.111105955142566D+02 -.921202342661422D+01 0.115977518214525D+03
 0.366365397772302D+03 -.201885300729206D+02 0.954905141194581D+02 -.353125458798362D+03
 0.609476501711328D+02 0.345391206912535D+01 0.545379374492938D+01 -.606048074544363D+02
0.531908968176D-05 0.000000000000D+00 0.000000000000D+00 0.503012082962D-04 0.000000000000D+00  6 22 1 9900012 13 2 21 0 0.29026063D-01 0.11236066D+00 0.11802888D+05 0.11802888D+05 0.11802888D+05 0.12019398D+01  1  2  2  1  6  2        1 0.162756011920D-04 0.100000000000D+01
0.593145732733D-07 0.000000000000D+00 -.102133524632D-07 0.503012082962D-04 0.000000000000D+00  6 22 1 9900012 13 2 21 2 0.29026063D-01 0.11236066D+00 0.11802888D+05 0.11802888D+05 0.11802888D+05 0.12019398D+01  1  2  3  1  6  2        1 0.262196323824D-06 0.100000000000D+01
-.771578532105D-06 0.000000000000D+00 0.000000000000D+00 0.503012082962D-04 0.000000000000D+00  6 22 1 9900012 13 2 21 2 0.29026063D-01 0.11236066D+00 0.11802888D+05 0.11802888D+05 0.11802888D+05 0.12019398D+01  1  2 15  1  6  2        1 -.341071415497D-05 0.100000000000D+01
0.584379837776D-03 0.000000000000D+00 0.000000000000D+00 0.503012082962D-04 0.000000000000D+00  6 22 1 9900012 13 2 21 2 0.29026063D-01 0.13082666D+00 0.12445062D+05 0.12445062D+05 0.12445062D+05 0.11996068D+01  1  2 12  1  6  2        1 0.204459330436D-02 0.100000000000D+01
-.979579270931D-03 0.000000000000D+00 0.000000000000D+00 0.503012082962D-04 0.000000000000D+00  6 22 1 9900012 13 2 21 2 0.29026063D-01 0.11236066D+00 0.11802888D+05 0.11802888D+05 0.11802888D+05 0.12019398D+01  1  2  4  1  6  2        1 -.433016828003D-02 0.100000000000D+01
-.658890224553D-03 0.000000000000D+00 -.429223013971D-05 0.503012082962D-04 0.000000000000D+00  6 22 1 9900012 13 2 21 2 0.29026063D-01 0.13078779D+00 0.11802888D+05 0.11802888D+05 0.11802888D+05 0.12019398D+01  1  2  5  1  6  2        1 -.231200647131D-02 0.100000000000D+01
0.652057690702D-03 0.000000000000D+00 0.424320731227D-05 0.503012082962D-04 0.000000000000D+00  6 22 1 9900012 13 2 21 2 0.29026063D-01 0.11236066D+00 0.11802888D+05 0.11802888D+05 0.11802888D+05 0.12019398D+01  1  2  6  1  6  2        1 0.288237982654D-02 0.100000000000D+01
0.107200924169D-03 0.000000000000D+00 0.000000000000D+00 0.503012082962D-04 0.163275900303D-04  6 22 1 9900012 13 2 21 2 0.29040564D-01 0.13076133D+00 0.12445062D+05 0.12445062D+05 0.12445062D+05 0.11996068D+01  1  2 11  1  6  2        1 0.375072536637D-03 0.100000000000D+01
0.134852003121D-04 0.000000000000D+00 0.000000000000D+00 0.503012082962D-04 0.000000000000D+00  6 22 21 9900012 13 2 -1 2 0.29026063D-01 0.13082666D+00 0.12445062D+05 0.12445062D+05 0.12445062D+05 0.11996068D+01  1  2 12  3  6  2        1 0.859328827765D-04 0.100000000000D+01
-.151501686370D-04 0.000000000000D+00 -.988916487349D-07 0.503012082962D-04 0.000000000000D+00  6 22 21 9900012 13 2 -1 2 0.29026063D-01 0.13078779D+00 0.11802888D+05 0.11802888D+05 0.11802888D+05 0.12019398D+01  1  2  5  3  6  2        1 -.970300078194D-04 0.100000000000D+01
0.170401155335D-05 0.000000000000D+00 0.000000000000D+00 0.503012082962D-04 0.222171827906D-06  6 22 21 9900012 13 2 -1 2 0.29040564D-01 0.13076133D+00 0.12445062D+05 0.12445062D+05 0.12445062D+05 0.11996068D+01  1  2 11  3  6  2        1 0.108646832416D-04 0.100000000000D+01
  </mgrwgt>
  </event>
  <event>
  6     66 0.15202802E-05 0.49198421E+02 0.78161638E-02 0.10982254E+00
       22 -1    0    0    0    0 0.00000000E+00 0.00000000E+00 0.31339863E+02 0.31339863E+02 0.00000000E+00 0.0000E+00 0.9000E+01
        1 -1    0    0  501    0 0.00000000E+00 0.00000000E+00 -.16215452E+04 0.16215452E+04 0.00000000E+00 0.0000E+00 0.9000E+01
      -24  2    1    2    0    0 0.98002945E+02 0.33051634E+02 -.11060396E+03 0.16967327E+03 0.76542762E+02 0.0000E+00 0.0000E+00
  9900012  1    3    3    0    0 0.80072132E+02 0.47419645E+02 -.92635379E+02 0.14050439E+03 0.50000000E+02 0.0000E+00 0.9000E+01
       13  1    3    3    0    0 0.17930813E+02 -.14368011E+02 -.17968577E+02 0.29168880E+02 0.00000000E+00 0.0000E+00 0.9000E+01
        2  1    1    2  501    0 -.98002945E+02 -.33051634E+02 -.14796013E+04 0.14832118E+04 0.00000000E+00 0.0000E+00 0.9000E+01
#aMCatNLO 1  0  0  2  5 0.68125940D+02 0.00000000D+00  -5  6  0 0.00000000D+00 0.00000000D+00 0.00000000D+00 0.00000000D+00 0.00000000D+00
  <mgrwgt>
 0.1857913692D-03    9    2    0
 0.225430705942035D+03 0.000000000000000D+00 0.000000000000000D+00 0.225430705942035D+03
 0.225430705942035D+03 0.000000000000000D+00 0.000000000000000D+00 -.225430705942035D+03
 0.188369025752728D+03 0.800721317309393D+02 0.474196453238429D+02 0.155957432719495D+03
 0.435590141878236D+02 0.179308132845946D+02 -.143680109461570D+02 0.370058632302928D+02
 0.218933371943519D+03 -.980029450155339D+02 -.330516343776859D+02 -.192963295949788D+03
 0.000000000000000D+00 0.000000000000000D+00 -.000000000000000D+00 -.000000000000000D+00
 0.241165966601674D+03 0.000000000000000D+00 0.000000000000000D+00 0.241165966601674D+03
 0.295539638116369D+03 0.000000000000000D+00 0.000000000000000D+00 -.295539638116369D+03
 0.195980163180606D+03 0.788363692617021D+02 0.732825383121643D+02 0.155957432719495D+03
 0.418978905834831D+02 0.176560515869138D+02 -.861760780533799D+01 0.370058632302928D+02
 0.217094298317491D+03 -.994048645355226D+02 -.371129153162987D+01 -.192963295949788D+03
 0.817332526364634D+02 0.291244368690668D+01 -.609536389751964D+02 -.543736715146951D+02
0.107486320345D-04 0.000000000000D+00 0.000000000000D+00 0.101245077235D-05 0.000000000000D+00  6 22 1 9900012 13 2 21 0 0.48215174D-02 0.24946849D+00 0.13461243D+05 0.13461243D+05 0.13461243D+05 0.11961748D+01  1  2  2  1  6  2        1 0.101954535413D-03 0.100000000000D+01
0.861029862878D-07 0.000000000000D+00 -.206387885961D-07 0.101245077235D-05 0.000000000000D+00  6 22 1 9900012 13 2 21 2 0.48215174D-02 0.24946849D+00 0.13461243D+05 0.13461243D+05 0.13461243D+05 0.11961748D+01  1  2  3  1  6  2        1 0.116858658793D-05 0.100000000000D+01
-.163115800803D-05 0.000000000000D+00 0.000000000000D+00 0.101245077235D-05 0.000000000000D+00  6 22 1 9900012 13 2 21 2 0.48215174D-02 0.24946849D+00 0.13461243D+05 0.13461243D+05 0.13461243D+05 0.11961748D+01  1  2 15  1  6  2        1 -.221380169627D-04 0.100000000000D+01
0.445819351428D-05 0.000000000000D+00 0.000000000000D+00 0.101245077235D-05 0.000000000000D+00  6 22 1 9900012 13 2 21 2 0.48215174D-02 0.34988176D+00 0.22324324D+05 0.22324324D+05 0.22324324D+05 0.11747641D+01  1  2 12  1  6  2        1 0.220294033860D-04 0.100000000000D+01
-.150585709295D-05 0.000000000000D+00 0.000000000000D+00 0.101245077235D-05 0.000000000000D+00  6 22 1 9900012 13 2 21 2 0.48215174D-02 0.24946849D+00 0.13461243D+05 0.13461243D+05 0.13461243D+05 0.11961748D+01  1  2  4  1  6  2        1 -.204374375156D-04 0.100000000000D+01
-.120420216973D-04 0.000000000000D+00 -.416235787793D-05 0.101245077235D-05 0.000000000000D+00  6 22 1 9900012 13 2 21 2 0.48215174D-02 0.33541691D+00 0.13461243D+05 0.13461243D+05 0.13461243D+05 0.11961748D+01  1  2  5  1  6  2        1 -.707966305801D-04 0.100000000000D+01
0.128816067129D-04 0.000000000000D+00 0.398639326296D-05 0.101245077235D-05 0.000000000000D+00  6 22 1 9900012 13 2 21 2 0.48215174D-02 0.24946849D+00 0.13461243D+05 0.13461243D+05 0.13461243D+05 0.11961748D+01  1  2  6  1  6  2        1 0.174828696248D-03 0.100000000000D+01
0.187909634924D-06 0.000000000000D+00 0.000000000000D+00 0.101245077235D-05 0.000000000000D+00  6 22 21 9900012 13 2 -1 2 0.48215174D-02 0.34988176D+00 0.22324324D+05 0.22324324D+05 0.22324324D+05 0.11747641D+01  1  2 12  3  6  2        1 0.539292109722D-06 0.100000000000D+01
-.369620288529D-06 0.000000000000D+00 -.159359548466D-06 0.101245077235D-05 0.000000000000D+00  6 22 21 9900012 13 2 -1 2 0.48215174D-02 0.33541691D+00 0.13461243D+05 0.13461243D+05 0.13461243D+05 0.11961748D+01  1  2  5  3  6  2        1 -.135705945549D-05 0.100000000000D+01
  </mgrwgt>
  </event>
  <event>
  6     66 -.15202802E-05 0.42793339E+02 0.78161638E-02 0.12590350E+00
       22 -1    0    0    0    0 0.00000000E+00 0.00000000E+00 0.30580395E+03 0.30580395E+03 0.00000000E+00 0.0000E+00 0.9000E+01
        1 -1    0    0  501    0 -.00000000E+00 -.00000000E+00 -.87103804E+03 0.87103804E+03 0.00000000E+00 0.0000E+00 0.9000E+01
      -24  2    1    2    0    0 0.28764036E+02 0.31684383E+02 0.29887354E+03 0.31167538E+03 0.77361998E+02 0.0000E+00 0.0000E+00
  9900012  1    3    3    0    0 0.17259580E+02 0.37448439E+02 0.28679606E+03 0.29402765E+03 0.50000000E+02 0.0000E+00 0.9000E+01
       13  1    3    3    0    0 0.11504456E+02 -.57640561E+01 0.12077484E+02 0.17647733E+02 0.00000000E+00 0.0000E+00 0.9000E+01
        2  1    1    2  501    0 -.28764036E+02 -.31684383E+02 -.86410763E+03 0.86516661E+03 0.00000000E+00 0.0000E+00 0.9000E+01
#aMCatNLO 1  0  0  5  2 0.45624400D+02 0.00000000D+00  -5  6  0 0.00000000D+00 0.00000000D+00 0.00000000D+00 0.00000000D+00 0.00000000D+00
  <mgrwgt>
 -.5189351255D-05    1    2    0
 0.516107425494944D+03 0.000000000000000D+00 0.000000000000000D+00 0.516107425494944D+03
 0.516107425494944D+03 -.000000000000000D+00 -.000000000000000D+00 -.516107425494944D+03
 0.492272504393581D+03 0.172595797777169D+02 0.374484387903830D+02 0.487987643204198D+03
 0.267339680871177D+02 0.115044560472284D+02 -.576405610548666D+01 0.234334845456927D+02
 0.513208378509189D+03 -.287640358249452D+02 -.316843826848964D+02 -.511421127749890D+03
 0.000000000000000D+00 0.000000000000000D+00 0.000000000000000D+00 -.000000000000000D+00
 0.516107425494944D+03 0.000000000000000D+00 0.000000000000000D+00 0.516107425494944D+03
 0.516107425494944D+03 -.000000000000000D+00 -.000000000000000D+00 -.516107425494944D+03
 0.473650422283108D+03 0.162098635904234D+02 0.362921473161562D+02 0.469323814540162D+03
 0.258369516057182D+02 0.114473246303644D+02 -.582698794461614D+01 0.224176947649970D+02
 0.417130041517017D+03 -.982589121258111D+02 -.499376877027160D+02 -.402304468121778D+03
 0.115597435584045D+03 0.706017239050233D+02 0.194725283311759D+02 -.894370411833810D+02
-.311310845995D-05 0.000000000000D+00 0.000000000000D+00 0.303659772252D-03 0.000000000000D+00  6 22 1 9900012 13 2 21 2 0.47046762D-01 0.13400585D+00 0.36282891D+04 0.36282891D+04 0.36282891D+04 0.12578355D+01  1  2 14  2  6  5        2 -.518935125455D-05 0.100000000000D+01
  </mgrwgt>
  </event>
  <event>
  6     66 0.15202802E-05 0.36996494E+02 0.78161638E-02 0.11838098E+00
       22 -1    0    0    0    0 0.00000000E+00 0.00000000E+00 0.93198897E+01 0.93198897E+01 0.00000000E+00 0.0000E+00 0.9000E+01
        1 -1    0    0  501    0 -.00000000E+00 -.00000000E+00 -.19692130E+04 0.19692130E+04 0.00000000E+00 0.0000E+00 0.9000E+01
      -24  2    1    2    0    0 0.29034426E+02 -.22929080E+02 -.20468334E+03 0.22293326E+03 0.80219860E+02 0.0000E+00 0.0000E+00
  9900012  1    3    3    0    0 0.89145858E+00 -.76133732E+01 -.16099797E+03 0.16875753E+03 0.50000000E+02 0.0000E+00 0.9000E+01
       13  1    3    3    0    0 0.28142967E+02 -.15315706E+02 -.43685372E+02 0.54175725E+02 0.00000000E+00 0.0000E+00 0.9000E+01
        2  1    1    2  501    0 -.29034426E+02 0.22929080E+02 -.17552098E+04 0.17555996E+04 0.00000000E+00 0.0000E+00 0.9000E+01
#aMCatNLO 1  0  0  5  5 0.43806336D+02 0.00000000D+00  -5  6  0 0.00000000D+00 0.00000000D+00 0.00000000D+00 0.00000000D+00 0.00000000D+00
  <mgrwgt>
 0.1609722029D-03    4    2    0
 0.135472683928347D+03 0.000000000000000D+00 0.000000000000000D+00 0.135472683928347D+03
 0.135472683928347D+03 -.000000000000000D+00 -.000000000000000D+00 -.135472683928347D+03
 0.677388023942791D+02 0.891458578581007D+00 -.761337319604102D+01 0.450531597115194D+02
 0.796093860865621D+02 0.281429672303807D+02 -.153157063730149D+02 0.728769983386021D+02
 0.123597179375853D+03 -.290344258089617D+02 0.229290795690559D+02 -.117930158050122D+03
 0.000000000000000D+00 0.000000000000000D+00 -.000000000000000D+00 0.000000000000000D+00
 0.135472683928347D+03 0.000000000000000D+00 0.000000000000000D+00 0.135472683928347D+03
 0.135472683928347D+03 -.000000000000000D+00 -.000000000000000D+00 -.135472683928347D+03
 0.616421575526833D+02 -.144614442908748D+01 -.576732031673278D+01 0.355584345887758D+02
 0.683342618406147D+02 0.254699810622321D+02 -.132047945561348D+02 0.620200355266062D+02
 0.100767065860272D+03 -.473959559168445D+02 0.444244551907775D+02 -.770330624201032D+02
 0.402018826031247D+02 0.233721192836998D+02 -.254523403179099D+02 -.205454076952788D+02
0.713527968915D-05 0.000000000000D+00 0.000000000000D+00 0.839235374964D-05 0.000000000000D+00  6 22 1 9900012 13 2 21 0 0.14338292D-02 0.30295585D+00 0.35773092D+04 0.35773092D+04 0.35773092D+04 0.12585556D+01  1  2  2  2  6  5        2 0.199246996660D-03 0.100000000000D+01
0.351749703664D-06 0.000000000000D+00 -.137006763843D-07 0.839235374964D-05 0.000000000000D+00  6 22 1 9900012 13 2 21 2 0.14338292D-02 0.30295585D+00 0.35773092D+04 0.35773092D+04 0.35773092D+04 0.12585556D+01  1  2  3  2  6  5        2 0.155581982776D-04 0.100000000000D+01
-.115557635206D-05 0.000000000000D+00 0.000000000000D+00 0.839235374964D-05 0.000000000000D+00  6 22 1 9900012 13 2 21 2 0.14338292D-02 0.30295585D+00 0.35773092D+04 0.35773092D+04 0.35773092D+04 0.12585556D+01  1  2 15  2  6  5        2 -.511121568061D-04 0.100000000000D+01
-.615143833796D-07 0.000000000000D+00 0.000000000000D+00 0.839235374964D-05 0.000000000000D+00  6 22 1 9900012 13 2 21 2 0.14338292D-02 0.30295585D+00 0.35773092D+04 0.35773092D+04 0.35773092D+04 0.12585556D+01  1  2  4  2  6  5        2 -.272083519495D-05 0.100000000000D+01
  </mgrwgt>
  </event>
  <event>
  6     66 0.15202802E-05 0.39118262E+02 0.78161638E-02 0.11600789E+00
       22 -1    0    0    0    0 0.00000000E+00 0.00000000E+00 0.30824077E+02 0.30824077E+02 0.00000000E+00 0.0000E+00 0.9000E+01
        1 -1    0    0  501    0 0.00000000E+00 0.00000000E+00 -.15050496E+04 0.15050496E+04 0.00000000E+00 0.0000E+00 0.9000E+01
      -24  2    1    2    0    0 0.20497650E+02 0.77100952E+02 -.77151113E+02 0.13652325E+03 0.79508446E+02 0.0000E+00 0.0000E+00
  9900012  1    3    3    0    0 0.11017140E+02 0.27868382E+02 -.22837695E+02 0.62606584E+02 0.50000000E+02 0.0000E+00 0.9000E+01
       13  1    3    3    0    0 0.94805108E+01 0.49232570E+02 -.54313418E+02 0.73916665E+02 0.00000000E+00 0.0000E+00 0.9000E+01
        2  1    1    2  501    0 -.20497650E+02 -.77100952E+02 -.13970744E+04 0.13993504E+04 0.00000000E+00 0.0000E+00 0.9000E+01
#aMCatNLO 1  0  0  2  5 0.22279278D+02 0.00000000D+00  -5  6  0 0.00000000D+00 0.00000000D+00 0.00000000D+00 0.00000000D+00 0.00000000D+00
  <mgrwgt>
 0.3450357829D-03    9    2    0
 0.215387475775435D+03 0.000000000000000D+00 0.000000000000000D+00 0.215387475775435D+03
 0.215387475775435D+03 0.000000000000000D+00 0.000000000000000D+00 -.215387475775435D+03
 0.145059252250528D+03 0.110171395246118D+02 0.278683822500876D+02 0.132831331284981D+03
 0.776656893573767D+02 0.948051078573941D+01 0.492325701263736D+02 0.593146968073658D+02
 0.208050009942965D+03 -.204976503103512D+02 -.771009523764612D+02 -.192146028092347D+03
 0.000000000000000D+00 -.000000000000000D+00 -.000000000000000D+00 -.000000000000000D+00
 0.222020043269137D+03 0.000000000000000D+00 0.000000000000000D+00 0.222020043269137D+03
 0.228210983603406D+03 0.000000000000000D+00 0.000000000000000D+00 -.228210983603406D+03
 0.146433797974083D+03 0.138880246907270D+02 0.332538326868322D+02 0.132831331284981D+03
 0.797406149390509D+02 0.110307893385537D+02 0.521407144185492D+02 0.593146968073658D+02
 0.204978357029177D+03 -.164297762700905D+02 -.694700884584909D+02 -.192146028092347D+03
 0.190782569302322D+02 -.848903775919019D+01 -.159244586468905D+02 -.619094033426849D+01
0.697623165785D-05 0.000000000000D+00 0.000000000000D+00 0.144914270007D-04 0.000000000000D+00  6 22 1 9900012 13 2 21 0 0.47421657D-02 0.23154609D+00 0.88556364D+04 0.88556364D+04 0.88556364D+04 0.12148402D+01  1  2  2  1  6  2        1 0.795262959933D-04 0.100000000000D+01
0.104935981559D-06 0.000000000000D+00 -.133952832251D-07 0.144914270007D-04 0.000000000000D+00  6 22 1 9900012 13 2 21 2 0.47421657D-02 0.23154609D+00 0.88556364D+04 0.88556364D+04 0.88556364D+04 0.12148402D+01  1  2  3  1  6  2        1 0.176543860004D-05 0.100000000000D+01
-.983644069039D-06 0.000000000000D+00 0.000000000000D+00 0.144914270007D-04 0.000000000000D+00  6 22 1 9900012 13 2 21 2 0.47421657D-02 0.23154609D+00 0.88556364D+04 0.88556364D+04 0.88556364D+04 0.12148402D+01  1  2 15  1  6  2        1 -.165487870069D-04 0.100000000000D+01
0.130421736279D-04 0.000000000000D+00 0.000000000000D+00 0.144914270007D-04 0.000000000000D+00  6 22 1 9900012 13 2 21 2 0.47421657D-02 0.25288629D+00 0.10440818D+05 0.10440818D+05 0.10440818D+05 0.12073931D+01  1  2 12  1  6  2        1 0.177213226175D-03 0.100000000000D+01
-.750062657302D-06 0.000000000000D+00 0.000000000000D+00 0.144914270007D-04 0.000000000000D+00  6 22 1 9900012 13 2 21 2 0.47421657D-02 0.23154609D+00 0.88556364D+04 0.88556364D+04 0.88556364D+04 0.12148402D+01  1  2  4  1  6  2        1 -.126190230270D-04 0.100000000000D+01
-.410902992798D-04 0.000000000000D+00 -.953851359202D-05 0.144914270007D-04 0.000000000000D+00  6 22 1 9900012 13 2 21 2 0.47421657D-02 0.24933906D+00 0.88556364D+04 0.88556364D+04 0.88556364D+04 0.12148402D+01  1  2  5  1  6  2        1 -.582094570999D-03 0.100000000000D+01
0.417082053103D-04 0.000000000000D+00 0.951243220466D-05 0.144914270007D-04 0.000000000000D+00  6 22 1 9900012 13 2 21 2 0.47421657D-02 0.23154609D+00 0.88556364D+04 0.88556364D+04 0.88556364D+04 0.12148402D+01  1  2  6  1  6  2        1 0.701697115703D-03 0.100000000000D+01
0.196310288945D-06 0.000000000000D+00 0.000000000000D+00 0.144914270007D-04 0.000000000000D+00  6 22 21 9900012 13 2 -1 2 0.47421657D-02 0.25288629D+00 0.10440818D+05 0.10440818D+05 0.10440818D+05 0.12073931D+01  1  2 12  3  6  2        1 0.231417752538D-05 0.100000000000D+01
-.494329403357D-06 0.000000000000D+00 -.118892670587D-06 0.144914270007D-04 0.000000000000D+00  6 22 21 9900012 13 2 -1 2 0.47421657D-02 0.24933906D+00 0.88556364D+04 0.88556364D+04 0.88556364D+04 0.12148402D+01  1  2  5  3  6  2        1 -.621809009156D-05 0.100000000000D+01
  </mgrwgt>
  </event>
  <event>
  6     66 0.15202802E-05 0.32675574E+03 0.78161638E-02 0.92008191E-01
       22 -1    0    0    0    0 0.00000000E+00 0.00000000E+00 0.51110194E+03 0.51110194E+03 0.00000000E+00 0.0000E+00 0.9000E+01
        1 -1    0    0  501    0 0.00000000E+00 0.00000000E+00 -.88595800E+03 0.88595800E+03 0.00000000E+00 0.0000E+00 0.9000E+01
      -24  2    1    2    0    0 0.22087830E+03 0.24079471E+03 0.41978577E+03 0.53785975E+03 0.79395864E+02 0.0000E+00 0.0000E+00
  9900012  1    3    3    0    0 0.92345514E+02 0.93306812E+02 0.16754784E+03 0.21864614E+03 0.50000000E+02 0.0000E+00 0.9000E+01
       13  1    3    3    0    0 0.12853279E+03 0.14748790E+03 0.25223793E+03 0.31921362E+03 0.00000000E+00 0.0000E+00 0.9000E+01
        2  1    1    2  501    0 -.22087830E+03 -.24079471E+03 -.79464183E+03 0.85920018E+03 0.00000000E+00 0.0000E+00 0.9000E+01
#aMCatNLO 1  0  0  2  5 0.52093889D+03 0.00000000D+00  -5  6  0 0.00000000D+00 0.00000000D+00 0.00000000D+00 0.00000000D+00 0.00000000D+00
  <mgrwgt>
 0.2774524322D-04    5    2    0
 0.672915187746517D+03 0.000000000000000D+00 0.000000000000000D+00 0.672915187746517D+03
 0.672915187746517D+03 0.000000000000000D+00 0.000000000000000D+00 -.672915187746517D+03
 0.273636327688812D+03 0.923455144296863D+02 0.933068120862057D+02 0.234825434342290D+03
 0.401620798290877D+03 0.128532787367592D+03 0.147487896914173D+03 0.350750493164519D+03
 0.670573249513344D+03 -.220878301797278D+03 -.240794709000379D+03 -.585575927506809D+03
 0.000000000000000D+00 -.000000000000000D+00 -.000000000000000D+00 -.000000000000000D+00
 0.773116274948870D+03 0.000000000000000D+00 0.000000000000000D+00 0.773116274948870D+03
 0.178217748184692D+04 0.000000000000000D+00 0.000000000000000D+00 -.178217748184692D+04
 0.339245818357235D+03 0.171601469959305D+03 0.167325061382420D+03 0.234825434342290D+03
 0.498674980819287D+03 0.244956153088051D+03 0.256217312264933D+03 0.350750493164519D+03
 0.594904887572477D+03 -.572307235415996D+02 -.879619387295840D+02 -.585575927506809D+03
 0.112246807004679D+04 -.359326899505756D+03 -.335580434917769D+03 -.100906120689805D+04
0.828470944299D-04 0.000000000000D+00 0.000000000000D+00 0.213595396211D-04 0.000000000000D+00  6 22 1 9900012 13 2 21 0 0.78631068D-01 0.13630123D+00 0.10984875D+06 0.10984875D+06 0.10984875D+06 0.11143299D+01  1  2  2  1  6  2        1 0.369251394058D-04 0.100000000000D+01
0.376690259186D-07 0.000000000000D+00 -.159077328376D-06 0.213595396211D-04 0.000000000000D+00  6 22 1 9900012 13 2 21 2 0.78631068D-01 0.13630123D+00 0.10984875D+06 0.10984875D+06 0.10984875D+06 0.11143299D+01  1  2  3  1  6  2        1 0.208476362163D-07 0.100000000000D+01
-.127770639033D-04 0.000000000000D+00 0.000000000000D+00 0.213595396211D-04 0.000000000000D+00  6 22 1 9900012 13 2 21 2 0.78631068D-01 0.13630123D+00 0.10984875D+06 0.10984875D+06 0.10984875D+06 0.11143299D+01  1  2 15  1  6  2        1 -.707136894763D-05 0.100000000000D+01
-.443741296499D-04 0.000000000000D+00 -.221658330826D-04 0.213595396211D-04 0.000000000000D+00  6 22 1 9900012 13 2 21 2 0.78631068D-01 0.37483261D+00 0.10984875D+06 0.10984875D+06 0.10984875D+06 0.11143299D+01  1  2  5  1  6  2        1 -.204336539884D-05 0.100000000000D+01
-.375964576381D-05 0.000000000000D+00 -.250968506335D-05 0.213595396211D-04 0.000000000000D+00  6 22 21 9900012 13 2 -1 2 0.78631068D-01 0.37483261D+00 0.10984875D+06 0.10984875D+06 0.10984875D+06 0.11143299D+01  1  2  5  3  6  2        1 -.860094736413D-07 0.100000000000D+01
  </mgrwgt>
  </event>
  <event>
  6     66 0.15202802E-05 0.28583235E+02 0.78161638E-02 0.12207606E+00
       22 -1    0    0    0    0 0.00000000E+00 0.00000000E+00 0.30256536E+02 0.30256536E+02 0.00000000E+00 0.0000E+00 0.9000E+01
        3 -1    0    0  501    0 0.00000000E+00 0.00000000E+00 -.44243147E+03 0.44243147E+03 0.00000000E+00 0.0000E+00 0.9000E+01
      -24  2    1    2    0    0 -.53971272E+02 -.10363267E+02 -.40575504E+03 0.41735708E+03 0.80805235E+02 0.0000E+00 0.0000E+00
  9900012  1    3    3    0    0 -.23364724E+02 0.77606832E+01 -.31477481E+03 0.31967064E+03 0.50000000E+02 0.0000E+00 0.9000E+01
       13  1    3    3    0    0 -.30606548E+02 -.18123950E+02 -.90980237E+02 0.97686447E+02 0.00000000E+00 0.0000E+00 0.9000E+01
        4  1    1    2  501    0 0.53971272E+02 0.10363267E+02 -.64198872E+01 0.55330917E+02 0.00000000E+00 0.0000E+00 0.9000E+01
#aMCatNLO 1  0  0  2  5 0.52093889D+03 0.00000000D+00  -5  6  0 0.00000000D+00 0.00000000D+00 0.00000000D+00 0.00000000D+00 0.00000000D+00
  <mgrwgt>
 0.4003114809D-05    1    2    0
 0.115699799528944D+03 0.000000000000000D+00 0.000000000000000D+00 0.115699799528944D+03
 0.115699799528944D+03 0.000000000000000D+00 0.000000000000000D+00 -.115699799528944D+03
 0.923173238379782D+02 -.233647236054459D+02 0.776068317324247D+01 -.735958542863102D+02
 0.374911562825459D+02 -.306065479494586D+02 -.181239503072362D+02 -.118468750006324D+02
 0.101591118937363D+03 0.539712715549045D+02 0.103632671339937D+02 0.854427292869425D+02
 0.000000000000000D+00 0.000000000000000D+00 -.000000000000000D+00 -.000000000000000D+00
 0.121679271738123D+03 0.000000000000000D+00 0.000000000000000D+00 0.121679271738123D+03
 0.161865189367412D+03 0.000000000000000D+00 0.000000000000000D+00 -.161865189367412D+03
 0.962096841702637D+02 -.355184543565255D+02 0.885397990360840D+01 -.735958542863102D+02
 0.415583464704143D+02 -.357026155241596D+02 -.176655302441909D+02 -.118468750006324D+02
 0.955786681030135D+02 0.412603685959413D+02 0.115066846515982D+02 0.854427292869425D+02
 0.501977623618433D+02 0.299607012847438D+02 -.269513431101566D+01 -.401859176292894D+02
0.136089696083D-06 0.000000000000D+00 0.000000000000D+00 0.143590318783D-06 0.000000000000D+00  6 22 3 9900012 13 4 21 2 0.46548517D-02 0.68066379D-01 0.53480076D+04 0.53480076D+04 0.53480076D+04 0.12385690D+01  1  2 14  1  6  2        3 0.400311480854D-05 0.100000000000D+01
  </mgrwgt>
  </event>
  <event>
  6     66 0.15202802E-05 0.10672204E+02 0.78161638E-02 0.10981911E+00
       22 -1    0    0    0    0 0.00000000E+00 0.00000000E+00 0.92824526E+03 0.92824526E+03 0.00000000E+00 0.0000E+00 0.9000E+01
        1 -1    0    0  501    0 0.00000000E+00 0.00000000E+00 -.53030537E+02 0.53030537E+02 0.00000000E+00 0.0000E+00 0.9000E+01
      -24  2    1    2    0    0 0.10562339E+01 -.10619807E+02 0.92588315E+03 0.92949563E+03 0.81170336E+02 0.0000E+00 0.0000E+00
  9900012  1    3    3    0    0 0.22483880E+02 -.19853807E+02 0.62872304E+03 0.63142091E+03 0.50000000E+02 0.0000E+00 0.9000E+01
       13  1    3    3    0    0 -.21427646E+02 0.92339993E+01 0.29716011E+03 0.29807472E+03 0.00000000E+00 0.0000E+00 0.9000E+01
        2  1    1    2  501    0 -.10562339E+01 0.10619807E+02 -.50668428E+02 0.51780165E+02 0.00000000E+00 0.0000E+00 0.9000E+01
#aMCatNLO 1  0  0  5  2 0.10107786D+01 0.00000000D+00  -5  6  0 0.00000000D+00 0.00000000D+00 0.00000000D+00 0.00000000D+00 0.00000000D+00
  <mgrwgt>
 0.1184361767D-03    3    2    0
 0.221867852769814D+03 0.000000000000000D+00 0.000000000000000D+00 0.221867852769814D+03
 0.221867852769814D+03 -.000000000000000D+00 -.000000000000000D+00 -.221867852769814D+03
 0.156242532747989D+03 0.224838802509860D+02 -.198538065373686D+02 0.144955270805661D+03
 0.730493601504915D+02 -.214276463646470D+02 0.923399926852193D+01 0.692228159437102D+02
 0.214443812641147D+03 -.105623388633895D+01 0.106198072688468D+02 -.214178086749371D+03
 0.000000000000000D+00 0.000000000000000D+00 0.000000000000000D+00 0.000000000000000D+00
 0.221867852769814D+03 0.000000000000000D+00 0.000000000000000D+00 0.221867852769814D+03
 0.221867852769814D+03 -.000000000000000D+00 -.000000000000000D+00 -.221867852769814D+03
 0.932658562372619D+02 0.221328307325812D+02 -.163242111745434D+02 0.737711181490522D+02
 0.433723390364902D+02 -.215914475963318D+02 0.108809238118362D+02 0.360079807985970D+02
 0.119970074915257D+03 -.360163063299836D+02 0.105506761565810D+03 0.443166765158709D+02
 0.187127435350619D+03 0.354749231937342D+02 -.100063474203103D+03 -.154095775463520D+03
0.209168623474D-04 0.000000000000D+00 0.000000000000D+00 0.310068098804D-04 0.000000000000D+00  6 22 1 9900012 13 2 21 0 0.14280696D+00 0.81585441D-02 0.21303648D+04 0.21303648D+04 0.21303648D+04 0.12858578D+01  1  2  2  2  6  5        2 0.976752005575D-04 0.100000000000D+01
0.578866053782D-05 0.000000000000D+00 -.401631294752D-07 0.310068098804D-04 0.000000000000D+00  6 22 1 9900012 13 2 21 2 0.14280696D+00 0.81585441D-02 0.21303648D+04 0.21303648D+04 0.21303648D+04 0.12858578D+01  1  2  3  2  6  5        2 0.446942568122D-04 0.100000000000D+01
-.309976375718D-05 0.000000000000D+00 0.000000000000D+00 0.310068098804D-04 0.000000000000D+00  6 22 1 9900012 13 2 21 2 0.14280696D+00 0.81585441D-02 0.21303648D+04 0.21303648D+04 0.21303648D+04 0.12858578D+01  1  2 15  2  6  5        2 -.239332806813D-04 0.100000000000D+01
  </mgrwgt>
  </event>
  <event>
  6     66 0.15202802E-05 0.38410722E+02 0.78161638E-02 0.11841937E+00
       22 -1    0    0    0    0 0.00000000E+00 0.00000000E+00 0.70611550E+01 0.70611550E+01 0.00000000E+00 0.0000E+00 0.9000E+01
        1 -1    0    0  501    0 0.00000000E+00 0.00000000E+00 -.25259516E+04 0.25259516E+04 0.00000000E+00 0.0000E+00 0.9000E+01
      -24  2    1    2    0    0 0.44979190E+02 -.38498648E+02 -.36413194E+03 0.37744103E+03 0.79777086E+02 0.0000E+00 0.0000E+00
  9900012  1    3    3    0    0 0.19493186E+02 -.46579485E+02 -.29173852E+03 0.30026820E+03 0.50000000E+02 0.0000E+00 0.9000E+01
       13  1    3    3    0    0 0.25486004E+02 0.80808362E+01 -.72393427E+02 0.77172823E+02 0.00000000E+00 0.0000E+00 0.9000E+01
        2  1    1    2  501    0 -.44979190E+02 0.38498648E+02 -.21547585E+04 0.21555717E+04 0.00000000E+00 0.0000E+00 0.9000E+01
#aMCatNLO 1  0  0  2  5 0.19754518D+02 0.00000000D+00  -5  6  0 0.00000000D+00 0.00000000D+00 0.00000000D+00 0.00000000D+00 0.00000000D+00
  <mgrwgt>
 0.2539153707D-03    9    2    0
 0.133551997340312D+03 0.000000000000000D+00 0.000000000000000D+00 0.133551997340312D+03
 0.133551997340312D+03 0.000000000000000D+00 0.000000000000000D+00 -.133551997340312D+03
 0.963139123603406D+02 0.194931860948316D+02 -.465794847198110D+02 0.650133602674444D+02
 0.491517657272150D+02 0.254860037534244D+02 0.808083624206591D+01 0.412439058821104D+02
 0.121638316593069D+03 -.449791898482560D+02 0.384986484777451D+02 -.106257266149555D+03
 0.000000000000000D+00 0.000000000000000D+00 -.000000000000000D+00 -.000000000000000D+00
 0.136367778974165D+03 0.000000000000000D+00 0.000000000000000D+00 0.136367778974165D+03
 0.170138345104969D+03 0.000000000000000D+00 0.000000000000000D+00 -.170138345104969D+03
 0.949557441022723D+02 0.127275155743255D+02 -.461288052311894D+02 0.650133602674444D+02
 0.475083219977807D+02 0.220669025842937D+02 0.830859175599155D+01 0.412439058821104D+02
 0.125312144617984D+03 -.537144251508175D+02 0.390805259675247D+02 -.106257266149555D+03
 0.387299133610979D+02 0.189200069921983D+02 -.126031249232686D+01 -.337705661308040D+02
0.370356472741D-05 0.000000000000D+00 0.000000000000D+00 0.334153767871D-05 0.000000000000D+00  6 22 1 9900012 13 2 21 0 0.10863315D-02 0.38860794D+00 0.61624494D+04 0.61624494D+04 0.61624494D+04 0.12317563D+01  1  2  2  1  6  2        1 0.659178470806D-04 0.100000000000D+01
0.703240265736D-07 0.000000000000D+00 -.711133186213D-08 0.334153767871D-05 0.000000000000D+00  6 22 1 9900012 13 2 21 2 0.10863315D-02 0.38860794D+00 0.61624494D+04 0.61624494D+04 0.61624494D+04 0.12317563D+01  1  2  3  1  6  2        1 0.189905000090D-05 0.100000000000D+01
-.538451478556D-06 0.000000000000D+00 0.000000000000D+00 0.334153767871D-05 0.000000000000D+00  6 22 1 9900012 13 2 21 2 0.10863315D-02 0.38860794D+00 0.61624494D+04 0.61624494D+04 0.61624494D+04 0.12317563D+01  1  2 15  1  6  2        1 -.145404967641D-04 0.100000000000D+01
0.838771344127D-05 0.000000000000D+00 0.000000000000D+00 0.334153767871D-05 0.000000000000D+00  6 22 1 9900012 13 2 21 2 0.10863315D-02 0.50550431D+00 0.79367453D+04 0.79367453D+04 0.79367453D+04 0.12198777D+01  1  2 12  1  6  2        1 0.634048208347D-04 0.100000000000D+01
-.182213849468D-05 0.000000000000D+00 0.000000000000D+00 0.334153767871D-05 0.000000000000D+00  6 22 1 9900012 13 2 21 2 0.10863315D-02 0.38860794D+00 0.61624494D+04 0.61624494D+04 0.61624494D+04 0.12317563D+01  1  2  4  1  6  2        1 -.492055457935D-04 0.100000000000D+01
-.994258885571D-05 0.000000000000D+00 -.135008708482D-05 0.334153767871D-05 0.000000000000D+00  6 22 1 9900012 13 2 21 2 0.10863315D-02 0.49750130D+00 0.61624494D+04 0.61624494D+04 0.61624494D+04 0.12317563D+01  1  2  5  1  6  2        1 -.836498391241D-04 0.100000000000D+01
0.100093153149D-04 0.000000000000D+00 0.130991628903D-05 0.334153767871D-05 0.000000000000D+00  6 22 1 9900012 13 2 21 2 0.10863315D-02 0.38860794D+00 0.61624494D+04 0.61624494D+04 0.61624494D+04 0.12317563D+01  1  2  6  1  6  2        1 0.270294395582D-03 0.100000000000D+01
0.294631706852D-06 0.000000000000D+00 0.000000000000D+00 0.334153767871D-05 0.000000000000D+00  6 22 21 9900012 13 2 -1 2 0.10863315D-02 0.50550431D+00 0.79367453D+04 0.79367453D+04 0.79367453D+04 0.12198777D+01  1  2 12  3  6  2        1 0.933950795824D-06 0.100000000000D+01
-.311344198001D-06 0.000000000000D+00 -.452895054253D-07 0.334153767871D-05 0.000000000000D+00  6 22 21 9900012 13 2 -1 2 0.10863315D-02 0.49750130D+00 0.61624494D+04 0.61624494D+04 0.61624494D+04 0.12317563D+01  1  2  5  3  6  2        1 -.113881191013D-05 0.100000000000D+01
  </mgrwgt>
  </event>
  <event>
  6     66 0.15202802E-05 0.38049860E+02 0.78161638E-02 0.11657430E+00
       22 -1    0    0    0    0 0.00000000E+00 0.00000000E+00 0.95026593E+02 0.95026593E+02 0.00000000E+00 0.0000E+00 0.9000E+01
        1 -1    0    0  501    0 -.00000000E+00 -.00000000E+00 -.13973206E+03 0.13973206E+03 0.00000000E+00 0.0000E+00 0.9000E+01
      -24  2    1    2    0    0 -.27602682E+02 -.78845630E+02 0.32652749E+02 0.12090420E+03 0.81074554E+02 0.0000E+00 0.0000E+00
  9900012  1    3    3    0    0 -.17134672E+01 -.68512246E+02 0.10871014E+02 0.85528023E+02 0.50000000E+02 0.0000E+00 0.9000E+01
       13  1    3    3    0    0 -.25889214E+02 -.10333385E+02 0.21781735E+02 0.35376182E+02 0.00000000E+00 0.0000E+00 0.9000E+01
        2  1    1    2  501    0 0.27602682E+02 0.78845630E+02 -.77358215E+02 0.11385445E+03 0.00000000E+00 0.0000E+00 0.9000E+01
#aMCatNLO 1  0  0  5  2 0.14808649D+02 0.00000000D+00  -5  6  0 0.00000000D+00 0.00000000D+00 0.00000000D+00 0.00000000D+00 0.00000000D+00
  <mgrwgt>
 0.1939202478D-03    7    2    0
 0.115231338560835D+03 0.000000000000000D+00 0.000000000000000D+00 0.115231338560835D+03
 0.115231338560835D+03 -.000000000000000D+00 -.000000000000000D+00 -.115231338560835D+03
 0.892310949628068D+02 -.171346718794019D+01 -.685122455510734D+02 0.276644997787186D+02
 0.402608677952920D+02 -.258892143738152D+02 -.103333849470858D+02 0.290500810716935D+02
 0.100970714363571D+03 0.276026815617554D+02 0.788456304981593D+02 -.567145808504121D+02
 0.000000000000000D+00 0.000000000000000D+00 0.000000000000000D+00 0.000000000000000D+00
 0.115231338560835D+03 0.000000000000000D+00 0.000000000000000D+00 0.115231338560835D+03
 0.115231338560835D+03 -.000000000000000D+00 -.000000000000000D+00 -.115231338560835D+03
 0.879162764154161D+02 -.124977506290567D+01 -.671877330078416D+02 0.267117624710721D+02
 0.396656642129125D+02 -.256800026695422D+02 -.973578254769229D+01 0.286202187016082D+02
 0.483423217224387D+02 -.166097617421604D+01 0.391265345828616D+02 -.283431741200698D+02
 0.545384147709027D+02 0.285907539066639D+02 0.377969809726724D+02 -.269888070526106D+02
0.156900321606D-05 0.000000000000D+00 0.000000000000D+00 0.310994063993D-06 0.000000000000D+00  6 22 1 9900012 13 2 21 0 0.14619476D-01 0.21497240D-01 0.96282467D+04 0.96282467D+04 0.96282467D+04 0.12110390D+01  1  2  2  2  6  5        2 0.112656128288D-03 0.100000000000D+01
-.205900282377D-07 0.000000000000D+00 -.301269273885D-08 0.310994063993D-06 0.000000000000D+00  6 22 1 9900012 13 2 21 2 0.14619476D-01 0.21497240D-01 0.96282467D+04 0.96282467D+04 0.96282467D+04 0.12110390D+01  1  2  3  2  6  5        2 -.216822418557D-05 0.100000000000D+01
-.210275904363D-06 0.000000000000D+00 0.000000000000D+00 0.310994063993D-06 0.000000000000D+00  6 22 1 9900012 13 2 21 2 0.14619476D-01 0.21497240D-01 0.96282467D+04 0.96282467D+04 0.96282467D+04 0.12110390D+01  1  2 15  2  6  5        2 -.221430148721D-04 0.100000000000D+01
0.159550730242D-05 0.000000000000D+00 0.000000000000D+00 0.310994063993D-06 0.000000000000D+00  6 22 1 9900012 13 2 21 2 0.14619476D-01 0.21497240D-01 0.97790225D+04 0.97790225D+04 0.97790225D+04 0.12103371D+01  1  2 12  2  6  5        2 0.168027047632D-03 0.100000000000D+01
-.158620004344D-05 0.000000000000D+00 0.000000000000D+00 0.310994063993D-06 0.000000000000D+00  6 22 1 9900012 13 2 21 2 0.14619476D-01 0.21497240D-01 0.96282467D+04 0.96282467D+04 0.96282467D+04 0.12110390D+01  1  2  4  2  6  5        2 -.167034122423D-03 0.100000000000D+01
-.152583046249D-05 0.000000000000D+00 0.000000000000D+00 0.310994063993D-06 0.000000000000D+00  6 22 1 9900012 13 2 21 2 0.14619476D-01 0.21497240D-01 0.96282467D+04 0.96282467D+04 0.96282467D+04 0.12110390D+01  1  2  5  2  6  5        2 -.160676929321D-03 0.100000000000D+01
0.251897280934D-05 0.000000000000D+00 -.000000000000D+00 0.310994063993D-06 0.000000000000D+00  6 22 1 9900012 13 2 21 2 0.14619476D-01 0.21497240D-01 0.96282467D+04 0.96282467D+04 0.96282467D+04 0.12110390D+01  1  2  6  2  6  5        2 0.265259362686D-03 0.100000000000D+01
  </mgrwgt>
  </event>
  <event>
  7     66 -.15202802E-05 0.75068547E+02 0.78161638E-02 0.11455424E+00
       22 -1    0    0    0    0 0.00000000E+00 0.00000000E+00 0.50597351E+03 0.50597351E+03 0.00000000E+00 0.0000E+00 0.9000E+01
        1 -1    0    0  502    0 0.00000000E+00 0.00000000E+00 -.23863202E+03 0.23863202E+03 0.00000000E+00 0.0000E+00 0.9000E+01
      -24  2    1    2    0    0 0.11613250E+02 0.96044020E+02 0.47260853E+03 0.48880293E+03 0.78804554E+02 0.0000E+00 0.0000E+00
  9900012  1    3    3    0    0 -.20621676E+01 0.32299601E+02 0.22106906E+03 0.22895206E+03 0.50000000E+02 0.0000E+00 0.9000E+01
       13  1    3    3    0    0 0.13675418E+02 0.63744418E+02 0.25153947E+03 0.25985087E+03 0.00000000E+00 0.0000E+00 0.9000E+01
        2  1    1    2  501    0 -.46661382E+01 -.82532976E+02 -.21976778E+03 0.23480065E+03 0.00000000E+00 0.0000E+00 0.9000E+01
       21  1    1    2  502  501 -.69471119E+01 -.13511044E+02 0.14500740E+02 0.21001956E+02 0.00000000E+00 0.0000E+00 0.9000E+01
#aMCatNLO 2  0  0  2  5 0.28727548D+02 0.00000000D+00  -5  6  0 0.00000000D+00 0.00000000D+00 0.00000000D+00 0.00000000D+00 0.00000000D+00
  <mgrwgt>
 -.1134574224D-03    3    2    0
 0.338911079596823D+03 0.000000000000000D+00 0.000000000000000D+00 0.338911079596823D+03
 0.338911079596823D+03 0.000000000000000D+00 0.000000000000000D+00 -.338911079596823D+03
 0.161330203790297D+03 -.371844236795782D+01 0.290784065320002D+02 0.150559138264453D+03
 0.182161839783797D+03 0.118016526204774D+02 0.601002387821783D+02 0.171556457666765D+03
 0.334330115619551D+03 -.808321025251954D+01 -.891786453141785D+02 -.322115595931218D+03
 0.000000000000000D+00 -.000000000000000D+00 -.000000000000000D+00 0.000000000000000D+00
 0.351321815717723D+03 0.000000000000000D+00 0.000000000000000D+00 0.351321815717723D+03
 0.343677722077025D+03 0.000000000000000D+00 0.000000000000000D+00 -.343677722077025D+03
 0.161912232077366D+03 -.206216763820988D+01 0.322996013283767D+02 0.150559138264453D+03
 0.183526526915883D+03 0.136754177376770D+02 0.637444182994701D+02 0.171556457666765D+03
 0.332553637844560D+03 -.466613815436759D+01 -.825329755688667D+02 -.322115595931218D+03
 0.170071409569395D+02 -.694711194509957D+01 -.135110440589801D+02 0.764409364069822D+01
-.300613746276D-04 0.000000000000D+00 0.000000000000D+00 0.471548762096D-04 0.000000000000D+00  6 22 1 9900012 13 2 21 2 0.75092242D-01 0.38057014D-01 0.12389149D+05 0.12389149D+05 0.12389149D+05 0.11998046D+01  1  2 13  1  6  2        1 -.114702828980D-03 0.100000000000D+01
-.458011263029D-06 0.000000000000D+00 0.000000000000D+00 0.471548762096D-04 0.000000000000D+00  6 22 1 9900012 13 2 21 2 0.75092242D-01 0.36203433D-01 0.10894391D+05 0.10894391D+05 0.10894391D+05 0.12054933D+01  1  2  8  1  6  2        1 -.186661563734D-05 0.100000000000D+01
0.832132823976D-06 0.000000000000D+00 0.000000000000D+00 0.471548762096D-04 0.127438122673D-07  6 22 1 9900012 13 2 21 2 0.77842078D-01 0.36712619D-01 0.12389149D+05 0.12389149D+05 0.12389149D+05 0.11998046D+01  1  2  1  1  6  2        1 0.311202219023D-05 0.100000000000D+01
  </mgrwgt>
  </event>
  <event>
  5     66 0.15202802E-05 0.79844369E+02 0.78161638E-02 0.10409460E+00
       22 -1    0    0    0    0 0.00000000E+00 0.00000000E+00 0.46702348E+03 0.46702348E+03 0.00000000E+00 0.0000E+00 0.9000E+01
        1 -1    0    0  501    0 0.00000000E+00 0.00000000E+00 -.24316185E+03 0.24316185E+03 0.00000000E+00 0.0000E+00 0.9000E+01
  9900012  1    1    2    0    0 0.92180810E+01 0.12634527E+02 0.78082298E+02 0.94028983E+02 0.50000000E+02 0.0000E+00 0.9000E+01
       13  1    1    2    0    0 0.13274007E+03 0.10214998E+03 0.32166073E+03 0.36265710E+03 0.00000000E+00 0.0000E+00 0.9000E+01
        2  1    1    2  501    0 -.14195815E+03 -.11478451E+03 -.17588140E+03 0.25349925E+03 0.00000000E+00 0.0000E+00 0.9000E+01
#aMCatNLO 1  0  0  2  5 0.39173507D+02 0.00000000D+00  -5  6  0 0.00000000D+00 0.00000000D+00 0.00000000D+00 0.00000000D+00 0.00000000D+00
  <mgrwgt>
 0.5959998214D-04    9    2    0
 0.336990049372450D+03 0.000000000000000D+00 0.000000000000000D+00 0.336990049372450D+03
 0.336990049372450D+03 0.000000000000000D+00 0.000000000000000D+00 -.336990049372450D+03
 0.731451474068439D+02 0.921808097579115D+01 0.126345274949857D+02 0.510451592932290D+02
 0.275299310589189D+03 0.132740072535853D+03 0.102149977769418D+03 0.218483787947222D+03
 0.325535640748867D+03 -.141958153511644D+03 -.114784505264404D+03 -.269528947240451D+03
 0.000000000000000D+00 0.000000000000000D+00 -.000000000000000D+00 -.000000000000000D+00
 0.341984108342304D+03 0.000000000000000D+00 0.000000000000000D+00 0.341984108342304D+03
 0.418060757804159D+03 0.000000000000000D+00 0.000000000000000D+00 -.418060757804159D+03
 0.728522903554026D+02 0.515971097770749D+01 0.132372695592135D+02 0.510451592932290D+02
 0.269193067061896D+03 0.117604522463783D+03 0.104397883381270D+03 0.218483787947222D+03
 0.333000130797801D+03 -.160263829685647D+03 -.112065778029230D+03 -.269528947240451D+03
 0.849993779313638D+02 0.374995962441569D+02 -.556937491125315D+01 -.760766494618548D+02
0.363797016519D-05 0.000000000000D+00 0.000000000000D+00 0.125766574404D-07 0.000000000000D+00  6 22 1 9900012 13 2 21 0 0.71849766D-01 0.37409516D-01 0.40489964D+05 0.40489964D+05 0.40489964D+05 0.11510192D+01  1  2  2  1  6  2        1 0.112388854245D-04 0.100000000000D+01
0.949740307698D-08 0.000000000000D+00 -.698538166693D-08 0.125766574404D-07 0.000000000000D+00  6 22 1 9900012 13 2 21 2 0.71849766D-01 0.37409516D-01 0.40489964D+05 0.40489964D+05 0.40489964D+05 0.11510192D+01  1  2  3  1  6  2        1 0.388717511789D-07 0.100000000000D+01
-.558348702268D-06 0.000000000000D+00 0.000000000000D+00 0.125766574404D-07 0.000000000000D+00  6 22 1 9900012 13 2 21 2 0.71849766D-01 0.37409516D-01 0.40489964D+05 0.40489964D+05 0.40489964D+05 0.11510192D+01  1  2 15  1  6  2        1 -.228525541663D-05 0.100000000000D+01
0.175815032837D-04 0.000000000000D+00 0.000000000000D+00 0.125766574404D-07 0.000000000000D+00  6 22 1 9900012 13 2 21 2 0.71849766D-01 0.47097002D-01 0.48997133D+05 0.48997133D+05 0.48997133D+05 0.11437182D+01  1  2 12  1  6  2        1 0.532794588956D-04 0.100000000000D+01
-.561402644666D-05 0.000000000000D+00 0.000000000000D+00 0.125766574404D-07 0.000000000000D+00  6 22 1 9900012 13 2 21 2 0.71849766D-01 0.37409516D-01 0.40489964D+05 0.40489964D+05 0.40489964D+05 0.11510192D+01  1  2  4  1  6  2        1 -.229775484285D-04 0.100000000000D+01
-.205836647744D-04 0.000000000000D+00 -.225819275621D-05 0.125766574404D-07 0.000000000000D+00  6 22 1 9900012 13 2 21 2 0.71849766D-01 0.46840492D-01 0.40489964D+05 0.40489964D+05 0.40489964D+05 0.11510192D+01  1  2  5  1  6  2        1 -.631752661970D-04 0.100000000000D+01
0.206238325441D-04 0.000000000000D+00 0.220229990509D-05 0.125766574404D-07 0.000000000000D+00  6 22 1 9900012 13 2 21 2 0.71849766D-01 0.37409516D-01 0.40489964D+05 0.40489964D+05 0.40489964D+05 0.11510192D+01  1  2  6  1  6  2        1 0.844109153327D-04 0.100000000000D+01
0.559805665448D-06 0.000000000000D+00 0.000000000000D+00 0.125766574404D-07 0.000000000000D+00  6 22 21 9900012 13 2 -1 2 0.71849766D-01 0.47097002D-01 0.48997133D+05 0.48997133D+05 0.48997133D+05 0.11437182D+01  1  2 12  3  6  2        1 0.795307679613D-05 0.100000000000D+01
-.611985831032D-06 0.000000000000D+00 -.706209416814D-07 0.125766574404D-07 0.000000000000D+00  6 22 21 9900012 13 2 -1 2 0.71849766D-01 0.46840492D-01 0.40489964D+05 0.40489964D+05 0.40489964D+05 0.11510192D+01  1  2  5  3  6  2        1 -.888315601830D-05 0.100000000000D+01
  </mgrwgt>
  </event>
  <event>
  6     66 0.15202802E-05 0.25233946E+02 0.78161638E-02 0.12745222E+00
       22 -1    0    0    0    0 0.00000000E+00 0.00000000E+00 0.32266567E+02 0.32266567E+02 0.00000000E+00 0.0000E+00 0.9000E+01
        1 -1    0    0  501    0 -.00000000E+00 -.00000000E+00 -.18646401E+03 0.18646401E+03 0.00000000E+00 0.0000E+00 0.9000E+01
      -24  2    1    2    0    0 -.17217813E+02 0.21258019E+02 -.28246036E+02 0.89842589E+02 0.80780541E+02 0.0000E+00 0.0000E+00
  9900012  1    3    3    0    0 0.13189120E+01 0.34051609E+02 -.29435503E+02 0.67288189E+02 0.50000000E+02 0.0000E+00 0.9000E+01
       13  1    3    3    0    0 -.18536725E+02 -.12793590E+02 0.11894665E+01 0.22554400E+02 0.00000000E+00 0.0000E+00 0.9000E+01
        2  1    1    2  501    0 0.17217813E+02 -.21258019E+02 -.12595141E+03 0.12888799E+03 0.00000000E+00 0.0000E+00 0.9000E+01
#aMCatNLO 1  0  0  5  2 0.76570340D+01 0.00000000D+00  -5  6  0 0.00000000D+00 0.00000000D+00 0.00000000D+00 0.00000000D+00 0.00000000D+00
  <mgrwgt>
 0.1408641850D-03    8    2    0
 0.775664455373177D+02 0.000000000000000D+00 0.000000000000000D+00 0.775664455373177D+02
 0.775664455373177D+02 -.000000000000000D+00 -.000000000000000D+00 -.775664455373177D+02
 0.656153906411577D+02 0.131891204788033D+01 0.340516089213931D+02 0.253796747391723D+02
 0.329830093643461D+02 -.185367249673022D+02 -.127935900560016D+02 0.240954930992108D+02
 0.565344910691317D+02 0.172178129194219D+02 -.212580188653916D+02 -.494751678383831D+02
 0.000000000000000D+00 0.000000000000000D+00 -.000000000000000D+00 0.000000000000000D+00
 0.775664455373177D+02 0.000000000000000D+00 0.000000000000000D+00 0.775664455373177D+02
 0.775664455373177D+02 -.000000000000000D+00 -.000000000000000D+00 -.775664455373177D+02
 0.651162605404976D+02 0.161000294480825D+01 0.336922127653658D+02 0.245432287254345D+02
 0.326659765866953D+02 -.183905490257443D+02 -.129740665740034D+02 0.236754583784041D+02
 0.208814779468160D+02 0.572613426672139D+01 -.323890670763056D+00 -.200784113524012D+02
 0.364691760006266D+02 0.110544118142147D+02 -.203942555205994D+02 -.281402757514374D+02
0.265877715365D-06 0.000000000000D+00 0.000000000000D+00 0.382759011992D-06 0.000000000000D+00  6 22 1 9900012 13 2 21 0 0.49640872D-02 0.28686771D-01 0.30463442D+04 0.30463442D+04 0.30463442D+04 0.12668252D+01  1  2  2  2  6  5        2 0.547747613154D-04 0.100000000000D+01
0.133778607246D-07 0.000000000000D+00 -.510520217106D-09 0.382759011992D-06 0.000000000000D+00  6 22 1 9900012 13 2 21 2 0.49640872D-02 0.28686771D-01 0.30463442D+04 0.30463442D+04 0.30463442D+04 0.12668252D+01  1  2  3  2  6  5        2 0.442301690454D-05 0.100000000000D+01
-.389197173930D-07 0.000000000000D+00 0.000000000000D+00 0.382759011992D-06 0.000000000000D+00  6 22 1 9900012 13 2 21 2 0.49640872D-02 0.28686771D-01 0.30463442D+04 0.30463442D+04 0.30463442D+04 0.12668252D+01  1  2 15  2  6  5        2 -.128677201454D-04 0.100000000000D+01
0.209113734755D-06 0.000000000000D+00 0.000000000000D+00 0.382759011992D-06 0.000000000000D+00  6 22 1 9900012 13 2 21 2 0.49640872D-02 0.28686771D-01 0.31221867D+04 0.31221867D+04 0.31221867D+04 0.12655481D+01  1  2 12  2  6  5        2 0.691653791873D-04 0.100000000000D+01
-.811165943117D-07 0.000000000000D+00 0.000000000000D+00 0.382759011992D-06 0.000000000000D+00  6 22 1 9900012 13 2 21 2 0.49640872D-02 0.28686771D-01 0.30463442D+04 0.30463442D+04 0.30463442D+04 0.12668252D+01  1  2  4  2  6  5        2 -.268189417774D-04 0.100000000000D+01
-.202063668848D-06 0.000000000000D+00 0.000000000000D+00 0.382759011992D-06 0.000000000000D+00  6 22 1 9900012 13 2 21 2 0.49640872D-02 0.28686771D-01 0.30463442D+04 0.30463442D+04 0.30463442D+04 0.12668252D+01  1  2  5  2  6  5        2 -.668067220541D-04 0.100000000000D+01
0.358915033345D-06 0.000000000000D+00 -.000000000000D+00 0.382759011992D-06 0.000000000000D+00  6 22 1 9900012 13 2 21 2 0.49640872D-02 0.28686771D-01 0.30463442D+04 0.30463442D+04 0.30463442D+04 0.12668252D+01  1  2  6  2  6  5        2 0.118665255414D-03 0.100000000000D+01
0.995166608611D-09 0.000000000000D+00 0.000000000000D+00 0.382759011992D-06 0.510398506119D-08  6 22 1 9900012 13 2 21 2 0.49640872D-02 0.28686771D-01 0.31221867D+04 0.31221867D+04 0.31221867D+04 0.12655481D+01  1  2 11  2  6  5        2 0.329156169104D-06 0.100000000000D+01
  </mgrwgt>
  </event>
  <event>
  7     66 -.15202802E-05 0.15910264E+02 0.78161638E-02 0.12577759E+00
       22 -1    0    0    0    0 0.00000000E+00 0.00000000E+00 0.16195889E+02 0.16195889E+02 0.00000000E+00 0.0000E+00 0.9000E+01
        3 -1    0    0  501    0 -.00000000E+00 -.00000000E+00 -.34258380E+03 0.34258380E+03 0.00000000E+00 0.0000E+00 0.9000E+01
      -24  2    1    2    0    0 0.10968197E+02 0.29313602E+02 -.14488993E+03 0.16830193E+03 0.79704830E+02 0.0000E+00 0.0000E+00
  9900012  1    3    3    0    0 0.19751148E+02 0.54361373E+01 -.12442423E+03 0.13565046E+03 0.50000000E+02 0.0000E+00 0.9000E+01
       13  1    3    3    0    0 -.87829510E+01 0.23877465E+02 -.20465704E+02 0.32651471E+02 0.00000000E+00 0.0000E+00 0.9000E+01
        4  1    1    2  502    0 -.19767932E+02 -.14509406E+02 -.16436821E+03 0.16618725E+03 0.00000000E+00 0.0000E+00 0.9000E+01
       21  1    1    2  501  502 0.87997348E+01 -.14804196E+02 -.17129765E+02 0.24290500E+02 0.00000000E+00 0.0000E+00 0.9000E+01
#aMCatNLO 2  0  0  5  2 0.23068937D+02 0.00000000D+00  -5  6  0 0.00000000D+00 0.00000000D+00 0.00000000D+00 0.00000000D+00 0.00000000D+00
  <mgrwgt>
 -.1684062102D-04    2    2    0
 0.744879131597118D+02 0.000000000000000D+00 0.000000000000000D+00 0.744879131597118D+02
 0.744879131597118D+02 -.000000000000000D+00 -.000000000000000D+00 -.744879131597118D+02
 0.564960950448447D+02 0.226284458345227D+02 0.131260031358870D+02 0.273317326689799D+01
 0.393135993624176D+02 -.688071147951186D+01 0.289613898960545D+02 0.256798130766777D+02
 0.531661319121612D+02 -.157477343550109D+02 -.420873930319415D+02 -.284129863435757D+02
 0.000000000000000D+00 0.000000000000000D+00 0.000000000000000D+00 0.000000000000000D+00
 0.744879131597118D+02 0.000000000000000D+00 0.000000000000000D+00 0.744879131597118D+02
 0.744879131597118D+02 -.000000000000000D+00 -.000000000000000D+00 -.744879131597118D+02
 0.540897611780572D+02 0.197511480179953D+02 0.543613732127842D+01 -.245821628314094D+01
 0.337969357166602D+02 -.878295097137025D+01 0.238774648481793D+02 0.222476809689129D+02
 0.401193525236926D+02 -.197679318174569D+02 -.145094062520921D+02 -.317532431224347D+02
 0.209697769010136D+02 0.879973477083177D+01 -.148041959173656D+02 0.119637784366626D+02
-.186705249476D-06 0.000000000000D+00 0.000000000000D+00 0.310371854362D-06 0.000000000000D+00  6 22 3 9900012 13 4 21 2 0.24916753D-02 0.52705199D-01 0.36734998D+04 0.36734998D+04 0.36734998D+04 0.12572063D+01  1  2 13  2  6  5        4 -.212056232103D-04 0.100000000000D+01
0.384317317964D-07 0.000000000000D+00 0.000000000000D+00 0.310371854362D-06 0.504390302601D-09  6 22 3 9900012 13 4 21 2 0.24916753D-02 0.52705199D-01 0.36734998D+04 0.36734998D+04 0.36734998D+04 0.12572063D+01  1  2  1  2  6  5        4 0.436500219506D-05 0.100000000000D+01
  </mgrwgt>
  </event>
  <event>
  7     66 -.15202802E-05 0.40071273E+02 0.78161638E-02 0.11995651E+00
       22 -1    0    0    0    0 0.00000000E+00 0.00000000E+00 0.81586874E+03 0.81586874E+03 0.00000000E+00 0.0000E+00 0.9000E+01
        1 -1    0    0  502    0 0.00000000E+00 0.00000000E+00 -.92204618E+01 0.92204618E+01 0.00000000E+00 0.0000E+00 0.9000E+01
      -24  2    1    2    0    0 -.50173093E+02 -.19151883E+02 0.54073409E+03 0.54949276E+03 0.81638210E+02 0.0000E+00 0.0000E+00
  9900012  1    3    3    0    0 -.55753079E+02 0.29214226E+01 0.41700702E+03 0.42368832E+03 0.50000000E+02 0.0000E+00 0.9000E+01
       13  1    3    3    0    0 0.55799861E+01 -.22073306E+02 0.12372707E+03 0.12580443E+03 0.00000000E+00 0.0000E+00 0.9000E+01
        2  1    1    2  501    0 0.37575520E+02 0.31018945E+02 0.13461940E+03 0.14316591E+03 0.00000000E+00 0.0000E+00 0.9000E+01
       21  1    1    2  502  501 0.12597573E+02 -.11867062E+02 0.13129479E+03 0.13243054E+03 0.00000000E+00 0.0000E+00 0.9000E+01
#aMCatNLO 2  0  0  2  5 0.32947693D+02 0.00000000D+00  -5  6  0 0.00000000D+00 0.00000000D+00 0.00000000D+00 0.00000000D+00 0.00000000D+00
  <mgrwgt>
 -.4197425705D-04    2    2    0
 0.764430539935818D+02 0.000000000000000D+00 0.000000000000000D+00 0.764430539935818D+02
 0.764430539935818D+02 0.000000000000000D+00 0.000000000000000D+00 -.764430539935818D+02
 0.726502854035862D+02 -.496080800746013D+02 -.286723904401683D+01 0.175750192261329D+02
 0.255893771005068D+02 0.758644953816026D+01 -.239634178766699D+02 0.479756265878714D+01
 0.546464454830705D+02 0.420216305364410D+02 0.268306569206867D+02 -.223725818849200D+02
 0.000000000000000D+00 0.000000000000000D+00 -.000000000000000D+00 0.000000000000000D+00
 0.917620905168898D+02 0.000000000000000D+00 0.000000000000000D+00 0.917620905168898D+02
 0.819803310380388D+02 0.000000000000000D+00 0.000000000000000D+00 -.819803310380388D+02
 0.769793599706622D+02 -.557530792952714D+02 0.292142256256085D+01 0.175750192261329D+02
 0.232676530185842D+02 0.557998610469321D+01 -.220733057016766D+02 0.479756265878714D+01
 0.536155490904128D+02 0.375755204716988D+02 0.310189449425663D+02 -.223725818849200D+02
 0.198798594752693D+02 0.125975727188793D+02 -.118670618034505D+02 0.978175947885096D+01
-.408318051092D-06 0.000000000000D+00 0.000000000000D+00 0.735498982818D-07 0.000000000000D+00  6 22 1 9900012 13 2 21 2 0.10456387D+00 0.17028037D-02 0.67031414D+04 0.67031414D+04 0.67031414D+04 0.12277695D+01  1  2 13  1  6  2        1 -.490901044393D-04 0.100000000000D+01
0.666148154420D-07 0.000000000000D+00 0.000000000000D+00 0.735498982818D-07 0.272581703314D-09  6 22 1 9900012 13 2 21 2 0.12551827D+00 0.14185326D-02 0.67031414D+04 0.67031414D+04 0.67031414D+04 0.12277695D+01  1  2  1  1  6  2        1 0.711584739145D-05 0.100000000000D+01
  </mgrwgt>
  </event>
  <event>
  6     66 0.15202802E-05 0.28369308E+02 0.78161638E-02 0.12741276E+00
       22 -1    0    0    0    0 0.00000000E+00 0.00000000E+00 0.47727622E+03 0.47727622E+03 0.00000000E+00 0.0000E+00 0.9000E+01
        1 -1    0    0  501    0 0.00000000E+00 0.00000000E+00 -.14236767E+02 0.14236767E+02 0.00000000E+00 0.0000E+00 0.9000E+01
      -24  2    1    2    0    0 0.23017335E+02 -.16583724E+02 0.45431129E+03 0.46183137E+03 0.78004141E+02 0.0000E+00 0.0000E+00
  9900012  1    3    3    0    0 0.30617411E+02 -.23574451E+02 0.27266227E+03 0.27988908E+03 0.50000000E+02 0.0000E+00 0.9000E+01
       13  1    3    3    0    0 -.76000759E+01 0.69907266E+01 0.18164902E+03 0.18194229E+03 0.00000000E+00 0.0000E+00 0.9000E+01
        2  1    1    2  501    0 -.23017335E+02 0.16583724E+02 0.87281607E+01 0.29681617E+02 0.00000000E+00 0.0000E+00 0.9000E+01
#aMCatNLO 1  0  0  5  2 0.16335392D+02 0.00000000D+00  -5  6  0 0.00000000D+00 0.00000000D+00 0.00000000D+00 0.00000000D+00 0.00000000D+00
  <mgrwgt>
 0.8840141376D-04    5    2    0
 0.824310033567782D+02 0.000000000000000D+00 0.000000000000000D+00 0.824310033567782D+02
 0.824310033567782D+02 -.000000000000000D+00 -.000000000000000D+00 -.824310033567782D+02
 0.686375652141614D+02 0.306174111896008D+02 -.235744505243369D+02 0.267943048622419D+02
 0.322471924594804D+02 -.760007589186067D+01 0.699072660446290D+01 0.305491408962409D+02
 0.639772490399146D+02 -.230173352977402D+02 0.165837239198740D+02 -.573434457584828D+02
 0.000000000000000D+00 0.000000000000000D+00 0.000000000000000D+00 0.000000000000000D+00
 0.824310033567782D+02 0.000000000000000D+00 0.000000000000000D+00 0.824310033567782D+02
 0.824310033567782D+02 -.000000000000000D+00 -.000000000000000D+00 -.824310033567782D+02
 0.642747576143036D+02 0.278171444187187D+02 -.215568906969461D+02 0.198179566617130D+02
 0.297854531347685D+02 -.890701231785081D+01 0.793235918656180D+01 0.272931498319361D+02
 0.610672714021118D+02 -.266337473767042D+02 0.156735354163178D+02 -.526706315201034D+02
 0.973452456237258D+01 0.772361527583629D+01 -.204900390593355D+01 0.555952502645437D+01
0.574541482959D-06 0.000000000000D+00 0.000000000000D+00 0.224573780610D-06 0.000000000000D+00  6 22 1 9900012 13 2 21 0 0.73427111D-01 0.21902718D-02 0.25952491D+04 0.25952491D+04 0.25952491D+04 0.12752481D+01  1  2  2  2  6  5        2 0.563300301478D-04 0.100000000000D+01
0.231742090294D-07 0.000000000000D+00 -.110319528741D-08 0.224573780610D-06 0.000000000000D+00  6 22 1 9900012 13 2 21 2 0.73427111D-01 0.21902718D-02 0.25952491D+04 0.25952491D+04 0.25952491D+04 0.12752481D+01  1  2  3  2  6  5        2 0.369498700325D-05 0.100000000000D+01
-.885605588591D-07 0.000000000000D+00 0.000000000000D+00 0.224573780610D-06 0.000000000000D+00  6 22 1 9900012 13 2 21 2 0.73427111D-01 0.21902718D-02 0.25952491D+04 0.25952491D+04 0.25952491D+04 0.12752481D+01  1  2 15  2  6  5        2 -.141204437041D-04 0.100000000000D+01
0.274363390341D-06 0.000000000000D+00 0.000000000000D+00 0.224573780610D-06 0.000000000000D+00  6 22 1 9900012 13 2 21 2 0.73427111D-01 0.21902718D-02 0.31340124D+04 0.31340124D+04 0.31340124D+04 0.12653521D+01  1  2 12  2  6  5        2 0.440744673177D-04 0.100000000000D+01
-.989455661369D-08 0.000000000000D+00 0.000000000000D+00 0.224573780610D-06 0.000000000000D+00  6 22 1 9900012 13 2 21 2 0.73427111D-01 0.21902718D-02 0.25952491D+04 0.25952491D+04 0.25952491D+04 0.12752481D+01  1  2  4  2  6  5        2 -.157762700959D-05 0.100000000000D+01
  </mgrwgt>
  </event>
  <event>
  7     66 0.15202802E-05 0.62253088E+02 0.78161638E-02 0.11952797E+00
       22 -1    0    0    0    0 0.00000000E+00 0.00000000E+00 0.26204105E+02 0.26204105E+02 0.00000000E+00 0.0000E+00 0.9000E+01
        1 -1    0    0  501    0 -.00000000E+00 -.00000000E+00 -.27532328E+03 0.27532328E+03 0.00000000E+00 0.0000E+00 0.9000E+01
      -24  2    1    2    0    0 0.28413315E+01 -.65094670E+02 -.14718683E+03 0.17984004E+03 0.80206542E+02 0.0000E+00 0.0000E+00
  9900012  1    3    3    0    0 0.24982251E+02 -.38779224E+02 -.10863869E+03 0.12818075E+03 0.50000000E+02 0.0000E+00 0.9000E+01
       13  1    3    3    0    0 -.22140920E+02 -.26315446E+02 -.38548138E+02 0.51659288E+02 0.00000000E+00 0.0000E+00 0.9000E+01
        2  1    1    2  502    0 -.31557121E+01 0.54222264E+02 -.74661771E+02 0.92327637E+02 0.00000000E+00 0.0000E+00 0.9000E+01
       21  1    1    2  501  502 0.31438064E+00 0.10872407E+02 -.27270578E+02 0.29359708E+02 0.00000000E+00 0.0000E+00 0.9000E+01
#aMCatNLO 2  0  0  5  2 0.50661303D+01 0.00000000D+00  -5  6  0 0.00000000D+00 0.00000000D+00 0.00000000D+00 0.00000000D+00 0.00000000D+00
  <mgrwgt>
 0.2479792660D-04    2    2    0
 0.849388031285517D+02 0.000000000000000D+00 0.000000000000000D+00 0.849388031285517D+02
 0.849388031285517D+02 -.000000000000000D+00 -.000000000000000D+00 -.849388031285517D+02
 0.685103545236531D+02 0.250052659441009D+02 -.393064911037293D+02 -.483788271187674D+01
 0.353629318360091D+02 -.221290468067521D+02 -.265874522348201D+02 0.734504044399745D+01
 0.660043198974411D+02 -.287621913734880D+01 0.658939433385494D+02 -.250715773212070D+01
 0.000000000000000D+00 0.000000000000000D+00 0.000000000000000D+00 -.000000000000000D+00
 0.849388031285517D+02 0.000000000000000D+00 0.000000000000000D+00 0.849388031285517D+02
 0.849388031285517D+02 -.000000000000000D+00 -.000000000000000D+00 -.849388031285517D+02
 0.682022045608019D+02 0.249822511453958D+02 -.387792239625966D+02 -.485794437191418D+01
 0.351641966530271D+02 -.221409196564471D+02 -.263154462270345D+02 0.733469105631398D+01
 0.543899354387378D+02 -.315571212538896D+01 0.542222635547698D+02 0.287275007768166D+01
 0.121212696045366D+02 0.314380636440209D+00 0.108724066348613D+02 -.534949676208146D+01
-.136044131382D-06 0.000000000000D+00 0.000000000000D+00 0.184230359213D-06 0.000000000000D+00  6 22 1 9900012 13 2 21 2 0.40314008D-02 0.42357428D-01 0.70233350D+04 0.70233350D+04 0.70233350D+04 0.12255744D+01  1  2 13  2  6  5        2 -.373875975346D-04 0.100000000000D+01
0.226277593997D-06 0.000000000000D+00 0.000000000000D+00 0.184230359213D-06 0.685107413866D-07  6 22 1 9900012 13 2 21 2 0.40314008D-02 0.42357428D-01 0.70233350D+04 0.70233350D+04 0.70233350D+04 0.12255744D+01  1  2  1  2  6  5        2 0.621855241349D-04 0.100000000000D+01
  </mgrwgt>
  </event>
  <event>
  6     66 0.15202802E-05 0.58928337E+02 0.78161638E-02 0.11716976E+00
       22 -1    0    0    0    0 0.00000000E+00 0.00000000E+00 0.62701330E+02 0.62701330E+02 0.00000000E+00 0.0000E+00 0.9000E+01
        1 -1    0    0  501    0 -.00000000E+00 -.00000000E+00 -.47375146E+03 0.47375146E+03 0.00000000E+00 0.0000E+00 0.9000E+01
      -24  2    1    2    0    0 0.65484463E+02 0.53413181E+02 -.67777525E+01 0.12344270E+03 0.89727246E+02 0.0000E+00 0.0000E+00
  9900012  1    3    3    0    0 0.57595978E+02 0.28213989E+02 -.31558062E+02 0.87230941E+02 0.50000000E+02 0.0000E+00 0.9000E+01
       13  1    3    3    0    0 0.78884841E+01 0.25199192E+02 0.24780309E+02 0.36211755E+02 0.00000000E+00 0.0000E+00 0.9000E+01
        2  1    1    2  501    0 -.65484463E+02 -.53413181E+02 -.40427238E+03 0.41301010E+03 0.00000000E+00 0.0000E+00 0.9000E+01
#aMCatNLO 1  0  0  5  2 0.33119118D+01 0.00000000D+00  -5  6  0 0.00000000D+00 0.00000000D+00 0.00000000D+00 0.00000000D+00 0.00000000D+00
  <mgrwgt>
 0.3526291192D-03    8    2    0
 0.172350941209366D+03 0.000000000000000D+00 0.000000000000000D+00 0.172350941209366D+03
 0.172350941209366D+03 -.000000000000000D+00 -.000000000000000D+00 -.172350941209366D+03
 0.981234467419343D+02 0.575959784238384D+02 0.282139888145471D+02 0.549079675920588D+02
 0.859056706103005D+02 0.788848413764378D+01 0.251991918637759D+02 0.817469069165813D+02
 0.160672765066496D+03 -.654844625614821D+02 -.534131806783230D+02 -.136654874508640D+03
 0.000000000000000D+00 0.000000000000000D+00 -.000000000000000D+00 0.000000000000000D+00
 0.172350941209366D+03 0.000000000000000D+00 0.000000000000000D+00 0.172350941209366D+03
 0.172350941209366D+03 -.000000000000000D+00 -.000000000000000D+00 -.172350941209366D+03
 0.975819183871658D+02 0.573233568126219D+02 0.279916217551389D+02 0.543390529119672D+02
 0.853531534566031D+02 0.764991706248278D+01 0.250046017917033D+02 0.812490582293845D+02
 0.159379020277212D+03 -.638493074570066D+02 -.512368540215153D+02 -.136746929880573D+03
 0.238779029775061D+01 -.112396641809800D+01 -.175936952532692D+01 0.115881873922147D+01
0.127375835261D-04 0.000000000000D+00 0.000000000000D+00 0.906011021583D-07 0.000000000000D+00  6 22 1 9900012 13 2 21 0 0.96463585D-02 0.72884841D-01 0.92383760D+04 0.92383760D+04 0.92383760D+04 0.12129126D+01  1  2  2  2  6  5        2 0.355243083792D-03 0.100000000000D+01
0.396645379928D-07 0.000000000000D+00 -.244578373115D-07 0.906011021583D-07 0.000000000000D+00  6 22 1 9900012 13 2 21 2 0.96463585D-02 0.72884841D-01 0.92383760D+04 0.92383760D+04 0.92383760D+04 0.12129126D+01  1  2  3  2  6  5        2 0.162742132939D-05 0.100000000000D+01
-.199368084151D-05 0.000000000000D+00 0.000000000000D+00 0.906011021583D-07 0.000000000000D+00  6 22 1 9900012 13 2 21 2 0.96463585D-02 0.72884841D-01 0.92383760D+04 0.92383760D+04 0.92383760D+04 0.12129126D+01  1  2 15  2  6  5        2 -.817999878395D-04 0.100000000000D+01
0.949122142166D-07 0.000000000000D+00 0.000000000000D+00 0.906011021583D-07 0.000000000000D+00  6 22 1 9900012 13 2 21 2 0.96463585D-02 0.72884841D-01 0.91349877D+04 0.91349877D+04 0.91349877D+04 0.12134243D+01  1  2 12  2  6  5        2 0.389493546055D-05 0.100000000000D+01
-.816984996063D-05 0.000000000000D+00 0.000000000000D+00 0.906011021583D-07 0.000000000000D+00  6 22 1 9900012 13 2 21 2 0.96463585D-02 0.72884841D-01 0.92383760D+04 0.92383760D+04 0.92383760D+04 0.12129126D+01  1  2  4  2  6  5        2 -.335205923393D-03 0.100000000000D+01
-.123379566353D-03 0.000000000000D+00 0.000000000000D+00 0.906011021583D-07 0.000000000000D+00  6 22 1 9900012 13 2 21 2 0.96463585D-02 0.72884841D-01 0.92383760D+04 0.92383760D+04 0.92383760D+04 0.12129126D+01  1  2  5  2  6  5        2 -.506221799253D-02 0.100000000000D+01
0.125226757907D-03 0.000000000000D+00 -.000000000000D+00 0.906011021583D-07 0.000000000000D+00  6 22 1 9900012 13 2 21 2 0.96463585D-02 0.72884841D-01 0.92383760D+04 0.92383760D+04 0.92383760D+04 0.12129126D+01  1  2  6  2  6  5        2 0.513800757910D-02 0.100000000000D+01
0.811653002878D-05 0.000000000000D+00 0.000000000000D+00 0.906011021583D-07 0.625527777818D-08  6 22 1 9900012 13 2 21 2 0.96463585D-02 0.72884841D-01 0.91349877D+04 0.91349877D+04 0.91349877D+04 0.12134243D+01  1  2 11  2  6  5        2 0.333080003313D-03 0.100000000000D+01
  </mgrwgt>
  </event>
  <event>
  7     66 -.15202802E-05 0.21135785E+02 0.78161638E-02 0.13094265E+00
       22 -1    0    0    0    0 0.00000000E+00 0.00000000E+00 0.76065619E+02 0.76065619E+02 0.00000000E+00 0.0000E+00 0.9000E+01
        1 -1    0    0  501    0 -.00000000E+00 -.00000000E+00 -.46358188E+03 0.46358188E+03 0.00000000E+00 0.0000E+00 0.9000E+01
      -24  2    1    2    0    0 0.18619108E+02 0.21570876E+01 0.51360467E+02 0.99477447E+02 0.83105599E+02 0.0000E+00 0.0000E+00
  9900012  1    3    3    0    0 0.85052590E+01 -.80027288E+01 0.57494649E+01 0.51666618E+02 0.50000000E+02 0.0000E+00 0.9000E+01
       13  1    3    3    0    0 0.10113849E+02 0.10159816E+02 0.45611002E+02 0.47810828E+02 0.00000000E+00 0.0000E+00 0.9000E+01
        2  1    1    2  502    0 -.23365137E+02 -.48271993E+01 -.41478224E+03 0.41546785E+03 0.00000000E+00 0.0000E+00 0.9000E+01
       21  1    1    2  501  502 0.47460291E+01 0.26701117E+01 -.24094495E+02 0.24702206E+02 0.00000000E+00 0.0000E+00 0.9000E+01
#aMCatNLO 2  0  0  5  2 0.66142300D+01 0.00000000D+00  -5  6  0 0.00000000D+00 0.00000000D+00 0.00000000D+00 0.00000000D+00 0.00000000D+00
  <mgrwgt>
 -.1574370165D-03    3    2    0
 0.187783500642724D+03 0.000000000000000D+00 0.000000000000000D+00 0.187783500642724D+03
 0.187783500642724D+03 -.000000000000000D+00 -.000000000000000D+00 -.187783500642724D+03
 0.805372859560094D+02 0.855479826342617D+01 -.799698955401661D+01 0.620412605763701D+02
 0.116441032918092D+03 0.101854263894995D+02 0.101681089698673D+02 0.115548175218275D+03
 0.178588682411346D+03 -.187402246529257D+02 -.217111941585070D+01 -.177589435794645D+03
 0.000000000000000D+00 0.000000000000000D+00 0.000000000000000D+00 -.000000000000000D+00
 0.187783500642724D+03 0.000000000000000D+00 0.000000000000000D+00 0.187783500642724D+03
 0.187783500642724D+03 -.000000000000000D+00 -.000000000000000D+00 -.187783500642724D+03
 0.801715076888399D+02 0.850525902147846D+01 -.800272884540885D+01 0.615718080383071D+02
 0.115760966709438D+03 0.101138490303557D+02 0.101598164868768D+02 0.114869881171035D+03
 0.169001337578182D+03 -.233651371575284D+02 -.482719929862733D+01 -.167308758335467D+03
 0.106331893089879D+02 0.474602910569420D+01 0.267011165715936D+01 -.913293087387507D+01
-.484624193665D-05 0.000000000000D+00 0.000000000000D+00 0.517193703980D-05 0.000000000000D+00  6 22 1 9900012 13 2 21 2 0.11702403D-01 0.71320290D-01 0.22555638D+04 0.22555638D+04 0.22555638D+04 0.12827602D+01  1  2 13  2  6  5        2 -.159804226240D-03 0.100000000000D+01
-.422414955520D-07 0.000000000000D+00 0.000000000000D+00 0.517193703980D-05 0.000000000000D+00  6 22 1 9900012 13 2 21 2 0.11702403D-01 0.71320290D-01 0.17897450D+04 0.17897450D+04 0.17897450D+04 0.12954582D+01  1  2  8  2  6  5        2 -.139980424494D-05 0.100000000000D+01
0.114238913397D-06 0.000000000000D+00 0.000000000000D+00 0.517193703980D-05 0.359568655343D-07  6 22 1 9900012 13 2 21 2 0.11702403D-01 0.71320290D-01 0.22555638D+04 0.22555638D+04 0.22555638D+04 0.12827602D+01  1  2  1  2  6  5        2 0.376701398745D-05 0.100000000000D+01
  </mgrwgt>
  </event>
  <event>
  6     66 -.15202802E-05 0.33129067E+02 0.78161638E-02 0.12416929E+00
       22 -1    0    0    0    0 0.00000000E+00 0.00000000E+00 0.18666754E+02 0.18666754E+02 0.00000000E+00 0.0000E+00 0.9000E+01
        1 -1    0    0  501    0 0.00000000E+00 0.00000000E+00 -.32258309E+03 0.32258309E+03 0.00000000E+00 0.0000E+00 0.9000E+01
      -24  2    1    2    0    0 0.24571335E+01 0.41661408E+02 -.10335859E+03 0.13639595E+03 0.78607540E+02 0.0000E+00 0.0000E+00
  9900012  1    3    3    0    0 0.21587445E+02 0.15798392E+02 -.62454332E+02 0.84357279E+02 0.50000000E+02 0.0000E+00 0.9000E+01
       13  1    3    3    0    0 -.19130312E+02 0.25863016E+02 -.40904261E+02 0.52038669E+02 0.00000000E+00 0.0000E+00 0.9000E+01
        2  1    1    2  501    0 -.24571335E+01 -.41661408E+02 -.20055774E+03 0.20485390E+03 0.00000000E+00 0.0000E+00 0.9000E+01
#aMCatNLO 1  0  0  2  5 0.79517332D+00 0.00000000D+00  -5  6  0 0.00000000D+00 0.00000000D+00 0.00000000D+00 0.00000000D+00 0.00000000D+00
  <mgrwgt>
 -.2821310962D-04   11    2    0
 0.775988345662724D+02 0.000000000000000D+00 0.000000000000000D+00 0.775988345662724D+02
 0.775988345662724D+02 0.000000000000000D+00 0.000000000000000D+00 -.775988345662724D+02
 0.631840457000158D+02 0.215874454054655D+02 0.157983918685554D+02 0.278678425116710D+02
 0.343221283563562D+02 -.191303118880467D+02 0.258630162425785D+02 0.119642823776592D+02
 0.576914950761729D+02 -.245713351741873D+01 -.416614081111339D+02 -.398321248893302D+02
 0.000000000000000D+00 0.000000000000000D+00 -.000000000000000D+00 -.000000000000000D+00
 0.776078800576691D+02 0.000000000000000D+00 0.000000000000000D+00 0.776078800576691D+02
 0.972815481594218D+02 0.000000000000000D+00 0.000000000000000D+00 -.972815481594218D+02
 0.632535907787032D+02 0.215530360946521D+02 0.161203826023755D+02 0.278678425116710D+02
 0.344647193938044D+02 -.191490318522127D+02 0.260381913581618D+02 0.119642823776592D+02
 0.574813949872379D+02 -.248847718914370D+01 -.413681045947088D+02 -.398321248893302D+02
 0.196897230573455D+02 0.844729467043292D-01 -.790469365828428D+00 -.196736681017527D+02
0.862451891999D-08 0.000000000000D+00 0.000000000000D+00 0.201003626779D-06 0.000000000000D+00  6 22 1 9900012 13 2 21 0 0.28718083D-02 0.49628168D-01 0.42647062D+04 0.42647062D+04 0.42647062D+04 0.12497006D+01  1  2  2  1  6  2        1 0.196246978373D-05 0.100000000000D+01
0.951999268554D-10 0.000000000000D+00 -.165602117704D-10 0.201003626779D-06 0.000000000000D+00  6 22 1 9900012 13 2 21 2 0.28718083D-02 0.49628168D-01 0.42647062D+04 0.42647062D+04 0.42647062D+04 0.12497006D+01  1  2  3  1  6  2        1 0.338311434154D-07 0.100000000000D+01
-.110187819092D-08 0.000000000000D+00 0.000000000000D+00 0.201003626779D-06 0.000000000000D+00  6 22 1 9900012 13 2 21 2 0.28718083D-02 0.49628168D-01 0.42647062D+04 0.42647062D+04 0.42647062D+04 0.12497006D+01  1  2 15  1  6  2        1 -.391573820847D-06 0.100000000000D+01
0.544267504358D-11 0.000000000000D+00 0.000000000000D+00 0.201003626779D-06 0.000000000000D+00  6 22 1 9900012 13 2 21 2 0.28718083D-02 0.62223457D-01 0.43127495D+04 0.43127495D+04 0.43127495D+04 0.12491426D+01  1  2 12  1  6  2        1 0.145674245969D-08 0.100000000000D+01
-.558569255974D-05 0.000000000000D+00 0.000000000000D+00 0.201003626779D-06 0.000000000000D+00  6 22 1 9900012 13 2 21 2 0.28718083D-02 0.49628168D-01 0.42647062D+04 0.42647062D+04 0.42647062D+04 0.12497006D+01  1  2  4  1  6  2        1 -.198498436191D-02 0.100000000000D+01
-.515710043923D-05 0.000000000000D+00 -.526028976759D-08 0.201003626779D-06 0.000000000000D+00  6 22 1 9900012 13 2 21 2 0.28718083D-02 0.62219232D-01 0.42647062D+04 0.42647062D+04 0.42647062D+04 0.12497006D+01  1  2  5  1  6  2        1 -.138032636859D-02 0.100000000000D+01
0.502931418087D-05 0.000000000000D+00 0.512863286597D-08 0.201003626779D-06 0.000000000000D+00  6 22 1 9900012 13 2 21 2 0.28718083D-02 0.49628168D-01 0.42647062D+04 0.42647062D+04 0.42647062D+04 0.12497006D+01  1  2  6  1  6  2        1 0.178726449645D-02 0.100000000000D+01
0.577245382891D-05 0.000000000000D+00 0.000000000000D+00 0.201003626779D-06 0.304412716415D-05  6 22 1 9900012 13 2 21 2 0.28721430D-02 0.62216205D-01 0.43127495D+04 0.43127495D+04 0.43127495D+04 0.12491426D+01  1  2 11  1  6  2        1 0.154499469226D-02 0.100000000000D+01
0.170976540318D-12 0.000000000000D+00 0.000000000000D+00 0.201003626779D-06 0.000000000000D+00  6 22 21 9900012 13 2 -1 2 0.28718083D-02 0.62223457D-01 0.43127495D+04 0.43127495D+04 0.43127495D+04 0.12491426D+01  1  2 12  3  6  2        1 0.180784694185D-09 0.100000000000D+01
-.161894379414D-06 0.000000000000D+00 -.165209871236D-09 0.201003626779D-06 0.000000000000D+00  6 22 21 9900012 13 2 -1 2 0.28718083D-02 0.62219232D-01 0.42647062D+04 0.42647062D+04 0.42647062D+04 0.12497006D+01  1  2  5  3  6  2        1 -.171248416940D-03 0.100000000000D+01
0.164999119753D-06 0.000000000000D+00 0.000000000000D+00 0.201003626779D-06 0.869850742259D-07  6 22 21 9900012 13 2 -1 2 0.28721430D-02 0.62216205D-01 0.43127495D+04 0.43127495D+04 0.43127495D+04 0.12491426D+01  1  2 11  3  6  2        1 0.174480484476D-03 0.100000000000D+01
  </mgrwgt>
  </event>
  <event>
  6     66 0.15202802E-05 0.81333224E+02 0.78161638E-02 0.10865611E+00
       22 -1    0    0    0    0 0.00000000E+00 0.00000000E+00 0.23229439E+03 0.23229439E+03 0.00000000E+00 0.0000E+00 0.9000E+01
        3 -1    0    0  501    0 0.00000000E+00 0.00000000E+00 -.25004329E+03 0.25004329E+03 0.00000000E+00 0.0000E+00 0.9000E+01
      -24  2    1    2    0    0 0.12602746E+03 -.30360338E+02 0.18695805E+03 0.24003703E+03 0.76549256E+02 0.0000E+00 0.0000E+00
  9900012  1    3    3    0    0 0.68217235E+02 -.26012398E+01 0.87723771E+02 0.12188444E+03 0.50000000E+02 0.0000E+00 0.9000E+01
       13  1    3    3    0    0 0.57810229E+02 -.27759098E+02 0.99234281E+02 0.11815258E+03 0.00000000E+00 0.0000E+00 0.9000E+01
        4  1    1    2  501    0 -.12602746E+03 0.30360338E+02 -.20470696E+03 0.24230066E+03 0.00000000E+00 0.0000E+00 0.9000E+01
#aMCatNLO 1  0  0  2  5 0.47033947D+02 0.00000000D+00  -5  6  0 0.00000000D+00 0.00000000D+00 0.00000000D+00 0.00000000D+00 0.00000000D+00
  <mgrwgt>
 0.2341179900D-04    9    2    0
 0.241005507723309D+03 0.000000000000000D+00 0.000000000000000D+00 0.241005507723309D+03
 0.241005507723309D+03 0.000000000000000D+00 0.000000000000000D+00 -.241005507723309D+03
 0.125197265697055D+03 0.682172350340507D+02 -.260123979661446D+01 0.922713267155537D+02
 0.121886722038926D+03 0.578102289878073D+02 -.277590977199275D+02 0.103652221044931D+03
 0.234927027710636D+03 -.126027464021858D+03 0.303603375165420D+02 -.195923547760485D+03
 0.000000000000000D+00 -.000000000000000D+00 -.000000000000000D+00 -.000000000000000D+00
 0.251875355568293D+03 0.000000000000000D+00 0.000000000000000D+00 0.251875355568293D+03
 0.286143338607261D+03 0.000000000000000D+00 0.000000000000000D+00 -.286143338607261D+03
 0.128216745774152D+03 0.733091161585248D+02 0.716307553505485D+01 0.922713267155537D+02
 0.122532278618482D+03 0.627213721747408D+02 -.183413698618071D+02 0.103652221044931D+03
 0.233085873231584D+03 -.116623619133870D+03 0.483933796421878D+02 -.195923547760485D+03
 0.541837965513364D+02 -.194068691993957D+02 -.372150853154355D+02 -.342679830389683D+02
0.267340977224D-05 0.000000000000D+00 0.000000000000D+00 0.698203418960D-06 0.000000000000D+00  6 22 3 9900012 13 4 21 0 0.35737599D-01 0.38468199D-01 0.19374024D+05 0.19374024D+05 0.19374024D+05 0.11806420D+01  1  2  2  1  6  2        3 0.899095507706D-05 0.100000000000D+01
0.341088010873D-08 0.000000000000D+00 -.513329872518D-08 0.698203418960D-06 0.000000000000D+00  6 22 3 9900012 13 4 21 2 0.35737599D-01 0.38468199D-01 0.19374024D+05 0.19374024D+05 0.19374024D+05 0.11806420D+01  1  2  3  1  6  2        3 0.159898061065D-07 0.100000000000D+01
-.441386689048D-06 0.000000000000D+00 0.000000000000D+00 0.698203418960D-06 0.000000000000D+00  6 22 3 9900012 13 4 21 2 0.35737599D-01 0.38468199D-01 0.19374024D+05 0.19374024D+05 0.19374024D+05 0.11806420D+01  1  2 15  1  6  2        3 -.206916905634D-05 0.100000000000D+01
0.385824078138D-05 0.000000000000D+00 0.000000000000D+00 0.698203418960D-06 0.000000000000D+00  6 22 3 9900012 13 4 21 2 0.35737599D-01 0.47732836D-01 0.26019373D+05 0.26019373D+05 0.26019373D+05 0.11685089D+01  1  2 12  1  6  2        3 0.118707420733D-04 0.100000000000D+01
-.855237350943D-06 0.000000000000D+00 0.000000000000D+00 0.698203418960D-06 0.000000000000D+00  6 22 3 9900012 13 4 21 2 0.35737599D-01 0.38468199D-01 0.19374024D+05 0.19374024D+05 0.19374024D+05 0.11806420D+01  1  2  4  1  6  2        3 -.400925244532D-05 0.100000000000D+01
-.669813147335D-05 0.000000000000D+00 -.177179431825D-05 0.698203418960D-06 0.000000000000D+00  6 22 3 9900012 13 4 21 2 0.35737599D-01 0.47356606D-01 0.19374024D+05 0.19374024D+05 0.19374024D+05 0.11806420D+01  1  2  5  1  6  2        3 -.210169062202D-04 0.100000000000D+01
0.695327265038D-05 0.000000000000D+00 0.173419047350D-05 0.698203418960D-06 0.000000000000D+00  6 22 3 9900012 13 4 21 2 0.35737599D-01 0.38468199D-01 0.19374024D+05 0.19374024D+05 0.19374024D+05 0.11806420D+01  1  2  6  1  6  2        3 0.325961270819D-04 0.100000000000D+01
0.116987542334D-06 0.000000000000D+00 0.000000000000D+00 0.698203418960D-06 0.000000000000D+00  6 22 21 9900012 13 4 -3 2 0.35737599D-01 0.47732836D-01 0.26019373D+05 0.26019373D+05 0.26019373D+05 0.11685089D+01  1  2 12  3  6  2        3 0.542111845997D-05 0.100000000000D+01
-.175619024182D-06 0.000000000000D+00 -.522217127889D-07 0.698203418960D-06 0.000000000000D+00  6 22 21 9900012 13 4 -3 2 0.35737599D-01 0.47356606D-01 0.19374024D+05 0.19374024D+05 0.19374024D+05 0.11806420D+01  1  2  5  3  6  2        3 -.838780577838D-05 0.100000000000D+01
  </mgrwgt>
  </event>
  <event>
  6     66 0.15202802E-05 0.95510630E+01 0.78161638E-02 0.13103522E+00
       22 -1    0    0    0    0 0.00000000E+00 0.00000000E+00 0.33179035E+01 0.33179035E+01 0.00000000E+00 0.0000E+00 0.9000E+01
        1 -1    0    0  501    0 0.00000000E+00 0.00000000E+00 -.16012005E+04 0.16012005E+04 0.00000000E+00 0.0000E+00 0.9000E+01
      -24  2    1    2    0    0 -.95216275E+01 0.74927586E+00 -.55774346E+03 0.56433541E+03 0.85472057E+02 0.0000E+00 0.0000E+00
  9900012  1    3    3    0    0 0.45676955E+01 -.23725653E+02 -.42563033E+03 0.42923764E+03 0.50000000E+02 0.0000E+00 0.9000E+01
       13  1    3    3    0    0 -.14089323E+02 0.24474929E+02 -.13211313E+03 0.13509778E+03 0.00000000E+00 0.0000E+00 0.9000E+01
        2  1    1    2  501    0 0.95216275E+01 -.74927586E+00 -.10401392E+04 0.10401830E+04 0.00000000E+00 0.0000E+00 0.9000E+01
#aMCatNLO 1  0  0  2  5 0.19780752D+01 0.00000000D+00  -5  6  0 0.00000000D+00 0.00000000D+00 0.00000000D+00 0.00000000D+00 0.00000000D+00
  <mgrwgt>
 0.3384705557D-03   11    2    0
 0.728877822827628D+02 0.000000000000000D+00 0.000000000000000D+00 0.728877822827628D+02
 0.728877822827628D+02 0.000000000000000D+00 0.000000000000000D+00 -.728877822827628D+02
 0.590797908769312D+02 0.456769545843548D+01 -.237256530739539D+02 0.201655953166598D+02
 0.388652515320111D+02 -.140893229290038D+02 0.244749289305855D+02 0.267016218588221D+02
 0.478305221565832D+02 0.952162747056834D+01 -.749275856631593D+00 -.468672171754819D+02
 0.000000000000000D+00 0.000000000000000D+00 -.000000000000000D+00 -.000000000000000D+00
 0.735815721547250D+02 0.000000000000000D+00 0.000000000000000D+00 0.735815721547250D+02
 0.736174885920238D+02 0.000000000000000D+00 0.000000000000000D+00 -.736174885920238D+02
 0.588735664735591D+02 0.421524927343200D+01 -.232739611670236D+02 0.201655953166598D+02
 0.391387391484522D+02 -.143223998803337D+02 0.247736382856227D+02 0.267016218588221D+02
 0.477701375586943D+02 0.923597144044495D+01 -.383181620226917D+00 -.468672171754819D+02
 0.141661756604315D+01 0.871179166456748D+00 -.111649549837226D+01 -.359164372988194D-01
0.481153957758D-06 0.000000000000D+00 0.000000000000D+00 0.200897178121D-07 0.000000000000D+00  6 22 1 9900012 13 2 21 0 0.51044669D-03 0.24633854D+00 0.21773126D+04 0.21773126D+04 0.21773126D+04 0.12846726D+01  1  2  2  1  6  2        1 0.859285348159D-04 0.100000000000D+01
0.103067575394D-06 0.000000000000D+00 -.923878944268D-09 0.200897178121D-07 0.000000000000D+00  6 22 1 9900012 13 2 21 2 0.51044669D-03 0.24633854D+00 0.21773126D+04 0.21773126D+04 0.21773126D+04 0.12846726D+01  1  2  3  1  6  2        1 0.303780818872D-04 0.100000000000D+01
-.652851374492D-07 0.000000000000D+00 0.000000000000D+00 0.200897178121D-07 0.000000000000D+00  6 22 1 9900012 13 2 21 2 0.51044669D-03 0.24633854D+00 0.21773126D+04 0.21773126D+04 0.21773126D+04 0.12846726D+01  1  2 15  1  6  2        1 -.192421063935D-04 0.100000000000D+01
0.188234817080D-09 0.000000000000D+00 0.000000000000D+00 0.200897178121D-07 0.000000000000D+00  6 22 1 9900012 13 2 21 2 0.51044669D-03 0.25117300D+00 0.22367290D+04 0.22367290D+04 0.22367290D+04 0.12832136D+01  1  2 12  1  6  2        1 0.530100273126D-07 0.100000000000D+01
-.217281959483D-07 0.000000000000D+00 0.000000000000D+00 0.200897178121D-07 0.000000000000D+00  6 22 1 9900012 13 2 21 2 0.51044669D-03 0.24633854D+00 0.21773126D+04 0.21773126D+04 0.21773126D+04 0.12846726D+01  1  2  4  1  6  2        1 -.640415681901D-05 0.100000000000D+01
-.230084409703D-04 0.000000000000D+00 -.296493053652D-05 0.200897178121D-07 0.000000000000D+00  6 22 1 9900012 13 2 21 2 0.51044669D-03 0.25021398D+00 0.21773126D+04 0.21773126D+04 0.21773126D+04 0.12846726D+01  1  2  5  1  6  2        1 -.653978385156D-02 0.100000000000D+01
0.230522753198D-04 0.000000000000D+00 0.296456935102D-05 0.200897178121D-07 0.000000000000D+00  6 22 1 9900012 13 2 21 2 0.51044669D-03 0.24633854D+00 0.21773126D+04 0.21773126D+04 0.21773126D+04 0.12846726D+01  1  2  6  1  6  2        1 0.679441526275D-02 0.100000000000D+01
0.242677186909D-07 0.000000000000D+00 0.000000000000D+00 0.200897178121D-07 0.120662463107D-08  6 22 1 9900012 13 2 21 2 0.51530543D-03 0.24880473D+00 0.22367290D+04 0.22367290D+04 0.22367290D+04 0.12832136D+01  1  2 11  1  6  2        1 0.690211320164D-05 0.100000000000D+01
0.123959622874D-10 0.000000000000D+00 0.000000000000D+00 0.200897178121D-07 0.000000000000D+00  6 22 21 9900012 13 2 -1 2 0.51044669D-03 0.25117300D+00 0.22367290D+04 0.22367290D+04 0.22367290D+04 0.12832136D+01  1  2 12  3  6  2        1 0.327587432893D-08 0.100000000000D+01
-.655264096574D-07 0.000000000000D+00 -.847814584943D-08 0.200897178121D-07 0.000000000000D+00  6 22 21 9900012 13 2 -1 2 0.51044669D-03 0.25021398D+00 0.21773126D+04 0.21773126D+04 0.21773126D+04 0.12846726D+01  1  2  5  3  6  2        1 -.175740209536D-04 0.100000000000D+01
0.140698144078D-07 0.000000000000D+00 0.000000000000D+00 0.200897178121D-07 0.603816679611D-09  6 22 21 9900012 13 2 -1 2 0.51530543D-03 0.24880473D+00 0.22367290D+04 0.22367290D+04 0.22367290D+04 0.12832136D+01  1  2 11  3  6  2        1 0.379441287238D-05 0.100000000000D+01
  </mgrwgt>
  </event>
  <event>
  7     66 0.15202802E-05 0.39643065E+02 0.78161638E-02 0.11405114E+00
       22 -1    0    0    0    0 0.00000000E+00 0.00000000E+00 0.15806849E+03 0.15806849E+03 0.00000000E+00 0.0000E+00 0.9000E+01
       21 -1    0    0  501  502 0.00000000E+00 0.00000000E+00 -.38710088E+03 0.38710088E+03 0.00000000E+00 0.0000E+00 0.9000E+01
      -24  2    1    2    0    0 -.56743976E+02 0.71865801E+02 0.80247120E+02 0.14537373E+03 0.79431410E+02 0.0000E+00 0.0000E+00
  9900012  1    3    3    0    0 -.29675356E+02 0.30365838E+02 0.22645301E+02 0.69393952E+02 0.50000000E+02 0.0000E+00 0.9000E+01
       13  1    3    3    0    0 -.27068620E+02 0.41499963E+02 0.57601820E+02 0.75979779E+02 0.00000000E+00 0.0000E+00 0.9000E+01
        4  1    1    2  501    0 -.38168731E+01 -.49609355E+02 0.27528255E+02 0.56863533E+02 0.00000000E+00 0.0000E+00 0.9000E+01
       -3  1    1    2    0  502 0.60560849E+02 -.22256447E+02 -.33680776E+03 0.34293211E+03 0.00000000E+00 0.0000E+00 0.9000E+01
#aMCatNLO 2  0  0  2  2 0.65228982D+02 0.00000000D+00  -5  6  0 0.00000000D+00 0.00000000D+00 0.00000000D+00 0.00000000D+00 0.00000000D+00
  <mgrwgt>
 0.8367339625D-04    1    2    0
 0.792486804197400D+02 0.000000000000000D+00 0.000000000000000D+00 0.792486804197400D+02
 0.792486804197400D+02 0.000000000000000D+00 0.000000000000000D+00 -.792486804197400D+02
 0.575431453689646D+02 -.665605845981132D+01 0.219061187631531D+02 -.169420313264969D+02
 0.416091753100983D+02 -.959170547521073D+01 0.350771009378625D+02 0.202217616902759D+02
 0.593450401604170D+02 0.162477639350221D+02 -.569832197010156D+02 -.327973036377902D+01
 0.000000000000000D+00 0.000000000000000D+00 -.000000000000000D+00 -.000000000000000D+00
 0.872537156457847D+02 0.000000000000000D+00 0.000000000000000D+00 0.872537156457847D+02
 0.701270462075326D+03 0.000000000000000D+00 0.000000000000000D+00 -.701270462075326D+03
 0.677476443720536D+02 -.296753564339780D+02 0.303658379270292D+02 -.169420313264969D+02
 0.535152013498001D+02 -.270686195841190D+02 0.414999634151837D+02 0.202217616902759D+02
 0.498639471989878D+02 -.381687311195893D+01 -.496093547493973D+02 -.327973036377902D+01
 0.617397384800270D+03 0.605608491300559D+02 -.222564465928155D+02 -.614016746429542D+03
0.153347051950D-05 0.000000000000D+00 0.000000000000D+00 0.176462926972D-06 0.542738201858D-09  6 22 21 9900012 13 4 -3 2 0.24318230D-01 0.59553982D-01 0.13158338D+05 0.13158338D+05 0.13158338D+05 0.11971670D+01  1  2  1  3  6  2        3 0.836733962540D-04 0.100000000000D+01
  </mgrwgt>
  </event>
  <event>
  6     66 0.15202802E-05 0.15477226E+02 0.78161638E-02 0.12968194E+00
       22 -1    0    0    0    0 0.00000000E+00 0.00000000E+00 0.20835860E+01 0.20835860E+01 0.00000000E+00 0.0000E+00 0.9000E+01
        1 -1    0    0  501    0 0.00000000E+00 0.00000000E+00 -.13504266E+04 0.13504266E+04 0.00000000E+00 0.0000E+00 0.9000E+01
      -24  2    1    2    0    0 -.10984397E+02 -.10903557E+02 -.91734762E+03 0.92123698E+03 0.83134718E+02 0.0000E+00 0.0000E+00
  9900012  1    3    3    0    0 -.16055410E+02 0.17335424E+02 -.55133324E+03 0.55409985E+03 0.50000000E+02 0.0000E+00 0.9000E+01
       13  1    3    3    0    0 0.50710133E+01 -.28238982E+02 -.36601437E+03 0.36713713E+03 0.00000000E+00 0.0000E+00 0.9000E+01
        2  1    1    2  501    0 0.10984397E+02 0.10903557E+02 -.43099538E+03 0.43127319E+03 0.00000000E+00 0.0000E+00 0.9000E+01
#aMCatNLO 1  0  0  2  5 0.14151616D+01 0.00000000D+00  -5  6  0 0.00000000D+00 0.00000000D+00 0.00000000D+00 0.00000000D+00 0.00000000D+00
  <mgrwgt>
 0.4680097782D-03   11    2    0
 0.530446028405700D+02 0.000000000000000D+00 0.000000000000000D+00 0.530446028405700D+02
 0.530446028405700D+02 0.000000000000000D+00 0.000000000000000D+00 -.530446028405700D+02
 0.569271625952862D+02 -.160554103838433D+02 0.173354244957519D+02 0.135058763547062D+02
 0.286908829285847D+02 0.507101330791477D+01 -.282389817460527D+02 -.107224991516182D+00
 0.204711601572692D+02 0.109843970759285D+02 0.109035572503008D+02 -.133986513631900D+02
 0.000000000000000D+00 -.000000000000000D+00 -.000000000000000D+00 -.000000000000000D+00
 0.534905682613847D+02 0.000000000000000D+00 0.000000000000000D+00 0.534905682613847D+02
 0.537322690023541D+02 0.000000000000000D+00 0.000000000000000D+00 -.537322690023541D+02
 0.570298968963047D+02 -.158220291127014D+02 0.178791453557312D+02 0.135058763547062D+02
 0.284437217711070D+02 0.518802358117465D+01 -.279663766390020D+02 -.107224991516182D+00
 0.206213073497509D+02 0.110685534445109D+02 0.110996208541816D+02 -.133986513631900D+02
 0.112791124657618D+01 -.434547912984212D+00 -.101238957091079D+01 -.241700740969420D+00
0.275168481676D-06 0.000000000000D+00 0.000000000000D+00 0.207629765933D-07 0.000000000000D+00  6 22 1 9900012 13 2 21 0 0.32055169D-03 0.20775794D+00 0.24735576D+04 0.24735576D+04 0.24735576D+04 0.12778048D+01  1  2  2  1  6  2        1 0.130782736496D-03 0.100000000000D+01
0.166807244367D-07 0.000000000000D+00 -.528359711580D-09 0.207629765933D-07 0.000000000000D+00  6 22 1 9900012 13 2 21 2 0.32055169D-03 0.20775794D+00 0.24735576D+04 0.24735576D+04 0.24735576D+04 0.12778048D+01  1  2  3  1  6  2        1 0.129448094366D-04 0.100000000000D+01
-.282746906758D-07 0.000000000000D+00 0.000000000000D+00 0.207629765933D-07 0.000000000000D+00  6 22 1 9900012 13 2 21 2 0.32055169D-03 0.20775794D+00 0.24735576D+04 0.24735576D+04 0.24735576D+04 0.12778048D+01  1  2 15  1  6  2        1 -.219421215228D-04 0.100000000000D+01
0.168505819959D-10 0.000000000000D+00 0.000000000000D+00 0.207629765933D-07 0.000000000000D+00  6 22 1 9900012 13 2 21 2 0.32055169D-03 0.21222064D+00 0.25315034D+04 0.25315034D+04 0.25315034D+04 0.12765701D+01  1  2 12  1  6  2        1 0.125296753590D-07 0.100000000000D+01
-.174898279469D-06 0.000000000000D+00 0.000000000000D+00 0.207629765933D-07 0.000000000000D+00  6 22 1 9900012 13 2 21 2 0.32055169D-03 0.20775794D+00 0.24735576D+04 0.24735576D+04 0.24735576D+04 0.12778048D+01  1  2  4  1  6  2        1 -.135727012763D-03 0.100000000000D+01
-.131804940804D-04 0.000000000000D+00 -.155274762991D-05 0.207629765933D-07 0.000000000000D+00  6 22 1 9900012 13 2 21 2 0.32055169D-03 0.21151878D+00 0.24735576D+04 0.24735576D+04 0.24735576D+04 0.12778048D+01  1  2  5  1  6  2        1 -.986511829857D-02 0.100000000000D+01
0.132064751638D-04 0.000000000000D+00 0.155249778790D-05 0.207629765933D-07 0.000000000000D+00  6 22 1 9900012 13 2 21 2 0.32055169D-03 0.20775794D+00 0.24735576D+04 0.24735576D+04 0.24735576D+04 0.12778048D+01  1  2  6  1  6  2        1 0.102486738495D-01 0.100000000000D+01
0.172283790827D-06 0.000000000000D+00 0.000000000000D+00 0.207629765933D-07 0.198320294850D-07  6 22 1 9900012 13 2 21 2 0.32324668D-03 0.21045129D+00 0.25315034D+04 0.25315034D+04 0.25315034D+04 0.12765701D+01  1  2 11  1  6  2        1 0.128896993873D-03 0.100000000000D+01
0.982583544861D-12 0.000000000000D+00 0.000000000000D+00 0.207629765933D-07 0.000000000000D+00  6 22 21 9900012 13 2 -1 2 0.32055169D-03 0.21222064D+00 0.25315034D+04 0.25315034D+04 0.25315034D+04 0.12765701D+01  1  2 12  3  6  2        1 0.822540013452D-09 0.100000000000D+01
-.429836450706D-07 0.000000000000D+00 -.508533784828D-08 0.207629765933D-07 0.000000000000D+00  6 22 21 9900012 13 2 -1 2 0.32055169D-03 0.21151878D+00 0.24735576D+04 0.24735576D+04 0.24735576D+04 0.12778048D+01  1  2  5  3  6  2        1 -.363911358201D-04 0.100000000000D+01
0.691173352598D-08 0.000000000000D+00 0.000000000000D+00 0.207629765933D-07 0.329687986430D-09  6 22 21 9900012 13 2 -1 2 0.32324668D-03 0.21045129D+00 0.25315034D+04 0.25315034D+04 0.25315034D+04 0.12765701D+01  1  2 11  3  6  2        1 0.587660529847D-05 0.100000000000D+01
  </mgrwgt>
  </event>
  <event>
  6     66 -.15202802E-05 0.12502850E+02 0.78161638E-02 0.13210067E+00
       22 -1    0    0    0    0 0.00000000E+00 0.00000000E+00 0.18094117E+04 0.18094117E+04 0.00000000E+00 0.0000E+00 0.9000E+01
        1 -1    0    0  501    0 0.00000000E+00 0.00000000E+00 -.11592956E+02 0.11592956E+02 0.00000000E+00 0.0000E+00 0.9000E+01
      -24  2    1    2    0    0 -.57588075E+01 -.11097630E+02 0.18048375E+04 0.18066664E+04 0.80304494E+02 0.0000E+00 0.0000E+00
  9900012  1    3    3    0    0 0.17951988E+02 -.87722443E+01 0.14681464E+04 0.14691334E+04 0.50000000E+02 0.0000E+00 0.9000E+01
       13  1    3    3    0    0 -.23710795E+02 -.23253860E+01 0.33669114E+03 0.33753301E+03 0.00000000E+00 0.0000E+00 0.9000E+01
        2  1    1    2  501    0 0.57588075E+01 0.11097630E+02 -.70187790E+01 0.14338219E+02 0.00000000E+00 0.0000E+00 0.9000E+01
#aMCatNLO 1  0  0  5  2 0.70748221D+01 0.00000000D+00  -5  6  0 0.00000000D+00 0.00000000D+00 0.00000000D+00 0.00000000D+00 0.00000000D+00
  <mgrwgt>
 -.2735050342D-04    1    2    0
 0.144832423226899D+03 0.000000000000000D+00 0.000000000000000D+00 0.144832423226899D+03
 0.144832423226899D+03 -.000000000000000D+00 -.000000000000000D+00 -.144832423226899D+03
 0.123721352260682D+03 0.179519875408575D+02 -.877224428237790D+01 0.111390066338049D+03
 0.322425765618079D+02 -.237107950884706D+02 -.232538595105666D+01 0.217249745637418D+02
 0.133700917631308D+03 0.575880754761314D+01 0.110976302334346D+02 -.133115040901790D+03
 0.000000000000000D+00 -.000000000000000D+00 0.000000000000000D+00 0.000000000000000D+00
 0.144832423226899D+03 0.000000000000000D+00 0.000000000000000D+00 0.144832423226899D+03
 0.144832423226899D+03 -.000000000000000D+00 -.000000000000000D+00 -.144832423226899D+03
 0.107208625931683D+03 0.187613975063619D+02 -.721245392123826D+01 0.926805262512131D+02
 0.289297872855874D+02 -.234963858493622D+02 -.191220415350843D+01 0.167688973901843D+02
 0.545348121420922D+02 0.498925492610745D+02 0.493521439094139D+01 -.214574677564708D+02
 0.989916210944351D+02 -.451575609180742D+02 0.418944368380535D+01 -.879919558849265D+02
-.253927245145D-05 0.000000000000D+00 0.000000000000D+00 0.133536670997D-04 0.000000000000D+00  6 22 1 9900012 13 2 21 2 0.27837103D+00 0.17835317D-02 0.20327412D+04 0.20327412D+04 0.20327412D+04 0.12884199D+01  1  2 14  2  6  5        2 -.273505034182D-04 0.100000000000D+01
  </mgrwgt>
  </event>
  <event>
  6     66 -.15202802E-05 0.14256450E+03 0.78161638E-02 0.99782327E-01
       22 -1    0    0    0    0 0.00000000E+00 0.00000000E+00 0.18423260E+04 0.18423260E+04 0.00000000E+00 0.0000E+00 0.9000E+01
        1 -1    0    0  501    0 0.00000000E+00 0.00000000E+00 -.49130600E+03 0.49130600E+03 0.00000000E+00 0.0000E+00 0.9000E+01
      -24  2    1    2    0    0 0.20674120E+03 0.74811814E+02 0.18098320E+04 0.18248618E+04 0.79310133E+02 0.0000E+00 0.0000E+00
  9900012  1    3    3    0    0 0.13968253E+03 0.25665344E+02 0.11537125E+04 0.11634958E+04 0.50000000E+02 0.0000E+00 0.9000E+01
       13  1    3    3    0    0 0.67058667E+02 0.49146471E+02 0.65611952E+03 0.66136606E+03 0.00000000E+00 0.0000E+00 0.9000E+01
        2  1    1    2  501    0 -.20674120E+03 -.74811814E+02 -.45881195E+03 0.50877022E+03 0.00000000E+00 0.0000E+00 0.9000E+01
#aMCatNLO 1  0  0  2  5 0.14670520D+03 0.00000000D+00  -5  6  0 0.00000000D+00 0.00000000D+00 0.00000000D+00 0.00000000D+00 0.00000000D+00
  <mgrwgt>
 -.6158305335D-04    7    2    0
 0.951391531237841D+03 0.000000000000000D+00 0.000000000000000D+00 0.951391531237841D+03
 0.951391531237841D+03 0.000000000000000D+00 0.000000000000000D+00 -.951391531237841D+03
 0.607784642764098D+03 0.139682530214040D+03 0.256653435163373D+02 0.588839751439281D+03
 0.345259756154492D+03 0.670586669575324D+02 0.491464707420550D+02 0.335100072842932D+03
 0.949738663557093D+03 -.206741197171572D+03 -.748118142583922D+02 -.923939824282213D+03
 0.000000000000000D+00 0.000000000000000D+00 0.000000000000000D+00 -.000000000000000D+00
 0.957038449976072D+03 0.000000000000000D+00 0.000000000000000D+00 0.957038449976072D+03
 0.284311396401968D+04 0.000000000000000D+00 0.000000000000000D+00 -.284311396401968D+04
 0.602236961107589D+03 0.115178161782362D+03 -.138237295063930D+02 0.588839751439281D+03
 0.340347306337491D+03 0.531743131535108D+02 0.267716740698160D+02 0.335100072842932D+03
 0.965820886825586D+03 -.245533543378619D+03 -.137326128649486D+03 -.923939824282213D+03
 0.189174725972509D+04 0.771810684427466D+02 0.124378184086063D+03 -.188607551404361D+04
0.252217340864D-03 0.000000000000D+00 0.000000000000D+00 0.262893465150D-03 0.000000000000D+00  6 22 1 9900012 13 2 21 0 0.28343478D+00 0.75585539D-01 0.51430512D+05 0.51430512D+05 0.51430512D+05 0.11418852D+01  1  2  2  1  6  2        1 0.139916306499D-04 0.100000000000D+01
0.191924127765D-05 0.000000000000D+00 -.484290499635D-06 0.262893465150D-03 0.000000000000D+00  6 22 1 9900012 13 2 21 2 0.28343478D+00 0.75585539D-01 0.51430512D+05 0.51430512D+05 0.51430512D+05 0.11418852D+01  1  2  3  1  6  2        1 0.138825066370D-06 0.100000000000D+01
-.368412343003D-04 0.000000000000D+00 0.000000000000D+00 0.262893465150D-03 0.000000000000D+00  6 22 1 9900012 13 2 21 2 0.28343478D+00 0.75585539D-01 0.51430512D+05 0.51430512D+05 0.51430512D+05 0.11418852D+01  1  2 15  1  6  2        1 -.266484826918D-05 0.100000000000D+01
0.245251256141D-02 0.000000000000D+00 0.000000000000D+00 0.262893465150D-03 0.000000000000D+00  6 22 1 9900012 13 2 21 2 0.28343478D+00 0.22721856D+00 0.94114442D+05 0.94114442D+05 0.94114442D+05 0.11197775D+01  1  2 12  1  6  2        1 0.265368324174D-04 0.100000000000D+01
-.799154527601D-02 0.000000000000D+00 -.737470631275D-04 0.262893465150D-03 0.000000000000D+00  6 22 1 9900012 13 2 21 2 0.28343478D+00 0.22614886D+00 0.51430512D+05 0.51430512D+05 0.51430512D+05 0.11418852D+01  1  2  5  1  6  2        1 -.920009529350D-04 0.100000000000D+01
0.307250566375D-03 0.000000000000D+00 0.000000000000D+00 0.262893465150D-03 0.000000000000D+00  6 22 21 9900012 13 2 -1 2 0.28343478D+00 0.22721856D+00 0.94114442D+05 0.94114442D+05 0.94114442D+05 0.11197775D+01  1  2 12  3  6  2        1 0.299549096452D-05 0.100000000000D+01
-.992289228451D-03 0.000000000000D+00 -.919117966202D-05 0.262893465150D-03 0.000000000000D+00  6 22 21 9900012 13 2 -1 2 0.28343478D+00 0.22614886D+00 0.51430512D+05 0.51430512D+05 0.51430512D+05 0.11418852D+01  1  2  5  3  6  2        1 -.105800312471D-04 0.100000000000D+01
  </mgrwgt>
  </event>
  <event>
  6     66 0.15202802E-05 0.23219084E+02 0.78161638E-02 0.12682753E+00
       22 -1    0    0    0    0 0.00000000E+00 0.00000000E+00 0.17052981E+02 0.17052981E+02 0.00000000E+00 0.0000E+00 0.9000E+01
        1 -1    0    0  501    0 0.00000000E+00 0.00000000E+00 -.17123741E+03 0.17123741E+03 0.00000000E+00 0.0000E+00 0.9000E+01
      -24  2    1    2    0    0 0.23128639E+02 0.70078431E+01 -.11823698E+03 0.14497454E+03 0.80334239E+02 0.0000E+00 0.0000E+00
  9900012  1    3    3    0    0 0.12920016E+02 -.39931542E+01 -.40359133E+02 0.65663778E+02 0.50000000E+02 0.0000E+00 0.9000E+01
       13  1    3    3    0    0 0.10208623E+02 0.11000997E+02 -.77877846E+02 0.79310761E+02 0.00000000E+00 0.0000E+00 0.9000E+01
        2  1    1    2  501    0 -.23128639E+02 -.70078431E+01 -.35947449E+02 0.43315850E+02 0.00000000E+00 0.0000E+00 0.9000E+01
#aMCatNLO 1  0  0  2  5 0.23197055D+02 0.00000000D+00  -5  6  0 0.00000000D+00 0.00000000D+00 0.00000000D+00 0.00000000D+00 0.00000000D+00
  <mgrwgt>
 0.1930343302D-03    9    2    0
 0.540380255181831D+02 0.000000000000000D+00 0.000000000000000D+00 0.540380255181831D+02
 0.540380255181831D+02 0.000000000000000D+00 0.000000000000000D+00 -.540380255181831D+02
 0.568221023462316D+02 0.129200161373757D+02 -.399315423355215D+01 0.233640582374432D+02
 0.270726298398376D+02 0.102086227079192D+02 0.110009972978317D+02 -.225319632368181D+02
 0.241813188502969D+02 -.231286388452949D+02 -.700784306427956D+01 -.832095000625053D+00
 0.000000000000000D+00 -.000000000000000D+00 -.000000000000000D+00 -.000000000000000D+00
 0.601728503477813D+02 0.000000000000000D+00 0.000000000000000D+00 0.601728503477813D+02
 0.743583512022795D+02 0.000000000000000D+00 0.000000000000000D+00 -.743583512022795D+02
 0.590920285164606D+02 0.208847316081572D+02 0.313314578703225D+01 0.233640582374432D+02
 0.303160715419665D+02 0.141519268964755D+02 0.145292047803423D+02 -.225319632368181D+02
 0.205212257144458D+02 -.200570284589835D+02 -.425956947691806D+01 -.832095000625053D+00
 0.246018757771878D+02 -.149796300456492D+02 -.134027810904565D+02 -.141855008544982D+02
0.212813846548D-06 0.000000000000D+00 0.000000000000D+00 0.277086399767D-06 0.000000000000D+00  6 22 1 9900012 13 2 21 0 0.26235355D-02 0.26344217D-01 0.20689478D+04 0.20689478D+04 0.20689478D+04 0.12874537D+01  1  2  2  1  6  2        1 0.109875967095D-03 0.100000000000D+01
-.378137189143D-08 0.000000000000D+00 -.408630602959D-09 0.277086399767D-06 0.000000000000D+00  6 22 1 9900012 13 2 21 2 0.26235355D-02 0.26344217D-01 0.20689478D+04 0.20689478D+04 0.20689478D+04 0.12874537D+01  1  2  3  1  6  2        1 -.323605173081D-05 0.100000000000D+01
-.237253556240D-07 0.000000000000D+00 0.000000000000D+00 0.277086399767D-06 0.000000000000D+00  6 22 1 9900012 13 2 21 2 0.26235355D-02 0.26344217D-01 0.20689478D+04 0.20689478D+04 0.20689478D+04 0.12874537D+01  1  2 15  1  6  2        1 -.203038686317D-04 0.100000000000D+01
0.125652076443D-06 0.000000000000D+00 0.000000000000D+00 0.277086399767D-06 0.000000000000D+00  6 22 1 9900012 13 2 21 2 0.26235355D-02 0.40366090D-01 0.33156886D+04 0.33156886D+04 0.33156886D+04 0.12624428D+01  1  2 12  1  6  2        1 0.647629485648D-04 0.100000000000D+01
-.529328848076D-07 0.000000000000D+00 0.000000000000D+00 0.277086399767D-06 0.000000000000D+00  6 22 1 9900012 13 2 21 2 0.26235355D-02 0.26344217D-01 0.20689478D+04 0.20689478D+04 0.20689478D+04 0.12874537D+01  1  2  4  1  6  2        1 -.452993142215D-04 0.100000000000D+01
-.222050817903D-06 0.000000000000D+00 -.841392353528D-07 0.277086399767D-06 0.000000000000D+00  6 22 1 9900012 13 2 21 2 0.26235355D-02 0.39850352D-01 0.20689478D+04 0.20689478D+04 0.20689478D+04 0.12874537D+01  1  2  5  1  6  2        1 -.115201246649D-03 0.100000000000D+01
0.242529474213D-06 0.000000000000D+00 0.774136183660D-07 0.277086399767D-06 0.000000000000D+00  6 22 1 9900012 13 2 21 2 0.26235355D-02 0.26344217D-01 0.20689478D+04 0.20689478D+04 0.20689478D+04 0.12874537D+01  1  2  6  1  6  2        1 0.207553752271D-03 0.100000000000D+01
0.627417561534D-08 0.000000000000D+00 0.000000000000D+00 0.277086399767D-06 0.000000000000D+00  6 22 21 9900012 13 2 -1 2 0.26235355D-02 0.40366090D-01 0.33156886D+04 0.33156886D+04 0.33156886D+04 0.12624428D+01  1  2 12  3  6  2        1 0.181522764401D-04 0.100000000000D+01
-.783225741359D-08 0.000000000000D+00 -.410694674920D-08 0.277086399767D-06 0.000000000000D+00  6 22 21 9900012 13 2 -1 2 0.26235355D-02 0.39850352D-01 0.20689478D+04 0.20689478D+04 0.20689478D+04 0.12874537D+01  1  2  5  3  6  2        1 -.232701329043D-04 0.100000000000D+01
  </mgrwgt>
  </event>
</LesHouchesEvents>
