<LesHouchesEvents version="3.0">
  <!--
  <scalesfunctionalform>
    muR  H_T/2 := sum_i mT(i)/2, i=final state
    muF1 H_T/2 := sum_i mT(i)/2, i=final state
    muF2 H_T/2 := sum_i mT(i)/2, i=final state
    QES  H_T/2 := sum_i mT(i)/2, i=final state
  </scalesfunctionalform>
PYTHIA8   
  -->
  <header>
        6
  </header>
  <init>
   2212   2212 0.65000000D+04 0.65000000D+04 -1 -1  82200  82200 -4   1
 0.27242164D-05 0.49122015D-07 0.90412767D-06     66
  </init>
  <event>
  6     66 -.90412767E-06 0.41660685E+02 0.78161638E-02 0.12047961E+00
       22 -1    0    0    0    0 0.00000000E+00 0.00000000E+00 0.28944466E+02 0.28944466E+02 0.00000000E+00 0.0000E+00 0.9000E+01
        2 -1    0    0  502    0 0.00000000E+00 0.00000000E+00 -.77751466E+03 0.77751466E+03 0.00000000E+00 0.0000E+00 0.9000E+01
  9900012  1    1    2    0    0 0.48550898E+02 0.17949052E+02 -.66330301E+02 0.97872708E+02 0.50000000E+02 0.0000E+00 0.9000E+01
      -11  1    1    2    0    0 0.10374779E+02 -.23880681E+02 -.30117266E+01 0.26210560E+02 0.00000000E+00 0.0000E+00 0.9000E+01
        1  1    1    2  501    0 -.48147726E+02 -.13594505E+01 -.61248506E+03 0.61437611E+03 0.00000000E+00 0.0000E+00 0.9000E+01
       21  1    1    2  502  501 -.10777951E+02 0.72910791E+01 -.66743106E+02 0.67999752E+02 0.00000000E+00 0.0000E+00 0.9000E+01
#aMCatNLO 2  0  0  2  5 0.14551422D+02 0.00000000D+00  -5  6  0 0.00000000D+00 0.00000000D+00 0.00000000D+00 0.00000000D+00 0.00000000D+00
  <mgrwgt>
 -.6741536541D-05    2    2    0
 0.141655167643840D+03 0.000000000000000D+00 0.000000000000000D+00 0.141655167643840D+03
 0.141655167643840D+03 0.000000000000000D+00 0.000000000000000D+00 -.141655167643840D+03
 0.940905014814758D+02 0.449488854616186D+02 0.203857448214666D+02 0.625862730386460D+02
 0.600614233285326D+02 0.807310645360196D+01 -.223236427253158D+02 0.551711382872463D+02
 0.129158410477672D+03 -.530219919152205D+02 0.193789790384922D+01 -.117757411325892D+03
 0.000000000000000D+00 -.000000000000000D+00 0.000000000000000D+00 -.000000000000000D+00
 0.144951085009355D+03 0.000000000000000D+00 0.000000000000000D+00 0.144951085009355D+03
 0.155257526171224D+03 0.000000000000000D+00 0.000000000000000D+00 -.155257526171224D+03
 0.953750475412221D+02 0.485508975549253D+02 0.179490519870428D+02 0.625862730386460D+02
 0.610063721654983D+02 0.103747790570326D+02 -.238806805682455D+02 0.551711382872463D+02
 0.127227589556407D+03 -.481477259737819D+02 -.135945051834221D+01 -.117757411325892D+03
 0.165996019174512D+02 -.107779506381760D+02 0.729107909954496D+01 -.103064411618691D+02
-.711196320967D-07 0.000000000000D+00 0.000000000000D+00 0.314660352975D-06 0.000000000000D+00  6 22 2 9900012 -11 1 21 2 0.43517420D-02 0.12240081D+00 0.63348931D+04 0.63348931D+04 0.63348931D+04 0.12304436D+01  1  2 13  1  6  2        2 -.754495611861D-05 0.100000000000D+01
0.760827303312D-08 0.000000000000D+00 0.000000000000D+00 0.314660352975D-06 0.639265889162D-08  6 22 2 9900012 -11 1 21 2 0.44529948D-02 0.11961764D+00 0.63348931D+04 0.63348931D+04 0.63348931D+04 0.12304436D+01  1  2  1  1  6  2        2 0.803419577236D-06 0.100000000000D+01
  </mgrwgt>
  </event>
  <event>
  5     66 0.90412767E-06 0.43532017E+02 0.78161638E-02 0.10366653E+00
       22 -1    0    0    0    0 0.00000000E+00 0.00000000E+00 0.19503606E+02 0.19503606E+02 0.00000000E+00 0.0000E+00 0.9000E+01
        2 -1    0    0  501    0 0.00000000E+00 0.00000000E+00 -.24387067E+04 0.24387067E+04 0.00000000E+00 0.0000E+00 0.9000E+01
  9900012  1    1    2    0    0 -.21472636E+02 -.42757317E+02 -.60984158E+02 0.92240608E+02 0.50000000E+02 0.0000E+00 0.9000E+01
      -11  1    1    2    0    0 -.10928007E+02 0.13684394E+02 -.17201047E+02 0.24547098E+02 0.00000000E+00 0.0000E+00 0.9000E+01
        1  1    1    2  501    0 0.32400643E+02 0.29072922E+02 -.23410179E+04 0.23414226E+04 0.00000000E+00 0.0000E+00 0.9000E+01
#aMCatNLO 1  0  0  2  5 0.65492563D+02 0.00000000D+00  -5  6  0 0.00000000D+00 0.00000000D+00 0.00000000D+00 0.00000000D+00 0.00000000D+00
  <mgrwgt>
 0.1238704039D-03    3    2    0
 0.218090747141285D+03 0.000000000000000D+00 0.000000000000000D+00 0.218090747141285D+03
 0.218090747141285D+03 0.000000000000000D+00 0.000000000000000D+00 -.218090747141285D+03
 0.181607311278899D+03 -.214726361721894D+02 -.427573169445805D+02 0.167904595688946D+03
 0.429387824663534D+02 -.109280070144889D+02 0.136843944824834D+02 0.392052936480761D+02
 0.211635400537318D+03 0.324006431866783D+02 0.290729224620971D+02 -.207109889337022D+03
 0.000000000000000D+00 -.000000000000000D+00 -.000000000000000D+00 0.000000000000000D+00
 0.635584968339525D+03 0.000000000000000D+00 0.000000000000000D+00 0.635584968339525D+03
 0.271528316994803D+03 0.000000000000000D+00 0.000000000000000D+00 -.271528316994803D+03
 0.179035814056975D+03 0.347875597884148D+01 0.367391850537685D+02 0.167904595688946D+03
 0.525567202885638D+02 -.432107187416508D+01 0.347344517060045D+02 0.392052936480761D+02
 0.253777692963906D+03 0.646006320187359D+02 0.131663850496897D+03 -.207109889337022D+03
 0.421743058024883D+03 -.637583161234123D+02 -.203137487256670D+03 0.364056651344723D+03
0.989801571025D-05 0.000000000000D+00 0.000000000000D+00 0.254196054534D-05 0.000000000000D+00  6 22 2 9900012 -11 1 21 0 0.30005548D-02 0.37518564D+00 0.42411945D+04 0.42411945D+04 0.42411945D+04 0.12499762D+01  1  2  2  1  6  2        2 0.153187562609D-03 0.100000000000D+01
0.483155256787D-06 0.000000000000D+00 -.190054932674D-07 0.254196054534D-05 0.000000000000D+00  6 22 2 9900012 -11 1 21 2 0.30005548D-02 0.37518564D+00 0.42411945D+04 0.42411945D+04 0.42411945D+04 0.12499762D+01  1  2  3  1  6  2        2 0.116833018762D-04 0.100000000000D+01
-.169554705475D-05 0.000000000000D+00 0.000000000000D+00 0.254196054534D-05 0.000000000000D+00  6 22 2 9900012 -11 1 21 2 0.30005548D-02 0.37518564D+00 0.42411945D+04 0.42411945D+04 0.42411945D+04 0.12499762D+01  1  2 15  1  6  2        2 -.410004606340D-04 0.100000000000D+01
  </mgrwgt>
  </event>
  <event>
  5     66 0.90412767E-06 0.70998356E+02 0.78161638E-02 0.11146082E+00
       22 -1    0    0    0    0 0.00000000E+00 0.00000000E+00 0.29340357E+03 0.29340357E+03 0.00000000E+00 0.0000E+00 0.9000E+01
        2 -1    0    0  501    0 0.00000000E+00 0.00000000E+00 -.17087604E+03 0.17087604E+03 0.00000000E+00 0.0000E+00 0.9000E+01
  9900012  1    1    2    0    0 0.90749059E+02 -.40691285E+02 0.84790425E+02 0.13993066E+03 0.50000000E+02 0.0000E+00 0.9000E+01
      -11  1    1    2    0    0 -.21742127E+02 -.26925210E+02 0.16273072E+03 0.16636999E+03 0.00000000E+00 0.0000E+00 0.9000E+01
        1  1    1    2  501    0 -.69006932E+02 0.67616495E+02 -.12499362E+03 0.15797896E+03 0.00000000E+00 0.0000E+00 0.9000E+01
#aMCatNLO 1  0  0  2  5 0.47727994D+02 0.00000000D+00  -5  6  0 0.00000000D+00 0.00000000D+00 0.00000000D+00 0.00000000D+00 0.00000000D+00
  <mgrwgt>
 0.5543753404D-05    6    2    0
 0.223909893728975D+03 0.000000000000000D+00 0.000000000000000D+00 0.223909893728975D+03
 0.223909893728975D+03 0.000000000000000D+00 0.000000000000000D+00 -.223909893728975D+03
 0.121874447908988D+03 0.907490588511489D+02 -.406912848900460D+02 0.496206479678414D+02
 0.127960409049576D+03 -.217421266787332D+02 -.269252101427338D+02 0.123191636365422D+03
 0.197984930499387D+03 -.690069321724157D+02 0.676164950327798D+02 -.172812284333263D+03
 0.000000000000000D+00 0.000000000000000D+00 0.000000000000000D+00 0.000000000000000D+00
 0.246514175368758D+03 0.000000000000000D+00 0.000000000000000D+00 0.246514175368758D+03
 0.228836067002605D+03 0.000000000000000D+00 0.000000000000000D+00 -.228836067002605D+03
 0.118601500766467D+03 0.855048178229022D+02 -.423442252070127D+02 0.496206479678414D+02
 0.129413411853338D+03 -.273548723965898D+02 -.286943000140721D+02 0.123191636365422D+03
 0.200273382469605D+03 -.776920526437815D+02 0.648790186834837D+02 -.172812284333263D+03
 0.270619472819541D+02 0.195421072174691D+02 0.615950653760108D+01 0.176781083661531D+02
0.286164873081D-06 0.000000000000D+00 0.000000000000D+00 0.106299246687D-07 0.000000000000D+00  6 22 2 9900012 -11 1 21 0 0.45139011D-01 0.26288622D-01 0.14705881D+05 0.14705881D+05 0.14705881D+05 0.11923423D+01  1  2  2  1  6  2        2 0.365294417643D-05 0.100000000000D+01
0.248877496158D-08 0.000000000000D+00 -.549474230787D-09 0.106299246687D-07 0.000000000000D+00  6 22 2 9900012 -11 1 21 2 0.45139011D-01 0.26288622D-01 0.14705881D+05 0.14705881D+05 0.14705881D+05 0.11923423D+01  1  2  3  1  6  2        2 0.451662713779D-07 0.100000000000D+01
-.415995819336D-07 0.000000000000D+00 0.000000000000D+00 0.106299246687D-07 0.000000000000D+00  6 22 2 9900012 -11 1 21 2 0.45139011D-01 0.26288622D-01 0.14705881D+05 0.14705881D+05 0.14705881D+05 0.11923423D+01  1  2 15  1  6  2        2 -.754948935046D-06 0.100000000000D+01
0.156170204744D-06 0.000000000000D+00 0.000000000000D+00 0.106299246687D-07 0.000000000000D+00  6 22 2 9900012 -11 1 21 2 0.45139011D-01 0.29579282D-01 0.18100412D+05 0.18100412D+05 0.18100412D+05 0.11834940D+01  1  2 12  1  6  2        2 0.247844279966D-05 0.100000000000D+01
-.669598064184D-08 0.000000000000D+00 0.000000000000D+00 0.106299246687D-07 0.000000000000D+00  6 22 2 9900012 -11 1 21 2 0.45139011D-01 0.26288622D-01 0.14705881D+05 0.14705881D+05 0.14705881D+05 0.11923423D+01  1  2  4  1  6  2        2 -.121518611959D-06 0.100000000000D+01
0.292020706829D-08 0.000000000000D+00 0.000000000000D+00 0.106299246687D-07 0.000000000000D+00  6 22 21 9900012 -11 1 -2 2 0.45139011D-01 0.29579282D-01 0.18100412D+05 0.18100412D+05 0.18100412D+05 0.11834940D+01  1  2 12  3  6  2        2 0.243667703824D-06 0.100000000000D+01
  </mgrwgt>
  </event>
  <event>
  5     66 0.90412767E-06 0.28833976E+02 0.78161638E-02 0.12625221E+00
       22 -1    0    0    0    0 0.00000000E+00 0.00000000E+00 0.72508713E+02 0.72508713E+02 0.00000000E+00 0.0000E+00 0.9000E+01
        4 -1    0    0  501    0 0.00000000E+00 0.00000000E+00 -.20331612E+04 0.20331612E+04 0.00000000E+00 0.0000E+00 0.9000E+01
  9900012  1    1    2    0    0 0.96384154E+01 -.87015268E+01 -.90150097E+02 0.10390214E+03 0.50000000E+02 0.0000E+00 0.9000E+01
      -11  1    1    2    0    0 0.14750296E+01 -.23366550E+02 0.63391020E+02 0.67576570E+02 0.00000000E+00 0.0000E+00 0.9000E+01
        3  1    1    2  501    0 -.11113445E+02 0.32068076E+02 -.19338934E+04 0.19341912E+04 0.00000000E+00 0.0000E+00 0.9000E+01
#aMCatNLO 1  0  0  2  5 0.97986956D+01 0.00000000D+00  -5  6  0 0.00000000D+00 0.00000000D+00 0.00000000D+00 0.00000000D+00 0.00000000D+00
  <mgrwgt>
 0.3644638663D-05   11    2    0
 0.383955598643332D+03 0.000000000000000D+00 0.000000000000000D+00 0.383955598643332D+03
 0.383955598643332D+03 0.000000000000000D+00 0.000000000000000D+00 -.383955598643332D+03
 0.547336821745973D+02 0.963841544399306D+01 -.870152682385575D+01 0.180875742722053D+02
 0.347151744329359D+03 0.147502956769823D+01 -.233665496352265D+02 0.346361317466076D+03
 0.366025770782707D+03 -.111134450116913D+02 0.320680764590823D+02 -.364448891738281D+03
 0.000000000000000D+00 -.000000000000000D+00 -.000000000000000D+00 -.000000000000000D+00
 0.384207793133590D+03 0.000000000000000D+00 0.000000000000000D+00 0.384207793133590D+03
 0.492307870724784D+03 0.000000000000000D+00 0.000000000000000D+00 -.492307870724784D+03
 0.548105086521416D+02 0.102856217480065D+02 -.844023109345241D+01 0.180875742722053D+02
 0.347085884751179D+03 0.557670731649760D+01 -.217105847958769D+02 0.346361317466076D+03
 0.366077154956239D+03 -.678805244501150D+01 0.338143613808811D+02 -.364448891738281D+03
 0.108542115498815D+03 -.907427661949260D+01 -.366354549155174D+01 -.108100077591195D+03
0.128743789353D-05 0.000000000000D+00 0.000000000000D+00 0.107883654004D-05 0.000000000000D+00  6 22 4 9900012 -11 3 21 0 0.11155187D-01 0.31279403D+00 0.29708450D+04 0.29708450D+04 0.29708450D+04 0.12681329D+01  1  2  2  1  6  2        4 0.451580980209D-07 0.100000000000D+01
0.676914686734D-07 0.000000000000D+00 -.247205025066D-08 0.107883654004D-05 0.000000000000D+00  6 22 4 9900012 -11 3 21 2 0.11155187D-01 0.31279403D+00 0.29708450D+04 0.29708450D+04 0.29708450D+04 0.12681329D+01  1  2  3  1  6  2        4 0.381832433379D-08 0.100000000000D+01
-.227073450107D-06 0.000000000000D+00 0.000000000000D+00 0.107883654004D-05 0.000000000000D+00  6 22 4 9900012 -11 3 21 2 0.11155187D-01 0.31279403D+00 0.29708450D+04 0.29708450D+04 0.29708450D+04 0.12681329D+01  1  2 15  1  6  2        4 -.128087053966D-07 0.100000000000D+01
0.972914270148D-04 0.000000000000D+00 0.000000000000D+00 0.107883654004D-05 0.000000000000D+00  6 22 4 9900012 -11 3 21 2 0.11155187D-01 0.40132794D+00 0.35064335D+04 0.35064335D+04 0.35064335D+04 0.12595761D+01  1  2 12  1  6  2        4 0.168421550630D-05 0.100000000000D+01
-.289778269008D-04 0.000000000000D+00 0.000000000000D+00 0.107883654004D-05 0.000000000000D+00  6 22 4 9900012 -11 3 21 2 0.11155187D-01 0.31279403D+00 0.29708450D+04 0.29708450D+04 0.29708450D+04 0.12681329D+01  1  2  4  1  6  2        4 -.163457439710D-05 0.100000000000D+01
-.963412162744D-04 0.000000000000D+00 -.507348637400D-06 0.107883654004D-05 0.000000000000D+00  6 22 4 9900012 -11 3 21 2 0.11155187D-01 0.40113379D+00 0.29708450D+04 0.29708450D+04 0.29708450D+04 0.12681329D+01  1  2  5  1  6  2        4 -.169026607212D-05 0.100000000000D+01
0.935727794165D-04 0.000000000000D+00 0.492046882776D-06 0.107883654004D-05 0.000000000000D+00  6 22 4 9900012 -11 3 21 2 0.11155187D-01 0.31279403D+00 0.29708450D+04 0.29708450D+04 0.29708450D+04 0.12681329D+01  1  2  6  1  6  2        4 0.527823118080D-05 0.100000000000D+01
0.712762894928D-11 0.000000000000D+00 0.000000000000D+00 0.107883654004D-05 0.458178933533D-07  6 22 4 9900012 -11 3 21 2 0.11162514D-01 0.40106451D+00 0.35064335D+04 0.35064335D+04 0.35064335D+04 0.12595761D+01  1  2 11  1  6  2        4 0.123698570170D-12 0.100000000000D+01
0.328520908814D-05 0.000000000000D+00 0.000000000000D+00 0.107883654004D-05 0.000000000000D+00  6 22 21 9900012 -11 3 -4 2 0.11155187D-01 0.40132794D+00 0.35064335D+04 0.35064335D+04 0.35064335D+04 0.12595761D+01  1  2 12  3  6  2        4 0.191928700521D-05 0.100000000000D+01
-.324002733977D-05 0.000000000000D+00 -.171069246100D-07 0.107883654004D-05 0.000000000000D+00  6 22 21 9900012 -11 3 -4 2 0.11155187D-01 0.40113379D+00 0.29708450D+04 0.29708450D+04 0.29708450D+04 0.12681329D+01  1  2  5  3  6  2        4 -.194842278941D-05 0.100000000000D+01
0.664010918458D-12 0.000000000000D+00 0.000000000000D+00 0.107883654004D-05 0.347736847525D-08  6 22 21 9900012 -11 3 -4 2 0.11162514D-01 0.40106451D+00 0.35064335D+04 0.35064335D+04 0.35064335D+04 0.12595761D+01  1  2 11  3  6  2        4 0.388858798315D-12 0.100000000000D+01
  </mgrwgt>
  </event>
  <event>
  6     66 -.90412767E-06 0.64952737E+02 0.78161638E-02 0.11672355E+00
       22 -1    0    0    0    0 0.00000000E+00 0.00000000E+00 0.56772294E+02 0.56772294E+02 0.00000000E+00 0.0000E+00 0.9000E+01
        2 -1    0    0  501    0 -.00000000E+00 -.00000000E+00 -.65525895E+03 0.65525895E+03 0.00000000E+00 0.0000E+00 0.9000E+01
  9900012  1    1    2    0    0 -.23486094E+02 0.52098934E+02 -.82844404E+01 0.76384078E+02 0.50000000E+02 0.0000E+00 0.9000E+01
      -11  1    1    2    0    0 0.22497377E+02 0.40959939E+01 0.10079656E+02 0.24990170E+02 0.00000000E+00 0.0000E+00 0.9000E+01
        1  1    1    2  502    0 0.11891608E+02 -.74792019E+02 -.55879583E+03 0.56390427E+03 0.00000000E+00 0.0000E+00 0.9000E+01
       21  1    1    2  501  502 -.10902892E+02 0.18597091E+02 -.41486050E+02 0.46752724E+02 0.00000000E+00 0.0000E+00 0.9000E+01
#aMCatNLO 2  0  0  5  2 0.30582729D+02 0.00000000D+00  -5  6  0 0.00000000D+00 0.00000000D+00 0.00000000D+00 0.00000000D+00 0.00000000D+00
  <mgrwgt>
 -.5917832265D-05    2    2    0
 0.192874450908060D+03 0.000000000000000D+00 0.000000000000000D+00 0.192874450908060D+03
 0.192874450908060D+03 -.000000000000000D+00 -.000000000000000D+00 -.192874450908060D+03
 0.136362363727645D+03 -.235390522775688D+02 0.551089101437677D+02 0.111819565738874D+03
 0.657339774114965D+02 0.224718489588001D+02 0.554692100098301D+01 0.615240071688837D+02
 0.183652560676979D+03 0.106720331876867D+01 -.606558311447507D+02 -.173343572907758D+03
 0.000000000000000D+00 -.000000000000000D+00 0.000000000000000D+00 0.000000000000000D+00
 0.192874450908060D+03 0.000000000000000D+00 0.000000000000000D+00 0.192874450908060D+03
 0.192874450908060D+03 -.000000000000000D+00 -.000000000000000D+00 -.192874450908060D+03
 0.128139635413608D+03 -.234860935320176D+02 0.520989338147050D+02 0.103217588956092D+03
 0.617664022190276D+02 0.224973771596623D+02 0.409599387801089D+01 0.573775156151772D+02
 0.173910065940437D+03 0.118916079264532D+02 -.747920189461228D+02 -.156554957118239D+03
 0.219327982430467D+02 -.109028915540979D+02 0.185970912534069D+02 -.404014745303058D+01
-.121412969529D-06 0.000000000000D+00 0.000000000000D+00 0.781003158077D-06 0.000000000000D+00  6 22 2 9900012 -11 1 21 2 0.87341990D-02 0.10080907D+00 0.96127881D+04 0.96127881D+04 0.96127881D+04 0.12111117D+01  1  2 13  2  6  5        1 -.608509842461D-05 0.100000000000D+01
0.333737924536D-08 0.000000000000D+00 0.000000000000D+00 0.781003158077D-06 0.296797878227D-09  6 22 2 9900012 -11 1 21 2 0.87341990D-02 0.10080907D+00 0.96127881D+04 0.96127881D+04 0.96127881D+04 0.12111117D+01  1  2  1  2  6  5        1 0.167266160007D-06 0.100000000000D+01
  </mgrwgt>
  </event>
  <event>
  5     66 0.90412767E-06 0.32558084E+02 0.78161638E-02 0.12498500E+00
       22 -1    0    0    0    0 0.00000000E+00 0.00000000E+00 0.19189881E+04 0.19189881E+04 0.00000000E+00 0.0000E+00 0.9000E+01
        4 -1    0    0  501    0 0.00000000E+00 0.00000000E+00 -.38054911E+02 0.38054911E+02 0.00000000E+00 0.0000E+00 0.9000E+01
  9900012  1    1    2    0    0 0.27693116E+02 0.13365308E+02 0.12376082E+04 0.12389995E+04 0.50000000E+02 0.0000E+00 0.9000E+01
      -11  1    1    2    0    0 0.77040968E+01 -.14949443E+02 0.67215403E+03 0.67236439E+03 0.00000000E+00 0.0000E+00 0.9000E+01
        3  1    1    2  501    0 -.35397212E+02 0.15841344E+01 -.28829055E+02 0.45679170E+02 0.00000000E+00 0.0000E+00 0.9000E+01
#aMCatNLO 1  0  0  5  2 0.17887051D+02 0.00000000D+00  -5  6  0 0.00000000D+00 0.00000000D+00 0.00000000D+00 0.00000000D+00 0.00000000D+00
  <mgrwgt>
 0.1375301921D-04    7    2    0
 0.270234940469787D+03 0.000000000000000D+00 0.000000000000000D+00 0.270234940469787D+03
 0.270234940469787D+03 -.000000000000000D+00 -.000000000000000D+00 -.270234940469787D+03
 0.179319609692411D+03 0.276931156277243D+02 0.133653084601469D+02 0.169440202717163D+03
 0.954155229292002D+02 0.770409683366032D+01 -.149494428418668D+02 0.939216858161525D+02
 0.265734748317962D+03 -.353972124613846D+02 0.158413438171984D+01 -.263361888533316D+03
 0.000000000000000D+00 -.000000000000000D+00 0.000000000000000D+00 0.000000000000000D+00
 0.270234940469787D+03 0.000000000000000D+00 0.000000000000000D+00 0.270234940469787D+03
 0.270234940469787D+03 -.000000000000000D+00 -.000000000000000D+00 -.270234940469787D+03
 0.177202791949627D+03 0.273981871912946D+02 0.133785074168954D+02 0.167245879927338D+03
 0.942528470811396D+02 0.754719618576366D+01 -.149424210541732D+02 0.927543156175177D+02
 0.242027178027153D+03 -.276200893333162D+02 0.178682907420181D+02 -.239781170559670D+03
 0.269870638816536D+02 -.732529404374211D+01 -.163043771047403D+02 -.202190249851863D+02
0.221698495130D-05 0.000000000000D+00 0.000000000000D+00 0.208073096892D-05 0.000000000000D+00  6 22 4 9900012 -11 3 21 0 0.29522894D+00 0.58546017D-02 0.30774302D+04 0.30774302D+04 0.30774302D+04 0.12662974D+01  1  2  2  2  6  5        3 0.147936751216D-05 0.100000000000D+01
0.128172631917D-06 0.000000000000D+00 -.425690297927D-08 0.208073096892D-05 0.000000000000D+00  6 22 4 9900012 -11 3 21 2 0.29522894D+00 0.58546017D-02 0.30774302D+04 0.30774302D+04 0.30774302D+04 0.12662974D+01  1  2  3  2  6  5        3 0.137145027181D-06 0.100000000000D+01
-.364536910549D-06 0.000000000000D+00 0.000000000000D+00 0.208073096892D-05 0.000000000000D+00  6 22 4 9900012 -11 3 21 2 0.29522894D+00 0.58546017D-02 0.30774302D+04 0.30774302D+04 0.30774302D+04 0.12662974D+01  1  2 15  2  6  5        3 -.390055378892D-06 0.100000000000D+01
0.106431469044D-04 0.000000000000D+00 0.000000000000D+00 0.208073096892D-05 0.000000000000D+00  6 22 4 9900012 -11 3 21 2 0.29522894D+00 0.58546017D-02 0.39736481D+04 0.39736481D+04 0.39736481D+04 0.12532389D+01  1  2 12  2  6  5        3 0.114870415100D-04 0.100000000000D+01
-.196432862497D-06 0.000000000000D+00 0.000000000000D+00 0.208073096892D-05 0.000000000000D+00  6 22 4 9900012 -11 3 21 2 0.29522894D+00 0.58546017D-02 0.30774302D+04 0.30774302D+04 0.30774302D+04 0.12662974D+01  1  2  4  2  6  5        3 -.210183639546D-06 0.100000000000D+01
-.109477256722D-04 0.000000000000D+00 0.000000000000D+00 0.208073096892D-05 0.000000000000D+00  6 22 4 9900012 -11 3 21 2 0.29522894D+00 0.58546017D-02 0.30774302D+04 0.30774302D+04 0.30774302D+04 0.12662974D+01  1  2  5  2  6  5        3 -.117140930356D-04 0.100000000000D+01
0.121156708552D-04 0.000000000000D+00 -.000000000000D+00 0.208073096892D-05 0.000000000000D+00  6 22 4 9900012 -11 3 21 2 0.29522894D+00 0.58546017D-02 0.30774302D+04 0.30774302D+04 0.30774302D+04 0.12662974D+01  1  2  6  2  6  5        3 0.129637972156D-04 0.100000000000D+01
  </mgrwgt>
  </event>
</LesHouchesEvents>
