<LesHouchesEvents version="3.0">
  <!--
  <scalesfunctionalform>
    muR  H_T/2 := sum_i mT(i)/2, i=final state
    muF1 H_T/2 := sum_i mT(i)/2, i=final state
    muF2 H_T/2 := sum_i mT(i)/2, i=final state
    QES  H_T/2 := sum_i mT(i)/2, i=final state
  </scalesfunctionalform>
PYTHIA8   
  -->
  <header>
       72
  </header>
  <init>
   2212   2212 0.65000000D+04 0.65000000D+04 -1 -1  82200  82200 -4   1
 0.56881099D-04 0.24383891D-06 0.14665890D-05     66
  </init>
  <event>
  7     66 -.14665890E-05 0.48017526E+02 0.78161638E-02 0.12078979E+00
       22 -1    0    0    0    0 0.00000000E+00 0.00000000E+00 0.80479458E+03 0.80479458E+03 0.00000000E+00 0.0000E+00 0.9000E+01
       -1 -1    0    0    0  501 0.00000000E+00 0.00000000E+00 -.12941690E+03 0.12941690E+03 0.00000000E+00 0.0000E+00 0.9000E+01
       24  2    1    2    0    0 -.55107512E+01 0.61820636E+02 0.79284124E+03 0.79906182E+03 0.77784268E+02 0.0000E+00 0.0000E+00
  9900012  1    3    3    0    0 0.10937194E+02 0.47301777E+02 0.43489017E+03 0.44043903E+03 0.50000000E+02 0.0000E+00 0.9000E+01
      -13  1    3    3    0    0 -.16447945E+02 0.14518859E+02 0.35795107E+03 0.35862279E+03 0.00000000E+00 0.0000E+00 0.9000E+01
       -2  1    1    2    0  502 -.22107659E+01 -.53608154E+02 -.82485560E+02 0.98400149E+02 0.00000000E+00 0.0000E+00 0.9000E+01
       21  1    1    2  502  501 0.77215171E+01 -.82124826E+01 -.34978003E+02 0.36749523E+02 0.00000000E+00 0.0000E+00 0.9000E+01
#aMCatNLO 2  0  0  5  2 0.11163036D+02 0.00000000D+00  -5  6  0 0.00000000D+00 0.00000000D+00 0.00000000D+00 0.00000000D+00 0.00000000D+00
  <mgrwgt>
 -.2670337591D-04    2    2    0
 0.322729025484096D+03 0.000000000000000D+00 0.000000000000000D+00 0.322729025484096D+03
 0.322729025484096D+03 -.000000000000000D+00 -.000000000000000D+00 -.322729025484096D+03
 0.182687454722057D+03 0.109324399649645D+02 0.473551057529274D+02 0.168856986317905D+03
 0.144728468911803D+03 -.164517108526412D+02 0.145611056220571D+02 0.143051197571496D+03
 0.318042127334332D+03 0.551927088767669D+01 -.619162113749844D+02 -.311908183889401D+03
 0.000000000000000D+00 0.000000000000000D+00 0.000000000000000D+00 -.000000000000000D+00
 0.322729025484096D+03 0.000000000000000D+00 0.000000000000000D+00 0.322729025484096D+03
 0.322729025484096D+03 -.000000000000000D+00 -.000000000000000D+00 -.322729025484096D+03
 0.182425625426589D+03 0.109371937054104D+02 0.473017774049878D+02 0.168588340226901D+03
 0.144513438819117D+03 -.164479449482401D+02 0.145188590033167D+02 0.142838376634391D+03
 0.228729745151663D+03 -.221076587337613D+01 -.536081537916286D+02 -.222347868616838D+03
 0.897892415708227D+02 0.772151711620582D+01 -.821248261667588D+01 -.890788482444542D+02
-.238366617513D-03 0.000000000000D+00 0.000000000000D+00 0.279191168189D-04 0.000000000000D+00  6 22 -1 9900012 -13 -2 21 2 0.12381455D+00 0.19910293D-01 0.61276133D+04 0.61276133D+04 0.61276133D+04 0.12320265D+01  1  2 13  2  6  5       -2 -.547499974831D-03 0.100000000000D+01
0.226740692977D-03 0.000000000000D+00 0.000000000000D+00 0.279191168189D-04 0.239507783208D-05  6 22 -1 9900012 -13 -2 21 2 0.12381455D+00 0.19910293D-01 0.61276133D+04 0.61276133D+04 0.61276133D+04 0.12320265D+01  1  2  1  2  6  5       -2 0.520796598924D-03 0.100000000000D+01
  </mgrwgt>
  </event>
  <event>
  7     66 -.14665890E-05 0.64326895E+02 0.78161638E-02 0.11908231E+00
       22 -1    0    0    0    0 0.00000000E+00 0.00000000E+00 0.55857459E+03 0.55857459E+03 0.00000000E+00 0.0000E+00 0.9000E+01
       -3 -1    0    0    0  502 0.00000000E+00 0.00000000E+00 -.15719316E+02 0.15719316E+02 0.00000000E+00 0.0000E+00 0.9000E+01
       24  2    1    2    0    0 0.61180204E+02 -.10776726E+02 0.36754306E+03 0.38121512E+03 0.79861821E+02 0.0000E+00 0.0000E+00
  9900012  1    3    3    0    0 0.38842036E+02 0.50036753E+01 0.32107025E+03 0.32729168E+03 0.50000000E+02 0.0000E+00 0.9000E+01
      -13  1    3    3    0    0 0.22338169E+02 -.15780401E+02 0.46472814E+02 0.53923439E+02 0.00000000E+00 0.0000E+00 0.9000E+01
       -4  1    1    2    0  501 -.66847805E+02 0.20258048E+02 0.15060264E+03 0.16601257E+03 0.00000000E+00 0.0000E+00 0.9000E+01
       21  1    1    2  501  502 0.56676002E+01 -.94813222E+01 0.24709566E+02 0.27066212E+02 0.00000000E+00 0.0000E+00 0.9000E+01
#aMCatNLO 2  0  0  2  5 0.14051970D+02 0.00000000D+00  -5  6  0 0.00000000D+00 0.00000000D+00 0.00000000D+00 0.00000000D+00 0.00000000D+00
  <mgrwgt>
 -.2425254689D-04    2    2    0
 0.878367195271709D+02 0.000000000000000D+00 0.000000000000000D+00 0.878367195271709D+02
 0.878367195271709D+02 0.000000000000000D+00 0.000000000000000D+00 -.878367195271709D+02
 0.735148174879903D+02 0.411932948236860D+02 0.107025663777677D+01 0.347332031720473D+02
 0.324746473804681D+02 0.233585161054495D+02 -.174873394482006D+02 -.142539610936962D+02
 0.696839741858834D+02 -.645518109291354D+02 0.164170828104239D+02 -.204792420783510D+02
 0.000000000000000D+00 0.000000000000000D+00 -.000000000000000D+00 -.000000000000000D+00
 0.922873723513652D+02 0.000000000000000D+00 0.000000000000000D+00 0.922873723513652D+02
 0.951420564435078D+02 0.000000000000000D+00 0.000000000000000D+00 -.951420564435078D+02
 0.723887830592464D+02 0.388420357793805D+02 0.500367532132619D+01 0.347332031720473D+02
 0.308413724257810D+02 0.223381686728947D+02 -.157804013442759D+02 -.142539610936962D+02
 0.727902250137551D+02 -.668478046413665D+02 0.202580481803920D+02 -.204792420783510D+02
 0.114090482960905D+02 0.566760018909131D+01 -.948132215744226D+01 -.285468409214260D+01
-.357019803807D-06 0.000000000000D+00 0.000000000000D+00 0.396385156046D-06 0.000000000000D+00  6 22 -3 9900012 -13 -4 21 2 0.81790270D-01 0.25408935D-02 0.73751767D+04 0.73751767D+04 0.73751767D+04 0.12232875D+01  1  2 13  1  6  2       -3 -.340261140917D-04 0.100000000000D+01
0.104539533340D-06 0.000000000000D+00 0.000000000000D+00 0.396385156046D-06 0.693638872652D-08  6 22 -3 9900012 -13 -4 21 2 0.85934552D-01 0.24183563D-02 0.73751767D+04 0.73751767D+04 0.73751767D+04 0.12232875D+01  1  2  1  1  6  2       -3 0.977356720545D-05 0.100000000000D+01
  </mgrwgt>
  </event>
  <event>
  7     66 0.14665890E-05 0.40242471E+02 0.78161638E-02 0.11965794E+00
       22 -1    0    0    0    0 0.00000000E+00 0.00000000E+00 0.53222935E+03 0.53222935E+03 0.00000000E+00 0.0000E+00 0.9000E+01
       -1 -1    0    0    0  502 0.00000000E+00 0.00000000E+00 -.18873347E+02 0.18873347E+02 0.00000000E+00 0.0000E+00 0.9000E+01
       24  2    1    2    0    0 0.33743271E+02 0.15432145E+02 0.37220080E+03 0.38212976E+03 0.78185409E+02 0.0000E+00 0.0000E+00
  9900012  1    3    3    0    0 0.35828665E+02 -.59079163E-01 0.34747489E+03 0.35287745E+03 0.50000000E+02 0.0000E+00 0.9000E+01
      -13  1    3    3    0    0 -.20853937E+01 0.15491224E+02 0.24725909E+02 0.29252307E+02 0.00000000E+00 0.0000E+00 0.9000E+01
       -2  1    1    2    0  501 0.22192541E+02 -.24007844E+02 0.75629674E+02 0.82393768E+02 0.00000000E+00 0.0000E+00 0.9000E+01
       21  1    1    2  501  502 -.55935812E+02 0.85756998E+01 0.65525529E+02 0.86579170E+02 0.00000000E+00 0.0000E+00 0.9000E+01
#aMCatNLO 2  0  0  2  5 0.10164334D-01 0.00000000D+00  -5  6  0 0.00000000D+00 0.00000000D+00 0.00000000D+00 0.00000000D+00 0.00000000D+00
  <mgrwgt>
 0.2108672290D-05    1    2    0
 0.548352460509911D+02 0.000000000000000D+00 0.000000000000000D+00 0.548352460509911D+02
 0.548352460509911D+02 0.000000000000000D+00 0.000000000000000D+00 -.548352460509911D+02
 0.574942435561557D+02 0.587103658320898D+01 0.453382147559791D+01 0.273964128009596D+02
 0.252106603767493D+02 -.130270169287632D+02 0.171687193817174D+02 -.130808754050085D+02
 0.269655881690772D+02 0.715598034555419D+01 -.217025408573153D+02 -.143155373959511D+02
 0.000000000000000D+00 -.000000000000000D+00 0.000000000000000D+00 -.000000000000000D+00
 0.719921306018114D+02 0.000000000000000D+00 0.000000000000000D+00 0.719921306018114D+02
 0.139528435099513D+03 0.000000000000000D+00 0.000000000000000D+00 -.139528435099513D+03
 0.673369150636535D+02 0.358286645799359D+02 -.590791634342809D-01 0.273964128009596D+02
 0.203822516858918D+02 -.208539374780727D+01 0.154912238168032D+02 -.130808754050085D+02
 0.356906160160037D+02 0.221925407477562D+02 -.240078444643855D+02 -.143155373959511D+02
 0.881107829357751D+02 -.559358115798848D+02 0.857569981101660D+01 -.675363044977012D+02
0.245134768903D-07 0.000000000000D+00 0.000000000000D+00 0.843784550838D-07 0.754255246477D-10  6 22 -1 9900012 -13 -2 21 2 0.81881439D-01 0.29035919D-02 0.69243960D+04 0.69243960D+04 0.69243960D+04 0.12262406D+01  1  2  1  1  6  2       -1 0.210867228971D-05 0.100000000000D+01
  </mgrwgt>
  </event>
  <event>
  6     66 0.14665890E-05 0.75437448E+02 0.78161638E-02 0.10546863E+00
       22 -1    0    0    0    0 0.00000000E+00 0.00000000E+00 0.29434279E+02 0.29434279E+02 0.00000000E+00 0.0000E+00 0.9000E+01
       -1 -1    0    0    0  501 0.00000000E+00 0.00000000E+00 -.91924979E+03 0.91924979E+03 0.00000000E+00 0.0000E+00 0.9000E+01
       24  2    1    2    0    0 0.82530277E+02 -.13027550E+03 -.50513520E+03 0.53424240E+03 0.80438928E+02 0.0000E+00 0.0000E+00
  9900012  1    3    3    0    0 0.25011193E+02 -.59634516E+02 -.20917561E+03 0.22458021E+03 0.50000000E+02 0.0000E+00 0.9000E+01
      -13  1    3    3    0    0 0.57519084E+02 -.70640987E+02 -.29595959E+03 0.30966219E+03 0.00000000E+00 0.0000E+00 0.9000E+01
       -2  1    1    2    0  501 -.82530277E+02 0.13027550E+03 -.38468032E+03 0.41444167E+03 0.00000000E+00 0.0000E+00 0.9000E+01
#aMCatNLO 1  0  0  2  5 0.14567790D+03 0.00000000D+00  -5  6  0 0.00000000D+00 0.00000000D+00 0.00000000D+00 0.00000000D+00 0.00000000D+00
  <mgrwgt>
 0.5719963670D-04    6    4    0
 0.164491503202538D+03 0.000000000000000D+00 0.000000000000000D+00 0.164491503202538D+03
 0.164491503202538D+03 0.000000000000000D+00 0.000000000000000D+00 -.164491503202538D+03
 0.818521481445945D+02 0.250111933826400D+02 -.596345155551659D+02 0.423543574635479D+01
 0.924733296897564D+02 0.575190840182414D+02 -.706409865061309D+02 -.158972545759798D+02
 0.154657528570724D+03 -.825302774008814D+02 0.130275502061297D+03 0.116618188296250D+02
 0.000000000000000D+00 -.000000000000000D+00 -.000000000000000D+00 0.000000000000000D+00
 0.242114681211870D+03 0.000000000000000D+00 0.000000000000000D+00 0.242114681211870D+03
 0.183259090082346D+03 0.000000000000000D+00 0.000000000000000D+00 -.183259090082346D+03
 0.731372014284086D+02 0.292101497228392D+02 -.444733456127086D+02 0.423543574635479D+01
 0.835835179076879D+02 0.622887989598902D+02 -.534189787145510D+02 -.158972545759798D+02
 0.179111791366080D+03 -.734878315426742D+02 0.162925057628060D+03 0.116618188296250D+02
 0.895412605920398D+02 -.180111171400552D+02 -.650327333008007D+02 0.588555911295242D+02
 0.164491503202538D+03 0.000000000000000D+00 0.000000000000000D+00 0.164491503202538D+03
 0.164491503202538D+03 0.000000000000000D+00 0.000000000000000D+00 -.164491503202538D+03
 0.818521481445945D+02 0.250111933826400D+02 -.596345155551659D+02 0.423543574635479D+01
 0.924733296897564D+02 0.575190840182414D+02 -.706409865061309D+02 -.158972545759798D+02
 0.000000000000000D+00 -.000000000000000D+00 -.000000000000000D+00 0.000000000000000D+00
 0.154657528570724D+03 -.825302774008814D+02 0.130275502061297D+03 0.116618188296250D+02
 0.242114681211870D+03 0.000000000000000D+00 0.000000000000000D+00 0.242114681211870D+03
 0.183259090082346D+03 0.000000000000000D+00 0.000000000000000D+00 -.183259090082346D+03
 0.731372014284086D+02 0.292101497228392D+02 -.444733456127086D+02 0.423543574635479D+01
 0.835835179076879D+02 0.622887989598902D+02 -.534189787145510D+02 -.158972545759798D+02
 0.895412605920398D+02 -.180111171400552D+02 -.650327333008007D+02 0.588555911295242D+02
 0.179111791366080D+03 -.734878315426742D+02 0.162925057628060D+03 0.116618188296250D+02
0.110657906337D-04 0.000000000000D+00 0.000000000000D+00 0.388644214774D-06 0.000000000000D+00  6 22 -1 9900012 -13 -2 21 0 0.45283506D-02 0.14142305D+00 0.26741462D+05 0.26741462D+05 0.26741462D+05 0.11674015D+01  1  2  2  1  6  2       -1 0.845072326043D-04 0.100000000000D+01
-.536843286055D-06 0.000000000000D+00 -.212477748616D-07 0.388644214774D-06 0.000000000000D+00  6 22 -1 9900012 -13 -2 21 2 0.45283506D-02 0.14142305D+00 0.26741462D+05 0.26741462D+05 0.26741462D+05 0.11674015D+01  1  2  3  1  6  2       -1 -.558726727996D-05 0.100000000000D+01
-.138949961623D-05 0.000000000000D+00 0.000000000000D+00 0.388644214774D-06 0.000000000000D+00  6 22 -1 9900012 -13 -2 21 2 0.45283506D-02 0.14142305D+00 0.26741462D+05 0.26741462D+05 0.26741462D+05 0.11674015D+01  1  2 15  1  6  2       -1 -.144614004551D-04 0.100000000000D+01
0.453150716622D-07 0.000000000000D+00 0.000000000000D+00 0.388644214774D-06 0.000000000000D+00  6 22 -1 9900012 -13 -2 21 2 0.45283506D-02 0.23191022D+00 0.40257370D+05 0.40257370D+05 0.40257370D+05 0.11512419D+01  1  2 12  1  6  2       -1 0.871782476458D-07 0.100000000000D+01
-.709559874500D-06 0.000000000000D+00 0.000000000000D+00 0.388644214774D-06 0.000000000000D+00  6 22 -1 9900012 -13 -2 21 2 0.45283506D-02 0.14142305D+00 0.26741462D+05 0.26741462D+05 0.26741462D+05 0.11674015D+01  1  2  4  1  6  2       -1 -.738483794610D-05 0.100000000000D+01
0.253312326073D-08 0.000000000000D+00 0.000000000000D+00 0.388644214774D-06 0.000000000000D+00  6 22 21 9900012 -13 1 -2 2 0.45283506D-02 0.23191022D+00 0.40257370D+05 0.40257370D+05 0.40257370D+05 0.11512419D+01  3  4 12  3  5  2       -1 0.387315287268D-07 0.100000000000D+01
  </mgrwgt>
  </event>
  <event>
  6     66 0.14665890E-05 0.57650435E+02 0.78161638E-02 0.11423002E+00
       22 -1    0    0    0    0 0.00000000E+00 0.00000000E+00 0.26046394E+03 0.26046394E+03 0.00000000E+00 0.0000E+00 0.9000E+01
       -1 -1    0    0    0  501 0.00000000E+00 0.00000000E+00 -.76880706E+02 0.76880706E+02 0.00000000E+00 0.0000E+00 0.9000E+01
       24  2    1    2    0    0 -.42739362E+02 0.85607701E+02 0.20394213E+03 0.23951921E+03 0.81373989E+02 0.0000E+00 0.0000E+00
  9900012  1    3    3    0    0 -.21066022E+02 0.81964750E+02 0.18872162E+03 0.21278592E+03 0.50000000E+02 0.0000E+00 0.9000E+01
      -13  1    3    3    0    0 -.21673341E+02 0.36429519E+01 0.15220514E+02 0.26733291E+02 0.00000000E+00 0.0000E+00 0.9000E+01
       -2  1    1    2    0  501 0.42739362E+02 -.85607701E+02 -.20358897E+02 0.97825438E+02 0.00000000E+00 0.0000E+00 0.9000E+01
#aMCatNLO 1  0  0  2  5 0.10756555D+02 0.00000000D+00  -5  6  0 0.00000000D+00 0.00000000D+00 0.00000000D+00 0.00000000D+00 0.00000000D+00
  <mgrwgt>
 0.5440998761D-04    9    4    0
 0.141508485588889D+03 0.000000000000000D+00 0.000000000000000D+00 0.141508485588889D+03
 0.141508485588889D+03 0.000000000000000D+00 0.000000000000000D+00 -.141508485588889D+03
 0.131214974854965D+03 -.210660217677666D+02 0.819647495151042D+02 0.869216439673991D+02
 0.219919720167215D+02 -.216733405449868D+02 0.364295193616327D+01 0.801276479184857D+00
 0.129810024306091D+03 0.427393623127535D+02 -.856077014512674D+02 -.877229204465839D+02
 0.000000000000000D+00 -.000000000000000D+00 0.000000000000000D+00 -.000000000000000D+00
 0.142017550871168D+03 0.000000000000000D+00 0.000000000000000D+00 0.142017550871168D+03
 0.211937461871564D+03 0.000000000000000D+00 0.000000000000000D+00 -.211937461871564D+03
 0.128198111728752D+03 -.210095817327673D+02 0.770582969980292D+02 0.869216439673991D+02
 0.218604272572180D+02 -.216637996579698D+02 0.281354229599864D+01 0.801276479184857D+00
 0.133161016957674D+03 0.427965764455029D+02 -.905814479353718D+02 -.877229204465839D+02
 0.707354567990873D+02 -.123195054765814D+00 0.107096086413439D+02 -.699199110003959D+02
 0.141508485588889D+03 0.000000000000000D+00 0.000000000000000D+00 0.141508485588889D+03
 0.141508485588889D+03 0.000000000000000D+00 0.000000000000000D+00 -.141508485588889D+03
 0.131214974854965D+03 -.210660217677666D+02 0.819647495151042D+02 0.869216439673991D+02
 0.219919720167215D+02 -.216733405449868D+02 0.364295193616327D+01 0.801276479184857D+00
 0.000000000000000D+00 -.000000000000000D+00 0.000000000000000D+00 -.000000000000000D+00
 0.129810024306091D+03 0.427393623127535D+02 -.856077014512674D+02 -.877229204465839D+02
 0.142017550871168D+03 0.000000000000000D+00 0.000000000000000D+00 0.142017550871168D+03
 0.211937461871564D+03 0.000000000000000D+00 0.000000000000000D+00 -.211937461871564D+03
 0.128198111728752D+03 -.210095817327673D+02 0.770582969980292D+02 0.869216439673991D+02
 0.218604272572180D+02 -.216637996579698D+02 0.281354229599864D+01 0.801276479184857D+00
 0.707354567990873D+02 -.123195054765814D+00 0.107096086413439D+02 -.699199110003959D+02
 0.133161016957674D+03 0.427965764455029D+02 -.905814479353718D+02 -.877229204465839D+02
0.204411709837D-06 0.000000000000D+00 0.000000000000D+00 0.580356520120D-06 0.000000000000D+00  6 22 -1 9900012 -13 -2 21 0 0.40071375D-01 0.11827801D-01 0.11659284D+05 0.11659284D+05 0.11659284D+05 0.12024809D+01  1  2  2  1  6  2       -1 0.539354495530D-05 0.100000000000D+01
-.161313971363D-08 0.000000000000D+00 -.392497394307D-09 0.580356520120D-06 0.000000000000D+00  6 22 -1 9900012 -13 -2 21 2 0.40071375D-01 0.11827801D-01 0.11659284D+05 0.11659284D+05 0.11659284D+05 0.12024809D+01  1  2  3  1  6  2       -1 -.615455787607D-07 0.100000000000D+01
-.254603510926D-07 0.000000000000D+00 0.000000000000D+00 0.580356520120D-06 0.000000000000D+00  6 22 -1 9900012 -13 -2 21 2 0.40071375D-01 0.11827801D-01 0.11659284D+05 0.11659284D+05 0.11659284D+05 0.12024809D+01  1  2 15  1  6  2       -1 -.971380240782D-06 0.100000000000D+01
0.459383436032D-05 0.000000000000D+00 0.000000000000D+00 0.580356520120D-06 0.000000000000D+00  6 22 -1 9900012 -13 -2 21 2 0.40071375D-01 0.17778241D-01 0.12878743D+05 0.12878743D+05 0.12878743D+05 0.11981055D+01  1  2 12  1  6  2       -1 0.944085507251D-04 0.100000000000D+01
-.297399075004D-05 0.000000000000D+00 0.000000000000D+00 0.580356520120D-06 0.000000000000D+00  6 22 -1 9900012 -13 -2 21 2 0.40071375D-01 0.11827801D-01 0.11659284D+05 0.11659284D+05 0.11659284D+05 0.12024809D+01  1  2  4  1  6  2       -1 -.113465672188D-03 0.100000000000D+01
-.462840411412D-05 0.000000000000D+00 -.787624568242D-07 0.580356520120D-06 0.000000000000D+00  6 22 -1 9900012 -13 -2 21 2 0.40071375D-01 0.17746196D-01 0.11659284D+05 0.11659284D+05 0.11659284D+05 0.12024809D+01  1  2  5  1  6  2       -1 -.954032697194D-04 0.100000000000D+01
0.430704966219D-05 0.000000000000D+00 0.726967210052D-07 0.580356520120D-06 0.000000000000D+00  6 22 -1 9900012 -13 -2 21 2 0.40071375D-01 0.11827801D-01 0.11659284D+05 0.11659284D+05 0.11659284D+05 0.12024809D+01  1  2  6  1  6  2       -1 0.164325422014D-03 0.100000000000D+01
0.221682235277D-06 0.000000000000D+00 0.000000000000D+00 0.580356520120D-06 0.000000000000D+00  6 22 21 9900012 -13 1 -2 2 0.40071375D-01 0.17778241D-01 0.12878743D+05 0.12878743D+05 0.12878743D+05 0.11981055D+01  3  4 12  3  5  2       -1 0.576403868005D-04 0.100000000000D+01
-.219881415133D-06 0.000000000000D+00 -.378839795212D-08 0.580356520120D-06 0.000000000000D+00  6 22 21 9900012 -13 1 -2 2 0.40071375D-01 0.17746196D-01 0.11659284D+05 0.11659284D+05 0.11659284D+05 0.12024809D+01  3  4  5  3  5  2       -1 -.574560491553D-04 0.100000000000D+01
  </mgrwgt>
  </event>
  <event>
  6     66 0.14665890E-05 0.88588205E+01 0.78161638E-02 0.11726282E+00
       22 -1    0    0    0    0 0.00000000E+00 0.00000000E+00 0.28569982E+03 0.28569982E+03 0.00000000E+00 0.0000E+00 0.9000E+01
       -1 -1    0    0    0  501 0.00000000E+00 0.00000000E+00 -.40312454E+02 0.40312454E+02 0.00000000E+00 0.0000E+00 0.9000E+01
       24  2    1    2    0    0 -.67149197E+01 0.57782829E+01 0.27979334E+03 0.29048411E+03 0.77577208E+02 0.0000E+00 0.0000E+00
  9900012  1    3    3    0    0 -.80522233E+01 0.22736221E+02 0.15715672E+03 0.16667336E+03 0.50000000E+02 0.0000E+00 0.9000E+01
      -13  1    3    3    0    0 0.13373036E+01 -.16957939E+02 0.12263662E+03 0.12381075E+03 0.00000000E+00 0.0000E+00 0.9000E+01
       -2  1    1    2    0  501 0.67149197E+01 -.57782829E+01 -.34405981E+02 0.35528161E+02 0.00000000E+00 0.0000E+00 0.9000E+01
#aMCatNLO 1  0  0  2  5 0.15955672D+02 0.00000000D+00  -5  6  0 0.00000000D+00 0.00000000D+00 0.00000000D+00 0.00000000D+00 0.00000000D+00
  <mgrwgt>
 0.5868785439D-04    3    2    0
 0.107318500506900D+03 0.000000000000000D+00 0.000000000000000D+00 0.107318500506900D+03
 0.107318500506900D+03 0.000000000000000D+00 0.000000000000000D+00 -.107318500506900D+03
 0.734882016655415D+02 -.805222325656149D+01 0.227362214887049D+02 0.481533147049956D+02
 0.478498368554368D+02 0.133730355776945D+01 -.169579385783723D+02 0.447241190573771D+02
 0.932989624928220D+02 0.671491969879203D+01 -.577828291033251D+01 -.928774337623727D+02
 0.000000000000000D+00 -.000000000000000D+00 0.000000000000000D+00 0.000000000000000D+00
 0.219766269659349D+03 0.000000000000000D+00 0.000000000000000D+00 0.219766269659349D+03
 0.124084872108490D+03 0.000000000000000D+00 0.000000000000000D+00 -.124084872108490D+03
 0.721540188437253D+02 0.133826379203521D+02 0.144348786110266D+02 0.481533147049956D+02
 0.526807525407790D+02 0.161328705314554D+02 -.226880001591073D+02 0.447241190573771D+02
 0.100768260299933D+03 0.352767197386862D+02 -.168397632426715D+02 -.928774337623727D+02
 0.118248110083403D+03 -.647922281904937D+02 0.250928847907522D+02 0.956813975508591D+02
0.103782182020D-05 0.000000000000D+00 0.000000000000D+00 0.726315924431D-06 0.000000000000D+00  6 22 -1 9900012 -13 -2 21 0 0.43953818D-01 0.62019159D-02 0.16558037D+04 0.16558037D+04 0.16558037D+04 0.12998186D+01  1  2  2  1  6  2       -1 0.500982952795D-04 0.100000000000D+01
0.273391227074D-06 0.000000000000D+00 -.199275452716D-08 0.726315924431D-06 0.000000000000D+00  6 22 -1 9900012 -13 -2 21 2 0.43953818D-01 0.62019159D-02 0.16558037D+04 0.16558037D+04 0.16558037D+04 0.12998186D+01  1  2  3  1  6  2       -1 0.222971954628D-04 0.100000000000D+01
-.168072595856D-06 0.000000000000D+00 0.000000000000D+00 0.726315924431D-06 0.000000000000D+00  6 22 -1 9900012 -13 -2 21 2 0.43953818D-01 0.62019159D-02 0.16558037D+04 0.16558037D+04 0.16558037D+04 0.12998186D+01  1  2 15  1  6  2       -1 -.137076363490D-04 0.100000000000D+01
  </mgrwgt>
  </event>
  <event>
  7     66 0.14665890E-05 0.31364051E+02 0.78161638E-02 0.12056292E+00
       22 -1    0    0    0    0 0.00000000E+00 0.00000000E+00 0.61959667E+03 0.61959667E+03 0.00000000E+00 0.0000E+00 0.9000E+01
       21 -1    0    0  502  501 0.00000000E+00 0.00000000E+00 -.17175419E+02 0.17175419E+02 0.00000000E+00 0.0000E+00 0.9000E+01
       24  2    1    2    0    0 -.95551505E+01 0.17664027E+02 0.10338826E+03 0.13003186E+03 0.76261623E+02 0.0000E+00 0.0000E+00
  9900012  1    3    3    0    0 0.18305393E+01 0.26164073E+02 0.10087689E+03 0.11560301E+03 0.50000000E+02 0.0000E+00 0.9000E+01
      -13  1    3    3    0    0 -.11385690E+02 -.85000458E+01 0.25113637E+01 0.14428848E+02 0.00000000E+00 0.0000E+00 0.9000E+01
        3  1    1    2  502    0 0.21068410E+02 0.31174272E+02 0.19550526E+03 0.19909299E+03 0.00000000E+00 0.0000E+00 0.9000E+01
       -4  1    1    2    0  501 -.11513259E+02 -.48838300E+02 0.30352774E+03 0.30764724E+03 0.00000000E+00 0.0000E+00 0.9000E+01
#aMCatNLO 2  0  0  2  5 0.16936749D+02 0.00000000D+00  -5  6  0 0.00000000D+00 0.00000000D+00 0.00000000D+00 0.00000000D+00 0.00000000D+00
  <mgrwgt>
 0.1037251766D-05    1    2    0
 0.783687674000522D+02 0.000000000000000D+00 0.000000000000000D+00 0.783687674000522D+02
 0.783687674000522D+02 0.000000000000000D+00 0.000000000000000D+00 -.783687674000522D+02
 0.663709233172983D+02 0.101543748871823D+02 0.384805941689537D+02 -.179229463271398D+02
 0.305506275595387D+02 -.718501211184299D+01 -.228443339192741D+01 -.296057056884675D+02
 0.000000000000000D+00 0.000000000000000D+00 0.000000000000000D+00 0.000000000000000D+00
 0.598159839232676D+02 -.296936277533928D+01 -.361961607770263D+02 0.475286520156074D+02
 0.118249656513880D+03 0.000000000000000D+00 0.000000000000000D+00 0.118249656513880D+03
 0.899946176430039D+02 0.000000000000000D+00 0.000000000000000D+00 -.899946176430039D+02
 0.592380079864563D+02 0.183053926770899D+01 0.261640729082323D+02 -.179229463271398D+02
 0.328387350556470D+02 -.113856897941968D+02 -.850004580300261D+01 -.296057056884675D+02
 0.470538030513732D+02 0.210684099650976D+02 0.311742724300865D+02 0.282550388708765D+02
 0.691137280634079D+02 -.115132594386098D+02 -.488382995353162D+02 0.475286520156074D+02
0.808234545745D-09 0.000000000000D+00 0.000000000000D+00 0.210845337358D-07 0.121441134614D-11  6 22 21 9900012 -13 3 -4 2 0.95322565D-01 0.26423722D-02 0.62784378D+04 0.62784378D+04 0.62784378D+04 0.12308689D+01  1  2  1  3  5  2       -3 0.103725176588D-05 0.100000000000D+01
  </mgrwgt>
  </event>
  <event>
  6     66 -.14665890E-05 0.18522537E+02 0.78161638E-02 0.13124970E+00
       22 -1    0    0    0    0 0.00000000E+00 0.00000000E+00 0.31792338E+03 0.31792338E+03 0.00000000E+00 0.0000E+00 0.9000E+01
       -1 -1    0    0    0  501 0.00000000E+00 0.00000000E+00 -.17529897E+02 0.17529897E+02 0.00000000E+00 0.0000E+00 0.9000E+01
       24  2    1    2    0    0 -.17520093E+02 -.60108849E+01 0.30572996E+03 0.31617732E+03 0.78448762E+02 0.0000E+00 0.0000E+00
  9900012  1    3    3    0    0 -.27078424E+02 -.12908807E+02 0.29332852E+03 0.29906771E+03 0.50000000E+02 0.0000E+00 0.9000E+01
      -13  1    3    3    0    0 0.95583310E+01 0.68979221E+01 0.12401441E+02 0.17109610E+02 0.00000000E+00 0.0000E+00 0.9000E+01
       -2  1    1    2    0  501 0.17520093E+02 0.60108849E+01 -.53364751E+01 0.19275953E+02 0.00000000E+00 0.0000E+00 0.9000E+01
#aMCatNLO 1  0  0  2  5 0.54381737D+01 0.00000000D+00  -5  6  0 0.00000000D+00 0.00000000D+00 0.00000000D+00 0.00000000D+00 0.00000000D+00
  <mgrwgt>
 -.1914987479D-04   11    4    0
 0.746536269269319D+02 0.000000000000000D+00 0.000000000000000D+00 0.746536269269319D+02
 0.746536269269319D+02 0.000000000000000D+00 0.000000000000000D+00 -.746536269269319D+02
 0.817727816122220D+02 -.270784237647017D+02 -.129088070048813D+02 0.573315749018821D+02
 0.134900525820601D+02 0.955833096007608D+01 0.689792211207556D+01 -.656037334761804D+01
 0.540444196595816D+02 0.175200928046256D+02 0.601088489280578D+01 -.507712015542641D+02
 0.000000000000000D+00 0.000000000000000D+00 0.000000000000000D+00 -.000000000000000D+00
 0.748364332953879D+02 0.000000000000000D+00 0.000000000000000D+00 0.748364332953879D+02
 0.129847999696208D+03 0.000000000000000D+00 0.000000000000000D+00 -.129847999696208D+03
 0.825764947889020D+02 -.279987668858520D+02 -.157491924797162D+02 0.573315749018821D+02
 0.131533660914397D+02 0.940912989489929D+01 0.643745413158109D+01 -.656037334761804D+01
 0.536759826190334D+02 0.169168669589414D+02 0.414919451804091D+01 -.507712015542641D+02
 0.552785894922211D+02 0.167277003201127D+01 0.516254383009417D+01 -.550115664008203D+02
 0.746536269269319D+02 0.000000000000000D+00 0.000000000000000D+00 0.746536269269319D+02
 0.746536269269319D+02 0.000000000000000D+00 0.000000000000000D+00 -.746536269269319D+02
 0.817727816122220D+02 -.270784237647017D+02 -.129088070048813D+02 0.573315749018821D+02
 0.134900525820601D+02 0.955833096007608D+01 0.689792211207556D+01 -.656037334761804D+01
 0.000000000000000D+00 0.000000000000000D+00 0.000000000000000D+00 -.000000000000000D+00
 0.540444196595816D+02 0.175200928046256D+02 0.601088489280578D+01 -.507712015542641D+02
 0.748364332953879D+02 0.000000000000000D+00 0.000000000000000D+00 0.748364332953879D+02
 0.129847999696208D+03 0.000000000000000D+00 0.000000000000000D+00 -.129847999696208D+03
 0.825764947889020D+02 -.279987668858520D+02 -.157491924797162D+02 0.573315749018821D+02
 0.131533660914397D+02 0.940912989489929D+01 0.643745413158109D+01 -.656037334761804D+01
 0.552785894922211D+02 0.167277003201127D+01 0.516254383009417D+01 -.550115664008203D+02
 0.536759826190334D+02 0.169168669589414D+02 0.414919451804091D+01 -.507712015542641D+02
0.280479052224D-07 0.000000000000D+00 0.000000000000D+00 0.446157513443D-06 0.000000000000D+00  6 22 -1 9900012 -13 -2 21 0 0.48911289D-01 0.26969072D-02 0.19633062D+04 0.19633062D+04 0.19633062D+04 0.12903290D+01  1  2  2  1  6  2       -1 0.374361530727D-05 0.100000000000D+01
0.216127099849D-08 0.000000000000D+00 -.538556706186D-10 0.446157513443D-06 0.000000000000D+00  6 22 -1 9900012 -13 -2 21 2 0.48911289D-01 0.26969072D-02 0.19633062D+04 0.19633062D+04 0.19633062D+04 0.12903290D+01  1  2  3  1  6  2       -1 0.480287075790D-06 0.100000000000D+01
-.397984829508D-08 0.000000000000D+00 0.000000000000D+00 0.446157513443D-06 0.000000000000D+00  6 22 -1 9900012 -13 -2 21 2 0.48911289D-01 0.26969072D-02 0.19633062D+04 0.19633062D+04 0.19633062D+04 0.12903290D+01  1  2 15  1  6  2       -1 -.884419261196D-06 0.100000000000D+01
0.631649504889D-06 0.000000000000D+00 0.000000000000D+00 0.446157513443D-06 0.000000000000D+00  6 22 -1 9900012 -13 -2 21 2 0.48911289D-01 0.47023237D-02 0.21937969D+04 0.21937969D+04 0.21937969D+04 0.12842634D+01  1  2 12  1  6  2       -1 0.646408307959D-04 0.100000000000D+01
-.119039877726D-05 0.000000000000D+00 0.000000000000D+00 0.446157513443D-06 0.000000000000D+00  6 22 -1 9900012 -13 -2 21 2 0.48911289D-01 0.26969072D-02 0.19633062D+04 0.19633062D+04 0.19633062D+04 0.12903290D+01  1  2  4  1  6  2       -1 -.264535612681D-03 0.100000000000D+01
-.108451422419D-05 0.000000000000D+00 -.912862438502D-08 0.446157513443D-06 0.000000000000D+00  6 22 -1 9900012 -13 -2 21 2 0.48911289D-01 0.46975005D-02 0.19633062D+04 0.19633062D+04 0.19633062D+04 0.12903290D+01  1  2  5  1  6  2       -1 -.110747824413D-03 0.100000000000D+01
0.942020944826D-06 0.000000000000D+00 0.788334864187D-08 0.446157513443D-06 0.000000000000D+00  6 22 -1 9900012 -13 -2 21 2 0.48911289D-01 0.26969072D-02 0.19633062D+04 0.19633062D+04 0.19633062D+04 0.12903290D+01  1  2  6  1  6  2       -1 0.209340006523D-03 0.100000000000D+01
0.659216186218D-06 0.000000000000D+00 0.000000000000D+00 0.446157513443D-06 0.252744457233D-06  6 22 -1 9900012 -13 -2 21 2 0.49031060D-01 0.46908371D-02 0.21937969D+04 0.21937969D+04 0.21937969D+04 0.12842634D+01  1  2 11  1  6  2       -1 0.674243262615D-04 0.100000000000D+01
0.388291481108D-07 0.000000000000D+00 0.000000000000D+00 0.446157513443D-06 0.000000000000D+00  6 22 21 9900012 -13 1 -2 2 0.48911289D-01 0.47023237D-02 0.21937969D+04 0.21937969D+04 0.21937969D+04 0.12842634D+01  3  4 12  3  5  2       -1 0.644040684843D-04 0.100000000000D+01
-.661049179325D-07 0.000000000000D+00 -.560291413189D-09 0.446157513443D-06 0.000000000000D+00  6 22 21 9900012 -13 1 -2 2 0.48911289D-01 0.46975005D-02 0.19633062D+04 0.19633062D+04 0.19633062D+04 0.12903290D+01  3  4  5  3  5  2       -1 -.109427847531D-03 0.100000000000D+01
0.340194544292D-07 0.000000000000D+00 0.000000000000D+00 0.446157513443D-06 0.116871527549D-07  6 22 21 9900012 -13 1 -2 2 0.49031060D-01 0.46908371D-02 0.21937969D+04 0.21937969D+04 0.21937969D+04 0.12842634D+01  3  4 11  3  5  2       -1 0.564126946484D-04 0.100000000000D+01
  </mgrwgt>
  </event>
  <event>
  6     66 0.14665890E-05 0.13905708E+02 0.78161638E-02 0.12728323E+00
       22 -1    0    0    0    0 0.00000000E+00 0.00000000E+00 0.11328962E+03 0.11328962E+03 0.00000000E+00 0.0000E+00 0.9000E+01
       -3 -1    0    0    0  501 -.00000000E+00 -.00000000E+00 -.11579290E+03 0.11579290E+03 0.00000000E+00 0.0000E+00 0.9000E+01
       24  2    1    2    0    0 -.52656021E+01 -.12870204E+02 0.98729531E+02 0.12689910E+03 0.78501553E+02 0.0000E+00 0.0000E+00
  9900012  1    3    3    0    0 -.18371378E+02 -.27062578E+02 0.81199646E+02 0.10081306E+03 0.50000000E+02 0.0000E+00 0.9000E+01
      -13  1    3    3    0    0 0.13105776E+02 0.14192373E+02 0.17529884E+02 0.26086044E+02 0.00000000E+00 0.0000E+00 0.9000E+01
       -4  1    1    2    0  501 0.52656021E+01 0.12870204E+02 -.10123281E+03 0.10218341E+03 0.00000000E+00 0.0000E+00 0.9000E+01
#aMCatNLO 1  0  0  5  5 0.22146560D+02 0.00000000D+00  -5  6  0 0.00000000D+00 0.00000000D+00 0.00000000D+00 0.00000000D+00 0.00000000D+00
  <mgrwgt>
 0.1171757516D-04    4    2    0
 0.114534419960370D+03 0.000000000000000D+00 0.000000000000000D+00 0.114534419960370D+03
 0.114534419960370D+03 -.000000000000000D+00 -.000000000000000D+00 -.114534419960370D+03
 0.101706434031421D+03 -.183713784140692D+02 -.270625775190563D+02 0.823061849230049D+02
 0.262791689255310D+02 0.131057762828543D+02 0.141923733995869D+02 0.178160008062153D+02
 0.101083236963789D+03 0.526560213121483D+01 0.128702041194694D+02 -.100122185729220D+03
 0.000000000000000D+00 0.000000000000000D+00 -.000000000000000D+00 0.000000000000000D+00
 0.114534419960370D+03 0.000000000000000D+00 0.000000000000000D+00 0.114534419960370D+03
 0.114534419960370D+03 -.000000000000000D+00 -.000000000000000D+00 -.114534419960370D+03
 0.931130738268362D+02 -.178313322015123D+02 -.257425945776278D+02 0.720375383658621D+02
 0.248107120261871D+02 0.132473991470699D+02 0.145385285258227D+02 0.151231291533345D+02
 0.976905447574227D+02 0.718122433478981D+01 0.218700015760366D+02 -.949398524494302D+02
 0.134545093102948D+02 -.259729128034745D+01 -.106659355242316D+02 0.777918493023365D+01
0.338040300291D-06 0.000000000000D+00 0.000000000000D+00 0.206700988824D-05 0.000000000000D+00  6 22 -3 9900012 -13 -4 21 0 0.17429172D-01 0.17814292D-01 0.21609604D+04 0.21609604D+04 0.21609604D+04 0.12850821D+01  1  2  2  2  6  5       -4 0.110937126057D-04 0.100000000000D+01
0.626038154486D-07 0.000000000000D+00 -.649081880586D-09 0.206700988824D-05 0.000000000000D+00  6 22 -3 9900012 -13 -4 21 2 0.17429172D-01 0.17814292D-01 0.21609604D+04 0.21609604D+04 0.21609604D+04 0.12850821D+01  1  2  3  2  6  5       -4 0.339289942192D-05 0.100000000000D+01
-.504179324101D-07 0.000000000000D+00 0.000000000000D+00 0.206700988824D-05 0.000000000000D+00  6 22 -3 9900012 -13 -4 21 2 0.17429172D-01 0.17814292D-01 0.21609604D+04 0.21609604D+04 0.21609604D+04 0.12850821D+01  1  2 15  2  6  5       -4 -.273246882004D-05 0.100000000000D+01
-.674732527122D-09 0.000000000000D+00 0.000000000000D+00 0.206700988824D-05 0.000000000000D+00  6 22 -3 9900012 -13 -4 21 2 0.17429172D-01 0.17814292D-01 0.21609604D+04 0.21609604D+04 0.21609604D+04 0.12850821D+01  1  2  4  2  6  5       -4 -.365680523594D-07 0.100000000000D+01
  </mgrwgt>
  </event>
  <event>
  6     66 -.14665890E-05 0.25866193E+02 0.78161638E-02 0.12913794E+00
       22 -1    0    0    0    0 0.00000000E+00 0.00000000E+00 0.76177969E+02 0.76177969E+02 0.00000000E+00 0.0000E+00 0.9000E+01
       -1 -1    0    0    0  501 -.00000000E+00 -.00000000E+00 -.59103689E+03 0.59103689E+03 0.00000000E+00 0.0000E+00 0.9000E+01
       24  2    1    2    0    0 0.45257287E+01 -.25467189E+02 0.52281764E+02 0.99484627E+02 0.80590001E+02 0.0000E+00 0.0000E+00
  9900012  1    3    3    0    0 -.11026549E+02 -.49792601E+01 0.52854388E+02 0.73756113E+02 0.50000000E+02 0.0000E+00 0.9000E+01
      -13  1    3    3    0    0 0.15552278E+02 -.20487929E+02 -.57262403E+00 0.25728514E+02 0.00000000E+00 0.0000E+00 0.9000E+01
       -2  1    1    2    0  501 -.45257287E+01 0.25467189E+02 -.56714068E+03 0.56773023E+03 0.00000000E+00 0.0000E+00 0.9000E+01
#aMCatNLO 1  0  0  5  2 0.31356833D+01 0.00000000D+00  -5  6  0 0.00000000D+00 0.00000000D+00 0.00000000D+00 0.00000000D+00 0.00000000D+00
  <mgrwgt>
 -.5594855377D-03    8    2    0
 0.212188572148840D+03 0.000000000000000D+00 0.000000000000000D+00 0.212188572148840D+03
 0.212188572148840D+03 -.000000000000000D+00 -.000000000000000D+00 -.212188572148840D+03
 0.180084457671901D+03 -.110265489242864D+02 -.497926008139044D+01 0.172580514783231D+03
 0.397562092649041D+02 0.155522775843898D+02 -.204879286227684D+02 0.303138189247294D+02
 0.204536477360874D+03 -.452572866010334D+01 0.254671887041588D+02 -.202894333707960D+03
 0.000000000000000D+00 0.000000000000000D+00 0.000000000000000D+00 -.000000000000000D+00
 0.212188572148840D+03 0.000000000000000D+00 0.000000000000000D+00 0.212188572148840D+03
 0.212188572148840D+03 -.000000000000000D+00 -.000000000000000D+00 -.212188572148840D+03
 0.180045310212338D+03 -.110274581226796D+02 -.497414383850721D+01 0.172539754230390D+03
 0.397486876263778D+02 0.155520768630639D+02 -.204867991233514D+02 0.303048203252249D+02
 0.110900421454070D+03 -.150682115062625D+01 0.167716902633289D+02 -.109614521731481D+03
 0.936827250048936D+02 -.301779758975802D+01 0.868925269852958D+01 -.932300528241343D+02
0.814482741158D-06 0.000000000000D+00 0.000000000000D+00 0.437141668645D-04 0.000000000000D+00  6 22 -1 9900012 -13 -2 21 0 0.11719688D-01 0.90928752D-01 0.26538617D+04 0.26538617D+04 0.26538617D+04 0.12740644D+01  1  2  2  2  6  5       -2 0.417692588066D-05 0.100000000000D+01
0.767285053051D-07 0.000000000000D+00 -.156391409214D-08 0.437141668645D-04 0.000000000000D+00  6 22 -1 9900012 -13 -2 21 2 0.11719688D-01 0.90928752D-01 0.26538617D+04 0.26538617D+04 0.26538617D+04 0.12740644D+01  1  2  3  2  6  5       -2 0.638725694477D-06 0.100000000000D+01
-.126498381501D-06 0.000000000000D+00 0.000000000000D+00 0.437141668645D-04 0.000000000000D+00  6 22 -1 9900012 -13 -2 21 2 0.11719688D-01 0.90928752D-01 0.26538617D+04 0.26538617D+04 0.26538617D+04 0.12740644D+01  1  2 15  2  6  5       -2 -.105303454373D-05 0.100000000000D+01
0.198421688842D-05 0.000000000000D+00 0.000000000000D+00 0.437141668645D-04 0.000000000000D+00  6 22 -1 9900012 -13 -2 21 2 0.11719688D-01 0.90928752D-01 0.26626323D+04 0.26626323D+04 0.26626323D+04 0.12738898D+01  1  2 12  2  6  5       -2 0.165157196698D-04 0.100000000000D+01
-.260680505376D-03 0.000000000000D+00 0.000000000000D+00 0.437141668645D-04 0.000000000000D+00  6 22 -1 9900012 -13 -2 21 2 0.11719688D-01 0.90928752D-01 0.26538617D+04 0.26538617D+04 0.26538617D+04 0.12740644D+01  1  2  4  2  6  5       -2 -.217003232594D-02 0.100000000000D+01
-.932230762617D-04 0.000000000000D+00 0.000000000000D+00 0.437141668645D-04 0.000000000000D+00  6 22 -1 9900012 -13 -2 21 2 0.11719688D-01 0.90928752D-01 0.26538617D+04 0.26538617D+04 0.26538617D+04 0.12740644D+01  1  2  5  2  6  5       -2 -.776034589620D-03 0.100000000000D+01
0.144114371205D-03 0.000000000000D+00 -.000000000000D+00 0.437141668645D-04 0.000000000000D+00  6 22 -1 9900012 -13 -2 21 2 0.11719688D-01 0.90928752D-01 0.26538617D+04 0.26538617D+04 0.26538617D+04 0.12740644D+01  1  2  6  2  6  5       -2 0.119967867830D-02 0.100000000000D+01
0.140159545544D-03 0.000000000000D+00 0.000000000000D+00 0.437141668645D-04 0.226530233737D-04  6 22 -1 9900012 -13 -2 21 2 0.11719688D-01 0.90928752D-01 0.26626323D+04 0.26626323D+04 0.26626323D+04 0.12738898D+01  1  2 11  2  6  5       -2 0.116662436287D-02 0.100000000000D+01
  </mgrwgt>
  </event>
  <event>
  6     66 0.14665890E-05 0.16016760E+02 0.78161638E-02 0.13239604E+00
       22 -1    0    0    0    0 0.00000000E+00 0.00000000E+00 0.41902428E+01 0.41902428E+01 0.00000000E+00 0.0000E+00 0.9000E+01
       -1 -1    0    0    0  501 0.00000000E+00 0.00000000E+00 -.68258852E+03 0.68258852E+03 0.00000000E+00 0.0000E+00 0.9000E+01
       24  2    1    2    0    0 0.15525375E+02 0.39369185E+01 -.41529523E+03 0.42318864E+03 0.79761926E+02 0.0000E+00 0.0000E+00
  9900012  1    3    3    0    0 0.16975526E+02 -.11644830E+02 -.19558515E+03 0.20292196E+03 0.50000000E+02 0.0000E+00 0.9000E+01
      -13  1    3    3    0    0 -.14501508E+01 0.15581749E+02 -.21971008E+03 0.22026668E+03 0.00000000E+00 0.0000E+00 0.9000E+01
       -2  1    1    2    0  501 -.15525375E+02 -.39369185E+01 -.26310305E+03 0.26359012E+03 0.00000000E+00 0.0000E+00 0.9000E+01
#aMCatNLO 1  0  0  2  5 0.41596728D+01 0.00000000D+00  -5  6  0 0.00000000D+00 0.00000000D+00 0.00000000D+00 0.00000000D+00 0.00000000D+00
  <mgrwgt>
 0.1463182725D-03   11    4    0
 0.534809467314889D+02 0.000000000000000D+00 0.000000000000000D+00 0.534809467314889D+02
 0.534809467314889D+02 0.000000000000000D+00 0.000000000000000D+00 -.534809467314889D+02
 0.624321709338054D+02 0.169755257013594D+02 -.116448303939864D+02 0.312090598987806D+02
 0.207881749000507D+02 -.145015080122735D+01 0.155817488609988D+02 -.136840922520115D+02
 0.237415476291217D+02 -.155253749001320D+02 -.393691846701244D+01 -.175249676467691D+02
 0.000000000000000D+00 -.000000000000000D+00 -.000000000000000D+00 -.000000000000000D+00
 0.547183071258662D+02 0.000000000000000D+00 0.000000000000000D+00 0.547183071258662D+02
 0.558438374986853D+02 0.000000000000000D+00 0.000000000000000D+00 -.558438374986853D+02
 0.629479109504078D+02 0.189317822115844D+02 -.114027056240144D+02 0.312090598987806D+02
 0.208133859609246D+02 -.801057874769036D+00 0.156620867280871D+02 -.136840922520115D+02
 0.232534853131921D+02 -.147921297326377D+02 -.384616512429656D+01 -.175249676467691D+02
 0.354736240002698D+01 -.333859460417768D+01 -.413215979776193D+00 -.112553037281916D+01
 0.534809467314889D+02 0.000000000000000D+00 0.000000000000000D+00 0.534809467314889D+02
 0.534809467314889D+02 0.000000000000000D+00 0.000000000000000D+00 -.534809467314889D+02
 0.624321709338054D+02 0.169755257013594D+02 -.116448303939864D+02 0.312090598987806D+02
 0.207881749000507D+02 -.145015080122735D+01 0.155817488609988D+02 -.136840922520115D+02
 0.000000000000000D+00 -.000000000000000D+00 -.000000000000000D+00 -.000000000000000D+00
 0.237415476291217D+02 -.155253749001320D+02 -.393691846701244D+01 -.175249676467691D+02
 0.547183071258662D+02 0.000000000000000D+00 0.000000000000000D+00 0.547183071258662D+02
 0.558438374986853D+02 0.000000000000000D+00 0.000000000000000D+00 -.558438374986853D+02
 0.629479109504078D+02 0.189317822115844D+02 -.114027056240144D+02 0.312090598987806D+02
 0.208133859609246D+02 -.801057874769036D+00 0.156620867280871D+02 -.136840922520115D+02
 0.354736240002698D+01 -.333859460417768D+01 -.413215979776193D+00 -.112553037281916D+01
 0.232534853131921D+02 -.147921297326377D+02 -.384616512429656D+01 -.175249676467691D+02
0.304549598796D-06 0.000000000000D+00 0.000000000000D+00 0.390940413475D-06 0.000000000000D+00  6 22 -1 9900012 -13 -2 21 0 0.64465275D-03 0.10501362D+00 0.18377403D+04 0.18377403D+04 0.18377403D+04 0.12939849D+01  1  2  2  1  6  2       -1 0.545994461975D-04 0.100000000000D+01
0.124989919829D-07 0.000000000000D+00 -.584775324564D-09 0.390940413475D-06 0.000000000000D+00  6 22 -1 9900012 -13 -2 21 2 0.64465275D-03 0.10501362D+00 0.18377403D+04 0.18377403D+04 0.18377403D+04 0.12939849D+01  1  2  3  1  6  2       -1 0.375200647215D-05 0.100000000000D+01
-.353498277012D-07 0.000000000000D+00 0.000000000000D+00 0.390940413475D-06 0.000000000000D+00  6 22 -1 9900012 -13 -2 21 2 0.64465275D-03 0.10501362D+00 0.18377403D+04 0.18377403D+04 0.18377403D+04 0.12939849D+01  1  2 15  1  6  2       -1 -.106114783101D-04 0.100000000000D+01
0.822321610609D-07 0.000000000000D+00 0.000000000000D+00 0.390940413475D-06 0.000000000000D+00  6 22 -1 9900012 -13 -2 21 2 0.64465275D-03 0.11219031D+00 0.19801246D+04 0.19801246D+04 0.19801246D+04 0.12898596D+01  1  2 12  1  6  2       -1 0.213627619270D-04 0.100000000000D+01
-.378580818635D-07 0.000000000000D+00 0.000000000000D+00 0.390940413475D-06 0.000000000000D+00  6 22 -1 9900012 -13 -2 21 2 0.64465275D-03 0.10501362D+00 0.18377403D+04 0.18377403D+04 0.18377403D+04 0.12939849D+01  1  2  4  1  6  2       -1 -.113644178962D-04 0.100000000000D+01
-.332436467277D-05 0.000000000000D+00 -.560849739583D-06 0.390940413475D-06 0.000000000000D+00  6 22 -1 9900012 -13 -2 21 2 0.64465275D-03 0.11153120D+00 0.18377403D+04 0.18377403D+04 0.18377403D+04 0.12939849D+01  1  2  5  1  6  2       -1 -.874502157924D-03 0.100000000000D+01
0.335307051372D-05 0.000000000000D+00 0.559834519462D-06 0.390940413475D-06 0.000000000000D+00  6 22 -1 9900012 -13 -2 21 2 0.64465275D-03 0.10501362D+00 0.18377403D+04 0.18377403D+04 0.18377403D+04 0.12939849D+01  1  2  6  1  6  2       -1 0.100654055033D-02 0.100000000000D+01
0.325722353170D-07 0.000000000000D+00 0.000000000000D+00 0.390940413475D-06 0.371239396156D-06  6 22 -1 9900012 -13 -2 21 2 0.65956774D-03 0.10965332D+00 0.19801246D+04 0.19801246D+04 0.19801246D+04 0.12898596D+01  1  2 11  1  6  2       -1 0.864310457729D-05 0.100000000000D+01
0.121912826274D-08 0.000000000000D+00 0.000000000000D+00 0.390940413475D-06 0.000000000000D+00  6 22 21 9900012 -13 1 -2 2 0.64465275D-03 0.11219031D+00 0.19801246D+04 0.19801246D+04 0.19801246D+04 0.12898596D+01  3  4 12  3  5  2       -1 0.243067783636D-05 0.100000000000D+01
-.336598064559D-07 0.000000000000D+00 -.579788738213D-08 0.390940413475D-06 0.000000000000D+00  6 22 21 9900012 -13 1 -2 2 0.64465275D-03 0.11153120D+00 0.18377403D+04 0.18377403D+04 0.18377403D+04 0.12939849D+01  3  4  5  3  5  2       -1 -.681871993704D-04 0.100000000000D+01
0.666883959315D-08 0.000000000000D+00 0.000000000000D+00 0.390940413475D-06 0.243137863796D-08  6 22 21 9900012 -13 1 -2 2 0.65956774D-03 0.10965332D+00 0.19801246D+04 0.19801246D+04 0.19801246D+04 0.12898596D+01  3  4 11  3  5  2       -1 0.136549786999D-04 0.100000000000D+01
  </mgrwgt>
  </event>
  <event>
  6     66 0.14665890E-05 0.28788166E+02 0.78161638E-02 0.12460871E+00
       22 -1    0    0    0    0 0.00000000E+00 0.00000000E+00 0.24786364E+04 0.24786364E+04 0.00000000E+00 0.0000E+00 0.9000E+01
       -1 -1    0    0    0  501 0.00000000E+00 0.00000000E+00 -.58662902E+02 0.58662902E+02 0.00000000E+00 0.0000E+00 0.9000E+01
       24  2    1    2    0    0 0.12417075E+02 0.32492401E+02 0.24726691E+04 0.24741584E+04 0.78469115E+02 0.0000E+00 0.0000E+00
  9900012  1    3    3    0    0 0.16263863E+02 0.29432227E+01 0.12216815E+04 0.12228159E+04 0.50000000E+02 0.0000E+00 0.9000E+01
      -13  1    3    3    0    0 -.38467885E+01 0.29549178E+02 0.12509877E+04 0.12513425E+04 0.00000000E+00 0.0000E+00 0.9000E+01
       -2  1    1    2    0  501 -.12417075E+02 -.32492401E+02 -.52695630E+02 0.63140868E+02 0.00000000E+00 0.0000E+00 0.9000E+01
#aMCatNLO 1  0  0  2  5 0.14327179D+02 0.00000000D+00  -5  6  0 0.00000000D+00 0.00000000D+00 0.00000000D+00 0.00000000D+00 0.00000000D+00
  <mgrwgt>
 0.6952961209D-03    9    4    0
 0.381318769769095D+03 0.000000000000000D+00 0.000000000000000D+00 0.381318769769095D+03
 0.381318769769095D+03 0.000000000000000D+00 0.000000000000000D+00 -.381318769769095D+03
 0.191720453062085D+03 0.162638633674418D+02 0.294322265182751D+01 0.184346294541328D+03
 0.193635229200831D+03 -.384678850285315D+01 0.295491779691549D+02 0.191328644711710D+03
 0.377281857275275D+03 -.124170748645886D+02 -.324924006209824D+02 -.375674939253038D+03
 0.000000000000000D+00 -.000000000000000D+00 -.000000000000000D+00 -.000000000000000D+00
 0.383165030805733D+03 0.000000000000000D+00 0.000000000000000D+00 0.383165030805733D+03
 0.408255888557931D+03 0.000000000000000D+00 0.000000000000000D+00 -.408255888557931D+03
 0.191823563188563D+03 0.164782240174474D+02 0.641803836615589D+01 0.184346294541328D+03
 0.194198300278308D+03 -.363003046739779D+01 0.330628556324165D+02 0.191328644711710D+03
 0.376741356228723D+03 -.119956554203586D+02 -.256611332820602D+02 -.375674939253038D+03
 0.286576996680698D+02 -.852538129691051D+00 -.138197607165121D+02 -.250908577521985D+02
 0.381318769769095D+03 0.000000000000000D+00 0.000000000000000D+00 0.381318769769095D+03
 0.381318769769095D+03 0.000000000000000D+00 0.000000000000000D+00 -.381318769769095D+03
 0.191720453062085D+03 0.162638633674418D+02 0.294322265182751D+01 0.184346294541328D+03
 0.193635229200831D+03 -.384678850285315D+01 0.295491779691549D+02 0.191328644711710D+03
 0.000000000000000D+00 -.000000000000000D+00 -.000000000000000D+00 -.000000000000000D+00
 0.377281857275275D+03 -.124170748645886D+02 -.324924006209824D+02 -.375674939253038D+03
 0.383165030805733D+03 0.000000000000000D+00 0.000000000000000D+00 0.383165030805733D+03
 0.408255888557931D+03 0.000000000000000D+00 0.000000000000000D+00 -.408255888557931D+03
 0.191823563188563D+03 0.164782240174474D+02 0.641803836615589D+01 0.184346294541328D+03
 0.194198300278308D+03 -.363003046739779D+01 0.330628556324165D+02 0.191328644711710D+03
 0.286576996680698D+02 -.852538129691051D+00 -.138197607165121D+02 -.250908577521985D+02
 0.376741356228723D+03 -.119956554203586D+02 -.256611332820602D+02 -.375674939253038D+03
0.173729453508D-03 0.000000000000D+00 0.000000000000D+00 0.198679279322D-03 0.000000000000D+00  6 22 -1 9900012 -13 -2 21 0 0.38132868D+00 0.90250619D-02 0.34365189D+04 0.34365189D+04 0.34365189D+04 0.12606059D+01  1  2  2  1  6  2       -1 0.386232658812D-04 0.100000000000D+01
0.121880008130D-04 0.000000000000D+00 -.333583422743D-06 0.198679279322D-03 0.000000000000D+00  6 22 -1 9900012 -13 -2 21 2 0.38132868D+00 0.90250619D-02 0.34365189D+04 0.34365189D+04 0.34365189D+04 0.12606059D+01  1  2  3  1  6  2       -1 0.430592740938D-05 0.100000000000D+01
-.256740949126D-04 0.000000000000D+00 0.000000000000D+00 0.198679279322D-03 0.000000000000D+00  6 22 -1 9900012 -13 -2 21 2 0.38132868D+00 0.90250619D-02 0.34365189D+04 0.34365189D+04 0.34365189D+04 0.12606059D+01  1  2 15  1  6  2       -1 -.907046124225D-05 0.100000000000D+01
0.187001882962D-02 0.000000000000D+00 0.000000000000D+00 0.198679279322D-03 0.000000000000D+00  6 22 -1 9900012 -13 -2 21 2 0.38132868D+00 0.97093945D-02 0.41260811D+04 0.41260811D+04 0.41260811D+04 0.12513509D+01  1  2 12  1  6  2       -1 0.592124516351D-03 0.100000000000D+01
-.317216122486D-04 0.000000000000D+00 0.000000000000D+00 0.198679279322D-03 0.000000000000D+00  6 22 -1 9900012 -13 -2 21 2 0.38132868D+00 0.90250619D-02 0.34365189D+04 0.34365189D+04 0.34365189D+04 0.12606059D+01  1  2  4  1  6  2       -1 -.112070028339D-04 0.100000000000D+01
-.244897929017D-02 0.000000000000D+00 -.293081401623D-03 0.198679279322D-03 0.000000000000D+00  6 22 -1 9900012 -13 -2 21 2 0.38132868D+00 0.97116261D-02 0.34365189D+04 0.34365189D+04 0.34365189D+04 0.12606059D+01  1  2  5  1  6  2       -1 -.777506463485D-03 0.100000000000D+01
0.246462615320D-02 0.000000000000D+00 0.292295420278D-03 0.198679279322D-03 0.000000000000D+00  6 22 -1 9900012 -13 -2 21 2 0.38132868D+00 0.90250619D-02 0.34365189D+04 0.34365189D+04 0.34365189D+04 0.12606059D+01  1  2  6  1  6  2       -1 0.870733557518D-03 0.100000000000D+01
0.270830960751D-04 0.000000000000D+00 0.000000000000D+00 0.198679279322D-03 0.000000000000D+00  6 22 21 9900012 -13 1 -2 2 0.38132868D+00 0.97093945D-02 0.41260811D+04 0.41260811D+04 0.41260811D+04 0.12513509D+01  3  4 12  3  5  2       -1 0.124357399299D-03 0.100000000000D+01
-.297222299100D-04 0.000000000000D+00 -.362140262382D-05 0.198679279322D-03 0.000000000000D+00  6 22 21 9900012 -13 1 -2 2 0.38132868D+00 0.97116261D-02 0.34365189D+04 0.34365189D+04 0.34365189D+04 0.12606059D+01  3  4  5  3  5  2       -1 -.137064617982D-03 0.100000000000D+01
  </mgrwgt>
  </event>
  <event>
  6     66 0.14665890E-05 0.42685529E+02 0.78161638E-02 0.11420355E+00
       22 -1    0    0    0    0 0.00000000E+00 0.00000000E+00 0.13130575E+03 0.13130575E+03 0.00000000E+00 0.0000E+00 0.9000E+01
       -3 -1    0    0    0  501 0.00000000E+00 0.00000000E+00 -.59932732E+02 0.59932732E+02 0.00000000E+00 0.0000E+00 0.9000E+01
       24  2    1    2    0    0 -.32354973E+02 0.27842595E+02 0.10352907E+03 0.13779630E+03 0.80296310E+02 0.0000E+00 0.0000E+00
  9900012  1    3    3    0    0 -.22022769E+02 0.43366832E+02 0.93405647E+02 0.11657744E+03 0.50000000E+02 0.0000E+00 0.9000E+01
      -13  1    3    3    0    0 -.10332203E+02 -.15524237E+02 0.10123427E+02 0.21218863E+02 0.00000000E+00 0.0000E+00 0.9000E+01
       -4  1    1    2    0  501 0.32354973E+02 -.27842595E+02 -.32156058E+02 0.53442178E+02 0.00000000E+00 0.0000E+00 0.9000E+01
#aMCatNLO 1  0  0  2  5 0.17721819D+03 0.00000000D+00  -5  6  0 0.00000000D+00 0.00000000D+00 0.00000000D+00 0.00000000D+00 0.00000000D+00
  <mgrwgt>
 0.6502747659D-04    3    2    0
 0.887102712819006D+02 0.000000000000000D+00 0.000000000000000D+00 0.887102712819006D+02
 0.887102712819006D+02 0.000000000000000D+00 0.000000000000000D+00 -.887102712819006D+02
 0.880813989502176D+02 -.220227693589947D+02 0.433668321570105D+02 0.537833463021184D+02
 0.187989705100793D+02 -.103322032587212D+02 -.155242370729743D+02 0.237590642942716D+01
 0.705401731035043D+02 0.323549726177159D+02 -.278425950840361D+02 -.561592527315455D+02
 0.000000000000000D+00 0.000000000000000D+00 0.000000000000000D+00 0.000000000000000D+00
 0.204514988601416D+03 0.000000000000000D+00 0.000000000000000D+00 0.204514988601416D+03
 0.111563074658479D+03 0.000000000000000D+00 0.000000000000000D+00 -.111563074658479D+03
 0.990205069048309D+02 -.593586160238983D+02 0.298155521827699D+02 0.537833463021184D+02
 0.272463109301906D+02 -.195204558296389D+02 -.188591710355028D+02 0.237590642942716D+01
 0.678993502093245D+02 0.472961631175477D+01 -.378693916115175D+02 -.561592527315455D+02
 0.121911895215548D+03 0.741494555417824D+02 0.269130104642504D+02 0.929519139429372D+02
0.966021571464D-06 0.000000000000D+00 0.000000000000D+00 0.101977661926D-05 0.000000000000D+00  6 22 -3 9900012 -13 -4 21 0 0.20200884D-01 0.92204203D-02 0.42960300D+04 0.42960300D+04 0.42960300D+04 0.12493360D+01  1  2  2  1  6  2       -3 0.802589698522D-04 0.100000000000D+01
0.183514287075D-07 0.000000000000D+00 -.185488859687D-08 0.101977661926D-05 0.000000000000D+00  6 22 -3 9900012 -13 -4 21 2 0.20200884D-01 0.92204203D-02 0.42960300D+04 0.42960300D+04 0.42960300D+04 0.12493360D+01  1  2  3  1  6  2       -3 0.237977092100D-05 0.100000000000D+01
-.135807970536D-06 0.000000000000D+00 0.000000000000D+00 0.101977661926D-05 0.000000000000D+00  6 22 -3 9900012 -13 -4 21 2 0.20200884D-01 0.92204203D-02 0.42960300D+04 0.42960300D+04 0.42960300D+04 0.12493360D+01  1  2 15  1  6  2       -3 -.176112641840D-04 0.100000000000D+01
  </mgrwgt>
  </event>
  <event>
  6     66 0.14665890E-05 0.80616129E+02 0.78161638E-02 0.11232785E+00
       22 -1    0    0    0    0 0.00000000E+00 0.00000000E+00 0.13830203E+03 0.13830203E+03 0.00000000E+00 0.0000E+00 0.9000E+01
       -1 -1    0    0    0  501 -.00000000E+00 -.00000000E+00 -.16589012E+03 0.16589012E+03 0.00000000E+00 0.0000E+00 0.9000E+01
       24  2    1    2    0    0 -.44306352E+02 0.10873247E+03 0.63545098E+02 0.15556153E+03 0.79847401E+02 0.0000E+00 0.0000E+00
  9900012  1    3    3    0    0 -.24696429E+02 0.35633485E+02 0.26349736E+02 0.71231786E+02 0.50000000E+02 0.0000E+00 0.9000E+01
      -13  1    3    3    0    0 -.19609923E+02 0.73098987E+02 0.37195362E+02 0.84329745E+02 0.00000000E+00 0.0000E+00 0.9000E+01
       -2  1    1    2    0  501 0.44306352E+02 -.10873247E+03 -.91133186E+02 0.14863062E+03 0.00000000E+00 0.0000E+00 0.9000E+01
#aMCatNLO 1  0  0  5  2 0.19516389D+02 0.00000000D+00  -5  6  0 0.00000000D+00 0.00000000D+00 0.00000000D+00 0.00000000D+00 0.00000000D+00
  <mgrwgt>
 0.7152072837D-04    7    2    0
 0.151469272122920D+03 0.000000000000000D+00 0.000000000000000D+00 0.151469272122920D+03
 0.151469272122920D+03 -.000000000000000D+00 -.000000000000000D+00 -.151469272122920D+03
 0.739261791282534D+02 -.246964286604430D+02 0.356334845725212D+02 0.329457303628581D+02
 0.880660317392455D+02 -.196099229276685D+02 0.730989868693253D+02 0.450290460452685D+02
 0.140946333378342D+03 0.443063515881115D+02 -.108732471441846D+03 -.779747764081266D+02
 0.000000000000000D+00 0.000000000000000D+00 0.000000000000000D+00 0.000000000000000D+00
 0.151469272122920D+03 0.000000000000000D+00 0.000000000000000D+00 0.151469272122920D+03
 0.151469272122920D+03 -.000000000000000D+00 -.000000000000000D+00 -.151469272122920D+03
 0.727993086177474D+02 -.242032589892160D+02 0.344231940550086D+02 0.320778007440377D+02
 0.862154700144741D+02 -.190241327405565D+02 0.716613958127835D+02 0.439981135214904D+02
 0.100333135353193D+03 0.209910470251386D+02 -.691564245360962D+02 -.695952795811169D+02
 0.435906302604259D+02 0.222363447046339D+02 -.369281653316959D+02 -.648063468441117D+01
0.111106930369D-05 0.000000000000D+00 0.000000000000D+00 0.149971173990D-05 0.000000000000D+00  6 22 -1 9900012 -13 -2 21 0 0.21277236D-01 0.25521557D-01 0.16805956D+05 0.16805956D+05 0.16805956D+05 0.11866310D+01  1  2  2  2  6  5       -2 0.245925478885D-04 0.100000000000D+01
-.167967513473D-07 0.000000000000D+00 -.213339933872D-08 0.149971173990D-05 0.000000000000D+00  6 22 -1 9900012 -13 -2 21 2 0.21277236D-01 0.25521557D-01 0.16805956D+05 0.16805956D+05 0.16805956D+05 0.11866310D+01  1  2  3  2  6  5       -2 -.523502828549D-06 0.100000000000D+01
-.160412023653D-06 0.000000000000D+00 0.000000000000D+00 0.149971173990D-05 0.000000000000D+00  6 22 -1 9900012 -13 -2 21 2 0.21277236D-01 0.25521557D-01 0.16805956D+05 0.16805956D+05 0.16805956D+05 0.11866310D+01  1  2 15  2  6  5       -2 -.499954701832D-05 0.100000000000D+01
0.205342314076D-05 0.000000000000D+00 0.000000000000D+00 0.149971173990D-05 0.000000000000D+00  6 22 -1 9900012 -13 -2 21 2 0.21277236D-01 0.25521557D-01 0.16240031D+05 0.16240031D+05 0.16240031D+05 0.11880881D+01  1  2 12  2  6  5       -2 0.640060664369D-04 0.100000000000D+01
-.107434576007D-05 0.000000000000D+00 0.000000000000D+00 0.149971173990D-05 0.000000000000D+00  6 22 -1 9900012 -13 -2 21 2 0.21277236D-01 0.25521557D-01 0.16805956D+05 0.16805956D+05 0.16805956D+05 0.11866310D+01  1  2  4  2  6  5       -2 -.334840370383D-04 0.100000000000D+01
-.198759321864D-05 0.000000000000D+00 0.000000000000D+00 0.149971173990D-05 0.000000000000D+00  6 22 -1 9900012 -13 -2 21 2 0.21277236D-01 0.25521557D-01 0.16805956D+05 0.16805956D+05 0.16805956D+05 0.11866310D+01  1  2  5  2  6  5       -2 -.619471378990D-04 0.100000000000D+01
0.269119846249D-05 0.000000000000D+00 -.000000000000D+00 0.149971173990D-05 0.000000000000D+00  6 22 -1 9900012 -13 -2 21 2 0.21277236D-01 0.25521557D-01 0.16805956D+05 0.16805956D+05 0.16805956D+05 0.11866310D+01  1  2  6  2  6  5       -2 0.838763388330D-04 0.100000000000D+01
  </mgrwgt>
  </event>
  <event>
  6     66 0.14665890E-05 0.34218699E+02 0.78161638E-02 0.12423890E+00
       22 -1    0    0    0    0 0.00000000E+00 0.00000000E+00 0.42516172E+03 0.42516172E+03 0.00000000E+00 0.0000E+00 0.9000E+01
       -1 -1    0    0    0  501 0.00000000E+00 0.00000000E+00 -.45658102E+02 0.45658102E+02 0.00000000E+00 0.0000E+00 0.9000E+01
       24  2    1    2    0    0 0.12654619E+02 -.36142545E+02 0.41148326E+03 0.42092873E+03 0.79975594E+02 0.0000E+00 0.0000E+00
  9900012  1    3    3    0    0 0.17020194E+02 -.50736908E+02 0.35068114E+03 0.35824738E+03 0.50000000E+02 0.0000E+00 0.9000E+01
      -13  1    3    3    0    0 -.43655749E+01 0.14594363E+02 0.60802118E+02 0.62681347E+02 0.00000000E+00 0.0000E+00 0.9000E+01
       -2  1    1    2    0  501 -.12654619E+02 0.36142545E+02 -.31979649E+02 0.49891090E+02 0.00000000E+00 0.0000E+00 0.9000E+01
#aMCatNLO 1  0  0  2  5 0.46812604D+01 0.00000000D+00  -5  6  0 0.00000000D+00 0.00000000D+00 0.00000000D+00 0.00000000D+00 0.00000000D+00
  <mgrwgt>
 0.5712128881D-04   11    4    0
 0.139327230497043D+03 0.000000000000000D+00 0.000000000000000D+00 0.139327230497043D+03
 0.139327230497043D+03 0.000000000000000D+00 0.000000000000000D+00 -.139327230497043D+03
 0.127703698497044D+03 0.170201938965168D+02 -.507369079567714D+02 0.104615074346554D+03
 0.231002827610530D+02 -.436557494209073D+01 0.145943632940500D+02 0.173657530532620D+02
 0.127850479735988D+03 -.126546189544261D+02 0.361425446627213D+02 -.121980827399816D+03
 0.000000000000000D+00 -.000000000000000D+00 0.000000000000000D+00 -.000000000000000D+00
 0.139795270692323D+03 0.000000000000000D+00 0.000000000000000D+00 0.139795270692323D+03
 0.151057996743041D+03 0.000000000000000D+00 0.000000000000000D+00 -.151057996743041D+03
 0.128214168626355D+03 0.190499144527071D+02 -.512997077511823D+02 0.104615074346554D+03
 0.229699653853396D+02 -.400018533196855D+01 0.144930482648311D+02 0.173657530532620D+02
 0.127508081209277D+03 -.106293343341075D+02 0.355809748621580D+02 -.121980827399816D+03
 0.121610522143922D+02 -.442039478663107D+01 0.122568462419319D+01 -.112627260507177D+02
 0.139327230497043D+03 0.000000000000000D+00 0.000000000000000D+00 0.139327230497043D+03
 0.139327230497043D+03 0.000000000000000D+00 0.000000000000000D+00 -.139327230497043D+03
 0.127703698497044D+03 0.170201938965168D+02 -.507369079567714D+02 0.104615074346554D+03
 0.231002827610530D+02 -.436557494209073D+01 0.145943632940500D+02 0.173657530532620D+02
 0.000000000000000D+00 -.000000000000000D+00 0.000000000000000D+00 -.000000000000000D+00
 0.127850479735988D+03 -.126546189544261D+02 0.361425446627213D+02 -.121980827399816D+03
 0.139795270692323D+03 0.000000000000000D+00 0.000000000000000D+00 0.139795270692323D+03
 0.151057996743041D+03 0.000000000000000D+00 0.000000000000000D+00 -.151057996743041D+03
 0.128214168626355D+03 0.190499144527071D+02 -.512997077511823D+02 0.104615074346554D+03
 0.229699653853396D+02 -.400018533196855D+01 0.144930482648311D+02 0.173657530532620D+02
 0.121610522143922D+02 -.442039478663107D+01 0.122568462419319D+01 -.112627260507177D+02
 0.127508081209277D+03 -.106293343341075D+02 0.355809748621580D+02 -.121980827399816D+03
0.307558337964D-06 0.000000000000D+00 0.000000000000D+00 0.855917492302D-05 0.000000000000D+00  6 22 -1 9900012 -13 -2 21 0 0.65409495D-01 0.70243234D-02 0.40174049D+04 0.40174049D+04 0.40174049D+04 0.12526888D+01  1  2  2  1  6  2       -1 0.701758831577D-05 0.100000000000D+01
0.166095606974D-07 0.000000000000D+00 -.590552499876D-09 0.855917492302D-05 0.000000000000D+00  6 22 -1 9900012 -13 -2 21 2 0.65409495D-01 0.70243234D-02 0.40174049D+04 0.40174049D+04 0.40174049D+04 0.12526888D+01  1  2  3  1  6  2       -1 0.594709533014D-06 0.100000000000D+01
-.469352122319D-07 0.000000000000D+00 0.000000000000D+00 0.855917492302D-05 0.000000000000D+00  6 22 -1 9900012 -13 -2 21 2 0.65409495D-01 0.70243234D-02 0.40174049D+04 0.40174049D+04 0.40174049D+04 0.12526888D+01  1  2 15  1  6  2       -1 -.168052717690D-05 0.100000000000D+01
0.150584857873D-05 0.000000000000D+00 0.000000000000D+00 0.855917492302D-05 0.000000000000D+00  6 22 -1 9900012 -13 -2 21 2 0.65409495D-01 0.76413254D-02 0.42825351D+04 0.42825351D+04 0.42825351D+04 0.12494927D+01  1  2 12  1  6  2       -1 0.477727876272D-04 0.100000000000D+01
-.158330194179D-05 0.000000000000D+00 0.000000000000D+00 0.855917492302D-05 0.000000000000D+00  6 22 -1 9900012 -13 -2 21 2 0.65409495D-01 0.70243234D-02 0.40174049D+04 0.40174049D+04 0.40174049D+04 0.12526888D+01  1  2  4  1  6  2       -1 -.566905275566D-04 0.100000000000D+01
-.698505513980D-05 0.000000000000D+00 -.458247481801D-06 0.855917492302D-05 0.000000000000D+00  6 22 -1 9900012 -13 -2 21 2 0.65409495D-01 0.76373856D-02 0.40174049D+04 0.40174049D+04 0.40174049D+04 0.12526888D+01  1  2  5  1  6  2       -1 -.221558521053D-03 0.100000000000D+01
0.700047717030D-05 0.000000000000D+00 0.456647882399D-06 0.855917492302D-05 0.000000000000D+00  6 22 -1 9900012 -13 -2 21 2 0.65409495D-01 0.70243234D-02 0.40174049D+04 0.40174049D+04 0.40174049D+04 0.12526888D+01  1  2  6  1  6  2       -1 0.250653860428D-03 0.100000000000D+01
0.121163663041D-05 0.000000000000D+00 0.000000000000D+00 0.855917492302D-05 0.282354212344D-05  6 22 -1 9900012 -13 -2 21 2 0.65629224D-01 0.76157419D-02 0.42825351D+04 0.42825351D+04 0.42825351D+04 0.12494927D+01  1  2 11  1  6  2       -1 0.384017299890D-04 0.100000000000D+01
0.222410673536D-07 0.000000000000D+00 0.000000000000D+00 0.855917492302D-05 0.000000000000D+00  6 22 21 9900012 -13 1 -2 2 0.65409495D-01 0.76413254D-02 0.42825351D+04 0.42825351D+04 0.42825351D+04 0.12494927D+01  3  4 12  3  5  2       -1 0.106434968763D-04 0.100000000000D+01
-.960807915964D-07 0.000000000000D+00 -.636939075799D-08 0.855917492302D-05 0.000000000000D+00  6 22 21 9900012 -13 1 -2 2 0.65409495D-01 0.76373856D-02 0.40174049D+04 0.40174049D+04 0.40174049D+04 0.12526888D+01  3  4  5  3  5  2       -1 -.459957812648D-04 0.100000000000D+01
0.584570916701D-07 0.000000000000D+00 0.000000000000D+00 0.855917492302D-05 0.487869034991D-07  6 22 21 9900012 -13 1 -2 2 0.65629224D-01 0.76157419D-02 0.42825351D+04 0.42825351D+04 0.42825351D+04 0.12494927D+01  3  4 11  3  5  2       -1 0.279624730953D-04 0.100000000000D+01
  </mgrwgt>
  </event>
  <event>
  6     66 0.14665890E-05 0.10642380E+02 0.78161638E-02 0.13183133E+00
       22 -1    0    0    0    0 0.00000000E+00 0.00000000E+00 0.26213689E+03 0.26213689E+03 0.00000000E+00 0.0000E+00 0.9000E+01
       -3 -1    0    0    0  501 0.00000000E+00 0.00000000E+00 -.88873576E+01 0.88873576E+01 0.00000000E+00 0.0000E+00 0.9000E+01
       24  2    1    2    0    0 -.45828823E+01 -.96050738E+01 0.19221945E+03 0.20907321E+03 0.81547712E+02 0.0000E+00 0.0000E+00
  9900012  1    3    3    0    0 0.32433930E+01 -.30640527E+02 0.12292864E+03 0.13623807E+03 0.50000000E+02 0.0000E+00 0.9000E+01
      -13  1    3    3    0    0 -.78262753E+01 0.21035453E+02 0.69290811E+02 0.72835138E+02 0.00000000E+00 0.0000E+00 0.9000E+01
       -4  1    1    2    0  501 0.45828823E+01 0.96050738E+01 0.61030088E+02 0.61951044E+02 0.00000000E+00 0.0000E+00 0.9000E+01
#aMCatNLO 1  0  0  5  2 0.12892768D+01 0.00000000D+00  -5  6  0 0.00000000D+00 0.00000000D+00 0.00000000D+00 0.00000000D+00 0.00000000D+00
  <mgrwgt>
 0.6154706167D-04    8    2    0
 0.482670105433315D+02 0.000000000000000D+00 0.000000000000000D+00 0.482670105433315D+02
 0.482670105433315D+02 -.000000000000000D+00 -.000000000000000D+00 -.482670105433315D+02
 0.600016464694213D+02 0.324339304972173D+01 -.306405272281801D+02 -.122815337700787D+02
 0.227093315454992D+02 -.782627534329621D+01 0.210354534540821D+02 0.346018084432948D+01
 0.138230430717425D+02 0.458288229357448D+01 0.960507377409804D+01 0.882135292574920D+01
 0.000000000000000D+00 0.000000000000000D+00 0.000000000000000D+00 0.000000000000000D+00
 0.482670105433315D+02 0.000000000000000D+00 0.000000000000000D+00 0.482670105433315D+02
 0.482670105433315D+02 -.000000000000000D+00 -.000000000000000D+00 -.482670105433315D+02
 0.597393933850595D+02 0.343084302503294D+01 -.302476585646446D+02 -.119207210146515D+02
 0.228447307357635D+02 -.775496221740115D+01 0.211849156901609D+02 0.359744778933497D+01
 0.102159472602362D+01 0.678757011380827D+00 0.458276134696084D+00 -.610678056023475D+00
 0.129283022398164D+02 0.364536218098738D+01 0.860446673978768D+01 0.893395128133998D+01
0.170471350898D-06 0.000000000000D+00 0.000000000000D+00 0.644394443564D-07 0.000000000000D+00  6 22 -3 9900012 -13 -4 21 0 0.40328753D-01 0.13672858D-02 0.21076279D+04 0.21076279D+04 0.21076279D+04 0.12864424D+01  1  2  2  2  6  5       -4 0.742520439980D-04 0.100000000000D+01
0.248479677908D-08 0.000000000000D+00 -.327327436793D-09 0.644394443564D-07 0.000000000000D+00  6 22 -3 9900012 -13 -4 21 2 0.40328753D-01 0.13672858D-02 0.21076279D+04 0.21076279D+04 0.21076279D+04 0.12864424D+01  1  2  3  2  6  5       -4 0.179113612644D-05 0.100000000000D+01
-.172125451808D-07 0.000000000000D+00 0.000000000000D+00 0.644394443564D-07 0.000000000000D+00  6 22 -3 9900012 -13 -4 21 2 0.40328753D-01 0.13672858D-02 0.21076279D+04 0.21076279D+04 0.21076279D+04 0.12864424D+01  1  2 15  2  6  5       -4 -.124074579301D-04 0.100000000000D+01
0.117489183154D-11 0.000000000000D+00 0.000000000000D+00 0.644394443564D-07 0.000000000000D+00  6 22 -3 9900012 -13 -4 21 2 0.40328753D-01 0.13672858D-02 0.20821627D+04 0.20821627D+04 0.20821627D+04 0.12871058D+01  1  2 12  2  6  5       -4 0.846213055294D-09 0.100000000000D+01
-.409101900842D-07 0.000000000000D+00 0.000000000000D+00 0.644394443564D-07 0.000000000000D+00  6 22 -3 9900012 -13 -4 21 2 0.40328753D-01 0.13672858D-02 0.21076279D+04 0.21076279D+04 0.21076279D+04 0.12864424D+01  1  2  4  2  6  5       -4 -.294896226591D-04 0.100000000000D+01
-.152488861119D-07 0.000000000000D+00 0.000000000000D+00 0.644394443564D-07 0.000000000000D+00  6 22 -3 9900012 -13 -4 21 2 0.40328753D-01 0.13672858D-02 0.21076279D+04 0.21076279D+04 0.21076279D+04 0.12864424D+01  1  2  5  2  6  5       -4 -.109919777074D-04 0.100000000000D+01
0.461994472287D-07 0.000000000000D+00 -.000000000000D+00 0.644394443564D-07 0.000000000000D+00  6 22 -3 9900012 -13 -4 21 2 0.40328753D-01 0.13672858D-02 0.21076279D+04 0.21076279D+04 0.21076279D+04 0.12864424D+01  1  2  6  2  6  5       -4 0.333023205961D-04 0.100000000000D+01
0.706669877704D-08 0.000000000000D+00 0.000000000000D+00 0.644394443564D-07 0.507202865797D-08  6 22 -3 9900012 -13 -4 21 2 0.40328753D-01 0.13672858D-02 0.20821627D+04 0.20821627D+04 0.20821627D+04 0.12871058D+01  1  2 11  2  6  5       -4 0.508977303481D-05 0.100000000000D+01
  </mgrwgt>
  </event>
  <event>
  6     66 0.14665890E-05 0.54261770E+02 0.78161638E-02 0.11509144E+00
       22 -1    0    0    0    0 0.00000000E+00 0.00000000E+00 0.67090648E+03 0.67090648E+03 0.00000000E+00 0.0000E+00 0.9000E+01
       -1 -1    0    0    0  501 0.00000000E+00 0.00000000E+00 -.20052477E+03 0.20052477E+03 0.00000000E+00 0.0000E+00 0.9000E+01
       24  2    1    2    0    0 -.80511733E+02 0.17736934E+02 0.65714956E+03 0.66727697E+03 0.81340468E+02 0.0000E+00 0.0000E+00
  9900012  1    3    3    0    0 -.87928304E+02 0.52727699E+01 0.57032844E+03 0.57925272E+03 0.50000000E+02 0.0000E+00 0.9000E+01
      -13  1    3    3    0    0 0.74165709E+01 0.12464164E+02 0.86821126E+02 0.88024252E+02 0.00000000E+00 0.0000E+00 0.9000E+01
       -2  1    1    2    0  501 0.80511733E+02 -.17736934E+02 -.18676785E+03 0.20415428E+03 0.00000000E+00 0.0000E+00 0.9000E+01
#aMCatNLO 1  0  0  2  5 0.18398887D+02 0.00000000D+00  -5  6  0 0.00000000D+00 0.00000000D+00 0.00000000D+00 0.00000000D+00 0.00000000D+00
  <mgrwgt>
 0.2240788225D-03    9    4    0
 0.366787904007086D+03 0.000000000000000D+00 0.000000000000000D+00 0.366787904007086D+03
 0.366787904007086D+03 0.000000000000000D+00 0.000000000000000D+00 -.366787904007086D+03
 0.322402746733690D+03 -.879283040385272D+02 0.527276986361459D+01 0.306078980572501D+03
 0.488947605361700D+02 0.741657093502388D+01 0.124641639000174D+02 0.466940756598594D+02
 0.362278300744311D+03 0.805117331035033D+02 -.177369337636320D+02 -.352773056232361D+03
 0.000000000000000D+00 -.000000000000000D+00 -.000000000000000D+00 -.000000000000000D+00
 0.370839835901556D+03 0.000000000000000D+00 0.000000000000000D+00 0.370839835901556D+03
 0.384158371286986D+03 0.000000000000000D+00 0.000000000000000D+00 -.384158371286986D+03
 0.322056957787825D+03 -.859419681091667D+02 0.122604987162259D+02 0.306078980572501D+03
 0.492232383904035D+02 0.771898752556854D+01 0.135280348717002D+02 0.466940756598594D+02
 0.362482059829390D+03 0.827455695005403D+02 -.987852330402075D+01 -.352773056232361D+03
 0.212359511809233D+02 -.452258891694219D+01 -.159100102839053D+02 -.133185353854294D+02
 0.366787904007086D+03 0.000000000000000D+00 0.000000000000000D+00 0.366787904007086D+03
 0.366787904007086D+03 0.000000000000000D+00 0.000000000000000D+00 -.366787904007086D+03
 0.322402746733690D+03 -.879283040385272D+02 0.527276986361459D+01 0.306078980572501D+03
 0.488947605361700D+02 0.741657093502388D+01 0.124641639000174D+02 0.466940756598594D+02
 0.000000000000000D+00 -.000000000000000D+00 -.000000000000000D+00 -.000000000000000D+00
 0.362278300744311D+03 0.805117331035033D+02 -.177369337636320D+02 -.352773056232361D+03
 0.370839835901556D+03 0.000000000000000D+00 0.000000000000000D+00 0.370839835901556D+03
 0.384158371286986D+03 0.000000000000000D+00 0.000000000000000D+00 -.384158371286986D+03
 0.322056957787825D+03 -.859419681091667D+02 0.122604987162259D+02 0.306078980572501D+03
 0.492232383904035D+02 0.771898752556854D+01 0.135280348717002D+02 0.466940756598594D+02
 0.212359511809233D+02 -.452258891694219D+01 -.159100102839053D+02 -.133185353854294D+02
 0.362482059829390D+03 0.827455695005403D+02 -.987852330402075D+01 -.352773056232361D+03
0.333193329978D-04 0.000000000000D+00 0.000000000000D+00 0.484521702075D-04 0.000000000000D+00  6 22 -1 9900012 -13 -2 21 0 0.10321638D+00 0.30849964D-01 0.98241607D+04 0.98241607D+04 0.98241607D+04 0.12101293D+01  1  2  2  1  6  2       -1 0.374208436140D-04 0.100000000000D+01
0.756744409537D-06 0.000000000000D+00 -.639775059466D-07 0.484521702075D-04 0.000000000000D+00  6 22 -1 9900012 -13 -2 21 2 0.10321638D+00 0.30849964D-01 0.98241607D+04 0.98241607D+04 0.98241607D+04 0.12101293D+01  1  2  3  1  6  2       -1 0.124460070789D-05 0.100000000000D+01
-.488741776310D-05 0.000000000000D+00 0.000000000000D+00 0.484521702075D-04 0.000000000000D+00  6 22 -1 9900012 -13 -2 21 2 0.10321638D+00 0.30849964D-01 0.98241607D+04 0.98241607D+04 0.98241607D+04 0.12101293D+01  1  2 15  1  6  2       -1 -.803822734736D-05 0.100000000000D+01
0.113065712068D-03 0.000000000000D+00 0.000000000000D+00 0.484521702075D-04 0.000000000000D+00  6 22 -1 9900012 -13 -2 21 2 0.10321638D+00 0.32667909D-01 0.11624110D+05 0.11624110D+05 0.11624110D+05 0.12026145D+01  1  2 12  1  6  2       -1 0.168740268141D-03 0.100000000000D+01
-.379731172812D-05 0.000000000000D+00 0.000000000000D+00 0.484521702075D-04 0.000000000000D+00  6 22 -1 9900012 -13 -2 21 2 0.10321638D+00 0.30849964D-01 0.98241607D+04 0.98241607D+04 0.98241607D+04 0.12101293D+01  1  2  4  1  6  2       -1 -.624535418476D-05 0.100000000000D+01
-.363570609548D-03 0.000000000000D+00 -.716913498979D-04 0.484521702075D-04 0.000000000000D+00  6 22 -1 9900012 -13 -2 21 2 0.10321638D+00 0.32615998D-01 0.98241607D+04 0.98241607D+04 0.98241607D+04 0.12101293D+01  1  2  5  1  6  2       -1 -.546457592104D-03 0.100000000000D+01
0.367103464620D-03 0.000000000000D+00 0.715804128344D-04 0.484521702075D-04 0.000000000000D+00  6 22 -1 9900012 -13 -2 21 2 0.10321638D+00 0.30849964D-01 0.98241607D+04 0.98241607D+04 0.98241607D+04 0.12101293D+01  1  2  6  1  6  2       -1 0.603766907528D-03 0.100000000000D+01
0.182506835826D-05 0.000000000000D+00 0.000000000000D+00 0.484521702075D-04 0.000000000000D+00  6 22 21 9900012 -13 1 -2 2 0.10321638D+00 0.32667909D-01 0.11624110D+05 0.11624110D+05 0.11624110D+05 0.12026145D+01  3  4 12  3  5  2       -1 0.294639033201D-04 0.100000000000D+01
-.341965108033D-05 0.000000000000D+00 -.689618011580D-06 0.484521702075D-04 0.000000000000D+00  6 22 21 9900012 -13 1 -2 2 0.10321638D+00 0.32615998D-01 0.98241607D+04 0.98241607D+04 0.98241607D+04 0.12101293D+01  3  4  5  3  5  2       -1 -.558165271362D-04 0.100000000000D+01
  </mgrwgt>
  </event>
  <event>
  6     66 0.14665890E-05 0.11601497E+02 0.78161638E-02 0.11524670E+00
       22 -1    0    0    0    0 0.00000000E+00 0.00000000E+00 0.30373644E+01 0.30373644E+01 0.00000000E+00 0.0000E+00 0.9000E+01
       -1 -1    0    0    0  501 0.00000000E+00 0.00000000E+00 -.85167770E+03 0.85167770E+03 0.00000000E+00 0.0000E+00 0.9000E+01
       24  2    1    2    0    0 0.11002766E+02 -.36788416E+01 -.48735029E+03 0.49323880E+03 0.75097344E+02 0.0000E+00 0.0000E+00
  9900012  1    3    3    0    0 0.20421233E+02 0.47782270E+01 -.45899488E+03 0.46218628E+03 0.50000000E+02 0.0000E+00 0.9000E+01
      -13  1    3    3    0    0 -.94184673E+01 -.84570686E+01 -.28355417E+02 0.31052523E+02 0.00000000E+00 0.0000E+00 0.9000E+01
       -2  1    1    2    0  501 -.11002766E+02 0.36788416E+01 -.36129004E+03 0.36147626E+03 0.00000000E+00 0.0000E+00 0.9000E+01
#aMCatNLO 1  0  0  2  2 0.14525873D+03 0.00000000D+00  -5  6  0 0.00000000D+00 0.00000000D+00 0.00000000D+00 0.00000000D+00 0.00000000D+00
  <mgrwgt>
 0.3621474207D-04    3    2    0
 0.508611396180163D+02 0.000000000000000D+00 0.000000000000000D+00 0.508611396180163D+02
 0.508611396180163D+02 0.000000000000000D+00 0.000000000000000D+00 -.508611396180163D+02
 0.542261511693936D+02 0.204212333973960D+02 0.477822697524053D+01 -.785648870735701D+00
 0.243556175626086D+02 -.941846731254794D+01 -.845706862383268D+01 0.208078487746884D+02
 0.231405105040304D+02 -.110027660848481D+02 0.367884164859216D+01 -.200221999039527D+02
 0.000000000000000D+00 -.000000000000000D+00 0.000000000000000D+00 0.000000000000000D+00
 0.127988879432407D+03 0.000000000000000D+00 0.000000000000000D+00 0.127988879432407D+03
 0.111975376265751D+03 0.000000000000000D+00 0.000000000000000D+00 -.111975376265751D+03
 0.946441904347168D+02 0.802915389959522D+02 0.318971857008394D+01 -.785648870735701D+00
 0.249388621011024D+02 0.104060022895740D+02 -.898306120522852D+01 0.208078487746884D+02
 0.214251022520346D+02 0.691992305620281D+01 0.320330804209166D+01 -.200221999039527D+02
 0.989561009103049D+02 -.976174643417290D+02 0.259003459305292D+01 0.160135031666562D+02
0.256991110436D-06 0.000000000000D+00 0.000000000000D+00 0.604554931044D-08 0.000000000000D+00  6 22 -1 9900012 -13 -2 21 0 0.46728683D-03 0.13102734D+00 0.15397830D+04 0.15397830D+04 0.15397830D+04 0.13039300D+01  1  2  2  1  6  2       -1 0.413272429566D-04 0.100000000000D+01
0.206080716821D-07 0.000000000000D+00 -.493456765693D-09 0.604554931044D-08 0.000000000000D+00  6 22 -1 9900012 -13 -2 21 2 0.46728683D-03 0.13102734D+00 0.15397830D+04 0.15397830D+04 0.15397830D+04 0.13039300D+01  1  2  3  1  6  2       -1 0.563461475114D-05 0.100000000000D+01
-.393065611965D-07 0.000000000000D+00 0.000000000000D+00 0.604554931044D-08 0.000000000000D+00  6 22 -1 9900012 -13 -2 21 2 0.46728683D-03 0.13102734D+00 0.15397830D+04 0.15397830D+04 0.15397830D+04 0.13039300D+01  1  2 15  1  6  2       -1 -.107471156424D-04 0.100000000000D+01
  </mgrwgt>
  </event>
  <event>
  7     66 -.14665890E-05 0.97792998E+02 0.78161638E-02 0.11258992E+00
       22 -1    0    0    0    0 0.00000000E+00 0.00000000E+00 0.46641325E+03 0.46641325E+03 0.00000000E+00 0.0000E+00 0.9000E+01
       -3 -1    0    0    0  501 0.00000000E+00 0.00000000E+00 -.22967534E+03 0.22967534E+03 0.00000000E+00 0.0000E+00 0.9000E+01
       24  2    1    2    0    0 0.11072346E+03 -.13665858E+02 0.44078673E+03 0.46138490E+03 0.78336761E+02 0.0000E+00 0.0000E+00
  9900012  1    3    3    0    0 0.45996857E+02 -.18882648E+02 0.25533894E+03 0.26489666E+03 0.50000000E+02 0.0000E+00 0.9000E+01
      -13  1    3    3    0    0 0.64726602E+02 0.52167900E+01 0.18544779E+03 0.19648825E+03 0.00000000E+00 0.0000E+00 0.9000E+01
       -4  1    1    2    0  502 -.62353347E+02 0.22233527E+02 -.12925197E+03 0.14521825E+03 0.00000000E+00 0.0000E+00 0.9000E+01
       21  1    1    2  502  501 -.48370111E+02 -.85676691E+01 -.74796859E+02 0.89485433E+02 0.00000000E+00 0.0000E+00 0.9000E+01
#aMCatNLO 2  0  0  5  2 0.15359282D+02 0.00000000D+00  -5  6  0 0.00000000D+00 0.00000000D+00 0.00000000D+00 0.00000000D+00 0.00000000D+00
  <mgrwgt>
 -.5530517711D-04    2    2    0
 0.327297453756017D+03 0.000000000000000D+00 0.000000000000000D+00 0.327297453756017D+03
 0.327297453756017D+03 -.000000000000000D+00 -.000000000000000D+00 -.327297453756017D+03
 0.189775431929194D+03 0.461519950431981D+02 -.189017958789169D+02 0.176146047443582D+03
 0.142209385033027D+03 0.648428514926579D+02 0.520244211249592D+01 0.126458880264847D+03
 0.322610090549814D+03 -.110994846535856D+03 0.136993537664210D+02 -.302604927708428D+03
 0.000000000000000D+00 -.000000000000000D+00 0.000000000000000D+00 0.000000000000000D+00
 0.327297453756017D+03 0.000000000000000D+00 0.000000000000000D+00 0.327297453756017D+03
 0.327297453756017D+03 -.000000000000000D+00 -.000000000000000D+00 -.327297453756017D+03
 0.189343262453680D+03 0.459968566642366D+02 -.188826481833034D+02 0.175723094131643D+03
 0.141875083269493D+03 0.647266018733340D+02 0.521679002782742D+01 0.126141949265350D+03
 0.201168094259127D+03 -.623533471024606D+02 0.222335272439319D+02 -.189964029540496D+03
 0.122208467529734D+03 -.483701114351101D+02 -.856766908845595D+01 -.111901013856496D+03
-.107156956270D-03 0.000000000000D+00 0.000000000000D+00 0.131117676175D-04 0.000000000000D+00  6 22 -3 9900012 -13 -4 21 2 0.71755884D-01 0.35334668D-01 0.15721716D+05 0.15721716D+05 0.15721716D+05 0.11894733D+01  1  2 13  2  6  5       -4 -.181228578885D-03 0.100000000000D+01
0.744560738725D-04 0.000000000000D+00 0.000000000000D+00 0.131117676175D-04 0.132514171745D-06  6 22 -3 9900012 -13 -4 21 2 0.71755884D-01 0.35334668D-01 0.15721716D+05 0.15721716D+05 0.15721716D+05 0.11894733D+01  1  2  1  2  6  5       -4 0.125923401774D-03 0.100000000000D+01
  </mgrwgt>
  </event>
  <event>
  6     66 -.14665890E-05 0.25698175E+02 0.78161638E-02 0.12899083E+00
       22 -1    0    0    0    0 0.00000000E+00 0.00000000E+00 0.42655164E+02 0.42655164E+02 0.00000000E+00 0.0000E+00 0.9000E+01
       -3 -1    0    0    0  501 0.00000000E+00 0.00000000E+00 -.11263377E+03 0.11263377E+03 0.00000000E+00 0.0000E+00 0.9000E+01
       24  2    1    2    0    0 0.23787195E+02 -.97244829E+01 -.40943674E+01 0.84570273E+02 0.80467205E+02 0.0000E+00 0.0000E+00
  9900012  1    3    3    0    0 0.10644941E+02 -.25909301E+02 0.11601291E+02 0.58473897E+02 0.50000000E+02 0.0000E+00 0.9000E+01
      -13  1    3    3    0    0 0.13142254E+02 0.16184818E+02 -.15695659E+02 0.26096377E+02 0.00000000E+00 0.0000E+00 0.9000E+01
       -4  1    1    2    0  501 -.23787195E+02 0.97244829E+01 -.65884242E+02 0.70718665E+02 0.00000000E+00 0.0000E+00 0.9000E+01
#aMCatNLO 1  0  0  2  5 0.59739574D-01 0.00000000D+00  -5  6  0 0.00000000D+00 0.00000000D+00 0.00000000D+00 0.00000000D+00 0.00000000D+00
  <mgrwgt>
 -.3421808082D-04    9    4    0
 0.693138669088936D+02 0.000000000000000D+00 0.000000000000000D+00 0.693138669088936D+02
 0.693138669088936D+02 0.000000000000000D+00 0.000000000000000D+00 -.693138669088936D+02
 0.713579549225258D+02 0.106449409794909D+02 -.259093005104510D+02 0.425129522537253D+02
 0.213097203187758D+02 0.131422541130738D+02 0.161848176558818D+02 -.440874294302795D+01
 0.459600585764856D+02 -.237871950925648D+02 0.972448285456919D+01 -.381042093106974D+02
 0.000000000000000D+00 -.000000000000000D+00 0.000000000000000D+00 -.000000000000000D+00
 0.693147961626616D+02 0.000000000000000D+00 0.000000000000000D+00 0.693147961626616D+02
 0.702797570828827D+02 0.000000000000000D+00 0.000000000000000D+00 -.702797570828827D+02
 0.713684876897373D+02 0.106690270551691D+02 -.259283973181668D+02 0.425129522537253D+02
 0.213098269289280D+02 0.131494464568441D+02 0.161791151575652D+02 -.440874294302795D+01
 0.459494320586077D+02 -.237716847294781D+02 0.971218535847953D+01 -.381042093106974D+02
 0.966806568271400D+00 -.467887825350725D-01 0.370968021220346D-01 -.964960920221086D+00
 0.693138669088936D+02 0.000000000000000D+00 0.000000000000000D+00 0.693138669088936D+02
 0.693138669088936D+02 0.000000000000000D+00 0.000000000000000D+00 -.693138669088936D+02
 0.713579549225258D+02 0.106449409794909D+02 -.259093005104510D+02 0.425129522537253D+02
 0.213097203187758D+02 0.131422541130738D+02 0.161848176558818D+02 -.440874294302795D+01
 0.000000000000000D+00 -.000000000000000D+00 0.000000000000000D+00 -.000000000000000D+00
 0.459600585764856D+02 -.237871950925648D+02 0.972448285456919D+01 -.381042093106974D+02
 0.693147961626616D+02 0.000000000000000D+00 0.000000000000000D+00 0.693147961626616D+02
 0.702797570828827D+02 0.000000000000000D+00 0.000000000000000D+00 -.702797570828827D+02
 0.713684876897373D+02 0.106690270551691D+02 -.259283973181668D+02 0.425129522537253D+02
 0.213098269289280D+02 0.131494464568441D+02 0.161791151575652D+02 -.440874294302795D+01
 0.966806568271400D+00 -.467887825350725D-01 0.370968021220346D-01 -.964960920221086D+00
 0.459494320586077D+02 -.237716847294781D+02 0.971218535847953D+01 -.381042093106974D+02
0.788855899274D-08 0.000000000000D+00 0.000000000000D+00 0.547538636626D-06 0.000000000000D+00  6 22 -3 9900012 -13 -4 21 0 0.65623330D-02 0.17328273D-01 0.26966385D+04 0.26966385D+04 0.26966385D+04 0.12732189D+01  1  2  2  1  6  2       -3 0.109841877567D-05 0.100000000000D+01
0.302282591066D-09 0.000000000000D+00 -.151470718187D-10 0.547538636626D-06 0.000000000000D+00  6 22 -3 9900012 -13 -4 21 2 0.65623330D-02 0.17328273D-01 0.26966385D+04 0.26966385D+04 0.26966385D+04 0.12732189D+01  1  2  3  1  6  2       -3 0.682322252595D-07 0.100000000000D+01
-.122574965895D-08 0.000000000000D+00 0.000000000000D+00 0.547538636626D-06 0.000000000000D+00  6 22 -3 9900012 -13 -4 21 2 0.65623330D-02 0.17328273D-01 0.26966385D+04 0.26966385D+04 0.26966385D+04 0.12732189D+01  1  2 15  1  6  2       -3 -.276680263149D-06 0.100000000000D+01
-.428176082541D-04 0.000000000000D+00 0.000000000000D+00 0.547538636626D-06 0.000000000000D+00  6 22 -3 9900012 -13 -4 21 2 0.65623330D-02 0.17328273D-01 0.26966385D+04 0.26966385D+04 0.26966385D+04 0.12732189D+01  1  2  4  1  6  2       -3 -.966493201334D-02 0.100000000000D+01
-.354564372031D-04 0.000000000000D+00 -.676735136924D-07 0.547538636626D-06 0.000000000000D+00  6 22 -3 9900012 -13 -4 21 2 0.65623330D-02 0.17569859D-01 0.26966385D+04 0.26966385D+04 0.26966385D+04 0.12732189D+01  1  2  5  1  6  2       -3 -.781943871394D-02 0.100000000000D+01
0.354539824015D-04 0.000000000000D+00 0.676670278198D-07 0.547538636626D-06 0.000000000000D+00  6 22 -3 9900012 -13 -4 21 2 0.65623330D-02 0.17328273D-01 0.26966385D+04 0.26966385D+04 0.26966385D+04 0.12732189D+01  1  2  6  1  6  2       -3 0.800279005494D-02 0.100000000000D+01
0.428493384457D-04 0.000000000000D+00 0.000000000000D+00 0.547538636626D-06 0.163061178693D-02  6 22 -3 9900012 -13 -4 21 2 0.65624210D-02 0.17569743D-01 0.26994394D+04 0.26994394D+04 0.26994394D+04 0.12731640D+01  1  2 11  1  6  2       -3 0.945014876715D-02 0.100000000000D+01
-.901586221395D-07 0.000000000000D+00 -.172089323687D-09 0.547538636626D-06 0.000000000000D+00  6 22 21 9900012 -13 3 -4 2 0.65623330D-02 0.17569859D-01 0.26966385D+04 0.26966385D+04 0.26966385D+04 0.12732189D+01  3  4  5  3  5  2       -3 -.342795523431D-03 0.100000000000D+01
0.891912552733D-07 0.000000000000D+00 0.000000000000D+00 0.547538636626D-06 0.338386116936D-05  6 22 21 9900012 -13 3 -4 2 0.65624210D-02 0.17569743D-01 0.26994394D+04 0.26994394D+04 0.26994394D+04 0.12731640D+01  3  4 11  3  5  2       -3 0.339119377057D-03 0.100000000000D+01
  </mgrwgt>
  </event>
  <event>
  6     66 0.14665890E-05 0.67327254E+01 0.78161638E-02 0.13156646E+00
       22 -1    0    0    0    0 0.00000000E+00 0.00000000E+00 0.12266890E+03 0.12266890E+03 0.00000000E+00 0.0000E+00 0.9000E+01
       -1 -1    0    0    0  501 0.00000000E+00 0.00000000E+00 -.61817343E+02 0.61817343E+02 0.00000000E+00 0.0000E+00 0.9000E+01
       24  2    1    2    0    0 -.86265253E+00 0.66772316E+01 0.10936983E+03 0.13550306E+03 0.79711916E+02 0.0000E+00 0.0000E+00
  9900012  1    3    3    0    0 -.82478427E+01 0.12808476E+02 0.11357367E+03 0.12502425E+03 0.50000000E+02 0.0000E+00 0.9000E+01
      -13  1    3    3    0    0 0.73851902E+01 -.61312444E+01 -.42038403E+01 0.10478810E+02 0.00000000E+00 0.0000E+00 0.9000E+01
       -2  1    1    2    0  501 0.86265253E+00 -.66772316E+01 -.48518273E+02 0.48983185E+02 0.00000000E+00 0.0000E+00 0.9000E+01
#aMCatNLO 1  0  0  5  2 0.16773425D+02 0.00000000D+00  -5  6  0 0.00000000D+00 0.00000000D+00 0.00000000D+00 0.00000000D+00 0.00000000D+00
  <mgrwgt>
 0.3478221987D-04    6    2    0
 0.870807994575663D+02 0.000000000000000D+00 0.000000000000000D+00 0.870807994575663D+02
 0.870807994575663D+02 -.000000000000000D+00 -.000000000000000D+00 -.870807994575663D+02
 0.927536237947181D+02 -.824784274612184D+01 0.128084760544625D+02 0.766234347849899D+02
 0.125688247177274D+02 0.738519021287703D+01 -.613124442851863D+01 -.811431833627076D+01
 0.688391504026871D+02 0.862652533244814D+00 -.667723162594392D+01 -.685091164487191D+02
 0.000000000000000D+00 0.000000000000000D+00 -.000000000000000D+00 0.000000000000000D+00
 0.870807994575663D+02 0.000000000000000D+00 0.000000000000000D+00 0.870807994575663D+02
 0.870807994575663D+02 -.000000000000000D+00 -.000000000000000D+00 -.870807994575663D+02
 0.897278275400895D+02 -.820218939753280D+01 0.124551032058575D+02 0.729977912561913D+02
 0.129288684270912D+02 0.739156924518329D+01 -.618062036450298D+01 -.862092076338644D+01
 0.409929984840056D+02 0.148224244914582D+02 0.796413367470642D+00 -.382110897862495D+02
 0.305119044639463D+02 -.140118043391087D+02 -.707089620882525D+01 -.261657807065553D+02
0.215492124022D-06 0.000000000000D+00 0.000000000000D+00 0.270696305963D-05 0.000000000000D+00  6 22 -1 9900012 -13 -2 21 0 0.18872139D-01 0.95103605D-02 0.11765130D+04 0.11765130D+04 0.11765130D+04 0.13195176D+01  1  2  2  2  6  5       -2 0.196816839334D-04 0.100000000000D+01
0.569086530027D-07 0.000000000000D+00 -.413773248311D-09 0.270696305963D-05 0.000000000000D+00  6 22 -1 9900012 -13 -2 21 2 0.18872139D-01 0.95103605D-02 0.11765130D+04 0.11765130D+04 0.11765130D+04 0.13195176D+01  1  2  3  2  6  5       -2 0.904981135668D-05 0.100000000000D+01
-.302543025537D-07 0.000000000000D+00 0.000000000000D+00 0.270696305963D-05 0.000000000000D+00  6 22 -1 9900012 -13 -2 21 2 0.18872139D-01 0.95103605D-02 0.11765130D+04 0.11765130D+04 0.11765130D+04 0.13195176D+01  1  2 15  2  6  5       -2 -.481114411241D-05 0.100000000000D+01
-.150909268043D-08 0.000000000000D+00 0.000000000000D+00 0.270696305963D-05 0.000000000000D+00  6 22 -1 9900012 -13 -2 21 2 0.18872139D-01 0.95103605D-02 0.11765130D+04 0.11765130D+04 0.11765130D+04 0.13195176D+01  1  2  4  2  6  5       -2 -.239981151496D-06 0.100000000000D+01
-.132539201777D-06 0.000000000000D+00 0.000000000000D+00 0.270696305963D-05 0.000000000000D+00  6 22 -1 9900012 -13 -2 21 2 0.18872139D-01 0.95103605D-02 0.11765130D+04 0.11765130D+04 0.11765130D+04 0.13195176D+01  1  2  5  2  6  5       -2 -.210768435055D-04 0.100000000000D+01
0.202351852591D-06 0.000000000000D+00 -.000000000000D+00 0.270696305963D-05 0.000000000000D+00  6 22 -1 9900012 -13 -2 21 2 0.18872139D-01 0.95103605D-02 0.11765130D+04 0.11765130D+04 0.11765130D+04 0.13195176D+01  1  2  6  2  6  5       -2 0.321786933445D-04 0.100000000000D+01
  </mgrwgt>
  </event>
  <event>
  7     66 0.14665890E-05 0.40542920E+02 0.78161638E-02 0.12493348E+00
       22 -1    0    0    0    0 0.00000000E+00 0.00000000E+00 0.50202118E+03 0.50202118E+03 0.00000000E+00 0.0000E+00 0.9000E+01
       -1 -1    0    0    0  501 0.00000000E+00 0.00000000E+00 -.21945188E+02 0.21945188E+02 0.00000000E+00 0.0000E+00 0.9000E+01
       24  2    1    2    0    0 0.32221794E+02 0.23561514E+02 0.36424919E+03 0.38045866E+03 0.10236178E+03 0.0000E+00 0.0000E+00
  9900012  1    3    3    0    0 0.38073356E+01 0.21564409E+02 0.33577465E+03 0.34018250E+03 0.50000000E+02 0.0000E+00 0.9000E+01
      -13  1    3    3    0    0 0.28414458E+02 0.19971043E+01 0.28474541E+02 0.40276163E+02 0.00000000E+00 0.0000E+00 0.9000E+01
       -2  1    1    2    0  502 0.63257042E+00 0.17461336E+01 0.98572562E+02 0.98590056E+02 0.00000000E+00 0.0000E+00 0.9000E+01
       21  1    1    2  502  501 -.32854364E+02 -.25307647E+02 0.17254242E+02 0.44917648E+02 0.00000000E+00 0.0000E+00 0.9000E+01
#aMCatNLO 2  0  0  5  2 0.31026003D+02 0.00000000D+00  -5  6  0 0.00000000D+00 0.00000000D+00 0.00000000D+00 0.00000000D+00 0.00000000D+00
  <mgrwgt>
 0.1855790798D-02    2    2    0
 0.104961654526690D+03 0.000000000000000D+00 0.000000000000000D+00 0.104961654526690D+03
 0.104961654526690D+03 -.000000000000000D+00 -.000000000000000D+00 -.104961654526690D+03
 0.933258096843381D+02 0.136628911242945D+02 0.287710784351697D+02 0.720781326411852D+02
 0.365924217769460D+02 0.324803576319751D+02 0.497020848337142D+01 -.161036867590228D+02
 0.800050775920967D+02 -.461432487562696D+02 -.337412869185412D+02 -.559744458821624D+02
 0.000000000000000D+00 0.000000000000000D+00 0.000000000000000D+00 0.000000000000000D+00
 0.104961654526690D+03 0.000000000000000D+00 0.000000000000000D+00 0.104961654526690D+03
 0.104961654526690D+03 -.000000000000000D+00 -.000000000000000D+00 -.104961654526690D+03
 0.812050926004545D+02 0.380733562793360D+01 0.215644093187232D+02 0.601227703154073D+02
 0.354101290376442D+02 0.284144579767106D+02 0.199710427965762D+01 -.210358596413013D+02
 0.206530324234420D+02 0.632570418534126D+00 0.174613358059903D+01 0.205693612070975D+02
 0.726550549918401D+02 -.328543640231784D+02 -.253076471789799D+02 -.596562718812035D+02
-.247831400934D-06 0.000000000000D+00 0.000000000000D+00 0.219681847000D-08 0.000000000000D+00  6 22 -1 9900012 -13 -2 21 2 0.77234027D-01 0.33761827D-02 0.39941278D+04 0.39941278D+04 0.39941278D+04 0.12529806D+01  1  2 13  2  6  5       -2 -.188386483888D-04 0.100000000000D+01
0.246616440976D-04 0.000000000000D+00 0.000000000000D+00 0.219681847000D-08 0.603386611389D-09  6 22 -1 9900012 -13 -2 21 2 0.77234027D-01 0.33761827D-02 0.39941278D+04 0.39941278D+04 0.39941278D+04 0.12529806D+01  1  2  1  2  6  5       -2 0.187462944604D-02 0.100000000000D+01
  </mgrwgt>
  </event>
  <event>
  6     66 0.14665890E-05 0.16438650E+02 0.78161638E-02 0.13129483E+00
       22 -1    0    0    0    0 0.00000000E+00 0.00000000E+00 0.82565946E+02 0.82565946E+02 0.00000000E+00 0.0000E+00 0.9000E+01
       -3 -1    0    0    0  501 0.00000000E+00 0.00000000E+00 -.32511552E+02 0.32511552E+02 0.00000000E+00 0.0000E+00 0.9000E+01
       24  2    1    2    0    0 0.11830913E+02 0.11413093E+02 0.54933201E+02 0.97930138E+02 0.79387821E+02 0.0000E+00 0.0000E+00
  9900012  1    3    3    0    0 -.82113583E+01 -.95062827E+00 0.54437592E+02 0.74375947E+02 0.50000000E+02 0.0000E+00 0.9000E+01
      -13  1    3    3    0    0 0.20042272E+02 0.12363722E+02 0.49560954E+00 0.23554191E+02 0.00000000E+00 0.0000E+00 0.9000E+01
       -4  1    1    2    0  501 -.11830913E+02 -.11413093E+02 -.48788074E+01 0.17147361E+02 0.00000000E+00 0.0000E+00 0.9000E+01
#aMCatNLO 1  0  0  2  5 0.71153115D+01 0.00000000D+00  -5  6  0 0.00000000D+00 0.00000000D+00 0.00000000D+00 0.00000000D+00 0.00000000D+00
  <mgrwgt>
 0.5146086710D-04    8    4    0
 0.518106848437383D+02 0.000000000000000D+00 0.000000000000000D+00 0.518106848437383D+02
 0.518106848437383D+02 0.000000000000000D+00 0.000000000000000D+00 -.518106848437383D+02
 0.563026455569239D+02 -.821135826670641D+01 -.950628270485566D+00 0.245287137456440D+02
 0.259188805294133D+02 0.200422717236018D+02 0.123637216992336D+02 -.108274695935481D+02
 0.213998436011394D+02 -.118309134568954D+02 -.114130934287481D+02 -.137012441520959D+02
 0.000000000000000D+00 0.000000000000000D+00 0.000000000000000D+00 0.000000000000000D+00
 0.552048502204279D+02 0.000000000000000D+00 0.000000000000000D+00 0.552048502204279D+02
 0.523738482007412D+02 0.000000000000000D+00 0.000000000000000D+00 -.523738482007412D+02
 0.563715200741829D+02 -.838171151958704D+01 -.241606900991708D+01 0.245287137456440D+02
 0.255454941971968D+02 0.199644621956320D+02 0.116943757943288D+02 -.108274695935481D+02
 0.217398916253244D+02 -.118961368750860D+02 -.119741690323263D+02 -.137012441520959D+02
 0.392179252446505D+01 0.313386199041042D+00 0.269586224791454D+01 0.283100201968662D+01
 0.518106848437383D+02 0.000000000000000D+00 0.000000000000000D+00 0.518106848437383D+02
 0.518106848437383D+02 0.000000000000000D+00 0.000000000000000D+00 -.518106848437383D+02
 0.563026455569239D+02 -.821135826670641D+01 -.950628270485566D+00 0.245287137456440D+02
 0.259188805294133D+02 0.200422717236018D+02 0.123637216992336D+02 -.108274695935481D+02
 0.000000000000000D+00 0.000000000000000D+00 0.000000000000000D+00 0.000000000000000D+00
 0.213998436011394D+02 -.118309134568954D+02 -.114130934287481D+02 -.137012441520959D+02
 0.552048502204279D+02 0.000000000000000D+00 0.000000000000000D+00 0.552048502204279D+02
 0.523738482007412D+02 0.000000000000000D+00 0.000000000000000D+00 -.523738482007412D+02
 0.563715200741829D+02 -.838171151958704D+01 -.241606900991708D+01 0.245287137456440D+02
 0.255454941971968D+02 0.199644621956320D+02 0.116943757943288D+02 -.108274695935481D+02
 0.392179252446505D+01 0.313386199041042D+00 0.269586224791454D+01 0.283100201968662D+01
 0.217398916253244D+02 -.118961368750860D+02 -.119741690323263D+02 -.137012441520959D+02
0.574920037912D-07 0.000000000000D+00 0.000000000000D+00 0.235620909959D-06 0.000000000000D+00  6 22 -3 9900012 -13 -4 21 0 0.12702453D-01 0.50017773D-02 0.20550954D+04 0.20550954D+04 0.20550954D+04 0.12878211D+01  1  2  2  1  6  2       -3 0.216500100333D-04 0.100000000000D+01
0.233820682735D-08 0.000000000000D+00 -.110392216275D-09 0.235620909959D-06 0.000000000000D+00  6 22 -3 9900012 -13 -4 21 2 0.12702453D-01 0.50017773D-02 0.20550954D+04 0.20550954D+04 0.20550954D+04 0.12878211D+01  1  2  3  1  6  2       -3 0.146030860961D-05 0.100000000000D+01
-.628841759397D-08 0.000000000000D+00 0.000000000000D+00 0.235620909959D-06 0.000000000000D+00  6 22 -3 9900012 -13 -4 21 2 0.12702453D-01 0.50017773D-02 0.20550954D+04 0.20550954D+04 0.20550954D+04 0.12878211D+01  1  2 15  1  6  2       -3 -.392738154979D-05 0.100000000000D+01
0.471122407522D-07 0.000000000000D+00 0.000000000000D+00 0.235620909959D-06 0.000000000000D+00  6 22 -3 9900012 -13 -4 21 2 0.12702453D-01 0.53873774D-02 0.21848865D+04 0.21848865D+04 0.21848865D+04 0.12844842D+01  1  2 12  1  6  2       -3 0.264337472587D-04 0.100000000000D+01
-.219484420875D-08 0.000000000000D+00 0.000000000000D+00 0.235620909959D-06 0.000000000000D+00  6 22 -3 9900012 -13 -4 21 2 0.12702453D-01 0.50017773D-02 0.20550954D+04 0.20550954D+04 0.20550954D+04 0.12878211D+01  1  2  4  1  6  2       -3 -.137077261828D-05 0.100000000000D+01
0.785267434705D-10 0.000000000000D+00 0.000000000000D+00 0.235620909959D-06 0.700613324419D-08  6 22 -3 9900012 -13 -4 21 2 0.13534603D-01 0.50561448D-02 0.21848865D+04 0.21848865D+04 0.21848865D+04 0.12844842D+01  1  2 11  1  6  2       -3 0.442562874506D-07 0.100000000000D+01
0.681745988275D-09 0.000000000000D+00 0.000000000000D+00 0.235620909959D-06 0.000000000000D+00  6 22 21 9900012 -13 3 -4 2 0.12702453D-01 0.53873774D-02 0.21848865D+04 0.21848865D+04 0.21848865D+04 0.12844842D+01  3  4 12  3  5  2       -3 0.701472261108D-05 0.100000000000D+01
0.150342094093D-10 0.000000000000D+00 0.000000000000D+00 0.235620909959D-06 0.554093659045D-09  6 22 21 9900012 -13 3 -4 2 0.13534603D-01 0.50561448D-02 0.21848865D+04 0.21848865D+04 0.21848865D+04 0.12844842D+01  3  4 11  3  5  2       -3 0.155976470224D-06 0.100000000000D+01
  </mgrwgt>
  </event>
  <event>
  6     66 0.14665890E-05 0.53879172E+02 0.78161638E-02 0.92075689E-01
       22 -1    0    0    0    0 0.00000000E+00 0.00000000E+00 0.51173052E+03 0.51173052E+03 0.00000000E+00 0.0000E+00 0.9000E+01
       -1 -1    0    0    0  501 0.00000000E+00 0.00000000E+00 -.11661309E+02 0.11661309E+02 0.00000000E+00 0.0000E+00 0.9000E+01
       24  2    1    2    0    0 -.10901212E+02 0.52764844E+02 0.37073520E+03 0.38328383E+03 0.80987279E+02 0.0000E+00 0.0000E+00
  9900012  1    3    3    0    0 -.30591017E+02 0.34906178E+02 0.30147122E+03 0.30909407E+03 0.50000000E+02 0.0000E+00 0.9000E+01
      -13  1    3    3    0    0 0.19689805E+02 0.17858666E+02 0.69263982E+02 0.74189754E+02 0.00000000E+00 0.0000E+00 0.9000E+01
       -2  1    1    2    0  501 0.10901212E+02 -.52764844E+02 0.12933401E+03 0.14010800E+03 0.00000000E+00 0.0000E+00 0.9000E+01
#aMCatNLO 1  0  0  2  5 0.17605249D+03 0.00000000D+00  -5  6  0 0.00000000D+00 0.00000000D+00 0.00000000D+00 0.00000000D+00 0.00000000D+00
  <mgrwgt>
 0.4188597371D-04    5    4    0
 0.772492556472522D+02 0.000000000000000D+00 0.000000000000000D+00 0.772492556472522D+02
 0.772492556472522D+02 0.000000000000000D+00 0.000000000000000D+00 -.772492556472522D+02
 0.713329760605097D+02 -.305910174658630D+02 0.349061778220620D+02 0.208360714605010D+02
 0.271428251492369D+02 0.196898050533437D+02 0.178586660882816D+02 -.548749301508667D+01
 0.560227100847578D+02 0.109012124125193D+02 -.527648439103436D+02 -.153485784454143D+02
 0.000000000000000D+00 0.000000000000000D+00 -.000000000000000D+00 -.000000000000000D+00
 0.345845668033160D+03 0.000000000000000D+00 0.000000000000000D+00 0.345845668033160D+03
 0.228342704944095D+04 0.000000000000000D+00 0.000000000000000D+00 -.228342704944095D+04
 0.443745644465606D+03 -.381129256131849D+03 0.220718248517590D+03 0.208360714605010D+02
 0.721183624733708D+02 -.478626820632491D+02 0.536666497180717D+02 -.548749301508667D+01
 0.893838211230298D+02 -.880556211831866D+02 -.310155286739572D+00 -.153485784454143D+02
 0.202402488941210D+04 0.517047559378285D+03 -.274074742948922D+03 -.193758138140779D+04
 0.772492556472522D+02 0.000000000000000D+00 0.000000000000000D+00 0.772492556472522D+02
 0.772492556472522D+02 0.000000000000000D+00 0.000000000000000D+00 -.772492556472522D+02
 0.713329760605097D+02 -.305910174658630D+02 0.349061778220620D+02 0.208360714605010D+02
 0.271428251492369D+02 0.196898050533437D+02 0.178586660882816D+02 -.548749301508667D+01
 0.000000000000000D+00 0.000000000000000D+00 -.000000000000000D+00 -.000000000000000D+00
 0.560227100847578D+02 0.109012124125193D+02 -.527648439103436D+02 -.153485784454143D+02
 0.345845668033160D+03 0.000000000000000D+00 0.000000000000000D+00 0.345845668033160D+03
 0.228342704944095D+04 0.000000000000000D+00 0.000000000000000D+00 -.228342704944095D+04
 0.443745644465606D+03 -.381129256131849D+03 0.220718248517590D+03 0.208360714605010D+02
 0.721183624733708D+02 -.478626820632491D+02 0.536666497180717D+02 -.548749301508667D+01
 0.202402488941210D+04 0.517047559378285D+03 -.274074742948922D+03 -.193758138140779D+04
 0.893838211230298D+02 -.880556211831866D+02 -.310155286739572D+00 -.153485784454143D+02
0.440220899108D-06 0.000000000000D+00 0.000000000000D+00 0.138840642614D-06 0.000000000000D+00  6 22 -1 9900012 -13 -2 21 0 0.78727772D-01 0.17940475D-02 0.55267017D+04 0.55267017D+04 0.55267017D+04 0.12369786D+01  1  2  2  1  6  2       -1 0.519623828392D-04 0.100000000000D+01
-.962566605978D-08 0.000000000000D+00 -.845282082699D-09 0.138840642614D-06 0.000000000000D+00  6 22 -1 9900012 -13 -2 21 2 0.78727772D-01 0.17940475D-02 0.55267017D+04 0.55267017D+04 0.55267017D+04 0.12369786D+01  1  2  3  1  6  2       -1 -.173849550418D-05 0.100000000000D+01
-.511880936168D-07 0.000000000000D+00 0.000000000000D+00 0.138840642614D-06 0.000000000000D+00  6 22 -1 9900012 -13 -2 21 2 0.78727772D-01 0.17940475D-02 0.55267017D+04 0.55267017D+04 0.55267017D+04 0.12369786D+01  1  2 15  1  6  2       -1 -.924510263163D-05 0.100000000000D+01
0.799712385133D-05 0.000000000000D+00 -.314913498082D-05 0.138840642614D-06 0.000000000000D+00  6 22 -1 9900012 -13 -2 21 2 0.78727772D-01 0.21240982D+00 0.55267017D+04 0.55267017D+04 0.55267017D+04 0.12369786D+01  1  2  5  1  6  2       -1 0.325890223412D-06 0.100000000000D+01
0.181137833753D-05 0.000000000000D+00 -.115125618233D-05 0.138840642614D-06 0.000000000000D+00  6 22 21 9900012 -13 1 -2 2 0.78727772D-01 0.21240982D+00 0.55267017D+04 0.55267017D+04 0.55267017D+04 0.12369786D+01  3  4  5  3  5  2       -1 0.581298783340D-06 0.100000000000D+01
  </mgrwgt>
  </event>
  <event>
  7     66 0.14665890E-05 0.87917929E+01 0.78161638E-02 0.12750864E+00
       22 -1    0    0    0    0 0.00000000E+00 0.00000000E+00 0.60309347E+02 0.60309347E+02 0.00000000E+00 0.0000E+00 0.9000E+01
       21 -1    0    0  502  501 0.00000000E+00 0.00000000E+00 -.20647359E+03 0.20647359E+03 0.00000000E+00 0.0000E+00 0.9000E+01
       24  2    1    2    0    0 0.19721097E+02 0.13446029E+02 0.28037710E+02 0.87952283E+02 0.79873485E+02 0.0000E+00 0.0000E+00
  9900012  1    3    3    0    0 -.90644190E+01 0.13319101E+01 0.97434041E+01 0.51757817E+02 0.50000000E+02 0.0000E+00 0.9000E+01
      -13  1    3    3    0    0 0.28785516E+02 0.12114119E+02 0.18294305E+02 0.36194467E+02 0.00000000E+00 0.0000E+00 0.9000E+01
        3  1    1    2  502    0 -.60267177E+01 -.14451047E+02 -.28793368E+02 0.32775175E+02 0.00000000E+00 0.0000E+00 0.9000E+01
       -4  1    1    2    0  501 -.13694379E+02 0.10050177E+01 -.14540859E+03 0.14605548E+03 0.00000000E+00 0.0000E+00 0.9000E+01
#aMCatNLO 2  0  0  2  2 0.17304166D+02 0.00000000D+00  -5  6  0 0.00000000D+00 0.00000000D+00 0.00000000D+00 0.00000000D+00 0.00000000D+00
  <mgrwgt>
 0.2437212211D-05    1    2    0
 0.100918972830277D+03 0.000000000000000D+00 0.000000000000000D+00 0.100918972830277D+03
 0.100918972830277D+03 0.000000000000000D+00 0.000000000000000D+00 -.100918972830277D+03
 0.658483912695031D+02 -.110221039686472D+02 -.336228626075451D+01 0.412700725464185D+02
 0.508747793546120D+02 0.272453207723131D+02 0.842099274032856D+01 0.421310165040146D+02
 0.000000000000000D+00 -.000000000000000D+00 -.000000000000000D+00 -.000000000000000D+00
 0.851147750364383D+02 -.162232168036659D+02 -.505870647957405D+01 -.834010890504331D+02
 0.104677741738409D+03 0.000000000000000D+00 0.000000000000000D+00 0.104677741738409D+03
 0.118958311423161D+03 0.000000000000000D+00 0.000000000000000D+00 -.118958311423161D+03
 0.654763817336098D+02 -.906441903178367D+01 0.133191011520385D+01 0.412700725464185D+02
 0.524440687340261D+02 0.287855157254194D+02 0.121141189584442D+02 0.421310165040146D+02
 0.211917141751855D+02 -.602671773798013D+01 -.144510467603004D+02 -.142805696847529D+02
 0.845238885187487D+02 -.136943789556555D+02 0.100501768665241D+01 -.834010890504331D+02
0.298000957268D-08 0.000000000000D+00 0.000000000000D+00 0.299902020828D-05 0.741686988920D-08  6 22 21 9900012 -13 3 -4 2 0.92783610D-02 0.31765168D-01 0.31053743D+04 0.31053743D+04 0.31053743D+04 0.12658281D+01  1  2  1  3  5  2       -3 0.243721221136D-05 0.100000000000D+01
  </mgrwgt>
  </event>
  <event>
  7     66 0.14665890E-05 0.43552498E+02 0.78161638E-02 0.11996955E+00
       22 -1    0    0    0    0 0.00000000E+00 0.00000000E+00 0.22824546E+03 0.22824546E+03 0.00000000E+00 0.0000E+00 0.9000E+01
       21 -1    0    0  502  501 0.00000000E+00 0.00000000E+00 -.38987036E+02 0.38987036E+02 0.00000000E+00 0.0000E+00 0.9000E+01
       24  2    1    2    0    0 0.44615381E+01 0.67189382E+02 0.15096161E+03 0.18440761E+03 0.81746207E+02 0.0000E+00 0.0000E+00
  9900012  1    3    3    0    0 -.10281318E+02 0.51725021E+02 0.70840951E+02 0.10148706E+03 0.50000000E+02 0.0000E+00 0.9000E+01
      -13  1    3    3    0    0 0.14742856E+02 0.15464361E+02 0.80120657E+02 0.82920552E+02 0.00000000E+00 0.0000E+00 0.9000E+01
        3  1    1    2  502    0 -.10289839E+02 -.56382412E+02 0.19827080E+02 0.60646271E+02 0.00000000E+00 0.0000E+00 0.9000E+01
       -4  1    1    2    0  501 0.58283007E+01 -.10806970E+02 0.18469737E+02 0.22178614E+02 0.00000000E+00 0.0000E+00 0.9000E+01
#aMCatNLO 2  0  0  2  5 0.66264833D+02 0.00000000D+00  -5  6  0 0.00000000D+00 0.00000000D+00 0.00000000D+00 0.00000000D+00 0.00000000D+00
  <mgrwgt>
 0.5496442135D-04    1    2    0
 0.516866306267507D+02 0.000000000000000D+00 0.000000000000000D+00 0.516866306267507D+02
 0.516866306267507D+02 0.000000000000000D+00 0.000000000000000D+00 -.516866306267507D+02
 0.595179354936440D+02 -.165669659740195D+02 0.172832756812440D+02 -.216612249322925D+02
 0.244906044849820D+02 0.122086321655312D+02 0.157826953896626D+01 0.211718698737014D+02
 0.000000000000000D+00 -.000000000000000D+00 -.000000000000000D+00 -.000000000000000D+00
 0.193647212748755D+02 0.435833380848826D+01 -.188615452202102D+02 0.489355058591087D+00
 0.717473756250547D+02 0.000000000000000D+00 0.000000000000000D+00 0.717473756250547D+02
 0.124027032814885D+03 0.000000000000000D+00 0.000000000000000D+00 -.124027032814885D+03
 0.758313386010243D+02 -.102813177953028D+02 0.517250205688487D+02 -.216612249322925D+02
 0.300790018027789D+02 0.147428559260225D+02 0.154643614367737D+02 0.211718698737014D+02
 0.775758962975701D+02 -.102898388130746D+02 -.563824116873883D+02 -.522796571898301D+02
 0.122881717385663D+02 0.582830068235487D+01 -.108069703182341D+02 0.489355058591087D+00
0.277328458137D-07 0.000000000000D+00 0.000000000000D+00 0.851344450169D-08 0.704492432567D-10  6 22 21 9900012 -13 3 -4 2 0.35114686D-01 0.59980056D-02 0.66936670D+04 0.66936670D+04 0.66936670D+04 0.12278362D+01  1  2  1  3  5  2       -3 0.549644213518D-04 0.100000000000D+01
  </mgrwgt>
  </event>
  <event>
  6     66 0.14665890E-05 0.86725778E+01 0.78161638E-02 0.13198428E+00
       22 -1    0    0    0    0 0.00000000E+00 0.00000000E+00 0.24333325E+02 0.24333325E+02 0.00000000E+00 0.0000E+00 0.9000E+01
       -3 -1    0    0    0  501 -.00000000E+00 -.00000000E+00 -.21179723E+03 0.21179723E+03 0.00000000E+00 0.0000E+00 0.9000E+01
       24  2    1    2    0    0 -.74825219E+01 -.43846861E+01 -.44452135E+02 0.92856063E+02 0.81061968E+02 0.0000E+00 0.0000E+00
  9900012  1    3    3    0    0 -.13062702E+02 -.26935124E+02 -.32649759E+02 0.66799265E+02 0.50000000E+02 0.0000E+00 0.9000E+01
      -13  1    3    3    0    0 0.55801802E+01 0.22550438E+02 -.11802376E+02 0.26056798E+02 0.00000000E+00 0.0000E+00 0.9000E+01
       -4  1    1    2    0  501 0.74825219E+01 0.43846861E+01 -.14301177E+03 0.14327449E+03 0.00000000E+00 0.0000E+00 0.9000E+01
#aMCatNLO 1  0  0  5  2 0.45932599D+01 0.00000000D+00  -5  6  0 0.00000000D+00 0.00000000D+00 0.00000000D+00 0.00000000D+00 0.00000000D+00
  <mgrwgt>
 0.9023812952D-05    8    2    0
 0.717894900252550D+02 0.000000000000000D+00 0.000000000000000D+00 0.717894900252550D+02
 0.717894900252550D+02 -.000000000000000D+00 -.000000000000000D+00 -.717894900252550D+02
 0.672291746647607D+02 -.130627021466089D+02 -.269351236421573D+02 0.335205437473137D+02
 0.274433396593820D+02 0.558018021040282D+01 0.225504375802394D+02 0.146108263085756D+02
 0.489064657263674D+02 0.748252193620613D+01 0.438468606191794D+01 -.481313700558894D+02
 0.000000000000000D+00 0.000000000000000D+00 0.000000000000000D+00 0.000000000000000D+00
 0.717894900252550D+02 0.000000000000000D+00 0.000000000000000D+00 0.717894900252550D+02
 0.717894900252550D+02 -.000000000000000D+00 -.000000000000000D+00 -.717894900252550D+02
 0.669592864771077D+02 -.129881455180831D+02 -.268914341731911D+02 0.330409577590209D+02
 0.273605099001539D+02 0.561062984980273D+01 0.225682807767720D+02 0.144149588090186D+02
 0.346883496003131D+02 0.224448941735118D+01 -.266262655677524D+00 -.346146351915939D+02
 0.145708340729355D+02 0.513302625092917D+01 0.458941605209664D+01 -.128412813764456D+02
0.202068832534D-07 0.000000000000D+00 0.000000000000D+00 0.324494744732D-06 0.000000000000D+00  6 22 -3 9900012 -13 -4 21 0 0.37435884D-02 0.32584190D-01 0.20330875D+04 0.20330875D+04 0.20330875D+04 0.12884106D+01  1  2  2  2  6  5       -4 0.192709042167D-05 0.100000000000D+01
0.482900255688D-08 0.000000000000D+00 -.387998761438D-10 0.324494744732D-06 0.000000000000D+00  6 22 -3 9900012 -13 -4 21 2 0.37435884D-02 0.32584190D-01 0.20330875D+04 0.20330875D+04 0.20330875D+04 0.12884106D+01  1  2  3  2  6  5       -4 0.764484674638D-06 0.100000000000D+01
-.296896739025D-08 0.000000000000D+00 0.000000000000D+00 0.324494744732D-06 0.000000000000D+00  6 22 -3 9900012 -13 -4 21 2 0.37435884D-02 0.32584190D-01 0.20330875D+04 0.20330875D+04 0.20330875D+04 0.12884106D+01  1  2 15  2  6  5       -4 -.470020473712D-06 0.100000000000D+01
0.195397135340D-07 0.000000000000D+00 0.000000000000D+00 0.324494744732D-06 0.000000000000D+00  6 22 -3 9900012 -13 -4 21 2 0.37435884D-02 0.32584190D-01 0.20539265D+04 0.20539265D+04 0.20539265D+04 0.12878522D+01  1  2 12  2  6  5       -4 0.309442866482D-05 0.100000000000D+01
-.722494151613D-08 0.000000000000D+00 0.000000000000D+00 0.324494744732D-06 0.000000000000D+00  6 22 -3 9900012 -13 -4 21 2 0.37435884D-02 0.32584190D-01 0.20330875D+04 0.20330875D+04 0.20330875D+04 0.12884106D+01  1  2  4  2  6  5       -4 -.114378839091D-05 0.100000000000D+01
-.780609716705D-07 0.000000000000D+00 0.000000000000D+00 0.324494744732D-06 0.000000000000D+00  6 22 -3 9900012 -13 -4 21 2 0.37435884D-02 0.32584190D-01 0.20330875D+04 0.20330875D+04 0.20330875D+04 0.12884106D+01  1  2  5  2  6  5       -4 -.123579177742D-04 0.100000000000D+01
0.104576392882D-06 0.000000000000D+00 -.000000000000D+00 0.324494744732D-06 0.000000000000D+00  6 22 -3 9900012 -13 -4 21 2 0.37435884D-02 0.32584190D-01 0.20330875D+04 0.20330875D+04 0.20330875D+04 0.12884106D+01  1  2  6  2  6  5       -4 0.165556030972D-04 0.100000000000D+01
0.412924634973D-08 0.000000000000D+00 0.000000000000D+00 0.324494744732D-06 0.622544326567D-08  6 22 -3 9900012 -13 -4 21 2 0.37435884D-02 0.32584190D-01 0.20539265D+04 0.20539265D+04 0.20539265D+04 0.12878522D+01  1  2 11  2  6  5       -4 0.653932732764D-06 0.100000000000D+01
  </mgrwgt>
  </event>
  <event>
  6     66 0.14665890E-05 0.62009486E+02 0.78161638E-02 0.11689821E+00
       22 -1    0    0    0    0 0.00000000E+00 0.00000000E+00 0.10825399E+04 0.10825399E+04 0.00000000E+00 0.0000E+00 0.9000E+01
       -1 -1    0    0    0  501 0.00000000E+00 0.00000000E+00 -.23688632E+02 0.23688632E+02 0.00000000E+00 0.0000E+00 0.9000E+01
       24  2    1    2    0    0 -.85696633E+02 -.43556911E+01 0.98803391E+03 0.99497215E+03 0.79973023E+02 0.0000E+00 0.0000E+00
  9900012  1    3    3    0    0 -.43440576E+02 -.72685776E+01 0.40910657E+03 0.41449741E+03 0.50000000E+02 0.0000E+00 0.9000E+01
      -13  1    3    3    0    0 -.42256057E+02 0.29128866E+01 0.57892734E+03 0.58047474E+03 0.00000000E+00 0.0000E+00 0.9000E+01
       -2  1    1    2    0  501 0.85696633E+02 0.43556911E+01 0.70817362E+02 0.11125639E+03 0.00000000E+00 0.0000E+00 0.9000E+01
#aMCatNLO 1  0  0  5  2 0.13521395D+02 0.00000000D+00  -5  6  0 0.00000000D+00 0.00000000D+00 0.00000000D+00 0.00000000D+00 0.00000000D+00
  <mgrwgt>
 0.1189744856D-03    7    2    0
 0.160137096423905D+03 0.000000000000000D+00 0.000000000000000D+00 0.160137096423905D+03
 0.160137096423905D+03 -.000000000000000D+00 -.000000000000000D+00 -.160137096423905D+03
 0.791379693757398D+02 -.434405761179073D+02 -.726857764099296D+01 0.426954602099180D+02
 0.909838286162926D+02 -.422560573448581D+02 0.291288656471712D+01 0.805232747670390D+02
 0.150152394855777D+03 0.856966334627654D+02 0.435569107627584D+01 -.123218734976957D+03
 0.000000000000000D+00 0.000000000000000D+00 0.000000000000000D+00 0.000000000000000D+00
 0.160137096423905D+03 0.000000000000000D+00 0.000000000000000D+00 0.160137096423905D+03
 0.160137096423905D+03 -.000000000000000D+00 -.000000000000000D+00 -.160137096423905D+03
 0.786203825300671D+02 -.430502640719296D+02 -.724873930397863D+01 0.421342508063708D+02
 0.902059667727067D+02 -.418077732515330D+02 0.293567143905855D+01 0.798787103698411D+02
 0.101811410166198D+03 0.474243855883761D+02 0.851192544213069D+01 -.896885612375542D+02
 0.496364333788371D+02 0.374336517350865D+02 -.419885757721062D+01 -.323243999386577D+02
0.194403746696D-05 0.000000000000D+00 0.000000000000D+00 0.488899081110D-05 0.000000000000D+00  6 22 -1 9900012 -13 -2 21 0 0.16654460D+00 0.36444049D-02 0.94863983D+04 0.94863983D+04 0.94863983D+04 0.12117107D+01  1  2  2  2  6  5       -2 0.195692882495D-04 0.100000000000D+01
0.402690701325D-08 0.000000000000D+00 -.373280787497D-08 0.488899081110D-05 0.000000000000D+00  6 22 -1 9900012 -13 -2 21 2 0.16654460D+00 0.36444049D-02 0.94863983D+04 0.94863983D+04 0.94863983D+04 0.12117107D+01  1  2  3  2  6  5       -2 0.595168409179D-07 0.100000000000D+01
-.326296513195D-06 0.000000000000D+00 0.000000000000D+00 0.488899081110D-05 0.000000000000D+00  6 22 -1 9900012 -13 -2 21 2 0.16654460D+00 0.36444049D-02 0.94863983D+04 0.94863983D+04 0.94863983D+04 0.12117107D+01  1  2 15  2  6  5       -2 -.482259401670D-05 0.100000000000D+01
0.812278455031D-05 0.000000000000D+00 0.000000000000D+00 0.488899081110D-05 0.000000000000D+00  6 22 -1 9900012 -13 -2 21 2 0.16654460D+00 0.36444049D-02 0.94223958D+04 0.94223958D+04 0.94223958D+04 0.12120174D+01  1  2 12  2  6  5       -2 0.120040745685D-03 0.100000000000D+01
-.412744235260D-05 0.000000000000D+00 0.000000000000D+00 0.488899081110D-05 0.000000000000D+00  6 22 -1 9900012 -13 -2 21 2 0.16654460D+00 0.36444049D-02 0.94863983D+04 0.94863983D+04 0.94863983D+04 0.12117107D+01  1  2  4  2  6  5       -2 -.610027321440D-04 0.100000000000D+01
-.801257376106D-05 0.000000000000D+00 0.000000000000D+00 0.488899081110D-05 0.000000000000D+00  6 22 -1 9900012 -13 -2 21 2 0.16654460D+00 0.36444049D-02 0.94863983D+04 0.94863983D+04 0.94863983D+04 0.12117107D+01  1  2  5  2  6  5       -2 -.118424159364D-03 0.100000000000D+01
0.110660853651D-04 0.000000000000D+00 -.000000000000D+00 0.488899081110D-05 0.000000000000D+00  6 22 -1 9900012 -13 -2 21 2 0.16654460D+00 0.36444049D-02 0.94863983D+04 0.94863983D+04 0.94863983D+04 0.12117107D+01  1  2  6  2  6  5       -2 0.163554420326D-03 0.100000000000D+01
  </mgrwgt>
  </event>
  <event>
  6     66 0.14665890E-05 0.35328413E+02 0.78161638E-02 0.11321790E+00
       22 -1    0    0    0    0 0.00000000E+00 0.00000000E+00 0.74787450E+02 0.74787450E+02 0.00000000E+00 0.0000E+00 0.9000E+01
       -3 -1    0    0    0  501 0.00000000E+00 0.00000000E+00 -.54549993E+02 0.54549993E+02 0.00000000E+00 0.0000E+00 0.9000E+01
       24  2    1    2    0    0 0.16283591E+02 -.31351897E+02 -.36034445E+01 0.86717197E+02 0.79112519E+02 0.0000E+00 0.0000E+00
  9900012  1    3    3    0    0 0.23437406E+02 -.23736974E+02 0.17980008E+02 0.62737841E+02 0.50000000E+02 0.0000E+00 0.9000E+01
      -13  1    3    3    0    0 -.71538153E+01 -.76149231E+01 -.21583452E+02 0.23979357E+02 0.00000000E+00 0.0000E+00 0.9000E+01
       -4  1    1    2    0  501 -.16283591E+02 0.31351897E+02 0.23840901E+02 0.42620246E+02 0.00000000E+00 0.0000E+00 0.9000E+01
#aMCatNLO 1  0  0  2  2 0.23807349D+03 0.00000000D+00  -5  6  0 0.00000000D+00 0.00000000D+00 0.00000000D+00 0.00000000D+00 0.00000000D+00
  <mgrwgt>
 0.4619867589D-04    3    2    0
 0.638721761260944D+02 0.000000000000000D+00 0.000000000000000D+00 0.638721761260944D+02
 0.638721761260944D+02 0.000000000000000D+00 0.000000000000000D+00 -.638721761260944D+02
 0.606718192281745D+02 0.234374064702649D+02 -.237369738865336D+02 0.826521004656821D+01
 0.276976852557030D+02 -.715381529790389D+01 -.761492309409346D+01 -.256514647043499D+02
 0.393748477683112D+02 -.162835911723610D+02 0.313518969806270D+02 0.173862546577817D+02
 0.000000000000000D+00 -.000000000000000D+00 0.000000000000000D+00 0.000000000000000D+00
 0.261011149831043D+03 0.000000000000000D+00 0.000000000000000D+00 0.261011149831043D+03
 0.942216239374699D+02 0.000000000000000D+00 0.000000000000000D+00 -.942216239374699D+02
 0.101805129176626D+03 0.527092066227693D+02 -.708357972126649D+02 0.826521004656821D+01
 0.370807641322347D+02 0.451665145623913D+01 -.263929022044709D+02 -.256514647043499D+02
 0.225437460894142D+02 -.512835516551667D+01 0.134029328885532D+02 0.173862546577817D+02
 0.193803134370238D+03 -.520975029134918D+02 0.838257665285826D+02 0.166789525893573D+03
0.289785975292D-06 0.000000000000D+00 0.000000000000D+00 0.142642800741D-06 0.000000000000D+00  6 22 -3 9900012 -13 -4 21 0 0.11505762D-01 0.83923066D-02 0.28027909D+04 0.28027909D+04 0.28027909D+04 0.12711840D+01  1  2  2  1  6  2       -3 0.597062020661D-04 0.100000000000D+01
-.144900592138D-07 0.000000000000D+00 -.556427223761D-09 0.142642800741D-06 0.000000000000D+00  6 22 -3 9900012 -13 -4 21 2 0.11505762D-01 0.83923066D-02 0.28027909D+04 0.28027909D+04 0.28027909D+04 0.12711840D+01  1  2  3  1  6  2       -3 -.482424158710D-05 0.100000000000D+01
-.260810545145D-07 0.000000000000D+00 0.000000000000D+00 0.142642800741D-06 0.000000000000D+00  6 22 -3 9900012 -13 -4 21 2 0.11505762D-01 0.83923066D-02 0.28027909D+04 0.28027909D+04 0.28027909D+04 0.12711840D+01  1  2 15  1  6  2       -3 -.868328458621D-05 0.100000000000D+01
  </mgrwgt>
  </event>
  <event>
  6     66 0.14665890E-05 0.50469177E+02 0.78161638E-02 0.11570178E+00
       22 -1    0    0    0    0 0.00000000E+00 0.00000000E+00 0.30710935E+04 0.30710935E+04 0.00000000E+00 0.0000E+00 0.9000E+01
       -1 -1    0    0    0  501 0.00000000E+00 0.00000000E+00 -.61459241E+01 0.61459241E+01 0.00000000E+00 0.0000E+00 0.9000E+01
       24  2    1    2    0    0 -.11730483E+02 -.80835403E+02 0.27281281E+04 0.27306571E+04 0.84457944E+02 0.0000E+00 0.0000E+00
  9900012  1    3    3    0    0 0.22702587E+01 -.76052000E+02 0.17103912E+04 0.17128127E+04 0.50000000E+02 0.0000E+00 0.9000E+01
      -13  1    3    3    0    0 -.14000742E+02 -.47834029E+01 0.10177369E+04 0.10178444E+04 0.00000000E+00 0.0000E+00 0.9000E+01
       -2  1    1    2    0  501 0.11730483E+02 0.80835403E+02 0.33681940E+03 0.34658228E+03 0.00000000E+00 0.0000E+00 0.9000E+01
#aMCatNLO 1  0  0  2  5 0.32675108D+02 0.00000000D+00  -5  6  0 0.00000000D+00 0.00000000D+00 0.00000000D+00 0.00000000D+00 0.00000000D+00
  <mgrwgt>
 0.3432932782D-04    6    4    0
 0.137385251899453D+03 0.000000000000000D+00 0.000000000000000D+00 0.137385251899453D+03
 0.137385251899453D+03 0.000000000000000D+00 0.000000000000000D+00 -.137385251899453D+03
 0.103632667774248D+03 0.227025869817768D+01 -.760520002554381D+02 0.495042322695525D+02
 0.467327696562602D+02 -.140007415366723D+02 -.478340286292340D+01 0.443288850888374D+02
 0.124405066368398D+03 0.117304828384946D+02 0.808354031183615D+02 -.938331173583899D+02
 0.000000000000000D+00 -.000000000000000D+00 -.000000000000000D+00 0.000000000000000D+00
 0.150804531079838D+03 0.000000000000000D+00 0.000000000000000D+00 0.150804531079838D+03
 0.145618812976995D+03 0.000000000000000D+00 0.000000000000000D+00 -.145618812976995D+03
 0.100745945118396D+03 0.834823688052358D+01 -.716197136701037D+02 0.495042322695525D+02
 0.458179459268510D+02 -.112483927360171D+02 -.277628827624404D+01 0.443288850888374D+02
 0.128952090172787D+03 0.192650249708820D+02 0.863298700312269D+02 -.938331173583899D+02
 0.209073628388003D+02 -.163648691153886D+02 -.119338680848791D+02 0.518571810284300D+01
 0.137385251899453D+03 0.000000000000000D+00 0.000000000000000D+00 0.137385251899453D+03
 0.137385251899453D+03 0.000000000000000D+00 0.000000000000000D+00 -.137385251899453D+03
 0.103632667774248D+03 0.227025869817768D+01 -.760520002554381D+02 0.495042322695525D+02
 0.467327696562602D+02 -.140007415366723D+02 -.478340286292340D+01 0.443288850888374D+02
 0.000000000000000D+00 -.000000000000000D+00 -.000000000000000D+00 0.000000000000000D+00
 0.124405066368398D+03 0.117304828384946D+02 0.808354031183615D+02 -.938331173583899D+02
 0.150804531079838D+03 0.000000000000000D+00 0.000000000000000D+00 0.150804531079838D+03
 0.145618812976995D+03 0.000000000000000D+00 0.000000000000000D+00 -.145618812976995D+03
 0.100745945118396D+03 0.834823688052358D+01 -.716197136701037D+02 0.495042322695525D+02
 0.458179459268510D+02 -.112483927360171D+02 -.277628827624404D+01 0.443288850888374D+02
 0.209073628388003D+02 -.163648691153886D+02 -.119338680848791D+02 0.518571810284300D+01
 0.128952090172787D+03 0.192650249708820D+02 0.863298700312269D+02 -.938331173583899D+02
0.106038240631D-04 0.000000000000D+00 0.000000000000D+00 0.961487746723D-07 0.000000000000D+00  6 22 -1 9900012 -13 -2 21 0 0.47247592D+00 0.94552679D-03 0.87910983D+04 0.87910983D+04 0.87910983D+04 0.12151745D+01  1  2  2  1  6  2       -1 0.234816392299D-04 0.100000000000D+01
-.368889942475D-07 0.000000000000D+00 -.203607382266D-07 0.961487746723D-07 0.000000000000D+00  6 22 -1 9900012 -13 -2 21 2 0.47247592D+00 0.94552679D-03 0.87910983D+04 0.87910983D+04 0.87910983D+04 0.12151745D+01  1  2  3  1  6  2       -1 -.120625737674D-06 0.100000000000D+01
-.164048109560D-05 0.000000000000D+00 0.000000000000D+00 0.961487746723D-07 0.000000000000D+00  6 22 -1 9900012 -13 -2 21 2 0.47247592D+00 0.94552679D-03 0.87910983D+04 0.87910983D+04 0.87910983D+04 0.12151745D+01  1  2 15  1  6  2       -1 -.536431654842D-05 0.100000000000D+01
0.465157820623D-05 0.000000000000D+00 0.000000000000D+00 0.961487746723D-07 0.000000000000D+00  6 22 -1 9900012 -13 -2 21 2 0.47247592D+00 0.11000831D-02 0.10819918D+05 0.10819918D+05 0.10819918D+05 0.12057991D+01  1  2 12  1  6  2       -1 0.123696599172D-04 0.100000000000D+01
-.448515635613D-06 0.000000000000D+00 0.000000000000D+00 0.961487746723D-07 0.000000000000D+00  6 22 -1 9900012 -13 -2 21 2 0.47247592D+00 0.94552679D-03 0.87910983D+04 0.87910983D+04 0.87910983D+04 0.12151745D+01  1  2  4  1  6  2       -1 -.146663064439D-05 0.100000000000D+01
0.106906581784D-06 0.000000000000D+00 0.000000000000D+00 0.961487746723D-07 0.000000000000D+00  6 22 21 9900012 -13 1 -2 2 0.47247592D+00 0.11000831D-02 0.10819918D+05 0.10819918D+05 0.10819918D+05 0.12057991D+01  3  4 12  3  5  2       -1 0.542960160620D-05 0.100000000000D+01
  </mgrwgt>
  </event>
  <event>
  6     66 0.14665890E-05 0.21630915E+02 0.78161638E-02 0.13190736E+00
       22 -1    0    0    0    0 0.00000000E+00 0.00000000E+00 0.49418649E+03 0.49418649E+03 0.00000000E+00 0.0000E+00 0.9000E+01
       -3 -1    0    0    0  501 0.00000000E+00 0.00000000E+00 -.52187850E+01 0.52187850E+01 0.00000000E+00 0.0000E+00 0.9000E+01
       24  2    1    2    0    0 -.85625489E+01 0.19864019E+02 0.41461788E+03 0.42197277E+03 0.75399833E+02 0.0000E+00 0.0000E+00
  9900012  1    3    3    0    0 -.21107671E+01 0.86635366E+01 0.18080800E+03 0.18780587E+03 0.50000000E+02 0.0000E+00 0.9000E+01
      -13  1    3    3    0    0 -.64517817E+01 0.11200482E+02 0.23380988E+03 0.23416690E+03 0.00000000E+00 0.0000E+00 0.9000E+01
       -4  1    1    2    0  501 0.85625489E+01 -.19864019E+02 0.74349820E+02 0.77432501E+02 0.00000000E+00 0.0000E+00 0.9000E+01
#aMCatNLO 1  0  0  2  5 0.63975531D+01 0.00000000D+00  -5  6  0 0.00000000D+00 0.00000000D+00 0.00000000D+00 0.00000000D+00 0.00000000D+00
  <mgrwgt>
 0.3219195702D-04   11    4    0
 0.507843779064214D+02 0.000000000000000D+00 0.000000000000000D+00 0.507843779064214D+02
 0.507843779064214D+02 0.000000000000000D+00 0.000000000000000D+00 -.507843779064214D+02
 0.529884374433906D+02 -.211076710222032D+01 0.866353660841505D+01 -.151083519407962D+02
 0.257825728184129D+02 -.645178174804145D+01 0.112004823330360D+02 0.223084013080218D+02
 0.227977455510393D+02 0.856254885026176D+01 -.198640189414510D+02 -.720004936722567D+01
 0.000000000000000D+00 0.000000000000000D+00 0.000000000000000D+00 -.000000000000000D+00
 0.526734311720504D+02 0.000000000000000D+00 0.000000000000000D+00 0.526734311720504D+02
 0.545782630767255D+02 0.000000000000000D+00 0.000000000000000D+00 -.545782630767255D+02
 0.531023214444975D+02 -.480356272646264D+01 0.827768262019728D+01 -.151083519407962D+02
 0.260627052683707D+02 -.776771858771708D+01 0.110119201290349D+02 0.223084013080218D+02
 0.225373745630245D+02 0.741185283915435D+01 -.200289035844276D+02 -.720004936722567D+01
 0.554929297288323D+01 0.515942847502536D+01 0.739300835195401D+00 -.190483190467509D+01
 0.507843779064214D+02 0.000000000000000D+00 0.000000000000000D+00 0.507843779064214D+02
 0.507843779064214D+02 0.000000000000000D+00 0.000000000000000D+00 -.507843779064214D+02
 0.529884374433906D+02 -.211076710222032D+01 0.866353660841505D+01 -.151083519407962D+02
 0.257825728184129D+02 -.645178174804145D+01 0.112004823330360D+02 0.223084013080218D+02
 0.000000000000000D+00 0.000000000000000D+00 0.000000000000000D+00 -.000000000000000D+00
 0.227977455510393D+02 0.856254885026176D+01 -.198640189414510D+02 -.720004936722567D+01
 0.526734311720504D+02 0.000000000000000D+00 0.000000000000000D+00 0.526734311720504D+02
 0.545782630767255D+02 0.000000000000000D+00 0.000000000000000D+00 -.545782630767255D+02
 0.531023214444975D+02 -.480356272646264D+01 0.827768262019728D+01 -.151083519407962D+02
 0.260627052683707D+02 -.776771858771708D+01 0.110119201290349D+02 0.223084013080218D+02
 0.554929297288323D+01 0.515942847502536D+01 0.739300835195401D+00 -.190483190467509D+01
 0.225373745630245D+02 0.741185283915435D+01 -.200289035844276D+02 -.720004936722567D+01
0.511219556527D-07 0.000000000000D+00 0.000000000000D+00 0.317041424557D-08 0.000000000000D+00  6 22 -3 9900012 -13 -4 21 0 0.76028691D-01 0.80289000D-03 0.18209684D+04 0.18209684D+04 0.18209684D+04 0.12944947D+01  1  2  2  1  6  2       -3 0.156856497816D-04 0.100000000000D+01
-.231422196767D-09 0.000000000000D+00 -.981608852133D-10 0.317041424557D-08 0.000000000000D+00  6 22 -3 9900012 -13 -4 21 2 0.76028691D-01 0.80289000D-03 0.18209684D+04 0.18209684D+04 0.18209684D+04 0.12944947D+01  1  2  3  1  6  2       -3 -.118987298575D-06 0.100000000000D+01
-.638439034988D-08 0.000000000000D+00 0.000000000000D+00 0.317041424557D-08 0.000000000000D+00  6 22 -3 9900012 -13 -4 21 2 0.76028691D-01 0.80289000D-03 0.18209684D+04 0.18209684D+04 0.18209684D+04 0.12944947D+01  1  2 15  1  6  2       -3 -.328257777947D-05 0.100000000000D+01
0.780743821093D-07 0.000000000000D+00 0.000000000000D+00 0.317041424557D-08 0.000000000000D+00  6 22 -3 9900012 -13 -4 21 2 0.76028691D-01 0.89496715D-03 0.20680689D+04 0.20680689D+04 0.20680689D+04 0.12874769D+01  1  2 12  1  6  2       -3 0.348731052256D-04 0.100000000000D+01
-.207496467824D-07 0.000000000000D+00 0.000000000000D+00 0.317041424557D-08 0.000000000000D+00  6 22 -3 9900012 -13 -4 21 2 0.76028691D-01 0.80289000D-03 0.18209684D+04 0.18209684D+04 0.18209684D+04 0.12944947D+01  1  2  4  1  6  2       -3 -.106685722093D-04 0.100000000000D+01
-.291614076799D-06 0.000000000000D+00 -.598170249842D-07 0.317041424557D-08 0.000000000000D+00  6 22 -3 9900012 -13 -4 21 2 0.76028691D-01 0.89518729D-03 0.18209684D+04 0.18209684D+04 0.18209684D+04 0.12944947D+01  1  2  5  1  6  2       -3 -.129070450422D-03 0.100000000000D+01
0.296717070196D-06 0.000000000000D+00 0.594646243577D-07 0.317041424557D-08 0.000000000000D+00  6 22 -3 9900012 -13 -4 21 2 0.76028691D-01 0.80289000D-03 0.18209684D+04 0.18209684D+04 0.18209684D+04 0.12944947D+01  1  2  6  1  6  2       -3 0.152559102442D-03 0.100000000000D+01
0.263996640440D-08 0.000000000000D+00 0.000000000000D+00 0.317041424557D-08 0.736641698309D-09  6 22 -3 9900012 -13 -4 21 2 0.78856770D-01 0.86287050D-03 0.20680689D+04 0.20680689D+04 0.20680689D+04 0.12874769D+01  1  2 11  1  6  2       -3 0.116139467158D-05 0.100000000000D+01
0.136089179618D-08 0.000000000000D+00 0.000000000000D+00 0.317041424557D-08 0.000000000000D+00  6 22 21 9900012 -13 3 -4 2 0.76028691D-01 0.89496715D-03 0.20680689D+04 0.20680689D+04 0.20680689D+04 0.12874769D+01  3  4 12  3  5  2       -3 0.124333947379D-04 0.100000000000D+01
-.486197243631D-08 0.000000000000D+00 -.104466909659D-08 0.317041424557D-08 0.000000000000D+00  6 22 21 9900012 -13 3 -4 2 0.76028691D-01 0.89518729D-03 0.18209684D+04 0.18209684D+04 0.18209684D+04 0.12944947D+01  3  4  5  3  5  2       -3 -.439654194170D-04 0.100000000000D+01
0.286718375636D-09 0.000000000000D+00 0.000000000000D+00 0.317041424557D-08 0.202750978559D-10  6 22 21 9900012 -13 3 -4 2 0.78856770D-01 0.86287050D-03 0.20680689D+04 0.20680689D+04 0.20680689D+04 0.12874769D+01  3  4 11  3  5  2       -3 0.258531728308D-05 0.100000000000D+01
  </mgrwgt>
  </event>
  <event>
  6     66 0.14665890E-05 0.18338062E+02 0.78161638E-02 0.13328516E+00
       22 -1    0    0    0    0 0.00000000E+00 0.00000000E+00 0.40300312E+02 0.40300312E+02 0.00000000E+00 0.0000E+00 0.9000E+01
       -1 -1    0    0    0  501 -.00000000E+00 -.00000000E+00 -.77310178E+02 0.77310178E+02 0.00000000E+00 0.0000E+00 0.9000E+01
       24  2    1    2    0    0 -.15399771E+02 0.99564839E+01 -.76412093E+01 0.82986762E+02 0.80573756E+02 0.0000E+00 0.0000E+00
  9900012  1    3    3    0    0 -.17581539E+02 -.42428899E+01 0.15822097E+02 0.55474782E+02 0.50000000E+02 0.0000E+00 0.9000E+01
      -13  1    3    3    0    0 0.21817684E+01 0.14199374E+02 -.23463307E+02 0.27511981E+02 0.00000000E+00 0.0000E+00 0.9000E+01
       -2  1    1    2    0  501 0.15399771E+02 -.99564839E+01 -.29368657E+02 0.34623728E+02 0.00000000E+00 0.0000E+00 0.9000E+01
#aMCatNLO 1  0  0  5  2 0.36158632D+01 0.00000000D+00  -5  6  0 0.00000000D+00 0.00000000D+00 0.00000000D+00 0.00000000D+00 0.00000000D+00
  <mgrwgt>
 0.2008256270D-04    8    2    0
 0.558177777340423D+02 0.000000000000000D+00 0.000000000000000D+00 0.558177777340423D+02
 0.558177777340423D+02 -.000000000000000D+00 -.000000000000000D+00 -.558177777340423D+02
 0.636892964686178D+02 -.175815392895015D+02 -.424288987184956D+01 0.350601461265432D+02
 0.212058219027442D+02 0.218176838916375D+01 0.141993737748889D+02 -.155982227727375D+02
 0.267404370967226D+02 0.153997709003378D+02 -.995648390303936D+01 -.194619233538057D+02
 0.000000000000000D+00 0.000000000000000D+00 -.000000000000000D+00 0.000000000000000D+00
 0.558177777340423D+02 0.000000000000000D+00 0.000000000000000D+00 0.558177777340423D+02
 0.558177777340423D+02 -.000000000000000D+00 -.000000000000000D+00 -.558177777340423D+02
 0.630317498645490D+02 -.168640241324544D+02 -.470678820888068D+01 0.341533647801181D+02
 0.213539146401753D+02 0.242274853360788D+01 0.140435717863634D+02 -.159027686735378D+02
 0.236392683066892D+02 0.135452350069136D+02 -.584604188231625D+01 -.184706634692241D+02
 0.361062265667101D+01 0.896040591932887D+00 -.349074169516646D+01 0.220067362643706D+00
0.500946901729D-07 0.000000000000D+00 0.000000000000D+00 0.326957288169D-06 0.000000000000D+00  6 22 -1 9900012 -13 -2 21 0 0.62000480D-02 0.11893874D-01 0.18436149D+04 0.18436149D+04 0.18436149D+04 0.12938075D+01  1  2  2  2  6  5       -2 0.166309651115D-04 0.100000000000D+01
0.136511197674D-08 0.000000000000D+00 -.961884002494D-10 0.326957288169D-06 0.000000000000D+00  6 22 -1 9900012 -13 -2 21 2 0.62000480D-02 0.11893874D-01 0.18436149D+04 0.18436149D+04 0.18436149D+04 0.12938075D+01  1  2  3  2  6  5       -2 0.758635885706D-06 0.100000000000D+01
-.600438668061D-08 0.000000000000D+00 0.000000000000D+00 0.326957288169D-06 0.000000000000D+00  6 22 -1 9900012 -13 -2 21 2 0.62000480D-02 0.11893874D-01 0.18436149D+04 0.18436149D+04 0.18436149D+04 0.12938075D+01  1  2 15  2  6  5       -2 -.333682751686D-05 0.100000000000D+01
0.318669449755D-08 0.000000000000D+00 0.000000000000D+00 0.326957288169D-06 0.000000000000D+00  6 22 -1 9900012 -13 -2 21 2 0.62000480D-02 0.11893874D-01 0.18311877D+04 0.18311877D+04 0.18311877D+04 0.12941834D+01  1  2 12  2  6  5       -2 0.177046947018D-05 0.100000000000D+01
-.173304011409D-07 0.000000000000D+00 0.000000000000D+00 0.326957288169D-06 0.000000000000D+00  6 22 -1 9900012 -13 -2 21 2 0.62000480D-02 0.11893874D-01 0.18436149D+04 0.18436149D+04 0.18436149D+04 0.12938075D+01  1  2  4  2  6  5       -2 -.963105184277D-05 0.100000000000D+01
-.751876171909D-07 0.000000000000D+00 0.000000000000D+00 0.326957288169D-06 0.000000000000D+00  6 22 -1 9900012 -13 -2 21 2 0.62000480D-02 0.11893874D-01 0.18436149D+04 0.18436149D+04 0.18436149D+04 0.12938075D+01  1  2  5  2  6  5       -2 -.417841360517D-04 0.100000000000D+01
0.865147983956D-07 0.000000000000D+00 -.000000000000D+00 0.326957288169D-06 0.000000000000D+00  6 22 -1 9900012 -13 -2 21 2 0.62000480D-02 0.11893874D-01 0.18436149D+04 0.18436149D+04 0.18436149D+04 0.12938075D+01  1  2  6  2  6  5       -2 0.480790087744D-04 0.100000000000D+01
0.136712520883D-07 0.000000000000D+00 0.000000000000D+00 0.326957288169D-06 0.355373354510D-07  6 22 -1 9900012 -13 -2 21 2 0.62000480D-02 0.11893874D-01 0.18311877D+04 0.18311877D+04 0.18311877D+04 0.12941834D+01  1  2 11  2  6  5       -2 0.759549886573D-05 0.100000000000D+01
  </mgrwgt>
  </event>
  <event>
  6     66 0.14665890E-05 0.24922604E+02 0.78161638E-02 0.12572597E+00
       22 -1    0    0    0    0 0.00000000E+00 0.00000000E+00 0.32328440E+03 0.32328440E+03 0.00000000E+00 0.0000E+00 0.9000E+01
       -3 -1    0    0    0  501 0.00000000E+00 0.00000000E+00 -.26327082E+02 0.26327082E+02 0.00000000E+00 0.0000E+00 0.9000E+01
       24  2    1    2    0    0 0.11740194E+02 -.41954030E+02 0.29503797E+03 0.30600349E+03 0.68503720E+02 0.0000E+00 0.0000E+00
  9900012  1    3    3    0    0 0.53426731E+01 -.30152145E+02 0.27897397E+03 0.28506872E+03 0.50000000E+02 0.0000E+00 0.9000E+01
      -13  1    3    3    0    0 0.63975207E+01 -.11801884E+02 0.16064001E+02 0.20934776E+02 0.00000000E+00 0.0000E+00 0.9000E+01
       -4  1    1    2    0  501 -.11740194E+02 0.41954030E+02 0.19193453E+01 0.43607988E+02 0.00000000E+00 0.0000E+00 0.9000E+01
#aMCatNLO 1  0  0  5  2 0.90507840D+01 0.00000000D+00  -5  6  0 0.00000000D+00 0.00000000D+00 0.00000000D+00 0.00000000D+00 0.00000000D+00
  <mgrwgt>
 0.1033003663D-03    6    2    0
 0.922558117915576D+02 0.000000000000000D+00 0.000000000000000D+00 0.922558117915576D+02
 0.922558117915576D+02 -.000000000000000D+00 -.000000000000000D+00 -.922558117915576D+02
 0.911592095209334D+02 0.534267310149899D+01 -.301521452840409D+02 0.698019015456029D+02
 0.138133067767707D+02 0.639752072053721D+01 -.118018844458990D+02 -.325494950269970D+01
 0.795391072854110D+02 -.117401938220362D+02 0.419540297299399D+02 -.665469520429032D+02
 0.000000000000000D+00 0.000000000000000D+00 0.000000000000000D+00 0.000000000000000D+00
 0.922558117915576D+02 0.000000000000000D+00 0.000000000000000D+00 0.922558117915576D+02
 0.922558117915576D+02 -.000000000000000D+00 -.000000000000000D+00 -.922558117915576D+02
 0.881254919610141D+02 0.479457769347100D+01 -.281935054700977D+02 0.666951318119966D+02
 0.136409109316699D+02 0.631358979652297D+01 -.115019540925563D+02 -.373069524079889D+01
 0.765527364697118D+02 -.170404379083599D+02 0.412855123971735D+02 -.621727545070612D+02
 0.619248422071939D+01 0.593227041836595D+01 -.159005283451950D+01 -.791682064136514D+00
0.564258727032D-06 0.000000000000D+00 0.000000000000D+00 0.209708765017D-07 0.000000000000D+00  6 22 -3 9900012 -13 -4 21 0 0.49736062D-01 0.40503202D-02 0.33421078D+04 0.33421078D+04 0.33421078D+04 0.12620347D+01  1  2  2  2  6  5       -4 0.392086482893D-04 0.100000000000D+01
0.621649624164D-08 0.000000000000D+00 -.108345104227D-08 0.209708765017D-07 0.000000000000D+00  6 22 -3 9900012 -13 -4 21 2 0.49736062D-01 0.40503202D-02 0.33421078D+04 0.33421078D+04 0.33421078D+04 0.12620347D+01  1  2  3  2  6  5       -4 0.688005454537D-06 0.100000000000D+01
-.741381808113D-07 0.000000000000D+00 0.000000000000D+00 0.209708765017D-07 0.000000000000D+00  6 22 -3 9900012 -13 -4 21 2 0.49736062D-01 0.40503202D-02 0.33421078D+04 0.33421078D+04 0.33421078D+04 0.12620347D+01  1  2 15  2  6  5       -4 -.820518034676D-05 0.100000000000D+01
0.700770611497D-06 0.000000000000D+00 0.000000000000D+00 0.209708765017D-07 0.000000000000D+00  6 22 -3 9900012 -13 -4 21 2 0.49736062D-01 0.40503202D-02 0.36922247D+04 0.36922247D+04 0.36922247D+04 0.12569483D+01  1  2 12  2  6  5       -4 0.778620208090D-04 0.100000000000D+01
-.565103858697D-07 0.000000000000D+00 0.000000000000D+00 0.209708765017D-07 0.000000000000D+00  6 22 -3 9900012 -13 -4 21 2 0.49736062D-01 0.40503202D-02 0.33421078D+04 0.33421078D+04 0.33421078D+04 0.12620347D+01  1  2  4  2  6  5       -4 -.625423907698D-05 0.100000000000D+01
0.100006461322D-10 0.000000000000D+00 0.000000000000D+00 0.209708765017D-07 0.309472872621D-09  6 22 -3 9900012 -13 -4 21 2 0.49736062D-01 0.40503202D-02 0.36922247D+04 0.36922247D+04 0.36922247D+04 0.12569483D+01  1  2 11  2  6  5       -4 0.111116320302D-08 0.100000000000D+01
  </mgrwgt>
  </event>
  <event>
  6     66 0.14665890E-05 0.18549156E+02 0.78161638E-02 0.13268268E+00
       22 -1    0    0    0    0 0.00000000E+00 0.00000000E+00 0.17443047E+03 0.17443047E+03 0.00000000E+00 0.0000E+00 0.9000E+01
       -1 -1    0    0    0  501 0.00000000E+00 0.00000000E+00 -.73466944E+02 0.73466944E+02 0.00000000E+00 0.0000E+00 0.9000E+01
       24  2    1    2    0    0 0.18118008E+02 -.39760507E+01 0.16393137E+03 0.18225428E+03 0.77453580E+02 0.0000E+00 0.0000E+00
  9900012  1    3    3    0    0 0.15986323E+02 0.11377350E+02 0.76583150E+02 0.93541357E+02 0.50000000E+02 0.0000E+00 0.9000E+01
      -13  1    3    3    0    0 0.21316843E+01 -.15353401E+02 0.87348219E+02 0.88712921E+02 0.00000000E+00 0.0000E+00 0.9000E+01
       -2  1    1    2    0  501 -.18118008E+02 0.39760507E+01 -.62967847E+02 0.65643133E+02 0.00000000E+00 0.0000E+00 0.9000E+01
#aMCatNLO 1  0  0  5  2 0.82879508D+01 0.00000000D+00  -5  6  0 0.00000000D+00 0.00000000D+00 0.00000000D+00 0.00000000D+00 0.00000000D+00
  <mgrwgt>
 0.1091906541D-03    8    2    0
 0.113202797527926D+03 0.000000000000000D+00 0.000000000000000D+00 0.113202797527926D+03
 0.113202797527926D+03 -.000000000000000D+00 -.000000000000000D+00 -.113202797527926D+03
 0.682693182365126D+02 0.159863232689085D+02 0.113773499977545D+02 0.421389746891021D+02
 0.581819526541423D+02 0.213168425429168D+01 -.153534006759996D+02 0.560791282436797D+02
 0.999543241651968D+02 -.181180075232002D+02 0.397605067824508D+01 -.982181029327818D+02
 0.000000000000000D+00 0.000000000000000D+00 0.000000000000000D+00 0.000000000000000D+00
 0.113202797527926D+03 0.000000000000000D+00 0.000000000000000D+00 0.113202797527926D+03
 0.113202797527926D+03 -.000000000000000D+00 -.000000000000000D+00 -.113202797527926D+03
 0.680033434047493D+02 0.159110573943011D+02 0.113938673179619D+02 0.417309567870208D+02
 0.578411369675197D+02 0.206760258736124D+01 -.153393377634560D+02 0.557317401685495D+02
 0.501834270525496D+02 -.123349883665915D+01 -.575133605921101D+00 -.501649683812705D+02
 0.503776876310331D+02 -.167451611450033D+02 0.452060405141522D+01 -.472977285742999D+02
0.261164811372D-06 0.000000000000D+00 0.000000000000D+00 0.791009226783D-06 0.000000000000D+00  6 22 -1 9900012 -13 -2 21 0 0.26835456D-01 0.11302607D-01 0.19255461D+04 0.19255461D+04 0.19255461D+04 0.12913997D+01  1  2  2  2  6  5       -2 0.116683002145D-04 0.100000000000D+01
0.284532614513D-07 0.000000000000D+00 -.501470820971D-09 0.791009226783D-06 0.000000000000D+00  6 22 -1 9900012 -13 -2 21 2 0.26835456D-01 0.11302607D-01 0.19255461D+04 0.19255461D+04 0.19255461D+04 0.12913997D+01  1  2  3  2  6  5       -2 0.212005110630D-05 0.100000000000D+01
-.445603664052D-07 0.000000000000D+00 0.000000000000D+00 0.791009226783D-06 0.000000000000D+00  6 22 -1 9900012 -13 -2 21 2 0.26835456D-01 0.11302607D-01 0.19255461D+04 0.19255461D+04 0.19255461D+04 0.12913997D+01  1  2 15  2  6  5       -2 -.332019070137D-05 0.100000000000D+01
0.929112377974D-06 0.000000000000D+00 0.000000000000D+00 0.791009226783D-06 0.000000000000D+00  6 22 -1 9900012 -13 -2 21 2 0.26835456D-01 0.11302607D-01 0.19305957D+04 0.19305957D+04 0.19305957D+04 0.12912551D+01  1  2 12  2  6  5       -2 0.692316020371D-04 0.100000000000D+01
-.160064395687D-06 0.000000000000D+00 0.000000000000D+00 0.791009226783D-06 0.000000000000D+00  6 22 -1 9900012 -13 -2 21 2 0.26835456D-01 0.11302607D-01 0.19255461D+04 0.19255461D+04 0.19255461D+04 0.12913997D+01  1  2  4  2  6  5       -2 -.119263902219D-04 0.100000000000D+01
-.917792759061D-06 0.000000000000D+00 0.000000000000D+00 0.791009226783D-06 0.000000000000D+00  6 22 -1 9900012 -13 -2 21 2 0.26835456D-01 0.11302607D-01 0.19255461D+04 0.19255461D+04 0.19255461D+04 0.12913997D+01  1  2  5  2  6  5       -2 -.683846931758D-04 0.100000000000D+01
0.147317199223D-05 0.000000000000D+00 -.000000000000D+00 0.791009226783D-06 0.000000000000D+00  6 22 -1 9900012 -13 -2 21 2 0.26835456D-01 0.11302607D-01 0.19255461D+04 0.19255461D+04 0.19255461D+04 0.12913997D+01  1  2  6  2  6  5       -2 0.109765972426D-03 0.100000000000D+01
0.483164640594D-09 0.000000000000D+00 0.000000000000D+00 0.791009226783D-06 0.881037235124D-08  6 22 -1 9900012 -13 -2 21 2 0.26835456D-01 0.11302607D-01 0.19305957D+04 0.19305957D+04 0.19305957D+04 0.12912551D+01  1  2 11  2  6  5       -2 0.360023856199D-07 0.100000000000D+01
  </mgrwgt>
  </event>
  <event>
  6     66 -.14665890E-05 0.31705514E+02 0.78161638E-02 0.12759386E+00
       22 -1    0    0    0    0 0.00000000E+00 0.00000000E+00 0.12780674E+03 0.12780674E+03 0.00000000E+00 0.0000E+00 0.9000E+01
       -3 -1    0    0    0  501 0.00000000E+00 0.00000000E+00 -.36379273E+02 0.36379273E+02 0.00000000E+00 0.0000E+00 0.9000E+01
       24  2    1    2    0    0 0.12020099E+02 0.29338658E+02 0.10135097E+03 0.13096380E+03 0.76643717E+02 0.0000E+00 0.0000E+00
  9900012  1    3    3    0    0 0.23127868E+02 0.85862383E+01 0.87194931E+02 0.10349675E+03 0.50000000E+02 0.0000E+00 0.9000E+01
      -13  1    3    3    0    0 -.11107769E+02 0.20752420E+02 0.14156035E+02 0.27467049E+02 0.00000000E+00 0.0000E+00 0.9000E+01
       -4  1    1    2    0  501 -.12020099E+02 -.29338658E+02 -.99234982E+01 0.33222213E+02 0.00000000E+00 0.0000E+00 0.9000E+01
#aMCatNLO 1  0  0  5  2 0.82879508D+01 0.00000000D+00  -5  6  0 0.00000000D+00 0.00000000D+00 0.00000000D+00 0.00000000D+00 0.00000000D+00
  <mgrwgt>
 -.3583614500D-05    1    2    0
 0.681873623783933D+02 0.000000000000000D+00 0.000000000000000D+00 0.681873623783933D+02
 0.681873623783933D+02 -.000000000000000D+00 -.000000000000000D+00 -.681873623783933D+02
 0.661464765969948D+02 0.231278677528096D+02 0.858623827903620D+01 0.355912153715062D+02
 0.235780854539588D+02 -.111077692381581D+02 0.207524198568568D+02 -.137136658510795D+01
 0.466501627058330D+02 -.120200985146515D+02 -.293386581358930D+02 -.342198487863983D+02
 0.000000000000000D+00 0.000000000000000D+00 0.000000000000000D+00 0.000000000000000D+00
 0.681873623783933D+02 0.000000000000000D+00 0.000000000000000D+00 0.681873623783933D+02
 0.681873623783933D+02 -.000000000000000D+00 -.000000000000000D+00 -.681873623783933D+02
 0.592216882940820D+02 0.194372178367321D+02 -.421900552361670D+00 0.250843562224099D+02
 0.220756062377187D+02 -.124517451474881D+02 0.174720432693732D+02 -.519751262989916D+01
 0.385583716814504D+02 -.217922086238862D+02 -.165080221512404D+02 -.271906762452141D+02
 0.165190585435355D+02 0.148067359346422D+02 -.542120565771196D+00 0.730383265270340D+01
-.124846968016D-07 0.000000000000D+00 0.000000000000D+00 0.494191135719D-07 0.000000000000D+00  6 22 -3 9900012 -13 -4 21 2 0.19662576D-01 0.55968113D-02 0.30801779D+04 0.30801779D+04 0.30801779D+04 0.12662510D+01  1  2 14  2  6  5       -4 -.358361449978D-05 0.100000000000D+01
  </mgrwgt>
  </event>
  <event>
  6     66 0.14665890E-05 0.88761090E+02 0.78161638E-02 0.10637889E+00
       22 -1    0    0    0    0 0.00000000E+00 0.00000000E+00 0.15907368E+03 0.15907368E+03 0.00000000E+00 0.0000E+00 0.9000E+01
       -1 -1    0    0    0  501 0.00000000E+00 0.00000000E+00 -.13342345E+03 0.13342345E+03 0.00000000E+00 0.0000E+00 0.9000E+01
       24  2    1    2    0    0 0.10742018E+02 -.13062477E+03 0.21372929E+02 0.16136165E+03 0.91665465E+02 0.0000E+00 0.0000E+00
  9900012  1    3    3    0    0 -.17507534E+02 -.10211821E+03 0.32812878E+02 0.11962996E+03 0.50000000E+02 0.0000E+00 0.9000E+01
      -13  1    3    3    0    0 0.28249552E+02 -.28506556E+02 -.11439949E+02 0.41731683E+02 0.00000000E+00 0.0000E+00 0.9000E+01
       -2  1    1    2    0  501 -.10742018E+02 0.13062477E+03 0.42773049E+01 0.13113549E+03 0.00000000E+00 0.0000E+00 0.9000E+01
#aMCatNLO 1  0  0  2  5 0.97885685D+02 0.00000000D+00  -5  6  0 0.00000000D+00 0.00000000D+00 0.00000000D+00 0.00000000D+00 0.00000000D+00
  <mgrwgt>
 0.2796235453D-04    9    4    0
 0.145685138679158D+03 0.000000000000000D+00 0.000000000000000D+00 0.145685138679158D+03
 0.145685138679158D+03 0.000000000000000D+00 0.000000000000000D+00 -.145685138679158D+03
 0.117204003412749D+03 -.175075339982813D+02 -.102118211559479D+03 0.224083809582068D+02
 0.429001720260700D+02 0.282495520580182D+02 -.285065563339432D+02 -.151579620783086D+02
 0.131266101919498D+03 -.107420180597369D+02 0.130624767893422D+03 -.725041887989818D+01
 0.000000000000000D+00 -.000000000000000D+00 0.000000000000000D+00 -.000000000000000D+00
 0.177628210106790D+03 0.000000000000000D+00 0.000000000000000D+00 0.177628210106790D+03
 0.209210231377431D+03 0.000000000000000D+00 0.000000000000000D+00 -.209210231377431D+03
 0.134938216726828D+03 0.872384607787877D+01 -.123004395473729D+03 0.224083809582068D+02
 0.552361943060359D+02 0.384590771551073D+02 -.366356756649065D+02 -.151579620783086D+02
 0.111686998311831D+03 0.145333805201660D+02 0.110499764111192D+03 -.725041887989818D+01
 0.849770321395263D+02 -.617163037531520D+02 0.491403070274442D+02 -.315820212706419D+02
 0.145685138679158D+03 0.000000000000000D+00 0.000000000000000D+00 0.145685138679158D+03
 0.145685138679158D+03 0.000000000000000D+00 0.000000000000000D+00 -.145685138679158D+03
 0.117204003412749D+03 -.175075339982813D+02 -.102118211559479D+03 0.224083809582068D+02
 0.429001720260700D+02 0.282495520580182D+02 -.285065563339432D+02 -.151579620783086D+02
 0.000000000000000D+00 -.000000000000000D+00 0.000000000000000D+00 -.000000000000000D+00
 0.131266101919498D+03 -.107420180597369D+02 0.130624767893422D+03 -.725041887989818D+01
 0.177628210106790D+03 0.000000000000000D+00 0.000000000000000D+00 0.177628210106790D+03
 0.209210231377431D+03 0.000000000000000D+00 0.000000000000000D+00 -.209210231377431D+03
 0.134938216726828D+03 0.872384607787877D+01 -.123004395473729D+03 0.224083809582068D+02
 0.552361943060359D+02 0.384590771551073D+02 -.366356756649065D+02 -.151579620783086D+02
 0.849770321395263D+02 -.617163037531520D+02 0.491403070274442D+02 -.315820212706419D+02
 0.111686998311831D+03 0.145333805201660D+02 0.110499764111192D+03 -.725041887989818D+01
0.106478436280D-05 0.000000000000D+00 0.000000000000D+00 0.224482776614D-08 0.000000000000D+00  6 22 -1 9900012 -13 -2 21 0 0.24472874D-01 0.20526685D-01 0.20483430D+05 0.20483430D+05 0.20483430D+05 0.11783223D+01  1  2  2  1  6  2       -1 0.272686638894D-04 0.100000000000D+01
-.445642293883D-07 0.000000000000D+00 -.204452615866D-08 0.224482776614D-08 0.000000000000D+00  6 22 -1 9900012 -13 -2 21 2 0.24472874D-01 0.20526685D-01 0.20483430D+05 0.20483430D+05 0.20483430D+05 0.11783223D+01  1  2  3  1  6  2       -1 -.158458951932D-05 0.100000000000D+01
-.135584990729D-06 0.000000000000D+00 0.000000000000D+00 0.224482776614D-08 0.000000000000D+00  6 22 -1 9900012 -13 -2 21 2 0.24472874D-01 0.20526685D-01 0.20483430D+05 0.20483430D+05 0.20483430D+05 0.11783223D+01  1  2 15  1  6  2       -1 -.482105397613D-05 0.100000000000D+01
0.111755535257D-06 0.000000000000D+00 0.000000000000D+00 0.224482776614D-08 0.000000000000D+00  6 22 -1 9900012 -13 -2 21 2 0.24472874D-01 0.35940421D-01 0.35442189D+05 0.35442189D+05 0.35442189D+05 0.11561992D+01  1  2 12  1  6  2       -1 0.160038256848D-05 0.100000000000D+01
-.263425075369D-06 0.000000000000D+00 0.000000000000D+00 0.224482776614D-08 0.000000000000D+00  6 22 -1 9900012 -13 -2 21 2 0.24472874D-01 0.20526685D-01 0.20483430D+05 0.20483430D+05 0.20483430D+05 0.11783223D+01  1  2  4  1  6  2       -1 -.936671898705D-05 0.100000000000D+01
-.601723122855D-06 0.000000000000D+00 -.343161135780D-06 0.224482776614D-08 0.000000000000D+00  6 22 -1 9900012 -13 -2 21 2 0.24472874D-01 0.35414882D-01 0.20483430D+05 0.20483430D+05 0.20483430D+05 0.11783223D+01  1  2  5  1  6  2       -1 -.889590235256D-05 0.100000000000D+01
0.723915392974D-06 0.000000000000D+00 0.297764600797D-06 0.224482776614D-08 0.000000000000D+00  6 22 -1 9900012 -13 -2 21 2 0.24472874D-01 0.20526685D-01 0.20483430D+05 0.20483430D+05 0.20483430D+05 0.11783223D+01  1  2  6  1  6  2       -1 0.257405717618D-04 0.100000000000D+01
0.691338672842D-08 0.000000000000D+00 0.000000000000D+00 0.224482776614D-08 0.000000000000D+00  6 22 21 9900012 -13 1 -2 2 0.24472874D-01 0.35940421D-01 0.35442189D+05 0.35442189D+05 0.35442189D+05 0.11561992D+01  3  4 12  3  5  2       -1 0.101752368989D-05 0.100000000000D+01
-.194153675541D-07 0.000000000000D+00 -.207605659506D-07 0.224482776614D-08 0.000000000000D+00  6 22 21 9900012 -13 1 -2 2 0.24472874D-01 0.35414882D-01 0.20483430D+05 0.20483430D+05 0.20483430D+05 0.11783223D+01  3  4  5  3  5  2       -1 -.299652254282D-05 0.100000000000D+01
  </mgrwgt>
  </event>
  <event>
  6     66 0.14665890E-05 0.43158665E+02 0.78161638E-02 0.11534740E+00
       22 -1    0    0    0    0 0.00000000E+00 0.00000000E+00 0.39830132E+03 0.39830132E+03 0.00000000E+00 0.0000E+00 0.9000E+01
       -1 -1    0    0    0  501 0.00000000E+00 0.00000000E+00 -.37905468E+02 0.37905468E+02 0.00000000E+00 0.0000E+00 0.9000E+01
       24  2    1    2    0    0 0.35870753E+02 -.23999154E+02 0.37830661E+03 0.38947921E+03 0.81948142E+02 0.0000E+00 0.0000E+00
  9900012  1    3    3    0    0 0.18587772E+02 -.40781725E+02 0.30544107E+03 0.31273455E+03 0.50000000E+02 0.0000E+00 0.9000E+01
      -13  1    3    3    0    0 0.17282981E+02 0.16782571E+02 0.72865543E+02 0.76744664E+02 0.00000000E+00 0.0000E+00 0.9000E+01
       -2  1    1    2    0  501 -.35870753E+02 0.23999154E+02 -.17910761E+02 0.46727569E+02 0.00000000E+00 0.0000E+00 0.9000E+01
#aMCatNLO 1  0  0  2  5 0.46174682D+01 0.00000000D+00  -5  6  0 0.00000000D+00 0.00000000D+00 0.00000000D+00 0.00000000D+00 0.00000000D+00
  <mgrwgt>
 0.4998732735D-04    7    4    0
 0.122873095780306D+03 0.000000000000000D+00 0.000000000000000D+00 0.122873095780306D+03
 0.122873095780306D+03 0.000000000000000D+00 0.000000000000000D+00 -.122873095780306D+03
 0.107172527170976D+03 0.185877720966982D+02 -.407817250353074D+02 0.835302113719301D+02
 0.293640519160743D+02 0.172829811792880D+02 0.167825706265156D+02 0.167896226774844D+02
 0.109209612473563D+03 -.358707532759861D+02 0.239991544087918D+02 -.100319834049415D+03
 0.000000000000000D+00 -.000000000000000D+00 -.000000000000000D+00 -.000000000000000D+00
 0.146694811450897D+03 0.000000000000000D+00 0.000000000000000D+00 0.146694811450897D+03
 0.177341780515832D+03 0.000000000000000D+00 0.000000000000000D+00 -.177341780515832D+03
 0.100670812268518D+03 0.210867383287346D+02 -.145830620110913D+02 0.835302113719301D+02
 0.350431896697411D+02 0.180573698234255D+02 0.249011065544724D+02 0.167896226774844D+02
 0.118040776015917D+03 -.331384499528012D+02 0.526440769076977D+02 -.100319834049415D+03
 0.702818140125525D+02 -.600565819935890D+01 -.629621214510788D+02 -.306469690649353D+02
 0.122873095780306D+03 0.000000000000000D+00 0.000000000000000D+00 0.122873095780306D+03
 0.122873095780306D+03 0.000000000000000D+00 0.000000000000000D+00 -.122873095780306D+03
 0.107172527170976D+03 0.185877720966982D+02 -.407817250353074D+02 0.835302113719301D+02
 0.293640519160743D+02 0.172829811792880D+02 0.167825706265156D+02 0.167896226774844D+02
 0.000000000000000D+00 -.000000000000000D+00 -.000000000000000D+00 -.000000000000000D+00
 0.109209612473563D+03 -.358707532759861D+02 0.239991544087918D+02 -.100319834049415D+03
 0.146694811450897D+03 0.000000000000000D+00 0.000000000000000D+00 0.146694811450897D+03
 0.177341780515832D+03 0.000000000000000D+00 0.000000000000000D+00 -.177341780515832D+03
 0.100670812268518D+03 0.210867383287346D+02 -.145830620110913D+02 0.835302113719301D+02
 0.350431896697411D+02 0.180573698234255D+02 0.249011065544724D+02 0.167896226774844D+02
 0.702818140125525D+02 -.600565819935890D+01 -.629621214510788D+02 -.306469690649353D+02
 0.118040776015917D+03 -.331384499528012D+02 0.526440769076977D+02 -.100319834049415D+03
0.117745757570D-05 0.000000000000D+00 0.000000000000D+00 0.869357989648D-06 0.000000000000D+00  6 22 -1 9900012 -13 -2 21 0 0.61277126D-01 0.58316104D-02 0.45155551D+04 0.45155551D+04 0.45155551D+04 0.12468614D+01  1  2  2  1  6  2       -1 0.397940849131D-04 0.100000000000D+01
0.458603590817D-07 0.000000000000D+00 -.226087356120D-08 0.869357989648D-06 0.000000000000D+00  6 22 -1 9900012 -13 -2 21 2 0.61277126D-01 0.58316104D-02 0.45155551D+04 0.45155551D+04 0.45155551D+04 0.12468614D+01  1  2  3  1  6  2       -1 0.240961159385D-05 0.100000000000D+01
-.179778096362D-06 0.000000000000D+00 0.000000000000D+00 0.869357989648D-06 0.000000000000D+00  6 22 -1 9900012 -13 -2 21 2 0.61277126D-01 0.58316104D-02 0.45155551D+04 0.45155551D+04 0.45155551D+04 0.12468614D+01  1  2 15  1  6  2       -1 -.944596584038D-05 0.100000000000D+01
-.280068445110D-07 0.000000000000D+00 0.000000000000D+00 0.869357989648D-06 0.000000000000D+00  6 22 -1 9900012 -13 -2 21 2 0.61277126D-01 0.58316104D-02 0.45155551D+04 0.45155551D+04 0.45155551D+04 0.12468614D+01  1  2  4  1  6  2       -1 -.147154576615D-05 0.100000000000D+01
-.280726537169D-06 0.000000000000D+00 -.386610542136D-06 0.869357989648D-06 0.000000000000D+00  6 22 -1 9900012 -13 -2 21 2 0.61277126D-01 0.10019139D-01 0.45155551D+04 0.45155551D+04 0.45155551D+04 0.12468614D+01  1  2  5  1  6  2       -1 -.671699220273D-05 0.100000000000D+01
0.469894249321D-06 0.000000000000D+00 0.336165374304D-06 0.869357989648D-06 0.000000000000D+00  6 22 -1 9900012 -13 -2 21 2 0.61277126D-01 0.58316104D-02 0.45155551D+04 0.45155551D+04 0.45155551D+04 0.12468614D+01  1  2  6  1  6  2       -1 0.246893538062D-04 0.100000000000D+01
0.211378865127D-08 0.000000000000D+00 -.232398338152D-07 0.869357989648D-06 0.000000000000D+00  6 22 21 9900012 -13 1 -2 2 0.61277126D-01 0.10019139D-01 0.45155551D+04 0.45155551D+04 0.45155551D+04 0.12468614D+01  3  4  5  3  5  2       -1 0.728780844292D-06 0.100000000000D+01
  </mgrwgt>
  </event>
  <event>
  6     66 0.14665890E-05 0.37318015E+02 0.78161638E-02 0.10922648E+00
       22 -1    0    0    0    0 0.00000000E+00 0.00000000E+00 0.10366153E+04 0.10366153E+04 0.00000000E+00 0.0000E+00 0.9000E+01
       -3 -1    0    0    0  501 0.00000000E+00 0.00000000E+00 -.40583669E+03 0.40583669E+03 0.00000000E+00 0.0000E+00 0.9000E+01
       24  2    1    2    0    0 -.29190020E+02 0.23250311E+02 0.10340062E+04 0.10375013E+04 0.76468232E+02 0.0000E+00 0.0000E+00
  9900012  1    3    3    0    0 -.24550830E+02 0.30422712E+02 0.10104977E+04 0.10124889E+04 0.50000000E+02 0.0000E+00 0.9000E+01
      -13  1    3    3    0    0 -.46391904E+01 -.71724006E+01 0.23508529E+02 0.25012324E+02 0.00000000E+00 0.0000E+00 0.9000E+01
       -4  1    1    2    0  501 0.29190020E+02 -.23250311E+02 -.40322758E+03 0.40495076E+03 0.00000000E+00 0.0000E+00 0.9000E+01
#aMCatNLO 1  0  0  5  2 0.50469864D+00 0.00000000D+00  -5  6  0 0.00000000D+00 0.00000000D+00 0.00000000D+00 0.00000000D+00 0.00000000D+00
  <mgrwgt>
 0.3328973144D-03    6    2    0
 0.648611236041149D+03 0.000000000000000D+00 0.000000000000000D+00 0.648611236041149D+03
 0.648611236041149D+03 -.000000000000000D+00 -.000000000000000D+00 -.648611236041149D+03
 0.634483586827874D+03 -.245508299130314D+02 0.304227116307323D+02 0.631301146301493D+03
 0.163814609702019D+02 -.463919038154656D+01 -.717240059944275D+01 0.139780844811844D+02
 0.646357424284222D+03 0.291900202945777D+02 -.232503110312893D+02 -.645279230782677D+03
 0.000000000000000D+00 0.000000000000000D+00 0.000000000000000D+00 -.000000000000000D+00
 0.648611236041149D+03 0.000000000000000D+00 0.000000000000000D+00 0.648611236041149D+03
 0.648611236041149D+03 -.000000000000000D+00 -.000000000000000D+00 -.648611236041149D+03
 0.591107795800351D+03 -.225851849168391D+02 0.288570444240172D+02 0.587848285414980D+03
 0.154338567261966D+02 -.458816389676655D+01 -.721304399845365D+01 0.128500848937875D+02
 0.569086180675954D+03 -.121539919510819D+02 -.127059380967541D+03 -.554587482029790D+03
 0.121594638879797D+03 0.393273407646872D+02 0.105415380541978D+03 -.461108882789774D+02
0.413383177287D-02 0.000000000000D+00 0.000000000000D+00 0.556553223149D-03 0.000000000000D+00  6 22 -3 9900012 -13 -4 21 0 0.15947928D+00 0.62436414D-01 0.29881946D+04 0.29881946D+04 0.29881946D+04 0.12678291D+01  1  2  2  2  6  5       -4 0.297769093004D-03 0.100000000000D+01
0.199911251267D-03 0.000000000000D+00 -.793750123536D-05 0.556553223149D-03 0.000000000000D+00  6 22 -3 9900012 -13 -4 21 2 0.15947928D+00 0.62436414D-01 0.29881946D+04 0.29881946D+04 0.29881946D+04 0.12678291D+01  1  2  3  2  6  5       -4 0.231465068207D-04 0.100000000000D+01
-.588686670660D-03 0.000000000000D+00 0.000000000000D+00 0.556553223149D-03 0.000000000000D+00  6 22 -3 9900012 -13 -4 21 2 0.15947928D+00 0.62436414D-01 0.29881946D+04 0.29881946D+04 0.29881946D+04 0.12678291D+01  1  2 15  2  6  5       -4 -.681604459545D-04 0.100000000000D+01
-.413465243417D-05 0.000000000000D+00 0.000000000000D+00 0.556553223149D-03 0.000000000000D+00  6 22 -3 9900012 -13 -4 21 2 0.15947928D+00 0.62436414D-01 0.29881946D+04 0.29881946D+04 0.29881946D+04 0.12678291D+01  1  2  4  2  6  5       -4 -.478726235577D-06 0.100000000000D+01
-.338932425084D-02 0.000000000000D+00 0.000000000000D+00 0.556553223149D-03 0.000000000000D+00  6 22 -3 9900012 -13 -4 21 2 0.15947928D+00 0.62436414D-01 0.29881946D+04 0.29881946D+04 0.29881946D+04 0.12678291D+01  1  2  5  2  6  5       -4 -.392429222429D-03 0.100000000000D+01
0.408562898858D-02 0.000000000000D+00 -.000000000000D+00 0.556553223149D-03 0.000000000000D+00  6 22 -3 9900012 -13 -4 21 2 0.15947928D+00 0.62436414D-01 0.29881946D+04 0.29881946D+04 0.29881946D+04 0.12678291D+01  1  2  6  2  6  5       -4 0.473050109243D-03 0.100000000000D+01
  </mgrwgt>
  </event>
  <event>
  7     66 -.14665890E-05 0.22434213E+03 0.78161638E-02 0.10310327E+00
       22 -1    0    0    0    0 0.00000000E+00 0.00000000E+00 0.13759245E+04 0.13759245E+04 0.00000000E+00 0.0000E+00 0.9000E+01
       -3 -1    0    0    0  502 0.00000000E+00 0.00000000E+00 -.19795209E+03 0.19795209E+03 0.00000000E+00 0.0000E+00 0.9000E+01
       24  2    1    2    0    0 -.25470160E+02 -.21361614E+03 0.11748800E+04 0.11970494E+04 0.79394563E+02 0.0000E+00 0.0000E+00
  9900012  1    3    3    0    0 -.14942940E+02 -.19446158E+03 0.94953600E+03 0.97064783E+03 0.50000000E+02 0.0000E+00 0.9000E+01
      -13  1    3    3    0    0 -.10527220E+02 -.19154562E+02 0.22534402E+03 0.22640152E+03 0.00000000E+00 0.0000E+00 0.9000E+01
       -4  1    1    2    0  501 0.31042918E+02 0.23176498E+03 -.11263826E+03 0.25954970E+03 0.00000000E+00 0.0000E+00 0.9000E+01
       21  1    1    2  501  502 -.55727576E+01 -.18148839E+02 0.11573061E+03 0.11727749E+03 0.00000000E+00 0.0000E+00 0.9000E+01
#aMCatNLO 2  0  0  2  5 0.90396085D+02 0.00000000D+00  -5  6  0 0.00000000D+00 0.00000000D+00 0.00000000D+00 0.00000000D+00 0.00000000D+00
  <mgrwgt>
 -.3737985678D-05    5    2    0
 0.498237595414077D+03 0.000000000000000D+00 0.000000000000000D+00 0.498237595414077D+03
 0.498237595414077D+03 0.000000000000000D+00 0.000000000000000D+00 -.498237595414077D+03
 0.410266556905611D+03 -.172267929376808D+02 -.201899421703630D+03 0.353211705406272D+03
 0.911339354322052D+02 -.110356512741165D+02 -.208103746604828D+02 0.880371336130827D+02
 0.495074698490337D+03 0.282624442117973D+02 0.222709796364113D+03 -.441248839019355D+03
 0.000000000000000D+00 -.000000000000000D+00 -.000000000000000D+00 0.000000000000000D+00
 0.544426388650121D+03 0.000000000000000D+00 0.000000000000000D+00 0.544426388650121D+03
 0.500282725859762D+03 0.000000000000000D+00 0.000000000000000D+00 -.500282725859762D+03
 0.406567469746032D+03 -.149429403024914D+02 -.194461582722139D+03 0.353211705406272D+03
 0.907097376468283D+02 -.105272197710161D+02 -.191545621991570D+02 0.880371336130827D+02
 0.499378822495630D+03 0.310429176254566D+02 0.231764983736743D+03 -.441248839019355D+03
 0.480530846213929D+02 -.557275755194909D+01 -.181488388154471D+02 0.441436627903583D+02
-.163451693261D-04 0.000000000000D+00 0.000000000000D+00 0.163499054294D-04 0.000000000000D+00  6 22 -3 9900012 -13 -4 21 2 0.19372183D+00 0.33277401D-01 0.56648439D+05 0.56648439D+05 0.56648439D+05 0.11382592D+01  1  2 13  1  6  2       -3 -.386316807301D-05 0.100000000000D+01
-.938397234926D-08 0.000000000000D+00 0.000000000000D+00 0.163499054294D-04 0.000000000000D+00  6 22 -3 9900012 -13 -4 21 2 0.19372183D+00 0.30329672D-01 0.52157879D+05 0.52157879D+05 0.52157879D+05 0.11413560D+01  1  2  8  1  6  2       -3 -.265091531081D-08 0.100000000000D+01
-.591132165716D-08 0.000000000000D+00 0.000000000000D+00 0.163499054294D-04 0.000000000000D+00  6 22 -3 9900012 -13 -4 21 2 0.19372183D+00 0.33843844D-01 0.52157879D+05 0.52157879D+05 0.52157879D+05 0.11413560D+01  1  2  9  1  6  2       -3 -.135561657814D-08 0.100000000000D+01
0.587597498141D-08 0.000000000000D+00 0.000000000000D+00 0.163499054294D-04 0.000000000000D+00  6 22 -3 9900012 -13 -4 21 2 0.19372183D+00 0.30329672D-01 0.52157879D+05 0.52157879D+05 0.52157879D+05 0.11413560D+01  1  2 10  1  6  2       -3 0.165992731696D-08 0.100000000000D+01
0.570778183569D-06 0.000000000000D+00 0.000000000000D+00 0.163499054294D-04 0.748797370310D-09  6 22 -3 9900012 -13 -4 21 2 0.21168069D+00 0.30454167D-01 0.56648439D+05 0.56648439D+05 0.56648439D+05 0.11382592D+01  1  2  1  1  6  2       -3 0.127528999545D-06 0.100000000000D+01
  </mgrwgt>
  </event>
  <event>
  6     66 -.14665890E-05 0.13668585E+02 0.78161638E-02 0.13154410E+00
       22 -1    0    0    0    0 0.00000000E+00 0.00000000E+00 0.70424231E+03 0.70424231E+03 0.00000000E+00 0.0000E+00 0.9000E+01
       -3 -1    0    0    0  501 0.00000000E+00 0.00000000E+00 -.35726383E+01 0.35726383E+01 0.00000000E+00 0.0000E+00 0.9000E+01
       24  2    1    2    0    0 0.81872280E+01 -.10945296E+02 0.66388112E+03 0.66856921E+03 0.77844850E+02 0.0000E+00 0.0000E+00
  9900012  1    3    3    0    0 0.15954046E+02 0.12717514E+02 0.47165942E+03 0.47474085E+03 0.50000000E+02 0.0000E+00 0.9000E+01
      -13  1    3    3    0    0 -.77668184E+01 -.23662810E+02 0.19222170E+03 0.19382836E+03 0.00000000E+00 0.0000E+00 0.9000E+01
       -4  1    1    2    0  501 -.81872280E+01 0.10945296E+02 0.36788554E+02 0.39245737E+02 0.00000000E+00 0.0000E+00 0.9000E+01
#aMCatNLO 1  0  0  5  2 0.89767163D+00 0.00000000D+00  -5  6  0 0.00000000D+00 0.00000000D+00 0.00000000D+00 0.00000000D+00 0.00000000D+00
  <mgrwgt>
 -.4285877008D-04    8    2    0
 0.501597749190655D+02 0.000000000000000D+00 0.000000000000000D+00 0.501597749190655D+02
 0.501597749190655D+02 -.000000000000000D+00 -.000000000000000D+00 -.501597749190655D+02
 0.553353721469709D+02 0.159540464135934D+02 0.127175139829116D+02 0.120721436278366D+02
 0.250269938510370D+02 -.776681839880968D+01 -.236628103936304D+02 0.246948526111264D+01
 0.199571838401232D+02 -.818722801478373D+01 0.109452964107188D+02 -.145416288889493D+02
 0.000000000000000D+00 0.000000000000000D+00 0.000000000000000D+00 -.000000000000000D+00
 0.501597749190655D+02 0.000000000000000D+00 0.000000000000000D+00 0.501597749190655D+02
 0.501597749190655D+02 -.000000000000000D+00 -.000000000000000D+00 -.501597749190655D+02
 0.553182341619541D+02 0.159072338134669D+02 0.127800965545971D+02 0.119889980922369D+02
 0.250031414411415D+02 -.778798391519755D+01 -.236345147543575D+02 0.243189242944855D+01
 0.220184987924746D+01 -.121923794896671D+01 0.161657662218560D+01 -.865032796571651D+00
 0.177963243557880D+02 -.690001194930263D+01 0.923784157757474D+01 -.135558577251137D+02
0.321891289095D-07 0.000000000000D+00 0.000000000000D+00 0.383390028520D-07 0.000000000000D+00  6 22 -3 9900012 -13 -4 21 0 0.10834497D+00 0.54963666D-03 0.21425750D+04 0.21425750D+04 0.21425750D+04 0.12855467D+01  1  2  2  2  6  5       -4 0.878346284287D-05 0.100000000000D+01
0.231687395707D-08 0.000000000000D+00 -.618073653024D-10 0.383390028520D-07 0.000000000000D+00  6 22 -3 9900012 -13 -4 21 2 0.10834497D+00 0.54963666D-03 0.21425750D+04 0.21425750D+04 0.21425750D+04 0.12855467D+01  1  2  3  2  6  5       -4 0.104480362712D-05 0.100000000000D+01
-.341913350973D-08 0.000000000000D+00 0.000000000000D+00 0.383390028520D-07 0.000000000000D+00  6 22 -3 9900012 -13 -4 21 2 0.10834497D+00 0.54963666D-03 0.21425750D+04 0.21425750D+04 0.21425750D+04 0.12855467D+01  1  2 15  2  6  5       -4 -.154187200460D-05 0.100000000000D+01
0.998349197224D-13 0.000000000000D+00 0.000000000000D+00 0.383390028520D-07 0.000000000000D+00  6 22 -3 9900012 -13 -4 21 2 0.10834497D+00 0.54963666D-03 0.21364336D+04 0.21364336D+04 0.21364336D+04 0.12857029D+01  1  2 12  2  6  5       -4 0.450115293795D-10 0.100000000000D+01
-.207046336105D-06 0.000000000000D+00 0.000000000000D+00 0.383390028520D-07 0.000000000000D+00  6 22 -3 9900012 -13 -4 21 2 0.10834497D+00 0.54963666D-03 0.21425750D+04 0.21425750D+04 0.21425750D+04 0.12855467D+01  1  2  4  2  6  5       -4 -.933683778031D-04 0.100000000000D+01
-.268820974655D-07 0.000000000000D+00 0.000000000000D+00 0.383390028520D-07 0.000000000000D+00  6 22 -3 9900012 -13 -4 21 2 0.10834497D+00 0.54963666D-03 0.21425750D+04 0.21425750D+04 0.21425750D+04 0.12855467D+01  1  2  5  2  6  5       -4 -.121225899454D-04 0.100000000000D+01
0.639681196720D-07 0.000000000000D+00 -.000000000000D+00 0.383390028520D-07 0.000000000000D+00  6 22 -3 9900012 -13 -4 21 2 0.10834497D+00 0.54963666D-03 0.21425750D+04 0.21425750D+04 0.21425750D+04 0.12855467D+01  1  2  6  2  6  5       -4 0.288466807828D-04 0.100000000000D+01
0.565565840781D-07 0.000000000000D+00 0.000000000000D+00 0.383390028520D-07 0.482669843566D-07  6 22 -3 9900012 -13 -4 21 2 0.10834497D+00 0.54963666D-03 0.21364336D+04 0.21364336D+04 0.21364336D+04 0.12857029D+01  1  2 11  2  6  5       -4 0.254990774061D-04 0.100000000000D+01
  </mgrwgt>
  </event>
  <event>
  6     66 0.14665890E-05 0.39634491E+02 0.78161638E-02 0.12531294E+00
       22 -1    0    0    0    0 0.00000000E+00 0.00000000E+00 0.26600548E+03 0.26600548E+03 0.00000000E+00 0.0000E+00 0.9000E+01
       -3 -1    0    0    0  501 0.00000000E+00 0.00000000E+00 -.24717441E+03 0.24717441E+03 0.00000000E+00 0.0000E+00 0.9000E+01
       24  2    1    2    0    0 -.23231999E+02 -.36739859E+02 0.25599482E+03 0.27206542E+03 0.81220090E+02 0.0000E+00 0.0000E+00
  9900012  1    3    3    0    0 -.30249361E+02 -.42058749E+02 0.25254574E+03 0.26260867E+03 0.50000000E+02 0.0000E+00 0.9000E+01
      -13  1    3    3    0    0 0.70173620E+01 0.53188902E+01 0.34490738E+01 0.94567475E+01 0.00000000E+00 0.0000E+00 0.9000E+01
       -4  1    1    2    0  501 0.23231999E+02 0.36739859E+02 -.23716375E+03 0.24111447E+03 0.00000000E+00 0.0000E+00 0.9000E+01
#aMCatNLO 1  0  0  5  2 0.83456236D+01 0.00000000D+00  -5  6  0 0.00000000D+00 0.00000000D+00 0.00000000D+00 0.00000000D+00 0.00000000D+00
  <mgrwgt>
 0.4848482187D-03    8    2    0
 0.256417134753962D+03 0.000000000000000D+00 0.000000000000000D+00 0.256417134753962D+03
 0.256417134753962D+03 -.000000000000000D+00 -.000000000000000D+00 -.256417134753962D+03
 0.253512275616563D+03 -.302493605708635D+02 -.420587494091419D+02 0.243073058300342D+03
 0.933647212544260D+01 0.701736196720052D+01 0.531889021424797D+01 0.310415039249576D+01
 0.249985521765917D+03 0.232319986036630D+02 0.367398591948940D+02 -.246177208692837D+03
 0.000000000000000D+00 0.000000000000000D+00 0.000000000000000D+00 0.000000000000000D+00
 0.256417134753962D+03 0.000000000000000D+00 0.000000000000000D+00 0.256417134753962D+03
 0.256417134753962D+03 -.000000000000000D+00 -.000000000000000D+00 -.256417134753962D+03
 0.252568620116306D+03 -.301598380844030D+02 -.419171755564809D+02 0.242124435833198D+03
 0.933036114303345D+01 0.702066401108842D+01 0.532411217683355D+01 0.306916037888686D+01
 0.231486550067157D+03 0.164647848924296D+02 0.277093353305626D+02 -.229231600037994D+03
 0.194487381814271D+02 0.667438918088502D+01 0.888372804908484D+01 -.159619961740907D+02
0.764501164593D-05 0.000000000000D+00 0.000000000000D+00 0.440392471162D-04 0.000000000000D+00  6 22 -3 9900012 -13 -4 21 0 0.40923919D-01 0.38026833D-01 0.38610036D+04 0.38610036D+04 0.38610036D+04 0.12546871D+01  1  2  2  2  6  5       -4 0.187297014799D-04 0.100000000000D+01
0.327674685723D-06 0.000000000000D+00 -.146794288491D-07 0.440392471162D-04 0.000000000000D+00  6 22 -3 9900012 -13 -4 21 2 0.40923919D-01 0.38026833D-01 0.38610036D+04 0.38610036D+04 0.38610036D+04 0.12546871D+01  1  2  3  2  6  5       -4 0.126376544902D-05 0.100000000000D+01
-.112721538577D-05 0.000000000000D+00 0.000000000000D+00 0.440392471162D-04 0.000000000000D+00  6 22 -3 9900012 -13 -4 21 2 0.40923919D-01 0.38026833D-01 0.38610036D+04 0.38610036D+04 0.38610036D+04 0.12546871D+01  1  2 15  2  6  5       -4 -.434740894007D-05 0.100000000000D+01
0.118164808122D-03 0.000000000000D+00 0.000000000000D+00 0.440392471162D-04 0.000000000000D+00  6 22 -3 9900012 -13 -4 21 2 0.40923919D-01 0.38026833D-01 0.38461194D+04 0.38461194D+04 0.38461194D+04 0.12548820D+01  1  2 12  2  6  5       -4 0.455747545527D-03 0.100000000000D+01
-.701912803640D-05 0.000000000000D+00 0.000000000000D+00 0.440392471162D-04 0.000000000000D+00  6 22 -3 9900012 -13 -4 21 2 0.40923919D-01 0.38026833D-01 0.38610036D+04 0.38610036D+04 0.38610036D+04 0.12546871D+01  1  2  4  2  6  5       -4 -.270711528268D-04 0.100000000000D+01
-.129830276858D-03 0.000000000000D+00 0.000000000000D+00 0.440392471162D-04 0.000000000000D+00  6 22 -3 9900012 -13 -4 21 2 0.40923919D-01 0.38026833D-01 0.38610036D+04 0.38610036D+04 0.38610036D+04 0.12546871D+01  1  2  5  2  6  5       -4 -.500725339121D-03 0.100000000000D+01
0.140322632336D-03 0.000000000000D+00 -.000000000000D+00 0.440392471162D-04 0.000000000000D+00  6 22 -3 9900012 -13 -4 21 2 0.40923919D-01 0.38026833D-01 0.38610036D+04 0.38610036D+04 0.38610036D+04 0.12546871D+01  1  2  6  2  6  5       -4 0.541191926594D-03 0.100000000000D+01
0.153441374767D-07 0.000000000000D+00 0.000000000000D+00 0.440392471162D-04 0.377645576669D-06  6 22 -3 9900012 -13 -4 21 2 0.40923919D-01 0.38026833D-01 0.38461194D+04 0.38461194D+04 0.38461194D+04 0.12548820D+01  1  2 11  2  6  5       -4 0.591805047915D-07 0.100000000000D+01
  </mgrwgt>
  </event>
  <event>
  6     66 0.14665890E-05 0.39519438E+02 0.78161638E-02 0.12408380E+00
       22 -1    0    0    0    0 0.00000000E+00 0.00000000E+00 0.16610747E+03 0.16610747E+03 0.00000000E+00 0.0000E+00 0.9000E+01
       -1 -1    0    0    0  501 0.00000000E+00 0.00000000E+00 -.28633756E+02 0.28633756E+02 0.00000000E+00 0.0000E+00 0.9000E+01
       24  2    1    2    0    0 0.27227583E+02 -.36882345E+02 0.78859347E+02 0.12032824E+03 0.78475727E+02 0.0000E+00 0.0000E+00
  9900012  1    3    3    0    0 0.70056113E+01 -.84694360E+01 0.27122067E+02 0.57934588E+02 0.50000000E+02 0.0000E+00 0.9000E+01
      -13  1    3    3    0    0 0.20221972E+02 -.28412909E+02 0.51737280E+02 0.62393651E+02 0.00000000E+00 0.0000E+00 0.9000E+01
       -2  1    1    2    0  501 -.27227583E+02 0.36882345E+02 0.58614363E+02 0.74412985E+02 0.00000000E+00 0.0000E+00 0.9000E+01
#aMCatNLO 1  0  0  2  5 0.66262020D+01 0.00000000D+00  -5  6  0 0.00000000D+00 0.00000000D+00 0.00000000D+00 0.00000000D+00 0.00000000D+00
  <mgrwgt>
 0.3850537593D-05    1    2    0
 0.689657940974288D+02 0.000000000000000D+00 0.000000000000000D+00 0.689657940974288D+02
 0.689657940974288D+02 0.000000000000000D+00 0.000000000000000D+00 -.689657940974288D+02
 0.547639695463593D+02 0.700561129769024D+01 -.846943599178958D+01 -.194494839212052D+02
 0.365260790859117D+02 0.202219718165569D+02 -.284129092866021D+02 0.108596912991104D+02
 0.466415395625866D+02 -.272275831142471D+02 0.368823452783917D+02 0.858979262209483D+01
 0.000000000000000D+00 0.000000000000000D+00 0.000000000000000D+00 -.000000000000000D+00
 0.730517644512886D+02 0.000000000000000D+00 0.000000000000000D+00 0.730517644512886D+02
 0.168588524848268D+03 0.000000000000000D+00 0.000000000000000D+00 -.168588524848268D+03
 0.550720157108131D+02 -.466519057419700D+01 -.115273798652271D+02 -.194494839212052D+02
 0.346697494788791D+02 0.126569428568857D+02 -.303950724844307D+02 0.108596912991104D+02
 0.515589261096056D+02 -.376620338628225D+02 0.341483459277428D+02 0.858979262209483D+01
 0.100339598000258D+03 0.296702815801338D+02 0.777410642191496D+01 -.955367603969789D+02
0.120759020813D-07 0.000000000000D+00 0.000000000000D+00 0.543496367438D-07 0.000000000000D+00  6 22 -1 9900012 -13 -2 21 2 0.25554995D-01 0.44051933D-02 0.43501911D+04 0.43501911D+04 0.43501911D+04 0.12487126D+01  1  2 14  1  6  2       -1 0.385053759336D-05 0.100000000000D+01
  </mgrwgt>
  </event>
  <event>
  6     66 0.14665890E-05 0.42728435E+02 0.78161638E-02 0.12403712E+00
       22 -1    0    0    0    0 0.00000000E+00 0.00000000E+00 0.85218793E+02 0.85218793E+02 0.00000000E+00 0.0000E+00 0.9000E+01
       -3 -1    0    0    0  501 -.00000000E+00 -.00000000E+00 -.18164300E+03 0.18164300E+03 0.00000000E+00 0.0000E+00 0.9000E+01
       24  2    1    2    0    0 0.16423235E+02 0.39446121E+02 0.57144256E+02 0.10745981E+03 0.80351887E+02 0.0000E+00 0.0000E+00
  9900012  1    3    3    0    0 -.10903930E+02 0.16376971E+02 0.24558514E+02 0.59078096E+02 0.50000000E+02 0.0000E+00 0.9000E+01
      -13  1    3    3    0    0 0.27327165E+02 0.23069150E+02 0.32585742E+02 0.48381714E+02 0.00000000E+00 0.0000E+00 0.9000E+01
       -4  1    1    2    0  501 -.16423235E+02 -.39446121E+02 -.15356846E+03 0.15940198E+03 0.00000000E+00 0.0000E+00 0.9000E+01
#aMCatNLO 1  0  0  5  5 0.60042314D-01 0.00000000D+00  -5  6  0 0.00000000D+00 0.00000000D+00 0.00000000D+00 0.00000000D+00 0.00000000D+00
  <mgrwgt>
 0.8587802942D-04    7    2    0
 0.124416225277587D+03 0.000000000000000D+00 0.000000000000000D+00 0.124416225277587D+03
 0.124416225277587D+03 -.000000000000000D+00 -.000000000000000D+00 -.124416225277587D+03
 0.728752292431206D+02 -.109039303559925D+02 0.163769712554821D+02 0.492310689760658D+02
 0.645144360282705D+02 0.273271653033534D+02 0.230691500750694D+02 0.536949979732091D+02
 0.111442785283783D+03 -.164232349473608D+02 -.394461213305515D+02 -.102926066949275D+03
 0.000000000000000D+00 0.000000000000000D+00 -.000000000000000D+00 0.000000000000000D+00
 0.124416225277587D+03 0.000000000000000D+00 0.000000000000000D+00 0.124416225277587D+03
 0.124416225277587D+03 -.000000000000000D+00 -.000000000000000D+00 -.124416225277587D+03
 0.728748529927062D+02 -.109040117271820D+02 0.163767758142173D+02 0.492305590146292D+02
 0.645139679043333D+02 0.273270932677529D+02 0.230689770564743D+02 0.536945465188481D+02
 0.110479195045880D+03 -.163014358169484D+02 -.390512749947784D+02 -.102053484259842D+03
 0.964434612254656D+00 -.121645723622513D+00 -.394477875913266D+00 -.871621273635575D+00
0.750517208964D-07 0.000000000000D+00 0.000000000000D+00 0.418218611977D-05 0.000000000000D+00  6 22 -3 9900012 -13 -4 21 0 0.13110584D-01 0.27945077D-01 0.43707125D+04 0.43707125D+04 0.43707125D+04 0.12484786D+01  1  2  2  2  6  5       -4 0.182168412423D-05 0.100000000000D+01
0.295152041623D-08 0.000000000000D+00 -.144109184907D-09 0.418218611977D-05 0.000000000000D+00  6 22 -3 9900012 -13 -4 21 2 0.13110584D-01 0.27945077D-01 0.43707125D+04 0.43707125D+04 0.43707125D+04 0.12484786D+01  1  2  3  2  6  5       -4 0.111665858194D-06 0.100000000000D+01
-.119589961996D-07 0.000000000000D+00 0.000000000000D+00 0.418218611977D-05 0.000000000000D+00  6 22 -3 9900012 -13 -4 21 2 0.13110584D-01 0.27945077D-01 0.43707125D+04 0.43707125D+04 0.43707125D+04 0.12484786D+01  1  2 15  2  6  5       -4 -.452448699465D-06 0.100000000000D+01
-.537170198253D-03 0.000000000000D+00 0.000000000000D+00 0.418218611977D-05 0.000000000000D+00  6 22 -3 9900012 -13 -4 21 2 0.13110584D-01 0.27945077D-01 0.43707125D+04 0.43707125D+04 0.43707125D+04 0.12484786D+01  1  2  4  2  6  5       -4 -.203229396124D-01 0.100000000000D+01
-.673589833446D-03 0.000000000000D+00 0.000000000000D+00 0.418218611977D-05 0.000000000000D+00  6 22 -3 9900012 -13 -4 21 2 0.13110584D-01 0.27945077D-01 0.43707125D+04 0.43707125D+04 0.43707125D+04 0.12484786D+01  1  2  5  2  6  5       -4 -.254841492570D-01 0.100000000000D+01
0.679444355396D-03 0.000000000000D+00 -.000000000000D+00 0.418218611977D-05 0.000000000000D+00  6 22 -3 9900012 -13 -4 21 2 0.13110584D-01 0.27945077D-01 0.43707125D+04 0.43707125D+04 0.43707125D+04 0.12484786D+01  1  2  6  2  6  5       -4 0.257056453423D-01 0.100000000000D+01
0.533546288016D-03 0.000000000000D+00 0.000000000000D+00 0.418218611977D-05 0.752575742389D-02  6 22 -3 9900012 -13 -4 21 2 0.13110584D-01 0.27945077D-01 0.43707976D+04 0.43707976D+04 0.43707976D+04 0.12484776D+01  1  2 11  2  6  5       -4 0.201858406552D-01 0.100000000000D+01
  </mgrwgt>
  </event>
  <event>
  7     66 0.14665890E-05 0.58181021E+02 0.78161638E-02 0.11607033E+00
       22 -1    0    0    0    0 0.00000000E+00 0.00000000E+00 0.24517790E+03 0.24517790E+03 0.00000000E+00 0.0000E+00 0.9000E+01
       21 -1    0    0  502  501 0.00000000E+00 0.00000000E+00 -.12801215E+03 0.12801215E+03 0.00000000E+00 0.0000E+00 0.9000E+01
       24  2    1    2    0    0 -.70790166E+02 -.26095269E+02 0.21102167E+03 0.23533838E+03 0.71845662E+02 0.0000E+00 0.0000E+00
  9900012  1    3    3    0    0 -.69354965E+02 -.36236533E+02 0.19860692E+03 0.21924394E+03 0.50000000E+02 0.0000E+00 0.9000E+01
      -13  1    3    3    0    0 -.14352016E+01 0.10141264E+02 0.12414750E+02 0.16094442E+02 0.00000000E+00 0.0000E+00 0.9000E+01
        1  1    1    2  502    0 0.55059287E+02 0.48342677E+02 -.62447365E+02 0.96271559E+02 0.00000000E+00 0.0000E+00 0.9000E+01
       -2  1    1    2    0  501 0.15730879E+02 -.22247409E+02 -.31408561E+02 0.41580109E+02 0.00000000E+00 0.0000E+00 0.9000E+01
#aMCatNLO 2  0  0  2  2 0.77239135D+02 0.00000000D+00  -5  6  0 0.00000000D+00 0.00000000D+00 0.00000000D+00 0.00000000D+00 0.00000000D+00
  <mgrwgt>
 0.1451912038D-04    1    2    0
 0.988109849881957D+02 0.000000000000000D+00 0.000000000000000D+00 0.988109849881957D+02
 0.988109849881957D+02 0.000000000000000D+00 0.000000000000000D+00 -.988109849881957D+02
 0.985208759999731D+02 -.400549488722995D+02 -.105107875367445D+02 0.741045708711478D+02
 0.133498895381725D+02 0.178916745973347D+01 0.129722968603391D+02 0.259575512128442D+01
 0.000000000000000D+00 0.000000000000000D+00 0.000000000000000D+00 -.000000000000000D+00
 0.857512044382457D+02 0.382657814125661D+02 -.246150932359461D+01 -.767003259924323D+02
 0.113191633692716D+03 0.000000000000000D+00 0.000000000000000D+00 0.113191633692716D+03
 0.277279775507701D+03 0.000000000000000D+00 0.000000000000000D+00 -.277279775507701D+03
 0.118805239414049D+03 -.693549648556046D+02 -.362365331966295D+02 0.741045708711478D+02
 0.105661246806597D+02 -.143520158369131D+01 0.101412643458171D+02 0.259575512128442D+01
 0.179703805916649D+03 0.550592872887919D+02 0.483426774174141D+02 -.164088141814985D+03
 0.813962391890587D+02 0.157308791505040D+02 -.222474085666017D+02 -.767003259924323D+02
0.605459843258D-07 0.000000000000D+00 0.000000000000D+00 0.589063334169D-07 0.596968819836D-10  6 22 21 9900012 -13 1 -2 2 0.37719677D-01 0.19694178D-01 0.10365375D+05 0.10365375D+05 0.10365375D+05 0.12077180D+01  1  2  1  3  5  2       -1 0.145191203792D-04 0.100000000000D+01
  </mgrwgt>
  </event>
  <event>
  6     66 0.14665890E-05 0.31653089E+02 0.78161638E-02 0.12933128E+00
       22 -1    0    0    0    0 0.00000000E+00 0.00000000E+00 0.11516345E+04 0.11516345E+04 0.00000000E+00 0.0000E+00 0.9000E+01
       -1 -1    0    0    0  501 0.00000000E+00 0.00000000E+00 -.37772851E+01 0.37772851E+01 0.00000000E+00 0.0000E+00 0.9000E+01
       24  2    1    2    0    0 -.11317372E+02 0.33096737E+02 0.98989330E+03 0.99362157E+03 0.78559487E+02 0.0000E+00 0.0000E+00
  9900012  1    3    3    0    0 -.48981305E+01 0.21853797E+02 0.95204846E+03 0.95362354E+03 0.50000000E+02 0.0000E+00 0.9000E+01
      -13  1    3    3    0    0 -.64192416E+01 0.11242940E+02 0.37844839E+02 0.39998028E+02 0.00000000E+00 0.0000E+00 0.9000E+01
       -2  1    1    2    0  501 0.11317372E+02 -.33096737E+02 0.15796394E+03 0.16179024E+03 0.00000000E+00 0.0000E+00 0.9000E+01
#aMCatNLO 1  0  0  5  2 0.21562785D+01 0.00000000D+00  -5  6  0 0.00000000D+00 0.00000000D+00 0.00000000D+00 0.00000000D+00 0.00000000D+00
  <mgrwgt>
 0.6255915455D-04    8    2    0
 0.659549233594227D+02 0.000000000000000D+00 0.000000000000000D+00 0.659549233594227D+02
 0.659549233594227D+02 -.000000000000000D+00 -.000000000000000D+00 -.659549233594227D+02
 0.683207486803348D+02 -.489813049265871D+01 0.218537973231651D+02 0.408184340767303D+02
 0.210273981221826D+02 -.641924161097577D+01 0.112429399503341D+02 -.165692821269320D+02
 0.425616999163280D+02 0.113173721036345D+02 -.330967372734992D+02 -.242491519497983D+02
 0.000000000000000D+00 0.000000000000000D+00 0.000000000000000D+00 -.000000000000000D+00
 0.659549233594227D+02 0.000000000000000D+00 0.000000000000000D+00 0.659549233594227D+02
 0.659549233594227D+02 -.000000000000000D+00 -.000000000000000D+00 -.659549233594227D+02
 0.680912268711082D+02 -.479749282165167D+01 0.215594906125050D+02 0.406028029077825D+02
 0.210221205913615D+02 -.638821965991032D+01 0.111522187692399D+02 -.166357512682023D+02
 0.392982664836578D+02 0.101367415198477D+02 -.317906798362382D+02 -.207594049897914D+02
 0.349823277271793D+01 0.104897096171431D+01 -.921029545506632D+00 -.320764664978888D+01
0.204455870243D-06 0.000000000000D+00 0.000000000000D+00 0.181276853627D-06 0.000000000000D+00  6 22 -1 9900012 -13 -2 21 0 0.17717454D+00 0.58112078D-03 0.26374056D+04 0.26374056D+04 0.26374056D+04 0.12743938D+01  1  2  2  2  6  5       -2 0.197801807892D-04 0.100000000000D+01
-.224744208885D-08 0.000000000000D+00 -.392582188099D-09 0.181276853627D-06 0.000000000000D+00  6 22 -1 9900012 -13 -2 21 2 0.17717454D+00 0.58112078D-03 0.26374056D+04 0.26374056D+04 0.26374056D+04 0.12743938D+01  1  2  3  2  6  5       -2 -.353123369120D-06 0.100000000000D+01
-.226150946327D-07 0.000000000000D+00 0.000000000000D+00 0.181276853627D-06 0.000000000000D+00  6 22 -1 9900012 -13 -2 21 2 0.17717454D+00 0.58112078D-03 0.26374056D+04 0.26374056D+04 0.26374056D+04 0.12743938D+01  1  2 15  2  6  5       -2 -.355333667964D-05 0.100000000000D+01
0.175905146907D-08 0.000000000000D+00 0.000000000000D+00 0.181276853627D-06 0.000000000000D+00  6 22 -1 9900012 -13 -2 21 2 0.17717454D+00 0.58112078D-03 0.26151416D+04 0.26151416D+04 0.26151416D+04 0.12748431D+01  1  2 12  2  6  5       -2 0.276251510906D-06 0.100000000000D+01
-.261945454029D-05 0.000000000000D+00 0.000000000000D+00 0.181276853627D-06 0.000000000000D+00  6 22 -1 9900012 -13 -2 21 2 0.17717454D+00 0.58112078D-03 0.26374056D+04 0.26374056D+04 0.26374056D+04 0.12743938D+01  1  2  4  2  6  5       -2 -.411574837508D-03 0.100000000000D+01
-.157133175533D-05 0.000000000000D+00 0.000000000000D+00 0.181276853627D-06 0.000000000000D+00  6 22 -1 9900012 -13 -2 21 2 0.17717454D+00 0.58112078D-03 0.26374056D+04 0.26374056D+04 0.26374056D+04 0.12743938D+01  1  2  5  2  6  5       -2 -.246891328681D-03 0.100000000000D+01
0.170577083994D-05 0.000000000000D+00 -.000000000000D+00 0.181276853627D-06 0.000000000000D+00  6 22 -1 9900012 -13 -2 21 2 0.17717454D+00 0.58112078D-03 0.26374056D+04 0.26374056D+04 0.26374056D+04 0.12743938D+01  1  2  6  2  6  5       -2 0.268014712787D-03 0.100000000000D+01
0.278174168347D-05 0.000000000000D+00 0.000000000000D+00 0.181276853627D-06 0.153108036898D-05  6 22 -1 9900012 -13 -2 21 2 0.17717454D+00 0.58112078D-03 0.26151416D+04 0.26151416D+04 0.26151416D+04 0.12748431D+01  1  2 11  2  6  5       -2 0.436860635699D-03 0.100000000000D+01
  </mgrwgt>
  </event>
  <event>
  6     66 0.14665890E-05 0.87154102E+02 0.78161638E-02 0.10737514E+00
       22 -1    0    0    0    0 0.00000000E+00 0.00000000E+00 0.19314597E+04 0.19314597E+04 0.00000000E+00 0.0000E+00 0.9000E+01
       -3 -1    0    0    0  501 0.00000000E+00 0.00000000E+00 -.38438858E+02 0.38438858E+02 0.00000000E+00 0.0000E+00 0.9000E+01
       24  2    1    2    0    0 -.10716929E+03 -.97002564E+02 0.17769204E+04 0.17844961E+04 0.78009753E+02 0.0000E+00 0.0000E+00
  9900012  1    3    3    0    0 -.38881145E+02 -.52291064E+02 0.82174622E+03 0.82584075E+03 0.50000000E+02 0.0000E+00 0.9000E+01
      -13  1    3    3    0    0 -.68288148E+02 -.44711500E+02 0.95517416E+03 0.95865534E+03 0.00000000E+00 0.0000E+00 0.9000E+01
       -4  1    1    2    0  501 0.10716929E+03 0.97002564E+02 0.11610046E+03 0.18540246E+03 0.00000000E+00 0.0000E+00 0.9000E+01
#aMCatNLO 1  0  0  2  5 0.43107575D+02 0.00000000D+00  -5  6  0 0.00000000D+00 0.00000000D+00 0.00000000D+00 0.00000000D+00 0.00000000D+00
  <mgrwgt>
 0.5669914911D-04    9    4    0
 0.272475878268667D+03 0.000000000000000D+00 0.000000000000000D+00 0.272475878268667D+03
 0.272475878268667D+03 0.000000000000000D+00 0.000000000000000D+00 -.272475878268667D+03
 0.130726775855863D+03 -.388811451693081D+02 -.522910636985880D+02 0.101702463752175D+03
 0.147332643984363D+03 -.682881484670150D+02 -.447115004169521D+02 0.122656098473883D+03
 0.266892336697107D+03 0.107169293636323D+03 0.970025641155401D+02 -.224358562226058D+03
 0.000000000000000D+00 -.000000000000000D+00 -.000000000000000D+00 -.000000000000000D+00
 0.279517130777672D+03 0.000000000000000D+00 0.000000000000000D+00 0.279517130777672D+03
 0.339614558564855D+03 0.000000000000000D+00 0.000000000000000D+00 -.339614558564855D+03
 0.126572629746339D+03 -.306477026831001D+02 -.473070585419301D+02 0.101702463752175D+03
 0.141634429180104D+03 -.590413576641406D+02 -.391140783032661D+02 0.122656098473883D+03
 0.278271805362680D+03 0.124614252744125D+03 0.107562638628311D+03 -.224358562226058D+03
 0.726528250534042D+02 -.349251923968845D+02 -.211415017831147D+02 -.600974277871834D+02
 0.272475878268667D+03 0.000000000000000D+00 0.000000000000000D+00 0.272475878268667D+03
 0.272475878268667D+03 0.000000000000000D+00 0.000000000000000D+00 -.272475878268667D+03
 0.130726775855863D+03 -.388811451693081D+02 -.522910636985880D+02 0.101702463752175D+03
 0.147332643984363D+03 -.682881484670150D+02 -.447115004169521D+02 0.122656098473883D+03
 0.000000000000000D+00 -.000000000000000D+00 -.000000000000000D+00 -.000000000000000D+00
 0.266892336697107D+03 0.107169293636323D+03 0.970025641155401D+02 -.224358562226058D+03
 0.279517130777672D+03 0.000000000000000D+00 0.000000000000000D+00 0.279517130777672D+03
 0.339614558564855D+03 0.000000000000000D+00 0.000000000000000D+00 -.339614558564855D+03
 0.126572629746339D+03 -.306477026831001D+02 -.473070585419301D+02 0.101702463752175D+03
 0.141634429180104D+03 -.590413576641406D+02 -.391140783032661D+02 0.122656098473883D+03
 0.726528250534042D+02 -.349251923968845D+02 -.211415017831147D+02 -.600974277871834D+02
 0.278271805362680D+03 0.124614252744125D+03 0.107562638628311D+03 -.224358562226058D+03
0.153829689346D-04 0.000000000000D+00 0.000000000000D+00 0.239104153779D-05 0.000000000000D+00  6 22 -3 9900012 -13 -4 21 0 0.29714765D+00 0.59136704D-02 0.23763499D+05 0.23763499D+05 0.23763499D+05 0.11722010D+01  1  2  2  1  6  2       -3 0.152913339668D-04 0.100000000000D+01
0.230720335641D-07 0.000000000000D+00 -.295373255688D-07 0.239104153779D-05 0.000000000000D+00  6 22 -3 9900012 -13 -4 21 2 0.29714765D+00 0.59136704D-02 0.23763499D+05 0.23763499D+05 0.23763499D+05 0.11722010D+01  1  2  3  1  6  2       -3 0.315133980076D-07 0.100000000000D+01
-.241084057815D-05 0.000000000000D+00 0.000000000000D+00 0.239104153779D-05 0.000000000000D+00  6 22 -3 9900012 -13 -4 21 2 0.29714765D+00 0.59136704D-02 0.23763499D+05 0.23763499D+05 0.23763499D+05 0.11722010D+01  1  2 15  1  6  2       -3 -.329289477069D-05 0.100000000000D+01
0.394298651717D-04 0.000000000000D+00 0.000000000000D+00 0.239104153779D-05 0.000000000000D+00  6 22 -3 9900012 -13 -4 21 2 0.29714765D+00 0.75612870D-02 0.30907639D+05 0.30907639D+05 0.30907639D+05 0.11616005D+01  1  2 12  1  6  2       -3 0.366218784209D-04 0.100000000000D+01
-.835651920091D-05 0.000000000000D+00 0.000000000000D+00 0.239104153779D-05 0.000000000000D+00  6 22 -3 9900012 -13 -4 21 2 0.29714765D+00 0.59136704D-02 0.23763499D+05 0.23763499D+05 0.23763499D+05 0.11722010D+01  1  2  4  1  6  2       -3 -.114139187083D-04 0.100000000000D+01
-.499075922031D-04 0.000000000000D+00 -.863658294735D-05 0.239104153779D-05 0.000000000000D+00  6 22 -3 9900012 -13 -4 21 2 0.29714765D+00 0.75723809D-02 0.23763499D+05 0.23763499D+05 0.23763499D+05 0.11722010D+01  1  2  5  1  6  2       -3 -.463138146777D-04 0.100000000000D+01
0.507415353246D-04 0.000000000000D+00 0.837917445724D-05 0.239104153779D-05 0.000000000000D+00  6 22 -3 9900012 -13 -4 21 2 0.29714765D+00 0.59136704D-02 0.23763499D+05 0.23763499D+05 0.23763499D+05 0.11722010D+01  1  2  6  1  6  2       -3 0.693063398057D-04 0.100000000000D+01
0.131773758872D-05 0.000000000000D+00 0.000000000000D+00 0.239104153779D-05 0.000000000000D+00  6 22 21 9900012 -13 3 -4 2 0.29714765D+00 0.75612870D-02 0.30907639D+05 0.30907639D+05 0.30907639D+05 0.11616005D+01  3  4 12  3  5  2       -3 0.211492652794D-04 0.100000000000D+01
-.153312356721D-05 0.000000000000D+00 -.289904671645D-06 0.239104153779D-05 0.000000000000D+00  6 22 21 9900012 -13 3 -4 2 0.29714765D+00 0.75723809D-02 0.23763499D+05 0.23763499D+05 0.23763499D+05 0.11722010D+01  3  4  5  3  5  2       -3 -.246805536033D-04 0.100000000000D+01
  </mgrwgt>
  </event>
  <event>
  6     66 0.14665890E-05 0.22853200E+02 0.78161638E-02 0.12852190E+00
       22 -1    0    0    0    0 0.00000000E+00 0.00000000E+00 0.48214400E+02 0.48214400E+02 0.00000000E+00 0.0000E+00 0.9000E+01
       -1 -1    0    0    0  501 -.00000000E+00 -.00000000E+00 -.21084838E+03 0.21084838E+03 0.00000000E+00 0.0000E+00 0.9000E+01
       24  2    1    2    0    0 -.55620285E+01 0.36595138E+02 0.37316069E+01 0.88629071E+02 0.80442819E+02 0.0000E+00 0.0000E+00
  9900012  1    3    3    0    0 -.46829807E+01 0.29969617E+02 -.21666547E+02 0.62366237E+02 0.50000000E+02 0.0000E+00 0.9000E+01
      -13  1    3    3    0    0 -.87904770E+00 0.66255212E+01 0.25398154E+02 0.26262834E+02 0.00000000E+00 0.0000E+00 0.9000E+01
       -2  1    1    2    0  501 0.55620285E+01 -.36595138E+02 -.16636559E+03 0.17043371E+03 0.00000000E+00 0.0000E+00 0.9000E+01
#aMCatNLO 1  0  0  5  2 0.14240667D+02 0.00000000D+00  -5  6  0 0.00000000D+00 0.00000000D+00 0.00000000D+00 0.00000000D+00 0.00000000D+00
  <mgrwgt>
 0.5924037684D-04    5    2    0
 0.100826226982295D+03 0.000000000000000D+00 0.000000000000000D+00 0.100826226982295D+03
 0.100826226982295D+03 -.000000000000000D+00 -.000000000000000D+00 -.100826226982295D+03
 0.626476579184693D+02 -.468298074805611D+01 0.299696172192408D+02 0.224637658845320D+02
 0.542236182267422D+02 -.879047703646144D+00 0.662552115287312D+01 0.538101339729519D+02
 0.847811778193792D+02 0.556202845170226D+01 -.365951383721140D+02 -.762738998574839D+02
 0.000000000000000D+00 0.000000000000000D+00 0.000000000000000D+00 0.000000000000000D+00
 0.100826226982295D+03 0.000000000000000D+00 0.000000000000000D+00 0.100826226982295D+03
 0.100826226982295D+03 -.000000000000000D+00 -.000000000000000D+00 -.100826226982295D+03
 0.608666188033592D+02 -.445548561449475D+01 0.284728223063862D+02 0.193440513440546D+02
 0.514248070930927D+02 -.684458840993346D+00 0.534523170158992D+01 0.511416737965537D+02
 0.781410220388656D+02 0.148552014720160D+02 -.282674496136867D+02 -.713182557753762D+02
 0.112200060292731D+02 -.971525701652787D+01 -.555060439428941D+01 0.832530634767814D+00
0.427222819061D-06 0.000000000000D+00 0.000000000000D+00 0.177881817798D-05 0.000000000000D+00  6 22 -1 9900012 -13 -2 21 0 0.74175999D-02 0.32438212D-01 0.26102228D+04 0.26102228D+04 0.26102228D+04 0.12749429D+01  1  2  2  2  6  5       -2 0.252849212875D-04 0.100000000000D+01
0.613531282698D-08 0.000000000000D+00 -.820324057772D-09 0.177881817798D-05 0.000000000000D+00  6 22 -1 9900012 -13 -2 21 2 0.74175999D-02 0.32438212D-01 0.26102228D+04 0.26102228D+04 0.26102228D+04 0.12749429D+01  1  2  3  2  6  5       -2 0.590235528651D-06 0.100000000000D+01
-.672006794179D-07 0.000000000000D+00 0.000000000000D+00 0.177881817798D-05 0.000000000000D+00  6 22 -1 9900012 -13 -2 21 2 0.74175999D-02 0.32438212D-01 0.26102228D+04 0.26102228D+04 0.26102228D+04 0.12749429D+01  1  2 15  2  6  5       -2 -.646490727702D-05 0.100000000000D+01
0.437951365915D-06 0.000000000000D+00 0.000000000000D+00 0.177881817798D-05 0.000000000000D+00  6 22 -1 9900012 -13 -2 21 2 0.74175999D-02 0.32438212D-01 0.28207805D+04 0.28207805D+04 0.28207805D+04 0.12708477D+01  1  2 12  2  6  5       -2 0.421579351451D-04 0.100000000000D+01
-.241968310081D-07 0.000000000000D+00 0.000000000000D+00 0.177881817798D-05 0.000000000000D+00  6 22 -1 9900012 -13 -2 21 2 0.74175999D-02 0.32438212D-01 0.26102228D+04 0.26102228D+04 0.26102228D+04 0.12749429D+01  1  2  4  2  6  5       -2 -.232780784689D-05 0.100000000000D+01
  </mgrwgt>
  </event>
  <event>
  7     66 -.14665890E-05 0.23452575E+02 0.78161638E-02 0.12131806E+00
       22 -1    0    0    0    0 0.00000000E+00 0.00000000E+00 0.44112416E+03 0.44112416E+03 0.00000000E+00 0.0000E+00 0.9000E+01
       -3 -1    0    0    0  501 0.00000000E+00 0.00000000E+00 -.27270555E+02 0.27270555E+02 0.00000000E+00 0.0000E+00 0.9000E+01
       24  2    1    2    0    0 -.31475692E+02 0.38287933E+02 0.39372263E+03 0.40479423E+03 0.79900993E+02 0.0000E+00 0.0000E+00
  9900012  1    3    3    0    0 0.18081689E+00 0.34875067E+02 0.28799444E+03 0.29437578E+03 0.50000000E+02 0.0000E+00 0.9000E+01
      -13  1    3    3    0    0 -.31656509E+02 0.34128655E+01 0.10572819E+03 0.11041844E+03 0.00000000E+00 0.0000E+00 0.9000E+01
       -4  1    1    2    0  502 0.77905861E+01 -.34573024E+02 0.65298228E+01 0.36036451E+02 0.00000000E+00 0.0000E+00 0.9000E+01
       21  1    1    2  502  501 0.23685106E+02 -.37149084E+01 0.13601143E+02 0.27564032E+02 0.00000000E+00 0.0000E+00 0.9000E+01
#aMCatNLO 2  0  0  5  2 0.16286037D+02 0.00000000D+00  -5  6  0 0.00000000D+00 0.00000000D+00 0.00000000D+00 0.00000000D+00 0.00000000D+00
  <mgrwgt>
 -.3381267515D-04    2    2    0
 0.109679992029284D+03 0.000000000000000D+00 0.000000000000000D+00 0.109679992029284D+03
 0.109679992029284D+03 -.000000000000000D+00 -.000000000000000D+00 -.109679992029284D+03
 0.871343885633979D+02 -.674844414816764D+00 0.359159179727793D+02 0.616603040172978D+02
 0.370974115051049D+02 -.320208826790420D+02 0.385610046240340D+01 0.183306165214914D+02
 0.951281839900642D+02 0.326957270938587D+02 -.397720184351827D+02 -.799909205387892D+02
 0.000000000000000D+00 0.000000000000000D+00 0.000000000000000D+00 0.000000000000000D+00
 0.109679992029284D+03 0.000000000000000D+00 0.000000000000000D+00 0.109679992029284D+03
 0.109679992029284D+03 -.000000000000000D+00 -.000000000000000D+00 -.109679992029284D+03
 0.852321501166391D+02 0.180816893816370D+00 0.348750670614802D+02 0.595669070559607D+02
 0.363029850119008D+02 -.316565087128482D+02 0.341286553879529D+01 0.174391664279506D+02
 0.646284351023608D+02 0.779058607399397D+01 -.345730241643207D+02 -.540448646268732D+02
 0.331964138276664D+02 0.236851057450379D+02 -.371490843595481D+01 -.229612088570382D+02
-.832649655931D-06 0.000000000000D+00 0.000000000000D+00 0.202725190530D-05 0.000000000000D+00  6 22 -3 9900012 -13 -4 21 2 0.67865255D-01 0.41954700D-02 0.57924287D+04 0.57924287D+04 0.57924287D+04 0.12347177D+01  1  2 13  2  6  5       -4 -.525556282217D-04 0.100000000000D+01
0.296948470695D-06 0.000000000000D+00 0.000000000000D+00 0.202725190530D-05 0.139646094473D-07  6 22 -3 9900012 -13 -4 21 2 0.67865255D-01 0.41954700D-02 0.57924287D+04 0.57924287D+04 0.57924287D+04 0.12347177D+01  1  2  1  2  6  5       -4 0.187429530724D-04 0.100000000000D+01
  </mgrwgt>
  </event>
  <event>
  6     66 0.14665890E-05 0.16211139E+02 0.78161638E-02 0.12913554E+00
       22 -1    0    0    0    0 0.00000000E+00 0.00000000E+00 0.14556370E+02 0.14556370E+02 0.00000000E+00 0.0000E+00 0.9000E+01
       -1 -1    0    0    0  501 0.00000000E+00 0.00000000E+00 -.50168125E+03 0.50168125E+03 0.00000000E+00 0.0000E+00 0.9000E+01
       24  2    1    2    0    0 -.16209075E+02 0.25868752E+00 -.95372531E+02 0.12415000E+03 0.77810675E+02 0.0000E+00 0.0000E+00
  9900012  1    3    3    0    0 -.33458366E+02 0.80853307E+00 -.60956758E+02 0.85649532E+02 0.50000000E+02 0.0000E+00 0.9000E+01
      -13  1    3    3    0    0 0.17249292E+02 -.54984555E+00 -.34415773E+02 0.38500465E+02 0.00000000E+00 0.0000E+00 0.9000E+01
       -2  1    1    2    0  501 0.16209075E+02 -.25868752E+00 -.39175235E+03 0.39208762E+03 0.00000000E+00 0.0000E+00 0.9000E+01
#aMCatNLO 1  0  0  2  2 0.24911514D+02 0.00000000D+00  -5  6  0 0.00000000D+00 0.00000000D+00 0.00000000D+00 0.00000000D+00 0.00000000D+00
  <mgrwgt>
 0.2345612578D-04    4    2    0
 0.854555902091023D+02 0.000000000000000D+00 0.000000000000000D+00 0.854555902091023D+02
 0.854555902091023D+02 0.000000000000000D+00 0.000000000000000D+00 -.854555902091023D+02
 0.849678591450919D+02 -.334583662088478D+02 0.808533067618917D+00 0.599951755778193D+02
 0.182001507699513D+02 0.172492916132315D+02 -.549845546325907D+00 0.577971424603722D+01
 0.677431705031614D+02 0.162090745956163D+02 -.258687521293010D+00 -.657748898238565D+02
 0.000000000000000D+00 -.000000000000000D+00 -.000000000000000D+00 0.000000000000000D+00
 0.980203765179466D+02 0.000000000000000D+00 0.000000000000000D+00 0.980203765179466D+02
 0.869496488532106D+02 0.000000000000000D+00 0.000000000000000D+00 -.869496488532106D+02
 0.843667149128777D+02 -.315939291312645D+02 0.448833316789767D+01 0.599951755778193D+02
 0.185779221643889D+02 0.176542319699325D+02 0.249376687082340D+00 0.577971424603722D+01
 0.681695224729182D+02 0.177055242457159D+02 0.269482356186783D+01 -.657748898238565D+02
 0.138558658209724D+02 -.376582708438395D+01 -.743253341684784D+01 0.110707276647360D+02
0.361807549666D-06 0.000000000000D+00 0.000000000000D+00 0.393592512435D-06 0.000000000000D+00  6 22 -1 9900012 -13 -2 21 0 0.22394415D-02 0.77181731D-01 0.21919528D+04 0.21919528D+04 0.21919528D+04 0.12843090D+01  1  2  2  1  6  2       -1 0.240340471087D-04 0.100000000000D+01
0.469522031338D-07 0.000000000000D+00 -.694718128417D-09 0.393592512435D-06 0.000000000000D+00  6 22 -1 9900012 -13 -2 21 2 0.22394415D-02 0.77181731D-01 0.21919528D+04 0.21919528D+04 0.21919528D+04 0.12843090D+01  1  2  3  1  6  2       -1 0.514451329397D-05 0.100000000000D+01
-.510753265509D-07 0.000000000000D+00 0.000000000000D+00 0.393592512435D-06 0.000000000000D+00  6 22 -1 9900012 -13 -2 21 2 0.22394415D-02 0.77181731D-01 0.21919528D+04 0.21919528D+04 0.21919528D+04 0.12843090D+01  1  2 15  1  6  2       -1 -.559628044899D-05 0.100000000000D+01
-.115136574795D-08 0.000000000000D+00 0.000000000000D+00 0.393592512435D-06 0.000000000000D+00  6 22 -1 9900012 -13 -2 21 2 0.22394415D-02 0.77181731D-01 0.21919528D+04 0.21919528D+04 0.21919528D+04 0.12843090D+01  1  2  4  1  6  2       -1 -.126154173845D-06 0.100000000000D+01
  </mgrwgt>
  </event>
  <event>
  7     66 0.14665890E-05 0.61468575E+02 0.78161638E-02 0.11999993E+00
       22 -1    0    0    0    0 0.00000000E+00 0.00000000E+00 0.53184685E+02 0.53184685E+02 0.00000000E+00 0.0000E+00 0.9000E+01
       21 -1    0    0  502  501 0.00000000E+00 0.00000000E+00 -.16036849E+03 0.16036849E+03 0.00000000E+00 0.0000E+00 0.9000E+01
       24  2    1    2    0    0 0.54257927E+02 0.37820193E+02 -.28538025E+02 0.10970560E+03 0.82744246E+02 0.0000E+00 0.0000E+00
  9900012  1    3    3    0    0 0.20188451E+02 0.30466298E+02 -.39152173E+02 0.73271151E+02 0.50000000E+02 0.0000E+00 0.9000E+01
      -13  1    3    3    0    0 0.34069477E+02 0.73538953E+01 0.10614149E+02 0.36434450E+02 0.00000000E+00 0.0000E+00 0.9000E+01
        1  1    1    2  502    0 -.13168240E+02 -.13333925E+02 -.13819525E+02 0.23284660E+02 0.00000000E+00 0.0000E+00 0.9000E+01
       -2  1    1    2    0  501 -.41089687E+02 -.24486268E+02 -.64826255E+02 0.80562914E+02 0.00000000E+00 0.0000E+00 0.9000E+01
#aMCatNLO 2  0  0  2  5 0.24926579D+02 0.00000000D+00  -5  6  0 0.00000000D+00 0.00000000D+00 0.00000000D+00 0.00000000D+00 0.00000000D+00
  <mgrwgt>
 0.6642008053D-05    2    2    0
 0.823620403660146D+02 0.000000000000000D+00 0.000000000000000D+00 0.823620403660146D+02
 0.823620403660146D+02 0.000000000000000D+00 0.000000000000000D+00 -.823620403660146D+02
 0.583624251537352D+02 0.153912760150799D+02 0.256087646271031D+02 -.367048589788947D+01
 0.447816717812520D+02 0.303811392381801D+02 0.361915085735453D+01 0.326999427092129D+02
 0.000000000000000D+00 -.000000000000000D+00 -.000000000000000D+00 -.000000000000000D+00
 0.615799837970420D+02 -.457724152532600D+02 -.292279154844576D+02 -.290294568113235D+02
 0.909899513754480D+02 0.000000000000000D+00 0.000000000000000D+00 0.909899513754480D+02
 0.937372473505602D+02 0.000000000000000D+00 0.000000000000000D+00 -.937372473505602D+02
 0.620422542888331D+02 0.201884506540115D+02 0.304662979487853D+02 -.367048589788947D+01
 0.477922092356650D+02 0.340694765710630D+02 0.735389533604909D+01 0.326999427092129D+02
 0.189405319291936D+02 -.131682404976293D+02 -.133339250328826D+02 -.274729597511214D+01
 0.559522032723165D+02 -.410896867274452D+02 -.244862682519519D+02 -.290294568113235D+02
-.980211335616D-08 0.000000000000D+00 0.000000000000D+00 0.477747308239D-07 0.000000000000D+00  6 22 21 9900012 -13 1 -2 2 0.74063954D-02 0.27256621D-01 0.66716497D+04 0.66716497D+04 0.66716497D+04 0.12279917D+01  1  2 13  3  5  2       -1 -.144544708458D-04 0.100000000000D+01
0.136945642592D-07 0.000000000000D+00 0.000000000000D+00 0.477747308239D-07 0.374004706163D-10  6 22 21 9900012 -13 1 -2 2 0.81822592D-02 0.24672075D-01 0.66716497D+04 0.66716497D+04 0.66716497D+04 0.12279917D+01  1  2  1  3  5  2       -1 0.210964788990D-04 0.100000000000D+01
  </mgrwgt>
  </event>
  <event>
  6     66 0.14665890E-05 0.31972067E+02 0.78161638E-02 0.12762555E+00
       22 -1    0    0    0    0 0.00000000E+00 0.00000000E+00 0.34888389E+03 0.34888389E+03 0.00000000E+00 0.0000E+00 0.9000E+01
       -3 -1    0    0    0  501 0.00000000E+00 0.00000000E+00 -.26422938E+02 0.26422938E+02 0.00000000E+00 0.0000E+00 0.9000E+01
       24  2    1    2    0    0 -.27512024E+02 -.16288080E+02 0.33095322E+03 0.34222615E+03 0.81033866E+02 0.0000E+00 0.0000E+00
  9900012  1    3    3    0    0 -.15900755E+01 -.17327732E+02 0.28094073E+03 0.28588542E+03 0.50000000E+02 0.0000E+00 0.9000E+01
      -13  1    3    3    0    0 -.25921949E+02 0.10396515E+01 0.50012489E+02 0.56340726E+02 0.00000000E+00 0.0000E+00 0.9000E+01
       -4  1    1    2    0  501 0.27512024E+02 0.16288080E+02 -.84922672E+01 0.33080684E+02 0.00000000E+00 0.0000E+00 0.9000E+01
#aMCatNLO 1  0  0  5  2 0.18004768D+01 0.00000000D+00  -5  6  0 0.00000000D+00 0.00000000D+00 0.00000000D+00 0.00000000D+00 0.00000000D+00
  <mgrwgt>
 0.6604391507D-04    8    2    0
 0.960132150124674D+02 0.000000000000000D+00 0.000000000000000D+00 0.960132150124674D+02
 0.960132150124674D+02 -.000000000000000D+00 -.000000000000000D+00 -.960132150124674D+02
 0.869793516695992D+02 -.159007545259659D+01 -.173277318006850D+02 0.690118032481574D+02
 0.261317373589034D+02 -.259219489274008D+02 0.103965151081727D+01 0.313677954851600D+01
 0.789153409964322D+02 0.275120243799974D+02 0.162880802898677D+02 -.721485827966734D+02
 0.000000000000000D+00 0.000000000000000D+00 0.000000000000000D+00 0.000000000000000D+00
 0.960132150124674D+02 0.000000000000000D+00 0.000000000000000D+00 0.960132150124674D+02
 0.960132150124674D+02 -.000000000000000D+00 -.000000000000000D+00 -.960132150124674D+02
 0.869498440764963D+02 -.157676386682505D+01 -.173198508765175D+02 0.689768944375614D+02
 0.261266070982866D+02 -.259179493606142D+02 0.104201939418508D+01 0.312629093192182D+01
 0.457477112740705D+02 0.144419995449233D+02 0.874194792985135D+01 -.425189379259633D+02
 0.332022675760814D+02 0.130527136825160D+02 0.753588355248109D+01 -.295842474435199D+02
0.461845378884D-07 0.000000000000D+00 0.000000000000D+00 0.102931466712D-05 0.000000000000D+00  6 22 -3 9900012 -13 -4 21 0 0.53674445D-01 0.40650674D-02 0.30722705D+04 0.30722705D+04 0.30722705D+04 0.12663846D+01  1  2  2  2  6  5       -4 0.278374227972D-05 0.100000000000D+01
0.199710877796D-08 0.000000000000D+00 -.886803930797D-10 0.102931466712D-05 0.000000000000D+00  6 22 -3 9900012 -13 -4 21 2 0.53674445D-01 0.40650674D-02 0.30722705D+04 0.30722705D+04 0.30722705D+04 0.12663846D+01  1  2  3  2  6  5       -4 0.193048029789D-06 0.100000000000D+01
-.682265761850D-08 0.000000000000D+00 0.000000000000D+00 0.102931466712D-05 0.000000000000D+00  6 22 -3 9900012 -13 -4 21 2 0.53674445D-01 0.40650674D-02 0.30722705D+04 0.30722705D+04 0.30722705D+04 0.12663846D+01  1  2 15  2  6  5       -4 -.659503691392D-06 0.100000000000D+01
0.163692357203D-08 0.000000000000D+00 0.000000000000D+00 0.102931466712D-05 0.000000000000D+00  6 22 -3 9900012 -13 -4 21 2 0.53674445D-01 0.40650674D-02 0.30708691D+04 0.30708691D+04 0.30708691D+04 0.12664083D+01  1  2 12  2  6  5       -4 0.158228329549D-06 0.100000000000D+01
-.259293653666D-05 0.000000000000D+00 0.000000000000D+00 0.102931466712D-05 0.000000000000D+00  6 22 -3 9900012 -13 -4 21 2 0.53674445D-01 0.40650674D-02 0.30722705D+04 0.30722705D+04 0.30722705D+04 0.12663846D+01  1  2  4  2  6  5       -4 -.250642977135D-03 0.100000000000D+01
-.258611955444D-05 0.000000000000D+00 0.000000000000D+00 0.102931466712D-05 0.000000000000D+00  6 22 -3 9900012 -13 -4 21 2 0.53674445D-01 0.40650674D-02 0.30722705D+04 0.30722705D+04 0.30722705D+04 0.12663846D+01  1  2  5  2  6  5       -4 -.249984022049D-03 0.100000000000D+01
0.387273927744D-05 0.000000000000D+00 -.000000000000D+00 0.102931466712D-05 0.000000000000D+00  6 22 -3 9900012 -13 -4 21 2 0.53674445D-01 0.40650674D-02 0.30722705D+04 0.30722705D+04 0.30722705D+04 0.12663846D+01  1  2  6  2  6  5       -4 0.374353513262D-03 0.100000000000D+01
0.196397610407D-05 0.000000000000D+00 0.000000000000D+00 0.102931466712D-05 0.799758667569D-06  6 22 -3 9900012 -13 -4 21 2 0.53674445D-01 0.40650674D-02 0.30708691D+04 0.30708691D+04 0.30708691D+04 0.12664083D+01  1  2 11  2  6  5       -4 0.189841886043D-03 0.100000000000D+01
  </mgrwgt>
  </event>
  <event>
  6     66 0.14665890E-05 0.64190138E+02 0.78161638E-02 0.11449277E+00
       22 -1    0    0    0    0 0.00000000E+00 0.00000000E+00 0.16352946E+04 0.16352946E+04 0.00000000E+00 0.0000E+00 0.9000E+01
       -1 -1    0    0    0  501 0.00000000E+00 0.00000000E+00 -.10238246E+02 0.10238246E+02 0.00000000E+00 0.0000E+00 0.9000E+01
       24  2    1    2    0    0 -.93705112E+02 0.93078205E+01 0.13323566E+04 0.13380586E+04 0.79745534E+02 0.0000E+00 0.0000E+00
  9900012  1    3    3    0    0 -.78680250E+02 -.15366533E+02 0.10318576E+04 0.10361741E+04 0.50000000E+02 0.0000E+00 0.9000E+01
      -13  1    3    3    0    0 -.15024863E+02 0.24674354E+02 0.30049903E+03 0.30188448E+03 0.00000000E+00 0.0000E+00 0.9000E+01
       -2  1    1    2    0  501 0.93705112E+02 -.93078205E+01 0.29269979E+03 0.30747431E+03 0.00000000E+00 0.0000E+00 0.9000E+01
#aMCatNLO 1  0  0  5  2 0.38790665D+02 0.00000000D+00  -5  6  0 0.00000000D+00 0.00000000D+00 0.00000000D+00 0.00000000D+00 0.00000000D+00
  <mgrwgt>
 0.7371136052D-04    4    2    0
 0.129393000209523D+03 0.000000000000000D+00 0.000000000000000D+00 0.129393000209523D+03
 0.129393000209523D+03 -.000000000000000D+00 -.000000000000000D+00 -.129393000209523D+03
 0.109093259056947D+03 -.786802496716145D+02 -.153665331078142D+02 0.545401424963770D+02
 0.325866310289781D+02 -.150248626966761D+02 0.246743535675757D+02 0.150770785892710D+02
 0.117106110333121D+03 0.937051123682905D+02 -.930782045976154D+01 -.696172210856479D+02
 0.000000000000000D+00 0.000000000000000D+00 0.000000000000000D+00 0.000000000000000D+00
 0.129393000209523D+03 0.000000000000000D+00 0.000000000000000D+00 0.129393000209523D+03
 0.129393000209523D+03 -.000000000000000D+00 -.000000000000000D+00 -.129393000209523D+03
 0.951607520426506D+02 -.654219476561898D+02 -.166834932142793D+02 0.446900273927271D+02
 0.292707754166702D+02 -.110096457022476D+02 0.242755181364390D+02 0.120940156363198D+02
 0.288338570665500D+02 -.579842707099754D+01 -.275418680489154D+02 0.626219300346853D+01
 0.105520615893176D+03 0.822300204294350D+02 0.199498431267557D+02 -.630462360325154D+02
0.624640522630D-05 0.000000000000D+00 0.000000000000D+00 0.848921558275D-06 0.000000000000D+00  6 22 -1 9900012 -13 -2 21 0 0.25158379D+00 0.15751147D-02 0.11830528D+05 0.11830528D+05 0.11830528D+05 0.12018365D+01  1  2  2  2  6  5       -2 0.741270386941D-04 0.100000000000D+01
-.675111647077D-07 0.000000000000D+00 -.119939203926D-07 0.848921558275D-06 0.000000000000D+00  6 22 -1 9900012 -13 -2 21 2 0.25158379D+00 0.15751147D-02 0.11830528D+05 0.11830528D+05 0.11830528D+05 0.12018365D+01  1  2  3  2  6  5       -2 -.115721195054D-05 0.100000000000D+01
-.777539494570D-06 0.000000000000D+00 0.000000000000D+00 0.848921558275D-06 0.000000000000D+00  6 22 -1 9900012 -13 -2 21 2 0.25158379D+00 0.15751147D-02 0.11830528D+05 0.11830528D+05 0.11830528D+05 0.12018365D+01  1  2 15  2  6  5       -2 -.133278399066D-04 0.100000000000D+01
0.819808544787D-06 0.000000000000D+00 0.000000000000D+00 0.848921558275D-06 0.000000000000D+00  6 22 -1 9900012 -13 -2 21 2 0.25158379D+00 0.15751147D-02 0.12480311D+05 0.12480311D+05 0.12480311D+05 0.11994826D+01  1  2 12  2  6  5       -2 0.140693736811D-04 0.100000000000D+01
  </mgrwgt>
  </event>
  <event>
  7     66 -.14665890E-05 0.50215473E+01 0.78161638E-02 0.13394017E+00
       22 -1    0    0    0    0 0.00000000E+00 0.00000000E+00 0.15809896E+03 0.15809896E+03 0.00000000E+00 0.0000E+00 0.9000E+01
       -3 -1    0    0    0  501 0.00000000E+00 0.00000000E+00 -.14317723E+02 0.14317723E+02 0.00000000E+00 0.0000E+00 0.9000E+01
       24  2    1    2    0    0 -.50994327E+01 -.25161407E+01 0.13597081E+03 0.15837720E+03 0.81011967E+02 0.0000E+00 0.0000E+00
  9900012  1    3    3    0    0 -.11503750E+02 0.18813288E+02 0.70353125E+02 0.89083322E+02 0.50000000E+02 0.0000E+00 0.9000E+01
      -13  1    3    3    0    0 0.64043174E+01 -.21329429E+02 0.65617690E+02 0.69293875E+02 0.00000000E+00 0.0000E+00 0.9000E+01
       -4  1    1    2    0  502 -.68409695E-01 0.82753419E+00 -.23629049E+01 0.25045583E+01 0.00000000E+00 0.0000E+00 0.9000E+01
       21  1    1    2  502  501 0.51678424E+01 0.16886065E+01 0.10173330E+02 0.11534931E+02 0.00000000E+00 0.0000E+00 0.9000E+01
#aMCatNLO 2  0  0  5  2 0.50013887D+01 0.00000000D+00  -5  6  0 0.00000000D+00 0.00000000D+00 0.00000000D+00 0.00000000D+00 0.00000000D+00
  <mgrwgt>
 -.7769183597D-05    2    2    0
 0.475774857440823D+02 0.000000000000000D+00 0.000000000000000D+00 0.475774857440823D+02
 0.475774857440823D+02 -.000000000000000D+00 -.000000000000000D+00 -.475774857440823D+02
 0.549648319303659D+02 -.130271950131562D+02 0.180615964979541D+02 -.502032580294000D+01
 0.270981812462319D+02 0.566379106402221D+01 -.216948164127024D+02 0.152173532013907D+02
 0.130919583115667D+02 0.736340394913401D+01 0.363321991474825D+01 -.101970273984507D+02
 0.000000000000000D+00 0.000000000000000D+00 0.000000000000000D+00 0.000000000000000D+00
 0.475774857440823D+02 0.000000000000000D+00 0.000000000000000D+00 0.475774857440823D+02
 0.475774857440823D+02 -.000000000000000D+00 -.000000000000000D+00 -.475774857440823D+02
 0.551100119884779D+02 -.115037500865315D+02 0.188132883085177D+02 -.713003073888207D+01
 0.264077362670779D+02 0.640431737937318D+01 -.213294290219095D+02 0.141918536934090D+02
 0.810855203886046D+01 -.684096954872344D-01 0.827534194910692D+00 -.806592359477357D+01
 0.552867119374824D+01 0.516784240264552D+01 0.168860651848111D+01 0.100410064024664D+01
-.104796473401D-07 0.000000000000D+00 0.000000000000D+00 0.443697786019D-07 0.000000000000D+00  6 22 -3 9900012 -13 -4 21 2 0.24322917D-01 0.22027266D-02 0.17298973D+04 0.17298973D+04 0.17298973D+04 0.12973596D+01  1  2 13  2  6  5       -4 -.828965487853D-05 0.100000000000D+01
0.657971358653D-09 0.000000000000D+00 0.000000000000D+00 0.443697786019D-07 0.412549576774D-09  6 22 -3 9900012 -13 -4 21 2 0.24322917D-01 0.22027266D-02 0.17298973D+04 0.17298973D+04 0.17298973D+04 0.12973596D+01  1  2  1  2  6  5       -4 0.520471281733D-06 0.100000000000D+01
  </mgrwgt>
  </event>
  <event>
  6     66 0.14665890E-05 0.16145458E+03 0.78161638E-02 0.10121953E+00
       22 -1    0    0    0    0 0.00000000E+00 0.00000000E+00 0.26780304E+03 0.26780304E+03 0.00000000E+00 0.0000E+00 0.9000E+01
       -1 -1    0    0    0  501 -.00000000E+00 -.00000000E+00 -.29422378E+03 0.29422378E+03 0.00000000E+00 0.0000E+00 0.9000E+01
       24  2    1    2    0    0 0.25082504E+03 -.10132342E+03 -.61796511E+02 0.28920621E+03 0.81497137E+02 0.0000E+00 0.0000E+00
  9900012  1    3    3    0    0 0.15080072E+03 -.58786492E+02 -.62351049E+02 0.18051139E+03 0.50000000E+02 0.0000E+00 0.9000E+01
      -13  1    3    3    0    0 0.10002432E+03 -.42536931E+02 0.55453808E+00 0.10869482E+03 0.00000000E+00 0.0000E+00 0.9000E+01
       -2  1    1    2    0  501 -.25082504E+03 0.10132342E+03 0.35375771E+02 0.27282061E+03 0.00000000E+00 0.0000E+00 0.9000E+01
#aMCatNLO 1  0  0  5  2 0.50013887D+01 0.00000000D+00  -5  6  0 0.00000000D+00 0.00000000D+00 0.00000000D+00 0.00000000D+00 0.00000000D+00
  <mgrwgt>
 0.5097886663D-06    1    2    0
 0.280702727740661D+03 0.000000000000000D+00 0.000000000000000D+00 0.280702727740661D+03
 0.280702727740661D+03 -.000000000000000D+00 -.000000000000000D+00 -.280702727740661D+03
 0.177776829732440D+03 0.150800722177721D+03 -.587864916187838D+02 -.539248716600176D+02
 0.108841215751228D+03 0.100024321806931D+03 -.425369305197743D+02 0.567052336426497D+01
 0.274787409997654D+03 -.250825043984652D+03 0.101323422138558D+03 0.482543482957527D+02
 0.000000000000000D+00 0.000000000000000D+00 0.000000000000000D+00 0.000000000000000D+00
 0.280702727740661D+03 0.000000000000000D+00 0.000000000000000D+00 0.280702727740661D+03
 0.280702727740661D+03 -.000000000000000D+00 -.000000000000000D+00 -.280702727740661D+03
 0.167207276440002D+03 0.140604253746563D+03 -.546675206469861D+02 -.519632496016803D+02
 0.102198515954497D+03 0.937867591959115D+02 -.400172013112718D+02 0.687052123515995D+01
 0.238888400919746D+03 -.225409602823415D+03 0.789606894270937D+02 -.483617350616429D+01
 0.531112621670775D+02 -.898141011906008D+01 0.157240325311642D+02 0.499289018726847D+02
0.122313383507D-06 0.000000000000D+00 0.000000000000D+00 0.858509382612D-07 0.000000000000D+00  6 22 -1 9900012 -13 -2 21 2 0.41200467D-01 0.45265197D-01 0.75243723D+05 0.75243723D+05 0.75243723D+05 0.11278130D+01  1  2 14  2  6  5       -2 0.509788666262D-06 0.100000000000D+01
  </mgrwgt>
  </event>
  <event>
  6     66 0.14665890E-05 0.37077228E+02 0.78161638E-02 0.12746350E+00
       22 -1    0    0    0    0 0.00000000E+00 0.00000000E+00 0.51192447E+03 0.51192447E+03 0.00000000E+00 0.0000E+00 0.9000E+01
       -1 -1    0    0    0  501 0.00000000E+00 0.00000000E+00 -.15120918E+02 0.15120918E+02 0.00000000E+00 0.0000E+00 0.9000E+01
       24  2    1    2    0    0 0.35495197E+02 0.10715028E+02 0.12074750E+03 0.14916594E+03 0.79346070E+02 0.0000E+00 0.0000E+00
  9900012  1    3    3    0    0 0.23871564E+02 -.43623995E+01 0.46341743E+02 0.72363245E+02 0.50000000E+02 0.0000E+00 0.9000E+01
      -13  1    3    3    0    0 0.11623633E+02 0.15077428E+02 0.74405756E+02 0.76802696E+02 0.00000000E+00 0.0000E+00 0.9000E+01
       -2  1    1    2    0  501 -.35495197E+02 -.10715028E+02 0.37605606E+03 0.37787945E+03 0.00000000E+00 0.0000E+00 0.9000E+01
#aMCatNLO 1  0  0  2  5 0.35298438D+01 0.00000000D+00  -5  6  0 0.00000000D+00 0.00000000D+00 0.00000000D+00 0.00000000D+00 0.00000000D+00
  <mgrwgt>
 0.5962353696D-05    1    2    0
 0.879816341493769D+02 0.000000000000000D+00 0.000000000000000D+00 0.879816341493769D+02
 0.879816341493769D+02 0.000000000000000D+00 0.000000000000000D+00 -.879816341493769D+02
 0.859041341680088D+02 0.238715644823239D+02 -.436239954962785D+01 -.655029628832996D+02
 0.199670256264481D+02 0.116236325208788D+02 0.150774277375762D+02 0.602033655246726D+01
 0.700921085042968D+02 -.354951970032026D+02 -.107150281879484D+02 0.594826263308323D+02
 0.000000000000000D+00 0.000000000000000D+00 0.000000000000000D+00 0.000000000000000D+00
 0.876888559854379D+03 0.000000000000000D+00 0.000000000000000D+00 0.876888559854379D+03
 0.748508072055584D+03 0.000000000000000D+00 0.000000000000000D+00 -.748508072055584D+03
 0.314552986474648D+03 -.255952153014823D+03 -.163222052801409D+03 -.655029628832996D+02
 0.131272191556708D+02 -.115013267452510D+02 0.194908020743379D+01 0.602033655246726D+01
 0.489472875967282D+03 -.426497244575213D+03 -.232692100945047D+03 0.594826263308323D+02
 0.808243550312362D+03 0.693950724335286D+03 0.393965073539023D+03 0.128380487798795D+03
0.485716397499D-07 0.000000000000D+00 0.000000000000D+00 0.599827472552D-07 0.000000000000D+00  6 22 -1 9900012 -13 -2 21 2 0.78757611D-01 0.23262951D-02 0.31188168D+04 0.31188168D+04 0.31188168D+04 0.12656040D+01  1  2 14  1  6  2       -1 0.596235369557D-05 0.100000000000D+01
  </mgrwgt>
  </event>
  <event>
  6     66 0.14665890E-05 0.65896733E+01 0.78161638E-02 0.13331068E+00
       22 -1    0    0    0    0 0.00000000E+00 0.00000000E+00 0.35762761E+03 0.35762761E+03 0.00000000E+00 0.0000E+00 0.9000E+01
       -1 -1    0    0    0  501 0.00000000E+00 0.00000000E+00 -.30314020E+03 0.30314020E+03 0.00000000E+00 0.0000E+00 0.9000E+01
       24  2    1    2    0    0 0.32111440E+01 0.57543330E+01 0.35305450E+03 0.36212800E+03 0.80285646E+02 0.0000E+00 0.0000E+00
  9900012  1    3    3    0    0 -.12728998E+02 0.17331890E+02 0.31050062E+03 0.31523493E+03 0.50000000E+02 0.0000E+00 0.9000E+01
      -13  1    3    3    0    0 0.15940142E+02 -.11577557E+02 0.42553877E+02 0.46893074E+02 0.00000000E+00 0.0000E+00 0.9000E+01
       -2  1    1    2    0  501 -.32111440E+01 -.57543330E+01 -.29856709E+03 0.29863981E+03 0.00000000E+00 0.0000E+00 0.9000E+01
#aMCatNLO 1  0  0  2  5 0.40912760D+01 0.00000000D+00  -5  6  0 0.00000000D+00 0.00000000D+00 0.00000000D+00 0.00000000D+00 0.00000000D+00
  <mgrwgt>
 0.3418969087D-03   11    4    0
 0.329258719422401D+03 0.000000000000000D+00 0.000000000000000D+00 0.329258719422401D+03
 0.329258719422401D+03 0.000000000000000D+00 0.000000000000000D+00 -.329258719422401D+03
 0.290620576545160D+03 -.127289980724178D+02 0.173318903050432D+02 0.285478366427244D+03
 0.435323070659469D+02 0.159401420794413D+02 -.115775572656610D+02 0.388192451849782D+02
 0.324364555233696D+03 -.321114400702342D+01 -.575433303938219D+01 -.324297611612222D+03
 0.000000000000000D+00 -.000000000000000D+00 0.000000000000000D+00 -.000000000000000D+00
 0.329354148678092D+03 0.000000000000000D+00 0.000000000000000D+00 0.329354148678092D+03
 0.376135004218279D+03 0.000000000000000D+00 0.000000000000000D+00 -.376135004218279D+03
 0.290492805717150D+03 -.117153823916550D+02 0.158405268495618D+02 0.285478366427244D+03
 0.436481792215049D+02 0.160922079424119D+02 -.118012963762181D+02 0.388192451849782D+02
 0.324389135515636D+03 -.207954570974062D+01 -.741928789247057D+01 -.324297611612222D+03
 0.469590324420806D+02 -.229727984101624D+01 0.338005741912688D+01 -.467808555401870D+02
 0.329258719422401D+03 0.000000000000000D+00 0.000000000000000D+00 0.329258719422401D+03
 0.329258719422401D+03 0.000000000000000D+00 0.000000000000000D+00 -.329258719422401D+03
 0.290620576545160D+03 -.127289980724178D+02 0.173318903050432D+02 0.285478366427244D+03
 0.435323070659469D+02 0.159401420794413D+02 -.115775572656610D+02 0.388192451849782D+02
 0.000000000000000D+00 -.000000000000000D+00 0.000000000000000D+00 -.000000000000000D+00
 0.324364555233696D+03 -.321114400702342D+01 -.575433303938219D+01 -.324297611612222D+03
 0.329354148678092D+03 0.000000000000000D+00 0.000000000000000D+00 0.329354148678092D+03
 0.376135004218279D+03 0.000000000000000D+00 0.000000000000000D+00 -.376135004218279D+03
 0.290492805717150D+03 -.117153823916550D+02 0.158405268495618D+02 0.285478366427244D+03
 0.436481792215049D+02 0.160922079424119D+02 -.118012963762181D+02 0.388192451849782D+02
 0.469590324420806D+02 -.229727984101624D+01 0.338005741912688D+01 -.467808555401870D+02
 0.324389135515636D+03 -.207954570974062D+01 -.741928789247057D+01 -.324297611612222D+03
0.357253506920D-05 0.000000000000D+00 0.000000000000D+00 0.403119529549D-03 0.000000000000D+00  6 22 -1 9900012 -13 -2 21 0 0.55019632D-01 0.46636954D-01 0.16288800D+04 0.16288800D+04 0.16288800D+04 0.13007431D+01  1  2  2  1  6  2       -1 0.576125257691D-05 0.100000000000D+01
0.139414957293D-05 0.000000000000D+00 -.685973766790D-08 0.403119529549D-03 0.000000000000D+00  6 22 -1 9900012 -13 -2 21 2 0.55019632D-01 0.46636954D-01 0.16288800D+04 0.16288800D+04 0.16288800D+04 0.13007431D+01  1  2  3  1  6  2       -1 0.380393271342D-05 0.100000000000D+01
-.523984756513D-06 0.000000000000D+00 0.000000000000D+00 0.403119529549D-03 0.000000000000D+00  6 22 -1 9900012 -13 -2 21 2 0.55019632D-01 0.46636954D-01 0.16288800D+04 0.16288800D+04 0.16288800D+04 0.13007431D+01  1  2 15  1  6  2       -1 -.142969075581D-05 0.100000000000D+01
0.916486087731D-04 0.000000000000D+00 0.000000000000D+00 0.403119529549D-03 0.000000000000D+00  6 22 -1 9900012 -13 -2 21 2 0.55019632D-01 0.53292059D-01 0.18271125D+04 0.18271125D+04 0.18271125D+04 0.12943073D+01  1  2 12  1  6  2       -1 0.199002166594D-03 0.100000000000D+01
-.166833209701D-04 0.000000000000D+00 0.000000000000D+00 0.403119529549D-03 0.000000000000D+00  6 22 -1 9900012 -13 -2 21 2 0.55019632D-01 0.46636954D-01 0.16288800D+04 0.16288800D+04 0.16288800D+04 0.13007431D+01  1  2  4  1  6  2       -1 -.455203886578D-04 0.100000000000D+01
-.760347403685D-03 0.000000000000D+00 -.330634508861D-05 0.403119529549D-03 0.000000000000D+00  6 22 -1 9900012 -13 -2 21 2 0.55019632D-01 0.53283531D-01 0.16288800D+04 0.16288800D+04 0.16288800D+04 0.13007431D+01  1  2  5  1  6  2       -1 -.165818638124D-02 0.100000000000D+01
0.754113887740D-03 0.000000000000D+00 0.327721459777D-05 0.403119529549D-03 0.000000000000D+00  6 22 -1 9900012 -13 -2 21 2 0.55019632D-01 0.46636954D-01 0.16288800D+04 0.16288800D+04 0.16288800D+04 0.13007431D+01  1  2  6  1  6  2       -1 0.205759736467D-02 0.100000000000D+01
0.121529389039D-04 0.000000000000D+00 0.000000000000D+00 0.403119529549D-03 0.681095137503D-05  6 22 -1 9900012 -13 -2 21 2 0.55035578D-01 0.53276617D-01 0.18271125D+04 0.18271125D+04 0.18271125D+04 0.12943073D+01  1  2 11  1  6  2       -1 0.263886781266D-04 0.100000000000D+01
0.189928253266D-05 0.000000000000D+00 0.000000000000D+00 0.403119529549D-03 0.000000000000D+00  6 22 21 9900012 -13 1 -2 2 0.55019632D-01 0.53292059D-01 0.18271125D+04 0.18271125D+04 0.18271125D+04 0.12943073D+01  3  4 12  3  5  2       -1 0.399983205495D-04 0.100000000000D+01
-.157229374668D-04 0.000000000000D+00 -.684511956195D-07 0.403119529549D-03 0.000000000000D+00  6 22 21 9900012 -13 1 -2 2 0.55019632D-01 0.53283531D-01 0.16288800D+04 0.16288800D+04 0.16288800D+04 0.13007431D+01  3  4  5  3  5  2       -1 -.333556459047D-03 0.100000000000D+01
0.228080726147D-05 0.000000000000D+00 0.000000000000D+00 0.403119529549D-03 0.273989750515D-05  6 22 21 9900012 -13 1 -2 2 0.55035578D-01 0.53276617D-01 0.18271125D+04 0.18271125D+04 0.18271125D+04 0.12943073D+01  3  4 11  3  5  2       -1 0.480381132080D-04 0.100000000000D+01
  </mgrwgt>
  </event>
  <event>
  6     66 0.14665890E-05 0.46934116E+02 0.78161638E-02 0.11967064E+00
       22 -1    0    0    0    0 0.00000000E+00 0.00000000E+00 0.19252645E+03 0.19252645E+03 0.00000000E+00 0.0000E+00 0.9000E+01
       -1 -1    0    0    0  501 0.00000000E+00 0.00000000E+00 -.36321890E+03 0.36321890E+03 0.00000000E+00 0.0000E+00 0.9000E+01
       24  2    1    2    0    0 -.46729100E+02 -.14622900E+02 0.17897528E+03 0.20266609E+03 0.81510476E+02 0.0000E+00 0.0000E+00
  9900012  1    3    3    0    0 -.39107645E+02 -.34173206E+02 0.15405136E+03 0.17008539E+03 0.50000000E+02 0.0000E+00 0.9000E+01
      -13  1    3    3    0    0 -.76214556E+01 0.19550305E+02 0.24923911E+02 0.32580705E+02 0.00000000E+00 0.0000E+00 0.9000E+01
       -2  1    1    2    0  501 0.46729100E+02 0.14622900E+02 -.34966773E+03 0.35307925E+03 0.00000000E+00 0.0000E+00 0.9000E+01
#aMCatNLO 1  0  0  2  5 0.27388087D+02 0.00000000D+00  -5  6  0 0.00000000D+00 0.00000000D+00 0.00000000D+00 0.00000000D+00 0.00000000D+00
  <mgrwgt>
 0.1422959326D-03    9    4    0
 0.264441379960127D+03 0.000000000000000D+00 0.000000000000000D+00 0.264441379960127D+03
 0.264441379960127D+03 0.000000000000000D+00 0.000000000000000D+00 -.264441379960127D+03
 0.228443004819761D+03 -.391076445556170D+02 -.341732057250736D+02 0.216769441109361D+03
 0.422795003203569D+02 -.762145561448358D+01 0.195503054390922D+02 0.367049740347779D+02
 0.258160254780136D+03 0.467291001701006D+02 0.146229002859814D+02 -.253474415144139D+03
 0.000000000000000D+00 0.000000000000000D+00 -.000000000000000D+00 -.000000000000000D+00
 0.272177799852187D+03 0.000000000000000D+00 0.000000000000000D+00 0.272177799852187D+03
 0.281955469062096D+03 0.000000000000000D+00 0.000000000000000D+00 -.281955469062096D+03
 0.227423579230883D+03 -.404238942262476D+02 -.244622682289724D+02 0.216769441109361D+03
 0.431959388231347D+02 -.786825374041755D+01 0.213711159042919D+02 0.367049740347779D+02
 0.258752280712740D+03 0.452365890311141D+02 0.256342476817907D+02 -.253474415144139D+03
 0.247614701475252D+02 0.305555893555102D+01 -.225430953571102D+02 -.977766920990850D+01
 0.264441379960127D+03 0.000000000000000D+00 0.000000000000000D+00 0.264441379960127D+03
 0.264441379960127D+03 0.000000000000000D+00 0.000000000000000D+00 -.264441379960127D+03
 0.228443004819761D+03 -.391076445556170D+02 -.341732057250736D+02 0.216769441109361D+03
 0.422795003203569D+02 -.762145561448358D+01 0.195503054390922D+02 0.367049740347779D+02
 0.000000000000000D+00 0.000000000000000D+00 -.000000000000000D+00 -.000000000000000D+00
 0.258160254780136D+03 0.467291001701006D+02 0.146229002859814D+02 -.253474415144139D+03
 0.272177799852187D+03 0.000000000000000D+00 0.000000000000000D+00 0.272177799852187D+03
 0.281955469062096D+03 0.000000000000000D+00 0.000000000000000D+00 -.281955469062096D+03
 0.227423579230883D+03 -.404238942262476D+02 -.244622682289724D+02 0.216769441109361D+03
 0.431959388231347D+02 -.786825374041755D+01 0.213711159042919D+02 0.367049740347779D+02
 0.247614701475252D+02 0.305555893555102D+01 -.225430953571102D+02 -.977766920990850D+01
 0.258752280712740D+03 0.452365890311141D+02 0.256342476817907D+02 -.253474415144139D+03
0.106821912932D-04 0.000000000000D+00 0.000000000000D+00 0.263901626462D-04 0.000000000000D+00  6 22 -1 9900012 -13 -2 21 0 0.29619453D-01 0.55879830D-01 0.50437487D+04 0.50437487D+04 0.50437487D+04 0.12414197D+01  1  2  2  1  6  2       -1 0.361547347264D-04 0.100000000000D+01
0.484862547097D-06 0.000000000000D+00 -.205112136257D-07 0.263901626462D-04 0.000000000000D+00  6 22 -1 9900012 -13 -2 21 2 0.29619453D-01 0.55879830D-01 0.50437487D+04 0.50437487D+04 0.50437487D+04 0.12414197D+01  1  2  3  1  6  2       -1 0.252906946151D-05 0.100000000000D+01
-.158634646300D-05 0.000000000000D+00 0.000000000000D+00 0.263901626462D-04 0.000000000000D+00  6 22 -1 9900012 -13 -2 21 2 0.29619453D-01 0.55879830D-01 0.50437487D+04 0.50437487D+04 0.50437487D+04 0.12414197D+01  1  2 15  1  6  2       -1 -.827446957697D-05 0.100000000000D+01
0.197307565268D-04 0.000000000000D+00 0.000000000000D+00 0.263901626462D-04 0.000000000000D+00  6 22 -1 9900012 -13 -2 21 2 0.29619453D-01 0.61323858D-01 0.69148152D+04 0.69148152D+04 0.69148152D+04 0.12263057D+01  1  2 12  1  6  2       -1 0.863447765063D-04 0.100000000000D+01
-.322502103597D-06 0.000000000000D+00 0.000000000000D+00 0.263901626462D-04 0.000000000000D+00  6 22 -1 9900012 -13 -2 21 2 0.29619453D-01 0.55879830D-01 0.50437487D+04 0.50437487D+04 0.50437487D+04 0.12414197D+01  1  2  4  1  6  2       -1 -.168218854264D-05 0.100000000000D+01
-.452507288739D-04 0.000000000000D+00 -.143992158395D-04 0.263901626462D-04 0.000000000000D+00  6 22 -1 9900012 -13 -2 21 2 0.29619453D-01 0.61030409D-01 0.50437487D+04 0.50437487D+04 0.50437487D+04 0.12414197D+01  1  2  5  1  6  2       -1 -.201722655925D-03 0.100000000000D+01
0.463956265085D-04 0.000000000000D+00 0.143434287493D-04 0.263901626462D-04 0.000000000000D+00  6 22 -1 9900012 -13 -2 21 2 0.29619453D-01 0.55879830D-01 0.50437487D+04 0.50437487D+04 0.50437487D+04 0.12414197D+01  1  2  6  1  6  2       -1 0.242002115554D-03 0.100000000000D+01
0.305617755782D-06 0.000000000000D+00 0.000000000000D+00 0.263901626462D-04 0.000000000000D+00  6 22 21 9900012 -13 1 -2 2 0.29619453D-01 0.61323858D-01 0.69148152D+04 0.69148152D+04 0.69148152D+04 0.12263057D+01  3  4 12  3  5  2       -1 0.119791825615D-04 0.100000000000D+01
-.621120751726D-06 0.000000000000D+00 -.209578575541D-06 0.263901626462D-04 0.000000000000D+00  6 22 21 9900012 -13 1 -2 2 0.29619453D-01 0.61030409D-01 0.50437487D+04 0.50437487D+04 0.50437487D+04 0.12414197D+01  3  4  5  3  5  2       -1 -.250346321739D-04 0.100000000000D+01
  </mgrwgt>
  </event>
  <event>
  6     66 0.14665890E-05 0.10332340E+03 0.78161638E-02 0.10998399E+00
       22 -1    0    0    0    0 0.00000000E+00 0.00000000E+00 0.59801207E+03 0.59801207E+03 0.00000000E+00 0.0000E+00 0.9000E+01
       -1 -1    0    0    0  501 0.00000000E+00 0.00000000E+00 -.37324197E+02 0.37324197E+02 0.00000000E+00 0.0000E+00 0.9000E+01
       24  2    1    2    0    0 -.86099168E+02 0.10854606E+03 0.30533310E+03 0.34481712E+03 0.80468840E+02 0.0000E+00 0.0000E+00
  9900012  1    3    3    0    0 -.65097844E+02 0.94455242E+02 0.19557760E+03 0.23218553E+03 0.50000000E+02 0.0000E+00 0.9000E+01
      -13  1    3    3    0    0 -.21001324E+02 0.14090813E+02 0.10975550E+03 0.11263159E+03 0.00000000E+00 0.0000E+00 0.9000E+01
       -2  1    1    2    0  501 0.86099168E+02 -.10854606E+03 0.25535478E+03 0.29051915E+03 0.00000000E+00 0.0000E+00 0.9000E+01
#aMCatNLO 1  0  0  2  5 0.19097853D+02 0.00000000D+00  -5  6  0 0.00000000D+00 0.00000000D+00 0.00000000D+00 0.00000000D+00 0.00000000D+00
  <mgrwgt>
 0.2588988925D-04    6    4    0
 0.149399868213859D+03 0.000000000000000D+00 0.000000000000000D+00 0.149399868213859D+03
 0.149399868213859D+03 0.000000000000000D+00 0.000000000000000D+00 -.149399868213859D+03
 0.126699906328554D+03 -.650978444364973D+02 0.944552416279203D+02 -.198329080670752D+02
 0.335353701180631D+02 -.210013239513177D+02 0.140908134934756D+02 0.220230428492380D+02
 0.138564459981102D+03 0.860991683878150D+02 -.108546055121396D+03 -.219013478216280D+01
 0.000000000000000D+00 -.000000000000000D+00 0.000000000000000D+00 0.000000000000000D+00
 0.158575871458796D+03 0.000000000000000D+00 0.000000000000000D+00 0.158575871458796D+03
 0.150734916533598D+03 0.000000000000000D+00 0.000000000000000D+00 -.150734916533598D+03
 0.124255038482903D+03 -.627366095034521D+02 0.927905608022827D+02 -.198329080670752D+02
 0.329620406124618D+02 -.203756498515627D+02 0.136497105509501D+02 0.220230428492380D+02
 0.141661868327829D+03 0.887358177515449D+02 -.110404904310142D+03 -.219013478216280D+01
 0.104318405691990D+02 -.562355839653010D+01 0.396463295690959D+01 0.784095492519814D+01
 0.149399868213859D+03 0.000000000000000D+00 0.000000000000000D+00 0.149399868213859D+03
 0.149399868213859D+03 0.000000000000000D+00 0.000000000000000D+00 -.149399868213859D+03
 0.126699906328554D+03 -.650978444364973D+02 0.944552416279203D+02 -.198329080670752D+02
 0.335353701180631D+02 -.210013239513177D+02 0.140908134934756D+02 0.220230428492380D+02
 0.000000000000000D+00 -.000000000000000D+00 0.000000000000000D+00 0.000000000000000D+00
 0.138564459981102D+03 0.860991683878150D+02 -.108546055121396D+03 -.219013478216280D+01
 0.158575871458796D+03 0.000000000000000D+00 0.000000000000000D+00 0.158575871458796D+03
 0.150734916533598D+03 0.000000000000000D+00 0.000000000000000D+00 -.150734916533598D+03
 0.124255038482903D+03 -.627366095034521D+02 0.927905608022827D+02 -.198329080670752D+02
 0.329620406124618D+02 -.203756498515627D+02 0.136497105509501D+02 0.220230428492380D+02
 0.104318405691990D+02 -.562355839653010D+01 0.396463295690959D+01 0.784095492519814D+01
 0.141661868327829D+03 0.887358177515449D+02 -.110404904310142D+03 -.219013478216280D+01
0.814411093316D-06 0.000000000000D+00 0.000000000000D+00 0.130974192850D-06 0.000000000000D+00  6 22 -1 9900012 -13 -2 21 0 0.92001858D-01 0.57421842D-02 0.20876725D+05 0.20876725D+05 0.20876725D+05 0.11775332D+01  1  2  2  1  6  2       -1 0.155269189060D-04 0.100000000000D+01
-.370673587654D-07 0.000000000000D+00 -.156377651885D-08 0.130974192850D-06 0.000000000000D+00  6 22 -1 9900012 -13 -2 21 2 0.92001858D-01 0.57421842D-02 0.20876725D+05 0.20876725D+05 0.20876725D+05 0.11775332D+01  1  2  3  1  6  2       -1 -.979895004243D-06 0.100000000000D+01
-.111711775126D-06 0.000000000000D+00 0.000000000000D+00 0.130974192850D-06 0.000000000000D+00  6 22 -1 9900012 -13 -2 21 2 0.92001858D-01 0.57421842D-02 0.20876725D+05 0.20876725D+05 0.20876725D+05 0.11775332D+01  1  2 15  1  6  2       -1 -.295315916771D-05 0.100000000000D+01
0.643961522566D-06 0.000000000000D+00 0.000000000000D+00 0.130974192850D-06 0.000000000000D+00  6 22 -1 9900012 -13 -2 21 2 0.92001858D-01 0.61493281D-02 0.21861498D+05 0.21861498D+05 0.21861498D+05 0.11756273D+01  1  2 12  1  6  2       -1 0.153981677112D-04 0.100000000000D+01
-.173295337760D-06 0.000000000000D+00 0.000000000000D+00 0.130974192850D-06 0.000000000000D+00  6 22 -1 9900012 -13 -2 21 2 0.92001858D-01 0.57421842D-02 0.20876725D+05 0.20876725D+05 0.20876725D+05 0.11775332D+01  1  2  4  1  6  2       -1 -.458115283597D-05 0.100000000000D+01
0.943455227960D-08 0.000000000000D+00 0.000000000000D+00 0.130974192850D-06 0.000000000000D+00  6 22 21 9900012 -13 1 -2 2 0.92001858D-01 0.61493281D-02 0.21861498D+05 0.21861498D+05 0.21861498D+05 0.11756273D+01  3  4 12  3  5  2       -1 0.347900964205D-05 0.100000000000D+01
  </mgrwgt>
  </event>
  <event>
  6     66 0.14665890E-05 0.23589923E+02 0.78161638E-02 0.12245613E+00
       22 -1    0    0    0    0 0.00000000E+00 0.00000000E+00 0.51300922E+01 0.51300922E+01 0.00000000E+00 0.0000E+00 0.9000E+01
       -1 -1    0    0    0  501 -.00000000E+00 -.00000000E+00 -.15820316E+04 0.15820316E+04 0.00000000E+00 0.0000E+00 0.9000E+01
       24  2    1    2    0    0 -.31680457E+02 -.41390523E+02 -.51496408E+03 0.52394585E+03 0.81329105E+02 0.0000E+00 0.0000E+00
  9900012  1    3    3    0    0 -.40407752E+02 -.23190567E+02 -.46599972E+03 0.47098442E+03 0.50000000E+02 0.0000E+00 0.9000E+01
      -13  1    3    3    0    0 0.87272955E+01 -.18199956E+02 -.48964361E+02 0.52961427E+02 0.00000000E+00 0.0000E+00 0.9000E+01
       -2  1    1    2    0  501 0.31680457E+02 0.41390523E+02 -.10619375E+04 0.10632159E+04 0.00000000E+00 0.0000E+00 0.9000E+01
#aMCatNLO 1  0  0  5  2 0.11913062D+02 0.00000000D+00  -5  6  0 0.00000000D+00 0.00000000D+00 0.00000000D+00 0.00000000D+00 0.00000000D+00
  <mgrwgt>
 0.8145925280D-04    7    2    0
 0.900886682380570D+02 0.000000000000000D+00 0.000000000000000D+00 0.900886682380570D+02
 0.900886682380570D+02 -.000000000000000D+00 -.000000000000000D+00 -.900886682380570D+02
 0.704460121292209D+02 -.404077520414606D+02 -.231905673179683D+02 0.170895227357863D+02
 0.379979705362956D+02 0.872729553887281D+01 -.181999558146837D+02 0.321938144027376D+02
 0.717333538105975D+02 0.316804565025878D+02 0.413905231326520D+02 -.492833371385239D+02
 0.000000000000000D+00 0.000000000000000D+00 0.000000000000000D+00 0.000000000000000D+00
 0.900886682380570D+02 0.000000000000000D+00 0.000000000000000D+00 0.900886682380570D+02
 0.900886682380570D+02 -.000000000000000D+00 -.000000000000000D+00 -.900886682380570D+02
 0.693419744960227D+02 -.395973064543809D+02 -.221317199867425D+02 0.158287623961360D+02
 0.372557003220515D+02 0.916359201134580D+01 -.176299343809612D+02 0.315150948223086D+02
 0.508836189355441D+02 0.306482285567164D+02 0.207836628173450D+02 -.348979673076793D+02
 0.226960427224957D+02 -.214514113681327D+00 0.189779915503588D+02 -.124458899107654D+02
0.292042893360D-05 0.000000000000D+00 0.000000000000D+00 0.217323076941D-06 0.000000000000D+00  6 22 -1 9900012 -13 -2 21 0 0.78924496D-03 0.24338948D+00 0.49455457D+04 0.49455457D+04 0.49455457D+04 0.12423815D+01  1  2  2  2  6  5       -2 0.344084492013D-04 0.100000000000D+01
-.193783564319D-08 0.000000000000D+00 -.560760803581D-08 0.217323076941D-06 0.000000000000D+00  6 22 -1 9900012 -13 -2 21 2 0.78924496D-03 0.24338948D+00 0.49455457D+04 0.49455457D+04 0.49455457D+04 0.12423815D+01  1  2  3  2  6  5       -2 -.352407675371D-07 0.100000000000D+01
-.335524633077D-06 0.000000000000D+00 0.000000000000D+00 0.217323076941D-06 0.000000000000D+00  6 22 -1 9900012 -13 -2 21 2 0.78924496D-03 0.24338948D+00 0.49455457D+04 0.49455457D+04 0.49455457D+04 0.12423815D+01  1  2 15  2  6  5       -2 -.610172779038D-05 0.100000000000D+01
0.379265418109D-05 0.000000000000D+00 0.000000000000D+00 0.217323076941D-06 0.000000000000D+00  6 22 -1 9900012 -13 -2 21 2 0.78924496D-03 0.24338948D+00 0.51401969D+04 0.51401969D+04 0.51401969D+04 0.12404955D+01  1  2 12  2  6  5       -2 0.688881840738D-04 0.100000000000D+01
-.218185220090D-05 0.000000000000D+00 0.000000000000D+00 0.217323076941D-06 0.000000000000D+00  6 22 -1 9900012 -13 -2 21 2 0.78924496D-03 0.24338948D+00 0.49455457D+04 0.49455457D+04 0.49455457D+04 0.12423815D+01  1  2  4  2  6  5       -2 -.396783630657D-04 0.100000000000D+01
-.363193526360D-05 0.000000000000D+00 0.000000000000D+00 0.217323076941D-06 0.000000000000D+00  6 22 -1 9900012 -13 -2 21 2 0.78924496D-03 0.24338948D+00 0.49455457D+04 0.49455457D+04 0.49455457D+04 0.12423815D+01  1  2  5  2  6  5       -2 -.660490412508D-04 0.100000000000D+01
0.495044594391D-05 0.000000000000D+00 -.000000000000D+00 0.217323076941D-06 0.000000000000D+00  6 22 -1 9900012 -13 -2 21 2 0.78924496D-03 0.24338948D+00 0.49455457D+04 0.49455457D+04 0.49455457D+04 0.12423815D+01  1  2  6  2  6  5       -2 0.900269923961D-04 0.100000000000D+01
  </mgrwgt>
  </event>
  <event>
  6     66 0.14665890E-05 0.34080268E+02 0.78161638E-02 0.12316402E+00
       22 -1    0    0    0    0 0.00000000E+00 0.00000000E+00 0.12775361E+03 0.12775361E+03 0.00000000E+00 0.0000E+00 0.9000E+01
       -1 -1    0    0    0  501 0.00000000E+00 0.00000000E+00 -.15197368E+03 0.15197368E+03 0.00000000E+00 0.0000E+00 0.9000E+01
       24  2    1    2    0    0 0.29196971E+02 0.17578439E+02 0.11107499E+03 0.14020591E+03 0.78476628E+02 0.0000E+00 0.0000E+00
  9900012  1    3    3    0    0 0.89918892E+01 -.93005773E+01 0.61611473E+02 0.80394828E+02 0.50000000E+02 0.0000E+00 0.9000E+01
      -13  1    3    3    0    0 0.20205082E+02 0.26879016E+02 0.49463514E+02 0.59811086E+02 0.00000000E+00 0.0000E+00 0.9000E+01
       -2  1    1    2    0  501 -.29196971E+02 -.17578439E+02 -.13529505E+03 0.13952138E+03 0.00000000E+00 0.0000E+00 0.9000E+01
#aMCatNLO 1  0  0  2  5 0.20574679D+02 0.00000000D+00  -5  6  0 0.00000000D+00 0.00000000D+00 0.00000000D+00 0.00000000D+00 0.00000000D+00
  <mgrwgt>
 0.7317460478D-04    9    4    0
 0.139338388649999D+03 0.000000000000000D+00 0.000000000000000D+00 0.139338388649999D+03
 0.139338388649999D+03 0.000000000000000D+00 0.000000000000000D+00 -.139338388649999D+03
 0.860525996146908D+02 0.899188915262107D+01 -.930057725134703D+01 0.688309166923192D+02
 0.643354739611767D+02 0.202050823454081D+02 0.268790161914438D+02 0.548482118742683D+02
 0.128288703724131D+03 -.291969714980291D+02 -.175784389400968D+02 -.123679128566587D+03
 0.000000000000000D+00 0.000000000000000D+00 -.000000000000000D+00 -.000000000000000D+00
 0.145405920458717D+03 0.000000000000000D+00 0.000000000000000D+00 0.145405920458717D+03
 0.151724672884526D+03 0.000000000000000D+00 0.000000000000000D+00 -.151724672884526D+03
 0.854305801107459D+02 0.564778156214696D+01 -.536577010128704D+01 0.688309166923192D+02
 0.648981383308122D+02 0.176848870440264D+02 0.298443760739045D+02 0.548482118742683D+02
 0.128853925135886D+03 -.342115310506457D+02 -.116781129941724D+02 -.123679128566587D+03
 0.179479497657988D+02 0.108788624444723D+02 -.128004929784451D+02 -.631875242580881D+01
 0.139338388649999D+03 0.000000000000000D+00 0.000000000000000D+00 0.139338388649999D+03
 0.139338388649999D+03 0.000000000000000D+00 0.000000000000000D+00 -.139338388649999D+03
 0.860525996146908D+02 0.899188915262107D+01 -.930057725134703D+01 0.688309166923192D+02
 0.643354739611767D+02 0.202050823454081D+02 0.268790161914438D+02 0.548482118742683D+02
 0.000000000000000D+00 0.000000000000000D+00 -.000000000000000D+00 -.000000000000000D+00
 0.128288703724131D+03 -.291969714980291D+02 -.175784389400968D+02 -.123679128566587D+03
 0.145405920458717D+03 0.000000000000000D+00 0.000000000000000D+00 0.145405920458717D+03
 0.151724672884526D+03 0.000000000000000D+00 0.000000000000000D+00 -.151724672884526D+03
 0.854305801107459D+02 0.564778156214696D+01 -.536577010128704D+01 0.688309166923192D+02
 0.648981383308122D+02 0.176848870440264D+02 0.298443760739045D+02 0.548482118742683D+02
 0.179479497657988D+02 0.108788624444723D+02 -.128004929784451D+02 -.631875242580881D+01
 0.128853925135886D+03 -.342115310506457D+02 -.116781129941724D+02 -.123679128566587D+03
0.888940425809D-06 0.000000000000D+00 0.000000000000D+00 0.306895225968D-05 0.000000000000D+00  6 22 -1 9900012 -13 -2 21 0 0.19654402D-01 0.23380566D-01 0.35612841D+04 0.35612841D+04 0.35612841D+04 0.12587843D+01  1  2  2  1  6  2       -1 0.225957913839D-04 0.100000000000D+01
0.566023544508D-07 0.000000000000D+00 -.170688264925D-08 0.306895225968D-05 0.000000000000D+00  6 22 -1 9900012 -13 -2 21 2 0.19654402D-01 0.23380566D-01 0.35612841D+04 0.35612841D+04 0.35612841D+04 0.12587843D+01  1  2  3  1  6  2       -1 0.227977522429D-05 0.100000000000D+01
-.131629047055D-06 0.000000000000D+00 0.000000000000D+00 0.306895225968D-05 0.000000000000D+00  6 22 -1 9900012 -13 -2 21 2 0.19654402D-01 0.23380566D-01 0.35612841D+04 0.35612841D+04 0.35612841D+04 0.12587843D+01  1  2 15  1  6  2       -1 -.530162823059D-05 0.100000000000D+01
0.125194922399D-05 0.000000000000D+00 0.000000000000D+00 0.306895225968D-05 0.000000000000D+00  6 22 -1 9900012 -13 -2 21 2 0.19654402D-01 0.26567565D-01 0.47777525D+04 0.47777525D+04 0.47777525D+04 0.12440759D+01  1  2 12  1  6  2       -1 0.413429400282D-04 0.100000000000D+01
-.331180404902D-07 0.000000000000D+00 0.000000000000D+00 0.306895225968D-05 0.000000000000D+00  6 22 -1 9900012 -13 -2 21 2 0.19654402D-01 0.23380566D-01 0.35612841D+04 0.35612841D+04 0.35612841D+04 0.12587843D+01  1  2  4  1  6  2       -1 -.133389660058D-05 0.100000000000D+01
-.292318604551D-05 0.000000000000D+00 -.895393476596D-06 0.306895225968D-05 0.000000000000D+00  6 22 -1 9900012 -13 -2 21 2 0.19654402D-01 0.26487003D-01 0.35612841D+04 0.35612841D+04 0.35612841D+04 0.12587843D+01  1  2  5  1  6  2       -1 -.970309236270D-04 0.100000000000D+01
0.301829152682D-05 0.000000000000D+00 0.888471171447D-06 0.306895225968D-05 0.000000000000D+00  6 22 -1 9900012 -13 -2 21 2 0.19654402D-01 0.23380566D-01 0.35612841D+04 0.35612841D+04 0.35612841D+04 0.12587843D+01  1  2  6  1  6  2       -1 0.121567844824D-03 0.100000000000D+01
0.250368959564D-07 0.000000000000D+00 0.000000000000D+00 0.306895225968D-05 0.000000000000D+00  6 22 21 9900012 -13 1 -2 2 0.19654402D-01 0.26567565D-01 0.47777525D+04 0.47777525D+04 0.47777525D+04 0.12440759D+01  3  4 12  3  5  2       -1 0.963940045138D-05 0.100000000000D+01
-.528507615417D-07 0.000000000000D+00 -.175507733076D-07 0.306895225968D-05 0.000000000000D+00  6 22 21 9900012 -13 1 -2 2 0.19654402D-01 0.26487003D-01 0.35612841D+04 0.35612841D+04 0.35612841D+04 0.12587843D+01  3  4  5  3  5  2       -1 -.205846986720D-04 0.100000000000D+01
  </mgrwgt>
  </event>
  <event>
  6     66 0.14665890E-05 0.35685746E+02 0.78161638E-02 0.12574786E+00
       22 -1    0    0    0    0 0.00000000E+00 0.00000000E+00 0.58440732E+02 0.58440732E+02 0.00000000E+00 0.0000E+00 0.9000E+01
       -1 -1    0    0    0  501 -.00000000E+00 -.00000000E+00 -.82094572E+02 0.82094572E+02 0.00000000E+00 0.0000E+00 0.9000E+01
       24  2    1    2    0    0 -.17427708E+02 -.31140768E+02 0.13782834E+02 0.88815125E+02 0.80154148E+02 0.0000E+00 0.0000E+00
  9900012  1    3    3    0    0 -.53289922E+01 0.10591867E+01 0.19505810E+02 0.53944385E+02 0.50000000E+02 0.0000E+00 0.9000E+01
      -13  1    3    3    0    0 -.12098716E+02 -.32199955E+02 -.57229760E+01 0.34870740E+02 0.00000000E+00 0.0000E+00 0.9000E+01
       -2  1    1    2    0  501 0.17427708E+02 0.31140768E+02 -.37436674E+02 0.51720180E+02 0.00000000E+00 0.0000E+00 0.9000E+01
#aMCatNLO 1  0  0  5  2 0.68531755D+01 0.00000000D+00  -5  6  0 0.00000000D+00 0.00000000D+00 0.00000000D+00 0.00000000D+00 0.00000000D+00
  <mgrwgt>
 0.6904260636D-04    6    2    0
 0.692651927527960D+02 0.000000000000000D+00 0.000000000000000D+00 0.692651927527960D+02
 0.692651927527960D+02 -.000000000000000D+00 -.000000000000000D+00 -.692651927527960D+02
 0.580556955174306D+02 -.532899224062144D+01 0.105918672013950D+01 0.289990301079862D+02
 0.343982270688633D+02 -.120987161581140D+02 -.321999548790312D+02 0.148319232841636D+00
 0.460764629192981D+02 0.174277083987354D+02 0.311407681588916D+02 -.291473493408278D+02
 0.000000000000000D+00 0.000000000000000D+00 0.000000000000000D+00 0.000000000000000D+00
 0.692651927527960D+02 0.000000000000000D+00 0.000000000000000D+00 0.692651927527960D+02
 0.692651927527960D+02 -.000000000000000D+00 -.000000000000000D+00 -.692651927527960D+02
 0.572281610245696D+02 -.434545190201692D+01 0.281662957829656D+01 0.273540867118606D+02
 0.332402241940692D+02 -.115216609896517D+02 -.311688416193395D+02 -.816789213964949D+00
 0.435316805285441D+02 0.199907077380503D+02 0.269256940224570D+02 -.277558248874017D+02
 0.453031975840916D+01 -.412359484638167D+01 0.142651801858600D+01 0.121852738950604D+01
0.187243450245D-06 0.000000000000D+00 0.000000000000D+00 0.427218984804D-06 0.000000000000D+00  6 22 -1 9900012 -13 -2 21 0 0.89908819D-02 0.12629934D-01 0.36227150D+04 0.36227150D+04 0.36227150D+04 0.12579136D+01  1  2  2  2  6  5       -2 0.369189974360D-04 0.100000000000D+01
0.168863363630D-08 0.000000000000D+00 -.359532075637D-09 0.427218984804D-06 0.000000000000D+00  6 22 -1 9900012 -13 -2 21 2 0.89908819D-02 0.12629934D-01 0.36227150D+04 0.36227150D+04 0.36227150D+04 0.12579136D+01  1  2  3  2  6  5       -2 0.526841957368D-06 0.100000000000D+01
-.197637132295D-07 0.000000000000D+00 0.000000000000D+00 0.427218984804D-06 0.000000000000D+00  6 22 -1 9900012 -13 -2 21 2 0.89908819D-02 0.12629934D-01 0.36227150D+04 0.36227150D+04 0.36227150D+04 0.12579136D+01  1  2 15  2  6  5       -2 -.616614115629D-05 0.100000000000D+01
0.148272705517D-06 0.000000000000D+00 0.000000000000D+00 0.427218984804D-06 0.000000000000D+00  6 22 -1 9900012 -13 -2 21 2 0.89908819D-02 0.12629934D-01 0.36842703D+04 0.36842703D+04 0.36842703D+04 0.12570578D+01  1  2 12  2  6  5       -2 0.462829277958D-04 0.100000000000D+01
-.292773661002D-07 0.000000000000D+00 0.000000000000D+00 0.427218984804D-06 0.000000000000D+00  6 22 -1 9900012 -13 -2 21 2 0.89908819D-02 0.12629934D-01 0.36227150D+04 0.36227150D+04 0.36227150D+04 0.12579136D+01  1  2  4  2  6  5       -2 -.913433472556D-05 0.100000000000D+01
0.196802922092D-08 0.000000000000D+00 0.000000000000D+00 0.427218984804D-06 0.164336312030D-07  6 22 -1 9900012 -13 -2 21 2 0.89908819D-02 0.12629934D-01 0.36842703D+04 0.36842703D+04 0.36842703D+04 0.12570578D+01  1  2 11  2  6  5       -2 0.614315048843D-06 0.100000000000D+01
  </mgrwgt>
  </event>
  <event>
  7     66 -.14665890E-05 0.54199198E+02 0.78161638E-02 0.12195276E+00
       22 -1    0    0    0    0 0.00000000E+00 0.00000000E+00 0.17749389E+03 0.17749389E+03 0.00000000E+00 0.0000E+00 0.9000E+01
       -3 -1    0    0    0  502 0.00000000E+00 0.00000000E+00 -.45049042E+03 0.45049042E+03 0.00000000E+00 0.0000E+00 0.9000E+01
       24  2    1    2    0    0 0.13631543E+02 0.56037819E+02 0.16187988E+03 0.18910171E+03 0.78919609E+02 0.0000E+00 0.0000E+00
  9900012  1    3    3    0    0 0.11000550E+00 0.27801358E+02 0.61689760E+02 0.84134143E+02 0.50000000E+02 0.0000E+00 0.9000E+01
      -13  1    3    3    0    0 0.13521537E+02 0.28236461E+02 0.10019012E+03 0.10496756E+03 0.00000000E+00 0.0000E+00 0.9000E+01
       -4  1    1    2    0  501 -.15148216E+02 -.43504977E+02 -.36221833E+03 0.36513596E+03 0.00000000E+00 0.0000E+00 0.9000E+01
       21  1    1    2  501  502 0.15166733E+01 -.12532842E+02 -.72658067E+02 0.73746642E+02 0.00000000E+00 0.0000E+00 0.9000E+01
#aMCatNLO 2  0  0  2  5 0.12742841D+02 0.00000000D+00  -5  6  0 0.00000000D+00 0.00000000D+00 0.00000000D+00 0.00000000D+00 0.00000000D+00
  <mgrwgt>
 -.2361739374D-03    2    2    0
 0.258304338773547D+03 0.000000000000000D+00 0.000000000000000D+00 0.258304338773547D+03
 0.258304338773547D+03 0.000000000000000D+00 0.000000000000000D+00 -.258304338773547D+03
 0.113511216228039D+03 0.444144368833110D+00 0.250402429495157D+02 0.987804898670653D+02
 0.150821190746784D+03 0.139651365505724D+02 0.245708314185716D+02 0.148149521709663D+03
 0.252276270572271D+03 -.144092809194055D+02 -.496110743680873D+02 -.246930011576728D+03
 0.000000000000000D+00 0.000000000000000D+00 -.000000000000000D+00 -.000000000000000D+00
 0.259176218648527D+03 0.000000000000000D+00 0.000000000000000D+00 0.259176218648527D+03
 0.308513254031206D+03 0.000000000000000D+00 0.000000000000000D+00 -.308513254031206D+03
 0.114151271524812D+03 0.110005501535501D+00 0.278013580809212D+02 0.987804898670653D+02
 0.151421301239839D+03 0.135215370585417D+02 0.282364608607129D+02 0.148149521709663D+03
 0.251190330445818D+03 -.151482158289150D+02 -.435049772945217D+02 -.246930011576728D+03
 0.509265694692640D+02 0.151667326883784D+01 -.125328416471123D+02 -.493370353826795D+02
-.145601208419D-03 0.000000000000D+00 0.000000000000D+00 0.482810384518D-04 0.000000000000D+00  6 22 -3 9900012 -13 -4 21 2 0.27214892D-01 0.69540154D-01 0.54175211D+04 0.54175211D+04 0.54175211D+04 0.12379433D+01  1  2 13  1  6  2       -3 -.309823827000D-03 0.100000000000D+01
0.345344709853D-04 0.000000000000D+00 0.000000000000D+00 0.482810384518D-04 0.837858515958D-05  6 22 -3 9900012 -13 -4 21 2 0.27306753D-01 0.69306218D-01 0.54175211D+04 0.54175211D+04 0.54175211D+04 0.12379433D+01  1  2  1  1  6  2       -3 0.736498896046D-04 0.100000000000D+01
  </mgrwgt>
  </event>
  <event>
  6     66 0.14665890E-05 0.81069068E+01 0.78161638E-02 0.13413252E+00
       22 -1    0    0    0    0 0.00000000E+00 0.00000000E+00 0.25173254E+04 0.25173254E+04 0.00000000E+00 0.0000E+00 0.9000E+01
       -1 -1    0    0    0  501 0.00000000E+00 0.00000000E+00 -.81034356E+00 0.81034356E+00 0.00000000E+00 0.0000E+00 0.9000E+01
       24  2    1    2    0    0 0.46903806E+00 0.80933269E+01 0.23957866E+04 0.23971354E+04 0.79993698E+02 0.0000E+00 0.0000E+00
  9900012  1    3    3    0    0 -.63726825E+01 0.25108664E+02 0.13307527E+04 0.13319436E+04 0.50000000E+02 0.0000E+00 0.9000E+01
      -13  1    3    3    0    0 0.68417205E+01 -.17015338E+02 0.10650339E+04 0.10651918E+04 0.00000000E+00 0.0000E+00 0.9000E+01
       -2  1    1    2    0  501 -.46903806E+00 -.80933269E+01 0.12072849E+03 0.12100038E+03 0.00000000E+00 0.0000E+00 0.9000E+01
#aMCatNLO 1  0  0  5  2 0.17295597D+01 0.00000000D+00  -5  6  0 0.00000000D+00 0.00000000D+00 0.00000000D+00 0.00000000D+00 0.00000000D+00
  <mgrwgt>
 0.5430350456D-04    8    2    0
 0.451652350275280D+02 0.000000000000000D+00 0.000000000000000D+00 0.451652350275280D+02
 0.451652350275280D+02 -.000000000000000D+00 -.000000000000000D+00 -.451652350275280D+02
 0.570752034196181D+02 -.637268248485544D+01 0.251086644348922D+02 -.930175970631264D+01
 0.235099273440887D+02 0.684172054751195D+01 -.170153375021771D+02 0.147100589176621D+02
 0.974533929134925D+01 -.469038062656512D+00 -.809332693271510D+01 -.540829921134946D+01
 0.000000000000000D+00 -.000000000000000D+00 0.000000000000000D+00 0.000000000000000D+00
 0.451652350275280D+02 0.000000000000000D+00 0.000000000000000D+00 0.451652350275280D+02
 0.451652350275280D+02 -.000000000000000D+00 -.000000000000000D+00 -.451652350275280D+02
 0.569370714059066D+02 -.639774277873622D+01 0.246762450481620D+02 -.959072040784711D+01
 0.235624066866856D+02 0.683137388504714D+01 -.171938708210210D+02 0.145907554945420D+02
 0.257487684590283D+01 0.749985950683299D+00 -.846817394695821D+00 -.231309579252238D+01
 0.725611511656101D+01 -.118361705699422D+01 -.663555683244515D+01 -.268693929417248D+01
0.517618641380D-06 0.000000000000D+00 0.000000000000D+00 0.802743985924D-07 0.000000000000D+00  6 22 -1 9900012 -13 -2 21 0 0.38728083D+00 0.12466824D-03 0.17122367D+04 0.17122367D+04 0.17122367D+04 0.12979348D+01  1  2  2  2  6  5       -2 0.354210815056D-04 0.100000000000D+01
0.527544698631D-07 0.000000000000D+00 -.993895937509D-09 0.802743985924D-07 0.000000000000D+00  6 22 -1 9900012 -13 -2 21 2 0.38728083D+00 0.12466824D-03 0.17122367D+04 0.17122367D+04 0.17122367D+04 0.12979348D+01  1  2  3  2  6  5       -2 0.608158683942D-05 0.100000000000D+01
-.663051852434D-07 0.000000000000D+00 0.000000000000D+00 0.802743985924D-07 0.000000000000D+00  6 22 -1 9900012 -13 -2 21 2 0.38728083D+00 0.12466824D-03 0.17122367D+04 0.17122367D+04 0.17122367D+04 0.12979348D+01  1  2 15  2  6  5       -2 -.764372655071D-05 0.100000000000D+01
0.699906616930D-10 0.000000000000D+00 0.000000000000D+00 0.802743985924D-07 0.000000000000D+00  6 22 -1 9900012 -13 -2 21 2 0.38728083D+00 0.12466824D-03 0.17014080D+04 0.17014080D+04 0.17014080D+04 0.12982908D+01  1  2 12  2  6  5       -2 0.806472102129D-08 0.100000000000D+01
-.145244908082D-06 0.000000000000D+00 0.000000000000D+00 0.802743985924D-07 0.000000000000D+00  6 22 -1 9900012 -13 -2 21 2 0.38728083D+00 0.12466824D-03 0.17122367D+04 0.17122367D+04 0.17122367D+04 0.12979348D+01  1  2  4  2  6  5       -2 -.167439749424D-04 0.100000000000D+01
-.138136894203D-06 0.000000000000D+00 0.000000000000D+00 0.802743985924D-07 0.000000000000D+00  6 22 -1 9900012 -13 -2 21 2 0.38728083D+00 0.12466824D-03 0.17122367D+04 0.17122367D+04 0.17122367D+04 0.12979348D+01  1  2  5  2  6  5       -2 -.159245561561D-04 0.100000000000D+01
0.421638335198D-06 0.000000000000D+00 -.000000000000D+00 0.802743985924D-07 0.000000000000D+00  6 22 -1 9900012 -13 -2 21 2 0.38728083D+00 0.12466824D-03 0.17122367D+04 0.17122367D+04 0.17122367D+04 0.12979348D+01  1  2  6  2  6  5       -2 0.486068793220D-04 0.100000000000D+01
0.390377399571D-07 0.000000000000D+00 0.000000000000D+00 0.802743985924D-07 0.918463768216D-08  6 22 -1 9900012 -13 -2 21 2 0.38728083D+00 0.12466824D-03 0.17014080D+04 0.17014080D+04 0.17014080D+04 0.12982908D+01  1  2 11  2  6  5       -2 0.449814981656D-05 0.100000000000D+01
  </mgrwgt>
  </event>
  <event>
  6     66 0.14665890E-05 0.15787276E+02 0.78161638E-02 0.12889557E+00
       22 -1    0    0    0    0 0.00000000E+00 0.00000000E+00 0.77917155E+02 0.77917155E+02 0.00000000E+00 0.0000E+00 0.9000E+01
       -1 -1    0    0    0  501 -.00000000E+00 -.00000000E+00 -.18246769E+03 0.18246769E+03 0.00000000E+00 0.0000E+00 0.9000E+01
       24  2    1    2    0    0 0.11821130E+02 0.28680521E+02 0.51391881E+02 0.10138689E+03 0.81705969E+02 0.0000E+00 0.0000E+00
  9900012  1    3    3    0    0 0.23681795E+02 0.24145441E+02 0.14095323E+02 0.61987965E+02 0.50000000E+02 0.0000E+00 0.9000E+01
      -13  1    3    3    0    0 -.11860665E+02 0.45350807E+01 0.37296559E+02 0.39398929E+02 0.00000000E+00 0.0000E+00 0.9000E+01
       -2  1    1    2    0  501 -.11821130E+02 -.28680521E+02 -.15594242E+03 0.15899796E+03 0.00000000E+00 0.0000E+00 0.9000E+01
#aMCatNLO 1  0  0  5  2 0.23754694D+01 0.00000000D+00  -5  6  0 0.00000000D+00 0.00000000D+00 0.00000000D+00 0.00000000D+00 0.00000000D+00
  <mgrwgt>
 0.7340211230D-04    8    2    0
 0.119236587154053D+03 0.000000000000000D+00 0.000000000000000D+00 0.119236587154053D+03
 0.119236587154053D+03 -.000000000000000D+00 -.000000000000000D+00 -.119236587154053D+03
 0.738632370368900D+02 0.236817947781804D+02 0.241454407927205D+02 0.425669833389352D+02
 0.593704495066857D+02 -.118606645955193D+02 0.453508067812029D+01 0.579966201879166D+02
 0.105239487764530D+03 -.118211301826611D+02 -.286805214708408D+02 -.100563603526852D+03
 0.000000000000000D+00 0.000000000000000D+00 -.000000000000000D+00 0.000000000000000D+00
 0.119236587154053D+03 0.000000000000000D+00 0.000000000000000D+00 0.119236587154053D+03
 0.119236587154053D+03 -.000000000000000D+00 -.000000000000000D+00 -.119236587154053D+03
 0.738407121775621D+02 0.236780501441036D+02 0.241363555312962D+02 0.425351273411724D+02
 0.593454822376272D+02 -.118636743168290D+02 0.452777846798400D+01 0.579710161707176D+02
 0.557677082942589D+02 -.799629602829948D+01 -.135845853352813D+02 -.534935096950071D+02
 0.495192715986573D+02 -.381807979897515D+01 -.150795486639990D+02 -.470126338168830D+02
0.883464217329D-07 0.000000000000D+00 0.000000000000D+00 0.118556465077D-05 0.000000000000D+00  6 22 -1 9900012 -13 -2 21 0 0.11987255D-01 0.28071953D-01 0.27083391D+04 0.27083391D+04 0.27083391D+04 0.12729902D+01  1  2  2  2  6  5       -2 0.337039077709D-05 0.100000000000D+01
0.434494068456D-08 0.000000000000D+00 -.169636760801D-09 0.118556465077D-05 0.000000000000D+00  6 22 -1 9900012 -13 -2 21 2 0.11987255D-01 0.28071953D-01 0.27083391D+04 0.27083391D+04 0.27083391D+04 0.12729902D+01  1  2  3  2  6  5       -2 0.268611912284D-06 0.100000000000D+01
-.129532637354D-07 0.000000000000D+00 0.000000000000D+00 0.118556465077D-05 0.000000000000D+00  6 22 -1 9900012 -13 -2 21 2 0.11987255D-01 0.28071953D-01 0.27083391D+04 0.27083391D+04 0.27083391D+04 0.12729902D+01  1  2 15  2  6  5       -2 -.800793657471D-06 0.100000000000D+01
0.165321928261D-07 0.000000000000D+00 0.000000000000D+00 0.118556465077D-05 0.000000000000D+00  6 22 -1 9900012 -13 -2 21 2 0.11987255D-01 0.28071953D-01 0.27235911D+04 0.27235911D+04 0.27235911D+04 0.12726938D+01  1  2 12  2  6  5       -2 0.102207617995D-05 0.100000000000D+01
-.533973872026D-05 0.000000000000D+00 0.000000000000D+00 0.118556465077D-05 0.000000000000D+00  6 22 -1 9900012 -13 -2 21 2 0.11987255D-01 0.28071953D-01 0.27083391D+04 0.27083391D+04 0.27083391D+04 0.12729902D+01  1  2  4  2  6  5       -2 -.330112085038D-03 0.100000000000D+01
-.452776379648D-05 0.000000000000D+00 0.000000000000D+00 0.118556465077D-05 0.000000000000D+00  6 22 -1 9900012 -13 -2 21 2 0.11987255D-01 0.28071953D-01 0.27083391D+04 0.27083391D+04 0.27083391D+04 0.12729902D+01  1  2  5  2  6  5       -2 -.279914360181D-03 0.100000000000D+01
0.707281261911D-05 0.000000000000D+00 -.000000000000D+00 0.118556465077D-05 0.000000000000D+00  6 22 -1 9900012 -13 -2 21 2 0.11987255D-01 0.28071953D-01 0.27083391D+04 0.27083391D+04 0.27083391D+04 0.12729902D+01  1  2  6  2  6  5       -2 0.437253776467D-03 0.100000000000D+01
0.391946319497D-05 0.000000000000D+00 0.000000000000D+00 0.118556465077D-05 0.537933160286D-06  6 22 -1 9900012 -13 -2 21 2 0.11987255D-01 0.28071953D-01 0.27235911D+04 0.27235911D+04 0.27235911D+04 0.12726938D+01  1  2 11  2  6  5       -2 0.242314495840D-03 0.100000000000D+01
  </mgrwgt>
  </event>
  <event>
  6     66 0.14665890E-05 0.12505493E+02 0.78161638E-02 0.12013750E+00
       22 -1    0    0    0    0 0.00000000E+00 0.00000000E+00 0.97987809E+01 0.97987809E+01 0.00000000E+00 0.0000E+00 0.9000E+01
       -3 -1    0    0    0  501 -.00000000E+00 -.00000000E+00 -.12313080E+04 0.12313080E+04 0.00000000E+00 0.0000E+00 0.9000E+01
       24  2    1    2    0    0 0.70456272E+00 -.62040304E+02 -.27019879E+03 0.28777524E+03 0.77186182E+02 0.0000E+00 0.0000E+00
  9900012  1    3    3    0    0 -.19005179E+02 -.30226752E+02 -.15969773E+03 0.17110879E+03 0.50000000E+02 0.0000E+00 0.9000E+01
      -13  1    3    3    0    0 0.19709741E+02 -.31813552E+02 -.11050107E+03 0.11666646E+03 0.00000000E+00 0.0000E+00 0.9000E+01
       -4  1    1    2    0  501 -.70456272E+00 0.62040304E+02 -.95131047E+03 0.95333159E+03 0.00000000E+00 0.0000E+00 0.9000E+01
#aMCatNLO 1  0  0  5  2 0.33858979D+01 0.00000000D+00  -5  6  0 0.00000000D+00 0.00000000D+00 0.00000000D+00 0.00000000D+00 0.00000000D+00
  <mgrwgt>
 0.4086337127D-04    6    2    0
 0.109842240482635D+03 0.000000000000000D+00 0.000000000000000D+00 0.109842240482635D+03
 0.109842240482635D+03 -.000000000000000D+00 -.000000000000000D+00 -.109842240482635D+03
 0.787130338519928D+02 -.190051786174826D+02 -.302267520875170D+02 0.492025237375313D+02
 0.446888961935591D+02 0.197097413419606D+02 -.318135518980416D+02 0.244237887081903D+02
 0.962825509197189D+02 -.704562724477981D+00 0.620403039855586D+02 -.736263124457216D+02
 0.000000000000000D+00 0.000000000000000D+00 0.000000000000000D+00 0.000000000000000D+00
 0.109842240482635D+03 0.000000000000000D+00 0.000000000000000D+00 0.109842240482635D+03
 0.109842240482635D+03 -.000000000000000D+00 -.000000000000000D+00 -.109842240482635D+03
 0.780293875771300D+02 -.190121193056509D+02 -.296155894629944D+02 0.484772266732435D+02
 0.442162810694363D+02 0.197058045448491D+02 -.314668970424238D+02 0.240123961605896D+02
 0.951879745841036D+02 -.289290364429012D+01 0.615584222729148D+02 -.725461388441750D+02
 0.225083773460081D+01 0.219921840509199D+01 -.475935767496609D+00 0.565160103418443D-01
0.906027397238D-05 0.000000000000D+00 0.000000000000D+00 0.189197226333D-06 0.000000000000D+00  6 22 -3 9900012 -13 -4 21 0 0.15075048D-02 0.18943201D+00 0.64728791D+04 0.64728791D+04 0.64728791D+04 0.12294217D+01  1  2  2  2  6  5       -4 0.518682292255D-04 0.100000000000D+01
0.637670477466D-07 0.000000000000D+00 -.173969188394D-07 0.189197226333D-06 0.000000000000D+00  6 22 -3 9900012 -13 -4 21 2 0.15075048D-02 0.18943201D+00 0.64728791D+04 0.64728791D+04 0.64728791D+04 0.12294217D+01  1  2  3  2  6  5       -4 0.551770082110D-06 0.100000000000D+01
-.138233124686D-05 0.000000000000D+00 0.000000000000D+00 0.189197226333D-06 0.000000000000D+00  6 22 -3 9900012 -13 -4 21 2 0.15075048D-02 0.18943201D+00 0.64728791D+04 0.64728791D+04 0.64728791D+04 0.12294217D+01  1  2 15  2  6  5       -4 -.119611782658D-04 0.100000000000D+01
0.108834401310D-06 0.000000000000D+00 0.000000000000D+00 0.189197226333D-06 0.000000000000D+00  6 22 -3 9900012 -13 -4 21 2 0.15075048D-02 0.18943201D+00 0.65729989D+04 0.65729989D+04 0.65729989D+04 0.12286954D+01  1  2 12  2  6  5       -4 0.941611391807D-06 0.100000000000D+01
-.552501457243D-05 0.000000000000D+00 0.000000000000D+00 0.189197226333D-06 0.000000000000D+00  6 22 -3 9900012 -13 -4 21 2 0.15075048D-02 0.18943201D+00 0.64728791D+04 0.64728791D+04 0.64728791D+04 0.12294217D+01  1  2  4  2  6  5       -4 -.478074154602D-04 0.100000000000D+01
0.546365597800D-05 0.000000000000D+00 0.000000000000D+00 0.189197226333D-06 0.284576327431D-07  6 22 -3 9900012 -13 -4 21 2 0.15075048D-02 0.18943201D+00 0.65729989D+04 0.65729989D+04 0.65729989D+04 0.12286954D+01  1  2 11  2  6  5       -4 0.472703542983D-04 0.100000000000D+01
  </mgrwgt>
  </event>
  <event>
  6     66 0.14665890E-05 0.74052995E+02 0.78161638E-02 0.11559861E+00
       22 -1    0    0    0    0 0.00000000E+00 0.00000000E+00 0.29462069E+03 0.29462069E+03 0.00000000E+00 0.0000E+00 0.9000E+01
       -3 -1    0    0    0  501 0.00000000E+00 0.00000000E+00 -.64680271E+02 0.64680271E+02 0.00000000E+00 0.0000E+00 0.9000E+01
       24  2    1    2    0    0 -.71991315E+02 0.17352136E+02 0.25777567E+03 0.28018935E+03 0.81079775E+02 0.0000E+00 0.0000E+00
  9900012  1    3    3    0    0 -.59338985E+02 0.33055847E+02 0.23546547E+03 0.25011556E+03 0.50000000E+02 0.0000E+00 0.9000E+01
      -13  1    3    3    0    0 -.12652330E+02 -.15703710E+02 0.22310195E+02 0.30073789E+02 0.00000000E+00 0.0000E+00 0.9000E+01
       -4  1    1    2    0  501 0.71991315E+02 -.17352136E+02 -.27835250E+02 0.79111612E+02 0.00000000E+00 0.0000E+00 0.9000E+01
#aMCatNLO 1  0  0  5  2 0.44137289D+02 0.00000000D+00  -5  6  0 0.00000000D+00 0.00000000D+00 0.00000000D+00 0.00000000D+00 0.00000000D+00
  <mgrwgt>
 0.4287352228D-04    6    2    0
 0.138044001175233D+03 0.000000000000000D+00 0.000000000000000D+00 0.138044001175233D+03
 0.138044001175233D+03 -.000000000000000D+00 -.000000000000000D+00 -.138044001175233D+03
 0.129392554250562D+03 -.593389850882267D+02 0.330558467387050D+02 0.981255774024846D+02
 0.205569441425927D+02 -.126523299294357D+02 -.157037103326792D+02 0.398747810347402D+01
 0.126138503957311D+03 0.719913150176624D+02 -.173521364060257D+02 -.102113055505959D+03
 0.000000000000000D+00 0.000000000000000D+00 0.000000000000000D+00 -.000000000000000D+00
 0.138044001175233D+03 0.000000000000000D+00 0.000000000000000D+00 0.138044001175233D+03
 0.138044001175233D+03 -.000000000000000D+00 -.000000000000000D+00 -.138044001175233D+03
 0.114366919965568D+03 -.497926576477620D+02 0.307548861869650D+02 0.845849904085248D+02
 0.196085292866778D+02 -.110793335878981D+02 -.160828511648455D+02 0.175632754462271D+01
 0.953151606063616D+02 0.746782459344017D+02 0.184359261965166D+02 -.562872636646526D+02
 0.467973924918582D+02 -.138062546987416D+02 -.331079612186360D+02 -.300540542884949D+02
0.209046491335D-05 0.000000000000D+00 0.000000000000D+00 0.146906361814D-05 0.000000000000D+00  6 22 -3 9900012 -13 -4 21 0 0.45326260D-01 0.99508110D-02 0.79711748D+04 0.79711748D+04 0.79711748D+04 0.12196775D+01  1  2  2  2  6  5       -4 0.468686368613D-04 0.100000000000D+01
0.109487795254D-07 0.000000000000D+00 -.401396784967D-08 0.146906361814D-05 0.000000000000D+00  6 22 -3 9900012 -13 -4 21 2 0.45326260D-01 0.99508110D-02 0.79711748D+04 0.79711748D+04 0.79711748D+04 0.12196775D+01  1  2  3  2  6  5       -4 0.365170047469D-06 0.100000000000D+01
-.299346148337D-06 0.000000000000D+00 0.000000000000D+00 0.146906361814D-05 0.000000000000D+00  6 22 -3 9900012 -13 -4 21 2 0.45326260D-01 0.99508110D-02 0.79711748D+04 0.79711748D+04 0.79711748D+04 0.12196775D+01  1  2 15  2  6  5       -4 -.998396642697D-05 0.100000000000D+01
-.974336032123D-07 0.000000000000D+00 0.000000000000D+00 0.146906361814D-05 0.000000000000D+00  6 22 -3 9900012 -13 -4 21 2 0.45326260D-01 0.99508110D-02 0.79711748D+04 0.79711748D+04 0.79711748D+04 0.12196775D+01  1  2  4  2  6  5       -4 -.324966206759D-05 0.100000000000D+01
-.614379226413D-06 0.000000000000D+00 0.000000000000D+00 0.146906361814D-05 0.000000000000D+00  6 22 -3 9900012 -13 -4 21 2 0.45326260D-01 0.99508110D-02 0.79711748D+04 0.79711748D+04 0.79711748D+04 0.12196775D+01  1  2  5  2  6  5       -4 -.204911324365D-04 0.100000000000D+01
0.880425925356D-06 0.000000000000D+00 -.000000000000D+00 0.146906361814D-05 0.000000000000D+00  6 22 -3 9900012 -13 -4 21 2 0.45326260D-01 0.99508110D-02 0.79711748D+04 0.79711748D+04 0.79711748D+04 0.12196775D+01  1  2  6  2  6  5       -4 0.293644763061D-04 0.100000000000D+01
  </mgrwgt>
  </event>
  <event>
  6     66 0.14665890E-05 0.49398828E+02 0.78161638E-02 0.11284172E+00
       22 -1    0    0    0    0 0.00000000E+00 0.00000000E+00 0.45141903E+02 0.45141903E+02 0.00000000E+00 0.0000E+00 0.9000E+01
       -1 -1    0    0    0  501 0.00000000E+00 0.00000000E+00 -.52091019E+03 0.52091019E+03 0.00000000E+00 0.0000E+00 0.9000E+01
       24  2    1    2    0    0 0.50148079E+02 -.77905330E+02 -.54376159E+02 0.13459480E+03 0.81085900E+02 0.0000E+00 0.0000E+00
  9900012  1    3    3    0    0 0.63012386E+02 -.74694056E+02 -.46874620E+02 0.11936077E+03 0.50000000E+02 0.0000E+00 0.9000E+01
      -13  1    3    3    0    0 -.12864307E+02 -.32112739E+01 -.75015384E+01 0.15234032E+02 0.00000000E+00 0.0000E+00 0.9000E+01
       -2  1    1    2    0  501 -.50148079E+02 0.77905330E+02 -.42139212E+03 0.43145729E+03 0.00000000E+00 0.0000E+00 0.9000E+01
#aMCatNLO 1  0  0  2  5 0.33418279D+02 0.00000000D+00  -5  6  0 0.00000000D+00 0.00000000D+00 0.00000000D+00 0.00000000D+00 0.00000000D+00
  <mgrwgt>
 0.4963281019D-04    9    4    0
 0.153345613844977D+03 0.000000000000000D+00 0.000000000000000D+00 0.153345613844977D+03
 0.153345613844977D+03 0.000000000000000D+00 0.000000000000000D+00 -.153345613844977D+03
 0.147584770096727D+03 0.630123859542605D+02 -.746940563640370D+02 0.986483731479705D+02
 0.164799688156358D+02 -.128643066841663D+02 -.321127394686407D+01 0.978706827084772D+01
 0.142626488777591D+03 -.501480792700942D+02 0.779053303109011D+02 -.108435441418818D+03
 0.000000000000000D+00 -.000000000000000D+00 0.000000000000000D+00 -.000000000000000D+00
 0.159000825002338D+03 0.000000000000000D+00 0.000000000000000D+00 0.159000825002338D+03
 0.205505523147581D+03 0.000000000000000D+00 0.000000000000000D+00 -.205505523147581D+03
 0.157265083428078D+03 0.663867248758359D+02 -.899644802194686D+02 0.986483731479705D+02
 0.166039650282878D+02 -.124981054071849D+02 -.486850187976404D+01 0.978706827084772D+01
 0.134440671216250D+03 -.470812629634841D+02 0.640265866585531D+02 -.108435441418818D+03
 0.561966284773038D+02 -.680735650516680D+01 0.308063954406796D+02 -.465046981452429D+02
 0.153345613844977D+03 0.000000000000000D+00 0.000000000000000D+00 0.153345613844977D+03
 0.153345613844977D+03 0.000000000000000D+00 0.000000000000000D+00 -.153345613844977D+03
 0.147584770096727D+03 0.630123859542605D+02 -.746940563640370D+02 0.986483731479705D+02
 0.164799688156358D+02 -.128643066841663D+02 -.321127394686407D+01 0.978706827084772D+01
 0.000000000000000D+00 -.000000000000000D+00 0.000000000000000D+00 -.000000000000000D+00
 0.142626488777591D+03 -.501480792700942D+02 0.779053303109011D+02 -.108435441418818D+03
 0.159000825002338D+03 0.000000000000000D+00 0.000000000000000D+00 0.159000825002338D+03
 0.205505523147581D+03 0.000000000000000D+00 0.000000000000000D+00 -.205505523147581D+03
 0.157265083428078D+03 0.663867248758359D+02 -.899644802194686D+02 0.986483731479705D+02
 0.166039650282878D+02 -.124981054071849D+02 -.486850187976404D+01 0.978706827084772D+01
 0.561966284773038D+02 -.680735650516680D+01 0.308063954406796D+02 -.465046981452429D+02
 0.134440671216250D+03 -.470812629634841D+02 0.640265866585531D+02 -.108435441418818D+03
0.117409151739D-05 0.000000000000D+00 0.000000000000D+00 0.109730171921D-05 0.000000000000D+00  6 22 -1 9900012 -13 -2 21 0 0.69449082D-02 0.80140029D-01 0.11629544D+05 0.11629544D+05 0.11629544D+05 0.12025938D+01  1  2  2  1  6  2       -1 0.174620307744D-04 0.100000000000D+01
0.905511585754D-09 0.000000000000D+00 -.225441028609D-08 0.109730171921D-05 0.000000000000D+00  6 22 -1 9900012 -13 -2 21 2 0.69449082D-02 0.80140029D-01 0.11629544D+05 0.11629544D+05 0.11629544D+05 0.12025938D+01  1  2  3  1  6  2       -1 0.194771204987D-07 0.100000000000D+01
-.162980528974D-06 0.000000000000D+00 0.000000000000D+00 0.109730171921D-05 0.000000000000D+00  6 22 -1 9900012 -13 -2 21 2 0.69449082D-02 0.80140029D-01 0.11629544D+05 0.11629544D+05 0.11629544D+05 0.12025938D+01  1  2 15  1  6  2       -1 -.350563311580D-05 0.100000000000D+01
0.214271673432D-05 0.000000000000D+00 0.000000000000D+00 0.109730171921D-05 0.000000000000D+00  6 22 -1 9900012 -13 -2 21 2 0.69449082D-02 0.11136011D+00 0.15241602D+05 0.15241602D+05 0.15241602D+05 0.11908026D+01  1  2 12  1  6  2       -1 0.226856092826D-04 0.100000000000D+01
-.728906934699D-06 0.000000000000D+00 0.000000000000D+00 0.109730171921D-05 0.000000000000D+00  6 22 -1 9900012 -13 -2 21 2 0.69449082D-02 0.80140029D-01 0.11629544D+05 0.11629544D+05 0.11629544D+05 0.12025938D+01  1  2  4  1  6  2       -1 -.156784390424D-04 0.100000000000D+01
-.277080466035D-05 0.000000000000D+00 -.506416305836D-06 0.109730171921D-05 0.000000000000D+00  6 22 -1 9900012 -13 -2 21 2 0.69449082D-02 0.10957002D+00 0.11629544D+05 0.11629544D+05 0.11629544D+05 0.12025938D+01  1  2  5  1  6  2       -1 -.306947167968D-04 0.100000000000D+01
0.281421495406D-05 0.000000000000D+00 0.482614525959D-06 0.109730171921D-05 0.000000000000D+00  6 22 -1 9900012 -13 -2 21 2 0.69449082D-02 0.80140029D-01 0.11629544D+05 0.11629544D+05 0.11629544D+05 0.12025938D+01  1  2  6  1  6  2       -1 0.605324157435D-04 0.100000000000D+01
0.885243201565D-07 0.000000000000D+00 0.000000000000D+00 0.109730171921D-05 0.000000000000D+00  6 22 21 9900012 -13 1 -2 2 0.69449082D-02 0.11136011D+00 0.15241602D+05 0.15241602D+05 0.15241602D+05 0.11908026D+01  3  4 12  3  5  2       -1 0.684040204497D-05 0.100000000000D+01
-.982736141237D-07 0.000000000000D+00 -.201743651027D-07 0.109730171921D-05 0.000000000000D+00  6 22 21 9900012 -13 1 -2 2 0.69449082D-02 0.10957002D+00 0.11629544D+05 0.11629544D+05 0.11629544D+05 0.12025938D+01  3  4  5  3  5  2       -1 -.802833582228D-05 0.100000000000D+01
  </mgrwgt>
  </event>
  <event>
  7     66 -.14665890E-05 0.56078096E+02 0.78161638E-02 0.12165465E+00
       22 -1    0    0    0    0 0.00000000E+00 0.00000000E+00 0.59032731E+02 0.59032731E+02 0.00000000E+00 0.0000E+00 0.9000E+01
       -1 -1    0    0    0  502 0.00000000E+00 0.00000000E+00 -.13644565E+03 0.13644565E+03 0.00000000E+00 0.0000E+00 0.9000E+01
       24  2    1    2    0    0 0.46556606E+02 -.40832126E+02 0.66102377E+01 0.88071178E+02 0.62274048E+02 0.0000E+00 0.0000E+00
  9900012  1    3    3    0    0 0.36621040E+02 -.26791356E+02 0.14640419E+02 0.69088488E+02 0.50000000E+02 0.0000E+00 0.9000E+01
      -13  1    3    3    0    0 0.99355661E+01 -.14040771E+02 -.80301814E+01 0.18982690E+02 0.00000000E+00 0.0000E+00 0.9000E+01
       -2  1    1    2    0  501 -.40962517E+02 0.42447993E+02 -.82443380E+02 0.10137392E+03 0.00000000E+00 0.0000E+00 0.9000E+01
       21  1    1    2  501  502 -.55940885E+01 -.16158667E+01 -.15797761E+01 0.60332864E+01 0.00000000E+00 0.0000E+00 0.9000E+01
#aMCatNLO 2  0  0  2  5 0.89301575D+01 0.00000000D+00  -5  6  0 0.00000000D+00 0.00000000D+00 0.00000000D+00 0.00000000D+00 0.00000000D+00
  <mgrwgt>
 -.2542053160D-04    3    2    0
 0.867537799218417D+02 0.000000000000000D+00 0.000000000000000D+00 0.867537799218417D+02
 0.867537799218417D+02 0.000000000000000D+00 0.000000000000000D+00 -.867537799218417D+02
 0.809021463152749D+02 0.339991277292779D+02 -.275487016522764D+02 0.461550173799150D+02
 0.170271036631465D+02 0.938384760134225D+01 -.142001358582754D+02 -.470961736070024D+00
 0.755783098652621D+02 -.433829753306201D+02 0.417488375105518D+02 -.456840556438450D+02
 0.000000000000000D+00 -.000000000000000D+00 -.000000000000000D+00 0.000000000000000D+00
 0.902052211205136D+02 0.000000000000000D+00 0.000000000000000D+00 0.902052211205136D+02
 0.892937150673471D+02 0.000000000000000D+00 0.000000000000000D+00 -.892937150673471D+02
 0.817873029114567D+02 0.366210396594409D+02 -.267913557412044D+02 0.461550173799150D+02
 0.172069903516332D+02 0.993556610516841D+01 -.140407705691028D+02 -.470961736070024D+00
 0.746109433355576D+02 -.409625172331764D+02 0.424479929710886D+02 -.456840556438450D+02
 0.589369958921335D+01 -.559408853143294D+01 -.161586666078140D+01 0.911506053166575D+00
-.206081663828D-06 0.000000000000D+00 0.000000000000D+00 0.341424149673D-08 0.000000000000D+00  6 22 -1 9900012 -13 -2 21 2 0.87344638D-02 0.21826777D-01 0.55899757D+04 0.55899757D+04 0.55899757D+04 0.12364293D+01  1  2 13  1  6  2       -1 -.296096943102D-04 0.100000000000D+01
-.888464476321D-08 0.000000000000D+00 0.000000000000D+00 0.341424149673D-08 0.000000000000D+00  6 22 -1 9900012 -13 -2 21 2 0.87344638D-02 0.20394537D-01 0.51605158D+04 0.51605158D+04 0.51605158D+04 0.12403033D+01  1  2  8  1  6  2       -1 -.141523937804D-05 0.100000000000D+01
0.387953782781D-07 0.000000000000D+00 0.000000000000D+00 0.341424149673D-08 0.186389560659D-09  6 22 -1 9900012 -13 -2 21 2 0.90819586D-02 0.20991638D-01 0.55899757D+04 0.55899757D+04 0.55899757D+04 0.12364293D+01  1  2  1  1  6  2       -1 0.560440208940D-05 0.100000000000D+01
  </mgrwgt>
  </event>
  <event>
  6     66 0.14665890E-05 0.29458212E+02 0.78161638E-02 0.12695009E+00
       22 -1    0    0    0    0 0.00000000E+00 0.00000000E+00 0.36201037E+03 0.36201037E+03 0.00000000E+00 0.0000E+00 0.9000E+01
       -3 -1    0    0    0  501 0.00000000E+00 0.00000000E+00 -.46423181E+02 0.46423181E+02 0.00000000E+00 0.0000E+00 0.9000E+01
       24  2    1    2    0    0 0.37933147E+01 0.29212960E+02 0.35170916E+03 0.36182257E+03 0.79677177E+02 0.0000E+00 0.0000E+00
  9900012  1    3    3    0    0 0.26404069E+02 0.16567059E+02 0.25299216E+03 0.25976273E+03 0.50000000E+02 0.0000E+00 0.9000E+01
      -13  1    3    3    0    0 -.22610754E+02 0.12645901E+02 0.98717003E+02 0.10205984E+03 0.00000000E+00 0.0000E+00 0.9000E+01
       -4  1    1    2    0  501 -.37933147E+01 -.29212960E+02 -.36121974E+02 0.46610978E+02 0.00000000E+00 0.0000E+00 0.9000E+01
#aMCatNLO 1  0  0  5  2 0.49598031D+01 0.00000000D+00  -5  6  0 0.00000000D+00 0.00000000D+00 0.00000000D+00 0.00000000D+00 0.00000000D+00
  <mgrwgt>
 0.1211087029D-03    8    2    0
 0.129636695543524D+03 0.000000000000000D+00 0.000000000000000D+00 0.129636695543524D+03
 0.129636695543524D+03 -.000000000000000D+00 -.000000000000000D+00 -.129636695543524D+03
 0.101262720941030D+03 0.264040690366533D+02 0.165670586298595D+02 0.823559127145310D+02
 0.406167513462372D+02 -.226107543788909D+02 0.126459010803061D+02 0.312818711429901D+02
 0.117393918799780D+03 -.379331465776243D+01 -.292129597101656D+02 -.113637783857521D+03
 0.000000000000000D+00 0.000000000000000D+00 -.000000000000000D+00 0.000000000000000D+00
 0.129636695543524D+03 0.000000000000000D+00 0.000000000000000D+00 0.129636695543524D+03
 0.129636695543524D+03 -.000000000000000D+00 -.000000000000000D+00 -.129636695543524D+03
 0.101125297525514D+03 0.263987584317391D+02 0.165261607604777D+02 0.821968208838110D+02
 0.405637009080157D+02 -.226128845312188D+02 0.126294964158511D+02 0.312180573517110D+02
 0.551888593098691D+02 -.307156957996101D+01 -.903088827254472D+01 -.543582441700319D+02
 0.623955333436481D+02 -.714304320559206D+00 -.201247689037841D+02 -.590566340654902D+02
0.302508539958D-06 0.000000000000D+00 0.000000000000D+00 0.652920084895D-05 0.000000000000D+00  6 22 -3 9900012 -13 -4 21 0 0.55693903D-01 0.71420278D-02 0.32653058D+04 0.32653058D+04 0.32653058D+04 0.12632311D+01  1  2  2  2  6  5       -4 0.740032085926D-05 0.100000000000D+01
0.235912282011D-07 0.000000000000D+00 -.580856222883D-09 0.652920084895D-05 0.000000000000D+00  6 22 -3 9900012 -13 -4 21 2 0.55693903D-01 0.71420278D-02 0.32653058D+04 0.32653058D+04 0.32653058D+04 0.12632311D+01  1  2  3  2  6  5       -4 0.920935276962D-06 0.100000000000D+01
-.457423490285D-07 0.000000000000D+00 0.000000000000D+00 0.652920084895D-05 0.000000000000D+00  6 22 -3 9900012 -13 -4 21 2 0.55693903D-01 0.71420278D-02 0.32653058D+04 0.32653058D+04 0.32653058D+04 0.12632311D+01  1  2 15  2  6  5       -4 -.178565280758D-05 0.100000000000D+01
0.142663862268D-05 0.000000000000D+00 0.000000000000D+00 0.652920084895D-05 0.000000000000D+00  6 22 -3 9900012 -13 -4 21 2 0.55693903D-01 0.71420278D-02 0.32766393D+04 0.32766393D+04 0.32766393D+04 0.12630526D+01  1  2 12  2  6  5       -4 0.556972054455D-04 0.100000000000D+01
-.217661167221D-05 0.000000000000D+00 0.000000000000D+00 0.652920084895D-05 0.000000000000D+00  6 22 -3 9900012 -13 -4 21 2 0.55693903D-01 0.71420278D-02 0.32653058D+04 0.32653058D+04 0.32653058D+04 0.12632311D+01  1  2  4  2  6  5       -4 -.849688051889D-04 0.100000000000D+01
-.373844786734D-05 0.000000000000D+00 0.000000000000D+00 0.652920084895D-05 0.000000000000D+00  6 22 -3 9900012 -13 -4 21 2 0.55693903D-01 0.71420278D-02 0.32653058D+04 0.32653058D+04 0.32653058D+04 0.12632311D+01  1  2  5  2  6  5       -4 -.145938502767D-03 0.100000000000D+01
0.613118148327D-05 0.000000000000D+00 -.000000000000D+00 0.652920084895D-05 0.000000000000D+00  6 22 -3 9900012 -13 -4 21 2 0.55693903D-01 0.71420278D-02 0.32653058D+04 0.32653058D+04 0.32653058D+04 0.12632311D+01  1  2  6  2  6  5       -4 0.239344101514D-03 0.100000000000D+01
0.129195654345D-05 0.000000000000D+00 0.000000000000D+00 0.652920084895D-05 0.372249595716D-06  6 22 -3 9900012 -13 -4 21 2 0.55693903D-01 0.71420278D-02 0.32766393D+04 0.32766393D+04 0.32766393D+04 0.12630526D+01  1  2 11  2  6  5       -4 0.504391006129D-04 0.100000000000D+01
  </mgrwgt>
  </event>
  <event>
  6     66 -.14665890E-05 0.35151502E+02 0.78161638E-02 0.12578286E+00
       22 -1    0    0    0    0 0.00000000E+00 0.00000000E+00 0.31403077E+02 0.31403077E+02 0.00000000E+00 0.0000E+00 0.9000E+01
       -3 -1    0    0    0  501 -.00000000E+00 -.00000000E+00 -.10754369E+04 0.10754369E+04 0.00000000E+00 0.0000E+00 0.9000E+01
       24  2    1    2    0    0 0.21008654E+02 -.28182699E+02 -.28548970E+02 0.90746914E+02 0.78640515E+02 0.0000E+00 0.0000E+00
  9900012  1    3    3    0    0 0.19374665E+02 0.40374493E+01 -.15684163E+02 0.56014923E+02 0.50000000E+02 0.0000E+00 0.9000E+01
      -13  1    3    3    0    0 0.16339888E+01 -.32220149E+02 -.12864808E+02 0.34731991E+02 0.00000000E+00 0.0000E+00 0.9000E+01
       -4  1    1    2    0  501 -.21008654E+02 0.28182699E+02 -.10154849E+04 0.10160931E+04 0.00000000E+00 0.0000E+00 0.9000E+01
#aMCatNLO 1  0  0  5  2 0.49598031D+01 0.00000000D+00  -5  6  0 0.00000000D+00 0.00000000D+00 0.00000000D+00 0.00000000D+00 0.00000000D+00
  <mgrwgt>
 -.5030076415D-05    1    2    0
 0.183771676848273D+03 0.000000000000000D+00 0.000000000000000D+00 0.183771676848273D+03
 0.183771676848273D+03 -.000000000000000D+00 -.000000000000000D+00 -.183771676848273D+03
 0.124134367032123D+03 0.193746651322968D+02 0.403744929472143D+01 0.111882359792193D+03
 0.680503724920334D+02 0.163398883649814D+01 -.322201485139258D+02 0.599169867944581D+02
 0.175358614172389D+03 -.210086539687949D+02 0.281826992192045D+02 -.171799346586651D+03
 0.000000000000000D+00 0.000000000000000D+00 0.000000000000000D+00 0.000000000000000D+00
 0.183771676848273D+03 0.000000000000000D+00 0.000000000000000D+00 0.183771676848273D+03
 0.183771676848273D+03 -.000000000000000D+00 -.000000000000000D+00 -.183771676848273D+03
 0.123526598883943D+03 0.192933950802880D+02 0.414647148313455D+01 0.111217769768819D+03
 0.677003809623945D+02 0.158944216862635D+01 -.321603900285077D+02 0.595527041305447D+02
 0.174910622723878D+03 -.196931309002558D+02 0.280647452490255D+02 -.171517569394822D+03
 0.140575112632943D+01 -.118970634865858D+01 -.508267036523111D-01 0.747095495458085D+00
-.179269035851D-05 0.000000000000D+00 0.000000000000D+00 0.103356325557D-04 0.000000000000D+00  6 22 -3 9900012 -13 -4 21 2 0.48312426D-02 0.16545184D+00 0.36715957D+04 0.36715957D+04 0.36715957D+04 0.12572327D+01  1  2 14  2  6  5       -4 -.503007641462D-05 0.100000000000D+01
  </mgrwgt>
  </event>
  <event>
  6     66 0.14665890E-05 0.36189174E+02 0.78161638E-02 0.12314310E+00
       22 -1    0    0    0    0 0.00000000E+00 0.00000000E+00 0.12205571E+03 0.12205571E+03 0.00000000E+00 0.0000E+00 0.9000E+01
       -1 -1    0    0    0  501 0.00000000E+00 0.00000000E+00 -.58330838E+02 0.58330838E+02 0.00000000E+00 0.0000E+00 0.9000E+01
       24  2    1    2    0    0 -.35880163E+02 0.47191334E+01 0.97091301E+02 0.13116282E+03 0.80419583E+02 0.0000E+00 0.0000E+00
  9900012  1    3    3    0    0 -.41800618E+02 0.13025826E+02 0.10043060E+03 0.12042952E+03 0.50000000E+02 0.0000E+00 0.9000E+01
      -13  1    3    3    0    0 0.59204552E+01 -.83066921E+01 -.33392981E+01 0.10733305E+02 0.00000000E+00 0.0000E+00 0.9000E+01
       -2  1    1    2    0  501 0.35880163E+02 -.47191334E+01 -.33366430E+02 0.49223724E+02 0.00000000E+00 0.0000E+00 0.9000E+01
#aMCatNLO 1  0  0  5  5 0.43657351D+02 0.00000000D+00  -5  6  0 0.00000000D+00 0.00000000D+00 0.00000000D+00 0.00000000D+00 0.00000000D+00
  <mgrwgt>
 0.6403697220D-04    3    2    0
 0.843777924312151D+02 0.000000000000000D+00 0.000000000000000D+00 0.843777924312151D+02
 0.843777924312151D+02 -.000000000000000D+00 -.000000000000000D+00 -.843777924312151D+02
 0.908055175088418D+02 -.418006179615128D+02 0.130258255146273D+02 0.618763138668320D+02
 0.127340387550436D+02 0.592045519358713D+01 -.830669207640775D+01 -.762252058465069D+01
 0.652160285985449D+02 0.358801627679257D+02 -.471913343821952D+01 -.542537932821813D+02
 0.000000000000000D+00 0.000000000000000D+00 0.000000000000000D+00 0.000000000000000D+00
 0.843777924312151D+02 0.000000000000000D+00 0.000000000000000D+00 0.843777924312151D+02
 0.843777924312151D+02 -.000000000000000D+00 -.000000000000000D+00 -.843777924312151D+02
 0.587515006952433D+02 -.167554647947237D+02 0.973176521341873D+01 0.240059571624803D+02
 0.221776423829622D+02 0.117668434935885D+02 -.907563748777070D+01 -.164627464310948D+02
 0.425448756675021D+02 0.138724066682961D+02 -.333013754310793D+02 0.225530745839882D+02
 0.452815661167226D+02 -.888378536716089D+01 0.326452477054312D+02 -.300962853153737D+02
0.704590805630D-06 0.000000000000D+00 0.000000000000D+00 0.113263918160D-05 0.000000000000D+00  6 22 -1 9900012 -13 -2 21 0 0.18777801D-01 0.89739751D-02 0.31837834D+04 0.31837834D+04 0.31837834D+04 0.12645364D+01  1  2  2  2  6  5       -2 0.790034890221D-04 0.100000000000D+01
0.132136410053D-07 0.000000000000D+00 -.135290710832D-08 0.113263918160D-05 0.000000000000D+00  6 22 -1 9900012 -13 -2 21 2 0.18777801D-01 0.89739751D-02 0.31837834D+04 0.31837834D+04 0.31837834D+04 0.12645364D+01  1  2  3  2  6  5       -2 0.236916056806D-05 0.100000000000D+01
-.966871645343D-07 0.000000000000D+00 0.000000000000D+00 0.113263918160D-05 0.000000000000D+00  6 22 -1 9900012 -13 -2 21 2 0.18777801D-01 0.89739751D-02 0.31837834D+04 0.31837834D+04 0.31837834D+04 0.12645364D+01  1  2 15  2  6  5       -2 -.173356773928D-04 0.100000000000D+01
  </mgrwgt>
  </event>
  <event>
  6     66 0.14665890E-05 0.28963646E+02 0.78161638E-02 0.12540736E+00
       22 -1    0    0    0    0 0.00000000E+00 0.00000000E+00 0.33443834E+03 0.33443834E+03 0.00000000E+00 0.0000E+00 0.9000E+01
       -1 -1    0    0    0  501 0.00000000E+00 0.00000000E+00 -.21359769E+02 0.21359769E+02 0.00000000E+00 0.0000E+00 0.9000E+01
       24  2    1    2    0    0 -.13062869E+02 -.37618478E+02 0.30107699E+03 0.31420693E+03 0.80578240E+02 0.0000E+00 0.0000E+00
  9900012  1    3    3    0    0 0.69158304E+01 -.31524255E+02 0.27182338E+03 0.27826167E+03 0.50000000E+02 0.0000E+00 0.9000E+01
      -13  1    3    3    0    0 -.19978699E+02 -.60942227E+01 0.29253606E+02 0.35945256E+02 0.00000000E+00 0.0000E+00 0.9000E+01
       -2  1    1    2    0  501 0.13062869E+02 0.37618478E+02 0.12001585E+02 0.41591182E+02 0.00000000E+00 0.0000E+00 0.9000E+01
#aMCatNLO 1  0  0  5  2 0.10049972D+02 0.00000000D+00  -5  6  0 0.00000000D+00 0.00000000D+00 0.00000000D+00 0.00000000D+00 0.00000000D+00
  <mgrwgt>
 0.6559653671D-04    7    2    0
 0.845193808009582D+02 0.000000000000000D+00 0.000000000000000D+00 0.845193808009582D+02
 0.845193808009582D+02 -.000000000000000D+00 -.000000000000000D+00 -.845193808009582D+02
 0.822468217158029D+02 0.691583039616453D+01 -.315242552545217D+02 0.567708754814501D+02
 0.214777776420144D+02 -.199786989298684D+02 -.609422269512250D+01 -.500069707658249D+01
 0.653141622440992D+02 0.130628685337039D+02 0.376184779496442D+02 -.517701784048676D+02
 0.000000000000000D+00 0.000000000000000D+00 0.000000000000000D+00 0.000000000000000D+00
 0.845193808009582D+02 0.000000000000000D+00 0.000000000000000D+00 0.845193808009582D+02
 0.845193808009582D+02 -.000000000000000D+00 -.000000000000000D+00 -.845193808009582D+02
 0.810814362317148D+02 0.722790609726527D+01 -.306255389541786D+02 0.555340709710070D+02
 0.214140132845064D+02 -.198967444298139D+02 -.585820994300610D+01 -.532549549876335D+01
 0.388162603513976D+02 0.169220261506386D+02 0.181470561172828D+02 -.298501499644604D+02
 0.277270517342976D+02 -.425318781808993D+01 0.183366927799020D+02 -.203584255077832D+02
0.258456857968D-06 0.000000000000D+00 0.000000000000D+00 0.786427577249D-06 0.000000000000D+00  6 22 -1 9900012 -13 -2 21 0 0.51452053D-01 0.32861183D-02 0.36132645D+04 0.36132645D+04 0.36132645D+04 0.12580465D+01  1  2  2  2  6  5       -2 0.259363003815D-04 0.100000000000D+01
0.350465327290D-08 0.000000000000D+00 -.496271193925D-09 0.786427577249D-06 0.000000000000D+00  6 22 -1 9900012 -13 -2 21 2 0.51452053D-01 0.32861183D-02 0.36132645D+04 0.36132645D+04 0.36132645D+04 0.12580465D+01  1  2  3  2  6  5       -2 0.556619491042D-06 0.100000000000D+01
-.363097514595D-07 0.000000000000D+00 0.000000000000D+00 0.786427577249D-06 0.000000000000D+00  6 22 -1 9900012 -13 -2 21 2 0.51452053D-01 0.32861183D-02 0.36132645D+04 0.36132645D+04 0.36132645D+04 0.12580465D+01  1  2 15  2  6  5       -2 -.576682307876D-05 0.100000000000D+01
0.337175597378D-06 0.000000000000D+00 0.000000000000D+00 0.786427577249D-06 0.000000000000D+00  6 22 -1 9900012 -13 -2 21 2 0.51452053D-01 0.32861183D-02 0.38102888D+04 0.38102888D+04 0.38102888D+04 0.12553547D+01  1  2 12  2  6  5       -2 0.536527293541D-04 0.100000000000D+01
-.218225889855D-06 0.000000000000D+00 0.000000000000D+00 0.786427577249D-06 0.000000000000D+00  6 22 -1 9900012 -13 -2 21 2 0.51452053D-01 0.32861183D-02 0.36132645D+04 0.36132645D+04 0.36132645D+04 0.12580465D+01  1  2  4  2  6  5       -2 -.346592870348D-04 0.100000000000D+01
-.324285377330D-06 0.000000000000D+00 0.000000000000D+00 0.786427577249D-06 0.000000000000D+00  6 22 -1 9900012 -13 -2 21 2 0.51452053D-01 0.32861183D-02 0.36132645D+04 0.36132645D+04 0.36132645D+04 0.12580465D+01  1  2  5  2  6  5       -2 -.515039713279D-04 0.100000000000D+01
0.487215180888D-06 0.000000000000D+00 -.000000000000D+00 0.786427577249D-06 0.000000000000D+00  6 22 -1 9900012 -13 -2 21 2 0.51452053D-01 0.32861183D-02 0.36132645D+04 0.36132645D+04 0.36132645D+04 0.12580465D+01  1  2  6  2  6  5       -2 0.773809689279D-04 0.100000000000D+01
  </mgrwgt>
  </event>
</LesHouchesEvents>
