<LesHouchesEvents version="3.0">
  <!--
  <scalesfunctionalform>
    muR  H_T/2 := sum_i mT(i)/2, i=final state
    muF1 H_T/2 := sum_i mT(i)/2, i=final state
    muF2 H_T/2 := sum_i mT(i)/2, i=final state
    QES  H_T/2 := sum_i mT(i)/2, i=final state
  </scalesfunctionalform>
PYTHIA8   
  -->
  <header>
      124
  </header>
  <init>
   2212   2212 0.65000000D+04 0.65000000D+04 -1 -1  82200  82200 -4   1
 0.66228841D-04 0.24805629D-06 0.10089070D-05     66
  </init>
  <event>
  6     66 0.10089070E-05 0.24367682E+02 0.78161638E-02 0.12814855E+00
        1 -1    0    0  501    0 0.00000000E+00 0.00000000E+00 0.90266649E+03 0.90266649E+03 0.00000000E+00 0.0000E+00 0.9000E+01
       22 -1    0    0    0    0 0.00000000E+00 0.00000000E+00 -.40315333E+01 0.40315333E+01 0.00000000E+00 0.0000E+00 0.9000E+01
      -24  2    1    2    0    0 -.75677538E+01 -.23162750E+02 0.47309928E+03 0.48046522E+03 0.80188043E+02 0.0000E+00 0.0000E+00
  9900012  1    3    3    0    0 0.13682120E+02 -.27950108E+02 0.39572302E+03 0.40008139E+03 0.50000000E+02 0.0000E+00 0.9000E+01
       13  1    3    3    0    0 -.21249874E+02 0.47873577E+01 0.77376257E+02 0.80383836E+02 0.00000000E+00 0.0000E+00 0.9000E+01
        2  1    1    2  501    0 0.75677538E+01 0.23162750E+02 0.42553568E+03 0.42623280E+03 0.00000000E+00 0.0000E+00 0.9000E+01
#aMCatNLO 1  0  0  5  1 0.86214540D+01 0.00000000D+00  -5  6  0 0.00000000D+00 0.00000000D+00 0.00000000D+00 0.00000000D+00 0.00000000D+00
  <mgrwgt>
 0.2396191163D-03    8    2    0
 0.603252018952002D+02 0.000000000000000D+00 0.000000000000000D+00 0.603252018952002D+02
 0.603252018952002D+02 -.000000000000000D+00 -.000000000000000D+00 -.603252018952002D+02
 0.591996796172223D+02 0.136821203810205D+02 -.279501081037726D+02 -.601607061531523D+01
 0.277732668620546D+02 -.212498741617318D+02 0.478735771501805D+01 -.172301597906091D+02
 0.336774573111234D+02 0.756775378071131D+01 0.231627503887545D+02 0.232462304059244D+02
 0.000000000000000D+00 0.000000000000000D+00 0.000000000000000D+00 0.000000000000000D+00
 0.603252018952002D+02 0.000000000000000D+00 0.000000000000000D+00 0.603252018952002D+02
 0.603252018952002D+02 -.000000000000000D+00 -.000000000000000D+00 -.603252018952002D+02
 0.584144633678275D+02 0.142256031391354D+02 -.262866613490837D+02 -.434662869332921D+01
 0.272464255984430D+02 -.209956338684291D+02 0.556551522690017D+01 -.164491977498450D+02
 0.131772255086719D+02 0.100780949012942D+02 0.360482743907976D+01 0.768612349636405D+01
 0.218122893154580D+02 -.330806417200058D+01 0.171163186831038D+02 0.131097029468101D+02
0.411359821650D-06 0.000000000000D+00 0.000000000000D+00 0.173207331121D-06 0.000000000000D+00  6 1 22 9900012 13 2 21 0 0.13887177D+00 0.62023589D-03 0.27585263D+04 0.27585263D+04 0.27585263D+04 0.12720218D+01  1  2  2  2  6  5        2 0.170119634144D-03 0.100000000000D+01
0.119350639543D-07 0.000000000000D+00 -.789865014333D-09 0.173207331121D-06 0.000000000000D+00  6 1 22 9900012 13 2 21 2 0.13887177D+00 0.62023589D-03 0.27585263D+04 0.27585263D+04 0.27585263D+04 0.12720218D+01  1  2  3  2  6  5        2 0.798631510360D-05 0.100000000000D+01
-.404014121748D-07 0.000000000000D+00 0.000000000000D+00 0.173207331121D-06 0.000000000000D+00  6 1 22 9900012 13 2 21 2 0.13887177D+00 0.62023589D-03 0.27585263D+04 0.27585263D+04 0.27585263D+04 0.12720218D+01  1  2 15  2  6  5        2 -.270344934468D-04 0.100000000000D+01
0.111701638879D-06 0.000000000000D+00 0.000000000000D+00 0.173207331121D-06 0.000000000000D+00  6 1 22 9900012 13 2 21 2 0.13887177D+00 0.62023589D-03 0.29219295D+04 0.29219295D+04 0.29219295D+04 0.12690004D+01  1  2 12  2  6  5        2 0.747950846825D-04 0.100000000000D+01
-.567147584272D-07 0.000000000000D+00 0.000000000000D+00 0.173207331121D-06 0.000000000000D+00  6 1 22 9900012 13 2 21 2 0.13887177D+00 0.62023589D-03 0.27585263D+04 0.27585263D+04 0.27585263D+04 0.12720218D+01  1  2  4  2  6  5        2 -.379505240659D-04 0.100000000000D+01
-.991022667987D-07 0.000000000000D+00 0.000000000000D+00 0.173207331121D-06 0.000000000000D+00  6 1 22 9900012 13 2 21 2 0.13887177D+00 0.62023589D-03 0.27585263D+04 0.27585263D+04 0.27585263D+04 0.12720218D+01  1  2  5  2  6  5        2 -.663140083009D-04 0.100000000000D+01
0.176318499300D-06 0.000000000000D+00 -.000000000000D+00 0.173207331121D-06 0.000000000000D+00  6 1 22 9900012 13 2 21 2 0.13887177D+00 0.62023589D-03 0.27585263D+04 0.27585263D+04 0.27585263D+04 0.12720218D+01  1  2  6  2  6  5        2 0.117983037158D-03 0.100000000000D+01
0.508829110417D-10 0.000000000000D+00 0.000000000000D+00 0.173207331121D-06 0.264905322997D-08  6 1 22 9900012 13 2 21 2 0.13887177D+00 0.62023589D-03 0.29219295D+04 0.29219295D+04 0.29219295D+04 0.12690004D+01  1  2 11  2  6  5        2 0.340710456754D-07 0.100000000000D+01
  </mgrwgt>
  </event>
  <event>
  6     66 0.10089070E-05 0.28759706E+02 0.78161638E-02 0.12158994E+00
        1 -1    0    0  501    0 0.00000000E+00 0.00000000E+00 0.49622955E+03 0.49622955E+03 0.00000000E+00 0.0000E+00 0.9000E+01
       22 -1    0    0    0    0 0.00000000E+00 0.00000000E+00 -.10652124E+03 0.10652124E+03 0.00000000E+00 0.0000E+00 0.9000E+01
      -24  2    1    2    0    0 -.56181886E+02 -.81000795E+01 -.81983546E+02 0.12765583E+03 0.79703779E+02 0.0000E+00 0.0000E+00
  9900012  1    3    3    0    0 -.14781461E+02 -.12449778E+02 -.31321535E+02 0.62084838E+02 0.50000000E+02 0.0000E+00 0.9000E+01
       13  1    3    3    0    0 -.41400425E+02 0.43496988E+01 -.50662011E+02 0.65570987E+02 0.00000000E+00 0.0000E+00 0.9000E+01
        2  1    1    2  501    0 0.56181886E+02 0.81000795E+01 0.47169186E+03 0.47509497E+03 0.00000000E+00 0.0000E+00 0.9000E+01
#aMCatNLO 1  0  0  5  1 0.13476074D+02 0.00000000D+00  -5  6  0 0.00000000D+00 0.00000000D+00 0.00000000D+00 0.00000000D+00 0.00000000D+00
  <mgrwgt>
 0.3338529927D-03    7    2    0
 0.229910823126589D+03 0.000000000000000D+00 0.000000000000000D+00 0.229910823126589D+03
 0.229910823126589D+03 -.000000000000000D+00 -.000000000000000D+00 -.229910823126589D+03
 0.107928690028600D+03 -.147814611563225D+02 -.124497782967429D+02 -.936755761003669D+02
 0.128889911877319D+03 -.414004246049907D+02 0.434969880416151D+01 -.121982352603082D+03
 0.223003044347258D+03 0.561818857613132D+02 0.810007949258136D+01 0.215657928703449D+03
 0.000000000000000D+00 0.000000000000000D+00 0.000000000000000D+00 0.000000000000000D+00
 0.229910823126589D+03 0.000000000000000D+00 0.000000000000000D+00 0.229910823126589D+03
 0.229910823126589D+03 -.000000000000000D+00 -.000000000000000D+00 -.229910823126589D+03
 0.106085140650072D+03 -.142511281260140D+02 -.123733170024159D+02 -.916398572687624D+02
 0.126391920610835D+03 -.407678281630840D+02 0.444090402799358D+01 -.119554088821650D+03
 0.216485218243309D+03 0.442571828441544D+02 0.661678923361291D+01 0.211809748559385D+03
 0.108593667489623D+02 0.107617734449436D+02 0.131562374080940D+01 -.615802468973166D+00
0.804261885591D-05 0.000000000000D+00 0.000000000000D+00 0.480507179964D-04 0.000000000000D+00  6 1 22 9900012 13 2 21 0 0.76343008D-01 0.16387883D-01 0.57756981D+04 0.57756981D+04 0.57756981D+04 0.12348566D+01  1  2  2  2  6  5        2 0.961564935593D-04 0.100000000000D+01
0.265689909156D-06 0.000000000000D+00 -.154428870384D-07 0.480507179964D-04 0.000000000000D+00  6 1 22 9900012 13 2 21 2 0.76343008D-01 0.16387883D-01 0.57756981D+04 0.57756981D+04 0.57756981D+04 0.12348566D+01  1  2  3  2  6  5        2 0.484383355635D-05 0.100000000000D+01
-.123889496638D-05 0.000000000000D+00 0.000000000000D+00 0.480507179964D-04 0.000000000000D+00  6 1 22 9900012 13 2 21 2 0.76343008D-01 0.16387883D-01 0.57756981D+04 0.57756981D+04 0.57756981D+04 0.12348566D+01  1  2 15  2  6  5        2 -.225864844849D-04 0.100000000000D+01
0.128295417672D-04 0.000000000000D+00 0.000000000000D+00 0.480507179964D-04 0.000000000000D+00  6 1 22 9900012 13 2 21 2 0.76343008D-01 0.16387883D-01 0.56282504D+04 0.56282504D+04 0.56282504D+04 0.12361004D+01  1  2 12  2  6  5        2 0.234054343858D-03 0.100000000000D+01
-.239836653144D-06 0.000000000000D+00 0.000000000000D+00 0.480507179964D-04 0.000000000000D+00  6 1 22 9900012 13 2 21 2 0.76343008D-01 0.16387883D-01 0.57756981D+04 0.57756981D+04 0.57756981D+04 0.12348566D+01  1  2  4  2  6  5        2 -.437249887372D-05 0.100000000000D+01
-.283242147479D-04 0.000000000000D+00 0.000000000000D+00 0.480507179964D-04 0.000000000000D+00  6 1 22 9900012 13 2 21 2 0.76343008D-01 0.16387883D-01 0.57756981D+04 0.57756981D+04 0.57756981D+04 0.12348566D+01  1  2  5  2  6  5        2 -.516383111007D-03 0.100000000000D+01
0.297370329156D-04 0.000000000000D+00 -.000000000000D+00 0.480507179964D-04 0.000000000000D+00  6 1 22 9900012 13 2 21 2 0.76343008D-01 0.16387883D-01 0.57756981D+04 0.57756981D+04 0.57756981D+04 0.12348566D+01  1  2  6  2  6  5        2 0.542140416099D-03 0.100000000000D+01
  </mgrwgt>
  </event>
  <event>
  6     66 0.10089070E-05 0.60380465E+02 0.78161638E-02 0.11983649E+00
        1 -1    0    0  501    0 0.00000000E+00 0.00000000E+00 0.89796385E+03 0.89796385E+03 0.00000000E+00 0.0000E+00 0.9000E+01
       22 -1    0    0    0    0 0.00000000E+00 0.00000000E+00 -.87120326E+01 0.87120326E+01 0.00000000E+00 0.0000E+00 0.9000E+01
      -24  2    1    2    0    0 0.25248002E+02 0.64944064E+02 0.47801610E+03 0.48957876E+03 0.79578760E+02 0.0000E+00 0.0000E+00
  9900012  1    3    3    0    0 0.16450826E+02 0.14570066E+02 0.25171429E+03 0.25757135E+03 0.50000000E+02 0.0000E+00 0.9000E+01
       13  1    3    3    0    0 0.87971760E+01 0.50373998E+02 0.22630181E+03 0.23200741E+03 0.00000000E+00 0.0000E+00 0.9000E+01
        2  1    1    2  501    0 -.25248002E+02 -.64944064E+02 0.41123572E+03 0.41709712E+03 0.00000000E+00 0.0000E+00 0.9000E+01
#aMCatNLO 1  0  0  5  1 0.25730025D+02 0.00000000D+00  -5  6  0 0.00000000D+00 0.00000000D+00 0.00000000D+00 0.00000000D+00 0.00000000D+00
  <mgrwgt>
 0.3272118022D-03    5    2    0
 0.884482356078504D+02 0.000000000000000D+00 0.000000000000000D+00 0.884482356078504D+02
 0.884482356078504D+02 -.000000000000000D+00 -.000000000000000D+00 -.884482356078504D+02
 0.548136495440500D+02 0.164508258611331D+02 0.145700661822051D+02 -.464969636328802D+01
 0.515342621749609D+02 0.879717600533448D+01 0.503739976519706D+02 -.639141868508330D+01
 0.705485594966900D+02 -.252480018664676D+02 -.649440638341757D+02 0.110411150483713D+02
 0.000000000000000D+00 0.000000000000000D+00 0.000000000000000D+00 0.000000000000000D+00
 0.884482356078504D+02 0.000000000000000D+00 0.000000000000000D+00 0.884482356078504D+02
 0.884482356078504D+02 -.000000000000000D+00 -.000000000000000D+00 -.884482356078504D+02
 0.527402803818057D+02 0.140594970691877D+02 0.841898101776410D+01 -.360395276543845D+01
 0.456319653369307D+02 0.663680494670290D+01 0.448169925202649D+02 -.544667440267724D+01
 0.295237182855833D+02 0.878671849621265D+01 -.231865172103403D+02 -.160258834118245D+02
 0.490005072113812D+02 -.294830205121033D+02 -.300494563276887D+02 0.250765105799402D+02
0.233784420091D-05 0.000000000000D+00 0.000000000000D+00 0.342020805543D-06 0.000000000000D+00  6 1 22 9900012 13 2 21 0 0.13814828D+00 0.13403127D-02 0.76940689D+04 0.76940689D+04 0.76940689D+04 0.12213173D+01  1  2  2  2  6  5        2 0.384409491627D-03 0.100000000000D+01
-.728450928213D-07 0.000000000000D+00 -.448896865000D-08 0.342020805543D-06 0.000000000000D+00  6 1 22 9900012 13 2 21 2 0.13814828D+00 0.13403127D-02 0.76940689D+04 0.76940689D+04 0.76940689D+04 0.12213173D+01  1  2  3  2  6  5        2 -.178663503156D-04 0.100000000000D+01
-.259619787184D-06 0.000000000000D+00 0.000000000000D+00 0.342020805543D-06 0.000000000000D+00  6 1 22 9900012 13 2 21 2 0.13814828D+00 0.13403127D-02 0.76940689D+04 0.76940689D+04 0.76940689D+04 0.12213173D+01  1  2 15  2  6  5        2 -.636756422025D-04 0.100000000000D+01
0.387646240086D-06 0.000000000000D+00 0.000000000000D+00 0.342020805543D-06 0.000000000000D+00  6 1 22 9900012 13 2 21 2 0.13814828D+00 0.13403127D-02 0.67910823D+04 0.67910823D+04 0.67910823D+04 0.12271552D+01  1  2 12  2  6  5        2 0.950939619778D-04 0.100000000000D+01
-.288462130259D-06 0.000000000000D+00 0.000000000000D+00 0.342020805543D-06 0.000000000000D+00  6 1 22 9900012 13 2 21 2 0.13814828D+00 0.13403127D-02 0.76940689D+04 0.76940689D+04 0.76940689D+04 0.12213173D+01  1  2  5  2  6  5        2 -.707496589322D-04 0.100000000000D+01
  </mgrwgt>
  </event>
  <event>
  6     66 0.10089070E-05 0.27451925E+02 0.78161638E-02 0.11860387E+00
        1 -1    0    0  501    0 0.00000000E+00 0.00000000E+00 0.11481813E+03 0.11481813E+03 0.00000000E+00 0.0000E+00 0.9000E+01
       22 -1    0    0    0    0 0.00000000E+00 0.00000000E+00 -.43658991E+03 0.43658991E+03 0.00000000E+00 0.0000E+00 0.9000E+01
      -24  2    1    2    0    0 -.82277052E+01 0.26189942E+02 -.42991070E+03 0.43983908E+03 0.88778364E+02 0.0000E+00 0.0000E+00
  9900012  1    3    3    0    0 0.16116131E+01 0.41411147E+02 -.22660782E+03 0.23572989E+03 0.50000000E+02 0.0000E+00 0.9000E+01
       13  1    3    3    0    0 -.98393183E+01 -.15221205E+02 -.20330288E+03 0.20410919E+03 0.00000000E+00 0.0000E+00 0.9000E+01
        2  1    1    2  501    0 0.82277052E+01 -.26189942E+02 0.10813891E+03 0.11156896E+03 0.00000000E+00 0.0000E+00 0.9000E+01
#aMCatNLO 1  0  0  1  5 0.23235338D+02 0.00000000D+00  -5  6  0 0.00000000D+00 0.00000000D+00 0.00000000D+00 0.00000000D+00 0.00000000D+00
  <mgrwgt>
 0.8205980377D-04    4    2    0
 0.223893804633737D+03 0.000000000000000D+00 0.000000000000000D+00 0.223893804633737D+03
 0.223893804633737D+03 0.000000000000000D+00 0.000000000000000D+00 -.223893804633737D+03
 0.127442911373770D+03 0.161161308175880D+01 0.414111470174944D+02 -.109654982857109D+03
 0.105251491676427D+03 -.983931832533791D+01 -.152212050798082D+02 -.103679213109110D+03
 0.215093206217276D+03 0.822770524357911D+01 -.261899419376862D+02 0.213334195966218D+03
 0.000000000000000D+00 0.000000000000000D+00 0.000000000000000D+00 -.000000000000000D+00
 0.240492833980216D+03 0.000000000000000D+00 0.000000000000000D+00 0.240492833980216D+03
 0.255739187917130D+03 0.000000000000000D+00 0.000000000000000D+00 -.255739187917130D+03
 0.124210011965182D+03 -.271878306583438D+01 0.299419442528168D+02 -.109654982857109D+03
 0.107482412562913D+03 -.135000033162279D+02 -.249166548694227D+02 -.103679213109110D+03
 0.218225649636221D+03 0.771235916020069D+00 -.459386567692164D+02 0.213334195966218D+03
 0.463139477330301D+02 0.154475504660422D+02 0.409133673858223D+02 -.152463539369141D+02
0.115682794465D-04 0.000000000000D+00 0.000000000000D+00 0.714419604424D-06 0.000000000000D+00  6 1 22 9900012 13 2 21 0 0.17664327D-01 0.67167679D-01 0.30535875D+04 0.30535875D+04 0.30535875D+04 0.12667017D+01  1  2  2  1  6  1        1 0.891563748951D-04 0.100000000000D+01
0.110355766259D-05 0.000000000000D+00 -.222126195362D-07 0.714419604424D-06 0.000000000000D+00  6 1 22 9900012 13 2 21 2 0.17664327D-01 0.67167679D-01 0.30535875D+04 0.30535875D+04 0.30535875D+04 0.12667017D+01  1  2  3  1  6  1        1 0.136466904372D-04 0.100000000000D+01
-.166015575611D-05 0.000000000000D+00 0.000000000000D+00 0.714419604424D-06 0.000000000000D+00  6 1 22 9900012 13 2 21 2 0.17664327D-01 0.67167679D-01 0.30535875D+04 0.30535875D+04 0.30535875D+04 0.12667017D+01  1  2 15  1  6  1        1 -.205296310734D-04 0.100000000000D+01
-.172755122079D-07 0.000000000000D+00 0.000000000000D+00 0.714419604424D-06 0.000000000000D+00  6 1 22 9900012 13 2 21 2 0.17664327D-01 0.67167679D-01 0.30535875D+04 0.30535875D+04 0.30535875D+04 0.12667017D+01  1  2  4  1  6  1        1 -.213630492757D-06 0.100000000000D+01
  </mgrwgt>
  </event>
  <event>
  6     66 0.10089070E-05 0.21589949E+02 0.78161638E-02 0.11656611E+00
        1 -1    0    0  501    0 0.00000000E+00 0.00000000E+00 0.71575567E+03 0.71575567E+03 0.00000000E+00 0.0000E+00 0.9000E+01
       22 -1    0    0    0    0 0.00000000E+00 0.00000000E+00 -.30356213E+03 0.30356213E+03 0.00000000E+00 0.0000E+00 0.9000E+01
      -24  2    1    2    0    0 0.21589258E+02 0.17278254E+00 -.29848902E+03 0.30830738E+03 0.74105450E+02 0.0000E+00 0.0000E+00
  9900012  1    3    3    0    0 0.43484873E+00 0.80989917E+01 -.15542718E+03 0.16347291E+03 0.50000000E+02 0.0000E+00 0.9000E+01
       13  1    3    3    0    0 0.21154409E+02 -.79262091E+01 -.14306184E+03 0.14483447E+03 0.00000000E+00 0.0000E+00 0.9000E+01
        2  1    1    2  501    0 -.21589258E+02 -.17278254E+00 0.71068255E+03 0.71101042E+03 0.00000000E+00 0.0000E+00 0.9000E+01
#aMCatNLO 1  0  0  5  1 0.44190984D+00 0.00000000D+00  -5  6  0 0.00000000D+00 0.00000000D+00 0.00000000D+00 0.00000000D+00 0.00000000D+00
  <mgrwgt>
 0.2588743915D-02    6    2    0
 0.466129078211795D+03 0.000000000000000D+00 0.000000000000000D+00 0.466129078211795D+03
 0.466129078211795D+03 -.000000000000000D+00 -.000000000000000D+00 -.466129078211795D+03
 0.247460339602603D+03 0.434848729251695D+00 0.809899166019264D+01 -.242220636851831D+03
 0.221614069588115D+03 0.211544092788599D+02 -.792620912376072D+01 -.220459660746348D+03
 0.463183747232872D+03 -.215892580081121D+02 -.172782536431921D+00 0.462680297598179D+03
 0.000000000000000D+00 -.000000000000000D+00 0.000000000000000D+00 0.000000000000000D+00
 0.466129078211795D+03 0.000000000000000D+00 0.000000000000000D+00 0.466129078211795D+03
 0.466129078211795D+03 -.000000000000000D+00 -.000000000000000D+00 -.466129078211795D+03
 0.243100068376084D+03 0.226926280820096D+00 0.809732762115954D+01 -.237764642102890D+03
 0.217627430423365D+03 0.209682381842306D+02 -.792769908297693D+01 -.216469820176799D+03
 0.255123233720309D+03 0.187284462930704D+02 -.543585859905823D+02 0.248560362512729D+03
 0.216407423903833D+03 -.399236107581217D+02 0.541889574523997D+02 0.205674099766960D+03
0.795310438927D-03 0.000000000000D+00 0.000000000000D+00 0.562801816007D-04 0.000000000000D+00  6 1 22 9900012 13 2 21 0 0.11011626D+00 0.46701867D-01 0.22483754D+04 0.22483754D+04 0.22483754D+04 0.12829328D+01  1  2  2  2  6  5        2 0.111881580774D-02 0.100000000000D+01
0.938272511965D-04 0.000000000000D+00 -.152710074776D-05 0.562801816007D-04 0.000000000000D+00  6 1 22 9900012 13 2 21 2 0.11011626D+00 0.46701867D-01 0.22483754D+04 0.22483754D+04 0.22483754D+04 0.12829328D+01  1  2  3  2  6  5        2 0.217249454439D-03 0.100000000000D+01
-.113208981656D-03 0.000000000000D+00 0.000000000000D+00 0.562801816007D-04 0.000000000000D+00  6 1 22 9900012 13 2 21 2 0.11011626D+00 0.46701867D-01 0.22483754D+04 0.22483754D+04 0.22483754D+04 0.12829328D+01  1  2 15  2  6  5        2 -.262126292615D-03 0.100000000000D+01
-.698898948127D-05 0.000000000000D+00 0.000000000000D+00 0.562801816007D-04 0.000000000000D+00  6 1 22 9900012 13 2 21 2 0.11011626D+00 0.46701867D-01 0.22483754D+04 0.22483754D+04 0.22483754D+04 0.12829328D+01  1  2  4  2  6  5        2 -.161824430805D-04 0.100000000000D+01
-.118538458420D-02 0.000000000000D+00 0.000000000000D+00 0.562801816007D-04 0.000000000000D+00  6 1 22 9900012 13 2 21 2 0.11011626D+00 0.46701867D-01 0.22483754D+04 0.22483754D+04 0.22483754D+04 0.12829328D+01  1  2  5  2  6  5        2 -.274466267458D-02 0.100000000000D+01
0.184659838854D-02 0.000000000000D+00 -.000000000000D+00 0.562801816007D-04 0.000000000000D+00  6 1 22 9900012 13 2 21 2 0.11011626D+00 0.46701867D-01 0.22483754D+04 0.22483754D+04 0.22483754D+04 0.12829328D+01  1  2  6  2  6  5        2 0.427565006289D-02 0.100000000000D+01
  </mgrwgt>
  </event>
  <event>
  6     66 0.10089070E-05 0.38735015E+02 0.78161638E-02 0.12148286E+00
        1 -1    0    0  501    0 0.00000000E+00 0.00000000E+00 0.21954883E+03 0.21954883E+03 0.00000000E+00 0.0000E+00 0.9000E+01
       22 -1    0    0    0    0 -.00000000E+00 -.00000000E+00 -.26588115E+03 0.26588115E+03 0.00000000E+00 0.0000E+00 0.9000E+01
      -24  2    1    2    0    0 0.18483787E+02 -.34040432E+02 -.25663353E+03 0.27159125E+03 0.80003995E+02 0.0000E+00 0.0000E+00
  9900012  1    3    3    0    0 -.42355951E-01 -.30955215E+01 -.11499758E+03 0.12543535E+03 0.50000000E+02 0.0000E+00 0.9000E+01
       13  1    3    3    0    0 0.18526143E+02 -.30944910E+02 -.14163596E+03 0.14615591E+03 0.00000000E+00 0.0000E+00 0.9000E+01
        2  1    1    2  501    0 -.18483787E+02 0.34040432E+02 0.21030121E+03 0.21383873E+03 0.00000000E+00 0.0000E+00 0.9000E+01
#aMCatNLO 1  0  0  5  5 0.28441947D+02 0.00000000D+00  -5  6  0 0.00000000D+00 0.00000000D+00 0.00000000D+00 0.00000000D+00 0.00000000D+00
  <mgrwgt>
 0.1777413830D-03    6    2    0
 0.241606904112045D+03 0.000000000000000D+00 0.000000000000000D+00 0.241606904112045D+03
 0.241606904112045D+03 -.000000000000000D+00 -.000000000000000D+00 -.241606904112045D+03
 0.114984243737025D+03 -.423559506874997D-01 -.309552154054165D+01 -.103497788672711D+03
 0.133245649191636D+03 0.185261431789678D+02 -.309449103425413D+02 -.128271577410216D+03
 0.234983915295428D+03 -.184837872282803D+02 0.340404318830829D+02 0.231769366082927D+03
 0.000000000000000D+00 -.000000000000000D+00 0.000000000000000D+00 0.000000000000000D+00
 0.241606904112045D+03 0.000000000000000D+00 0.000000000000000D+00 0.241606904112045D+03
 0.241606904112045D+03 -.000000000000000D+00 -.000000000000000D+00 -.241606904112045D+03
 0.113224661294062D+03 -.197893347687403D+00 -.280907806970649D+01 -.101547495507158D+03
 0.130970109046030D+03 0.183460650559119D+02 -.306132717553940D+02 -.126013566543145D+03
 0.168819305346161D+03 0.148073880674902D+02 0.280723982014806D+02 0.165809045517416D+03
 0.701997325378361D+02 -.329555597757147D+02 0.534995162361987D+01 0.617520165328869D+02
0.114152515137D-04 0.000000000000D+00 0.000000000000D+00 0.920762915150D-04 0.000000000000D+00  6 1 22 9900012 13 2 21 0 0.33776743D-01 0.40904792D-01 0.38998429D+04 0.38998429D+04 0.38998429D+04 0.12541825D+01  1  2  2  2  6  5        2 0.922847545291D-04 0.100000000000D+01
0.690253546154D-06 0.000000000000D+00 -.219187857586D-07 0.920762915150D-04 0.000000000000D+00  6 1 22 9900012 13 2 21 2 0.33776743D-01 0.40904792D-01 0.38998429D+04 0.38998429D+04 0.38998429D+04 0.12541825D+01  1  2  3  2  6  5        2 0.877757590311D-05 0.100000000000D+01
-.159911950079D-05 0.000000000000D+00 0.000000000000D+00 0.920762915150D-04 0.000000000000D+00  6 1 22 9900012 13 2 21 2 0.33776743D-01 0.40904792D-01 0.38998429D+04 0.38998429D+04 0.38998429D+04 0.12541825D+01  1  2 15  2  6  5        2 -.203351259470D-04 0.100000000000D+01
-.139460299999D-05 0.000000000000D+00 0.000000000000D+00 0.920762915150D-04 0.000000000000D+00  6 1 22 9900012 13 2 21 2 0.33776743D-01 0.40904792D-01 0.38998429D+04 0.38998429D+04 0.38998429D+04 0.12541825D+01  1  2  4  2  6  5        2 -.177344017359D-04 0.100000000000D+01
-.264858265217D-04 0.000000000000D+00 0.000000000000D+00 0.920762915150D-04 0.000000000000D+00  6 1 22 9900012 13 2 21 2 0.33776743D-01 0.40904792D-01 0.38998429D+04 0.38998429D+04 0.38998429D+04 0.12541825D+01  1  2  5  2  6  5        2 -.336805734569D-03 0.100000000000D+01
0.355094584797D-04 0.000000000000D+00 -.000000000000D+00 0.920762915150D-04 0.000000000000D+00  6 1 22 9900012 13 2 21 2 0.33776743D-01 0.40904792D-01 0.38998429D+04 0.38998429D+04 0.38998429D+04 0.12541825D+01  1  2  6  2  6  5        2 0.451554314818D-03 0.100000000000D+01
  </mgrwgt>
  </event>
  <event>
  6     66 0.10089070E-05 0.29602607E+02 0.78161638E-02 0.12576699E+00
        1 -1    0    0  501    0 0.00000000E+00 0.00000000E+00 0.11346752E+04 0.11346752E+04 0.00000000E+00 0.0000E+00 0.9000E+01
       22 -1    0    0    0    0 0.00000000E+00 0.00000000E+00 -.68565571E+01 0.68565571E+01 0.00000000E+00 0.0000E+00 0.9000E+01
      -24  2    1    2    0    0 -.84638334E+01 -.34730336E+02 0.28365589E+03 0.29661248E+03 0.78996621E+02 0.0000E+00 0.0000E+00
  9900012  1    3    3    0    0 0.53664327E+01 -.46464172E+02 0.21814060E+03 0.22863297E+03 0.50000000E+02 0.0000E+00 0.9000E+01
       13  1    3    3    0    0 -.13830266E+02 0.11733836E+02 0.65515292E+02 0.67979501E+02 0.00000000E+00 0.0000E+00 0.9000E+01
        2  1    1    2  501    0 0.84638334E+01 0.34730336E+02 0.84416273E+03 0.84491925E+03 0.00000000E+00 0.0000E+00 0.9000E+01
#aMCatNLO 1  0  0  5  1 0.46703379D+01 0.00000000D+00  -5  6  0 0.00000000D+00 0.00000000D+00 0.00000000D+00 0.00000000D+00 0.00000000D+00
  <mgrwgt>
 0.2371619810D-03    6    2    0
 0.882041102483852D+02 0.000000000000000D+00 0.000000000000000D+00 0.882041102483852D+02
 0.882041102483852D+02 -.000000000000000D+00 -.000000000000000D+00 -.882041102483852D+02
 0.848530241126559D+02 0.536643268201132D+01 -.464641716736209D+02 -.501230271633377D+02
 0.210386577077456D+02 -.138302660682834D+02 0.117338355516434D+02 -.106614240076626D+02
 0.705165386763689D+02 0.846383338627204D+01 0.347303361219775D+02 0.607844511710003D+02
 0.000000000000000D+00 0.000000000000000D+00 0.000000000000000D+00 0.000000000000000D+00
 0.882041102483852D+02 0.000000000000000D+00 0.000000000000000D+00 0.882041102483852D+02
 0.882041102483852D+02 -.000000000000000D+00 -.000000000000000D+00 -.882041102483852D+02
 0.836786432253390D+02 0.555007069747471D+01 -.457106348646189D+02 -.488041996918307D+02
 0.209500469402783D+02 -.137845137030737D+02 0.119215749540617D+02 -.103328456576262D+02
 0.370478053160384D+01 -.562873663994098D+00 0.346842729951065D+01 -.117413120806100D+01
 0.680747497995494D+02 0.879731666959309D+01 0.303206326110465D+02 0.603111765575179D+02
0.140684367434D-05 0.000000000000D+00 0.000000000000D+00 0.666994667578D-06 0.000000000000D+00  6 1 22 9900012 13 2 21 0 0.17456541D+00 0.10548549D-02 0.37424374D+04 0.37424374D+04 0.37424374D+04 0.12562637D+01  1  2  2  2  6  5        2 0.203080531979D-03 0.100000000000D+01
0.517596788965D-07 0.000000000000D+00 -.270132506995D-08 0.666994667578D-06 0.000000000000D+00  6 1 22 9900012 13 2 21 2 0.17456541D+00 0.10548549D-02 0.37424374D+04 0.37424374D+04 0.37424374D+04 0.12562637D+01  1  2  3  2  6  5        2 0.117916780023D-04 0.100000000000D+01
-.187707556263D-06 0.000000000000D+00 0.000000000000D+00 0.666994667578D-06 0.000000000000D+00  6 1 22 9900012 13 2 21 2 0.17456541D+00 0.10548549D-02 0.37424374D+04 0.37424374D+04 0.37424374D+04 0.12562637D+01  1  2 15  2  6  5        2 -.427627664862D-04 0.100000000000D+01
0.523091072301D-07 0.000000000000D+00 0.000000000000D+00 0.666994667578D-06 0.000000000000D+00  6 1 22 9900012 13 2 21 2 0.17456541D+00 0.10548549D-02 0.36773336D+04 0.36773336D+04 0.36773336D+04 0.12571534D+01  1  2 12  2  6  5        2 0.119182200397D-04 0.100000000000D+01
-.126259723370D-06 0.000000000000D+00 0.000000000000D+00 0.666994667578D-06 0.000000000000D+00  6 1 22 9900012 13 2 21 2 0.17456541D+00 0.10548549D-02 0.37424374D+04 0.37424374D+04 0.37424374D+04 0.12562637D+01  1  2  5  2  6  5        2 -.287639729298D-04 0.100000000000D+01
0.359451867873D-06 0.000000000000D+00 0.000000000000D+00 0.666994667578D-06 0.200107203737D-07  6 1 22 9900012 13 2 21 2 0.17456541D+00 0.10548549D-02 0.36773336D+04 0.36773336D+04 0.36773336D+04 0.12571534D+01  1  2 11  2  6  5        2 0.818982904095D-04 0.100000000000D+01
  </mgrwgt>
  </event>
  <event>
  7     66 -.10089070E-05 0.34434574E+02 0.78161638E-02 0.12479672E+00
        3 -1    0    0  502    0 0.00000000E+00 0.00000000E+00 0.37773004E+03 0.37773004E+03 0.00000000E+00 0.0000E+00 0.9000E+01
       22 -1    0    0    0    0 0.00000000E+00 0.00000000E+00 -.13286686E+02 0.13286686E+02 0.00000000E+00 0.0000E+00 0.9000E+01
      -24  2    1    2    0    0 0.28257697E+02 0.13920340E+02 0.15340694E+03 0.17546714E+03 0.79137557E+02 0.0000E+00 0.0000E+00
  9900012  1    3    3    0    0 0.35922946E+02 -.67044150E+01 0.98945102E+02 0.11672849E+03 0.50000000E+02 0.0000E+00 0.9000E+01
       13  1    3    3    0    0 -.76652498E+01 0.20624755E+02 0.54461840E+02 0.58738646E+02 0.00000000E+00 0.0000E+00 0.9000E+01
        4  1    1    2  501    0 -.33837775E+02 -.15930169E+02 0.16843385E+03 0.17253616E+03 0.00000000E+00 0.0000E+00 0.9000E+01
       21  1    1    2  502  501 0.55800787E+01 0.20098288E+01 0.42602571E+02 0.43013437E+02 0.00000000E+00 0.0000E+00 0.9000E+01
#aMCatNLO 2  0  0  1  5 0.63226455D+01 0.00000000D+00  -5  6  0 0.00000000D+00 0.00000000D+00 0.00000000D+00 0.00000000D+00 0.00000000D+00
  <mgrwgt>
 -.3506476134D-04    2    2    0
 0.661241702103177D+02 0.000000000000000D+00 0.000000000000000D+00 0.661241702103177D+02
 0.661241702103177D+02 0.000000000000000D+00 0.000000000000000D+00 -.661241702103177D+02
 0.677838960207800D+02 0.387503613506652D+02 -.568603861640081D+01 -.236798441675951D+02
 0.220182762473995D+02 -.673693449594962D+01 0.209591147201847D+02 0.365667403824268D+00
 0.424461681524558D+02 -.320134268547156D+02 -.152730761037839D+02 0.233141767637708D+02
 0.000000000000000D+00 0.000000000000000D+00 0.000000000000000D+00 0.000000000000000D+00
 0.746507788755996D+02 0.000000000000000D+00 0.000000000000000D+00 0.746507788755996D+02
 0.672301167606690D+02 0.000000000000000D+00 0.000000000000000D+00 -.672301167606690D+02
 0.663034107197459D+02 0.359229463350752D+02 -.670441495412062D+01 -.236798441675951D+02
 0.220061417912396D+02 -.766524981259578D+01 0.206247547669402D+02 0.365667403824268D+00
 0.440717159320911D+02 -.338377752626607D+02 -.159301686212120D+02 0.233141767637708D+02
 0.949962719319201D+01 0.558007874018132D+01 0.200982880839236D+01 0.742066211493056D+01
-.429510877592D-06 0.000000000000D+00 0.000000000000D+00 0.204934344144D-06 0.000000000000D+00  6 3 22 9900012 13 4 21 2 0.59084260D-01 0.20104797D-02 0.40490845D+04 0.40490845D+04 0.40490845D+04 0.12522946D+01  1  2 13  1  6  1        3 -.519771345062D-04 0.100000000000D+01
0.138237905984D-06 0.000000000000D+00 0.000000000000D+00 0.204934344144D-06 0.166047838171D-07  6 3 22 9900012 13 4 21 2 0.58112315D-01 0.20441056D-02 0.40490845D+04 0.40490845D+04 0.40490845D+04 0.12522946D+01  1  2  1  1  6  1        3 0.169123731641D-04 0.100000000000D+01
  </mgrwgt>
  </event>
  <event>
  6     66 0.10089070E-05 0.29878777E+02 0.78161638E-02 0.12269283E+00
        1 -1    0    0  501    0 0.00000000E+00 0.00000000E+00 0.49154050E+03 0.49154050E+03 0.00000000E+00 0.0000E+00 0.9000E+01
       22 -1    0    0    0    0 0.00000000E+00 0.00000000E+00 -.42231052E+02 0.42231052E+02 0.00000000E+00 0.0000E+00 0.9000E+01
      -24  2    1    2    0    0 0.41442565E+02 0.53988911E+01 0.10108626E+02 0.92586789E+02 0.81996920E+02 0.0000E+00 0.0000E+00
  9900012  1    3    3    0    0 0.55448796E+01 -.11955499E+02 0.10251175E+02 0.52714004E+02 0.50000000E+02 0.0000E+00 0.9000E+01
       13  1    3    3    0    0 0.35897685E+02 0.17354390E+02 -.14254857E+00 0.39872785E+02 0.00000000E+00 0.0000E+00 0.9000E+01
        2  1    1    2  501    0 -.41442565E+02 -.53988911E+01 0.43920083E+03 0.44118477E+03 0.00000000E+00 0.0000E+00 0.9000E+01
#aMCatNLO 1  0  0  5  1 0.12109278D+02 0.00000000D+00  -5  6  0 0.00000000D+00 0.00000000D+00 0.00000000D+00 0.00000000D+00 0.00000000D+00
  <mgrwgt>
 0.2807216923D-03    7    2    0
 0.144077315139098D+03 0.000000000000000D+00 0.000000000000000D+00 0.144077315139098D+03
 0.144077315139098D+03 -.000000000000000D+00 -.000000000000000D+00 -.144077315139098D+03
 0.816620098792539D+02 0.554487957334201D+01 -.119554985208425D+02 -.632060457800884D+02
 0.740817756169410D+02 0.358976849702071D+02 0.173543896324280D+02 -.624362943553222D+02
 0.132410844782001D+03 -.414425645435492D+02 -.539889111158548D+01 0.125642340135411D+03
 0.000000000000000D+00 0.000000000000000D+00 0.000000000000000D+00 0.000000000000000D+00
 0.144077315139098D+03 0.000000000000000D+00 0.000000000000000D+00 0.144077315139098D+03
 0.144077315139098D+03 -.000000000000000D+00 -.000000000000000D+00 -.144077315139098D+03
 0.809490619630683D+02 0.524621519494645D+01 -.119944067417895D+02 -.623005783740529D+02
 0.732513512096772D+02 0.356270812761154D+02 0.173191369907326D+02 -.616158991469310D+02
 0.106063730697918D+03 -.364508936736633D+02 0.711548656148365D+01 0.993489666324980D+02
 0.278904864075322D+02 -.442240279739853D+01 -.124402168104268D+02 0.245675108884859D+02
0.891796749988D-06 0.000000000000D+00 0.000000000000D+00 0.188238010728D-05 0.000000000000D+00  6 1 22 9900012 13 2 21 0 0.75621616D-01 0.64970850D-02 0.44470839D+04 0.44470839D+04 0.44470839D+04 0.12476185D+01  1  2  2  2  6  5        2 0.393202191423D-04 0.100000000000D+01
0.432901925136D-07 0.000000000000D+00 -.171236716772D-08 0.188238010728D-05 0.000000000000D+00  6 1 22 9900012 13 2 21 2 0.75621616D-01 0.64970850D-02 0.44470839D+04 0.44470839D+04 0.44470839D+04 0.12476185D+01  1  2  3  2  6  5        2 0.297100378229D-05 0.100000000000D+01
-.125789248090D-06 0.000000000000D+00 0.000000000000D+00 0.188238010728D-05 0.000000000000D+00  6 1 22 9900012 13 2 21 2 0.75621616D-01 0.64970850D-02 0.44470839D+04 0.44470839D+04 0.44470839D+04 0.12476185D+01  1  2 15  2  6  5        2 -.863290990747D-05 0.100000000000D+01
0.354904791013D-05 0.000000000000D+00 0.000000000000D+00 0.188238010728D-05 0.000000000000D+00  6 1 22 9900012 13 2 21 2 0.75621616D-01 0.64970850D-02 0.50155383D+04 0.50155383D+04 0.50155383D+04 0.12416938D+01  1  2 12  2  6  5        2 0.243211432285D-03 0.100000000000D+01
-.755312266017D-06 0.000000000000D+00 0.000000000000D+00 0.188238010728D-05 0.000000000000D+00  6 1 22 9900012 13 2 21 2 0.75621616D-01 0.64970850D-02 0.44470839D+04 0.44470839D+04 0.44470839D+04 0.12476185D+01  1  2  4  2  6  5        2 -.518370436546D-04 0.100000000000D+01
-.349436701905D-05 0.000000000000D+00 0.000000000000D+00 0.188238010728D-05 0.000000000000D+00  6 1 22 9900012 13 2 21 2 0.75621616D-01 0.64970850D-02 0.44470839D+04 0.44470839D+04 0.44470839D+04 0.12476185D+01  1  2  5  2  6  5        2 -.239818236591D-03 0.100000000000D+01
0.430580561168D-05 0.000000000000D+00 -.000000000000D+00 0.188238010728D-05 0.000000000000D+00  6 1 22 9900012 13 2 21 2 0.75621616D-01 0.64970850D-02 0.44470839D+04 0.44470839D+04 0.44470839D+04 0.12476185D+01  1  2  6  2  6  5        2 0.295507227280D-03 0.100000000000D+01
  </mgrwgt>
  </event>
  <event>
  6     66 0.10089070E-05 0.30804995E+02 0.78161638E-02 0.12394178E+00
        3 -1    0    0  501    0 0.00000000E+00 0.00000000E+00 0.37069572E+03 0.37069572E+03 0.00000000E+00 0.0000E+00 0.9000E+01
       22 -1    0    0    0    0 0.00000000E+00 0.00000000E+00 -.18525826E+02 0.18525826E+02 0.00000000E+00 0.0000E+00 0.9000E+01
      -24  2    1    2    0    0 -.38463122E+02 0.19804919E+02 0.11729982E+03 0.15040028E+03 0.83602330E+02 0.0000E+00 0.0000E+00
  9900012  1    3    3    0    0 -.27654976E+02 0.35718860E+02 0.60959918E+02 0.90866640E+02 0.50000000E+02 0.0000E+00 0.9000E+01
       13  1    3    3    0    0 -.10808146E+02 -.15913941E+02 0.56339905E+02 0.59533642E+02 0.00000000E+00 0.0000E+00 0.9000E+01
        4  1    1    2  501    0 0.38463122E+02 -.19804919E+02 0.23487007E+03 0.23882126E+03 0.00000000E+00 0.0000E+00 0.9000E+01
#aMCatNLO 1  0  0  5  1 0.11147770D+02 0.00000000D+00  -5  6  0 0.00000000D+00 0.00000000D+00 0.00000000D+00 0.00000000D+00 0.00000000D+00
  <mgrwgt>
 0.4054271070D-04    7    2    0
 0.828700458798256D+02 0.000000000000000D+00 0.000000000000000D+00 0.828700458798256D+02
 0.828700458798256D+02 -.000000000000000D+00 -.000000000000000D+00 -.828700458798256D+02
 0.838602544925020D+02 -.276549761589315D+02 0.357188600042440D+02 -.499190105790705D+02
 0.200950624741896D+02 -.108081459367687D+02 -.159139406950956D+02 0.580878720595554D+01
 0.617847747929595D+02 0.384631220957002D+02 -.198049193091484D+02 0.441102233731150D+02
 0.000000000000000D+00 0.000000000000000D+00 0.000000000000000D+00 0.000000000000000D+00
 0.828700458798256D+02 0.000000000000000D+00 0.000000000000000D+00 0.828700458798256D+02
 0.828700458798256D+02 -.000000000000000D+00 -.000000000000000D+00 -.828700458798256D+02
 0.822530213484887D+02 -.263410816419827D+02 0.350423269130363D+02 -.484122119243196D+02
 0.201655929851321D+02 -.104896990565362D+02 -.160779111276456D+02 0.617398800750717D+01
 0.365796453764738D+02 0.172903206914394D+02 -.213628781525942D+02 0.241400642769064D+02
 0.267418320495565D+02 0.195404600070795D+02 0.239846236720352D+01 0.180981596399060D+02
0.402659622498D-06 0.000000000000D+00 0.000000000000D+00 0.577215439663D-07 0.000000000000D+00  6 3 22 9900012 13 4 21 0 0.57030110D-01 0.28501271D-02 0.42174604D+04 0.42174604D+04 0.42174604D+04 0.12502562D+01  1  2  2  2  6  5        4 0.209861616396D-04 0.100000000000D+01
0.279380012626D-08 0.000000000000D+00 -.773159486553D-09 0.577215439663D-07 0.000000000000D+00  6 3 22 9900012 13 4 21 2 0.57030110D-01 0.28501271D-02 0.42174604D+04 0.42174604D+04 0.42174604D+04 0.12502562D+01  1  2  3  2  6  5        4 0.227608420133D-06 0.100000000000D+01
-.485238212646D-07 0.000000000000D+00 0.000000000000D+00 0.577215439663D-07 0.000000000000D+00  6 3 22 9900012 13 4 21 2 0.57030110D-01 0.28501271D-02 0.42174604D+04 0.42174604D+04 0.42174604D+04 0.12502562D+01  1  2 15  2  6  5        4 -.395319271163D-05 0.100000000000D+01
0.380111153590D-06 0.000000000000D+00 0.000000000000D+00 0.577215439663D-07 0.000000000000D+00  6 3 22 9900012 13 4 21 2 0.57030110D-01 0.28501271D-02 0.44132302D+04 0.44132302D+04 0.44132302D+04 0.12479977D+01  1  2 12  2  6  5        4 0.309975509716D-04 0.100000000000D+01
-.279985893774D-06 0.000000000000D+00 0.000000000000D+00 0.577215439663D-07 0.000000000000D+00  6 3 22 9900012 13 4 21 2 0.57030110D-01 0.28501271D-02 0.42174604D+04 0.42174604D+04 0.42174604D+04 0.12502562D+01  1  2  4  2  6  5        4 -.228102026135D-04 0.100000000000D+01
-.361023759506D-06 0.000000000000D+00 0.000000000000D+00 0.577215439663D-07 0.000000000000D+00  6 3 22 9900012 13 4 21 2 0.57030110D-01 0.28501271D-02 0.42174604D+04 0.42174604D+04 0.42174604D+04 0.12502562D+01  1  2  5  2  6  5        4 -.294122857106D-04 0.100000000000D+01
0.546306062285D-06 0.000000000000D+00 -.000000000000D+00 0.577215439663D-07 0.000000000000D+00  6 3 22 9900012 13 4 21 2 0.57030110D-01 0.28501271D-02 0.42174604D+04 0.42174604D+04 0.42174604D+04 0.12502562D+01  1  2  6  2  6  5        4 0.445070707018D-04 0.100000000000D+01
  </mgrwgt>
  </event>
  <event>
  6     66 0.10089070E-05 0.69134625E+02 0.78161638E-02 0.11507001E+00
        1 -1    0    0  501    0 0.00000000E+00 0.00000000E+00 0.26066681E+04 0.26066681E+04 0.00000000E+00 0.0000E+00 0.9000E+01
       22 -1    0    0    0    0 0.00000000E+00 0.00000000E+00 -.92998962E+01 0.92998962E+01 0.00000000E+00 0.0000E+00 0.9000E+01
      -24  2    1    2    0    0 0.47554435E+02 0.50181391E+02 0.31274827E+03 0.33030227E+03 0.80675332E+02 0.0000E+00 0.0000E+00
  9900012  1    3    3    0    0 0.12872988E+02 0.31189429E+02 0.12982088E+03 0.14315012E+03 0.50000000E+02 0.0000E+00 0.9000E+01
       13  1    3    3    0    0 0.34681447E+02 0.18991962E+02 0.18292739E+03 0.18715215E+03 0.00000000E+00 0.0000E+00 0.9000E+01
        2  1    1    2  501    0 -.47554435E+02 -.50181391E+02 0.22846199E+04 0.22856657E+04 0.00000000E+00 0.0000E+00 0.9000E+01
#aMCatNLO 1  0  0  1  1 0.35225047D+03 0.00000000D+00  -5  6  0 0.00000000D+00 0.00000000D+00 0.00000000D+00 0.00000000D+00 0.00000000D+00
  <mgrwgt>
 0.3408545413D-03    3    2    0
 0.155697598743087D+03 0.000000000000000D+00 0.000000000000000D+00 0.155697598743087D+03
 0.155697598743087D+03 0.000000000000000D+00 0.000000000000000D+00 -.155697598743087D+03
 0.119730458041592D+03 0.128729878027809D+02 0.311894287767124D+02 -.103425762266764D+03
 0.464177019945812D+02 0.346814473471840D+02 0.189919622924866D+02 -.243126641206393D+02
 0.145247037450002D+03 -.475544351499650D+02 -.501813910691990D+02 0.127738426387403D+03
 0.000000000000000D+00 0.000000000000000D+00 -.000000000000000D+00 -.000000000000000D+00
 0.158221621864010D+03 0.000000000000000D+00 0.000000000000000D+00 0.158221621864010D+03
 0.453134476660578D+03 0.000000000000000D+00 0.000000000000000D+00 -.453134476660578D+03
 0.119422011584251D+03 -.205231007746506D+01 0.325655734436504D+02 -.103425762266764D+03
 0.426572807631906D+02 0.291223550517229D+02 0.195045225962605D+02 -.243126641206393D+02
 0.151771879843788D+03 -.660911277612250D+02 -.484722680162235D+02 0.127738426387403D+03
 0.297504926333358D+03 0.390210827869672D+02 -.359782802368741D+01 -.294912854796568D+03
0.386624625398D-04 0.000000000000D+00 0.000000000000D+00 0.390125548052D-05 0.000000000000D+00  6 1 22 9900012 13 2 21 0 0.40102585D+00 0.14307533D-02 0.71398818D+04 0.71398818D+04 0.71398818D+04 0.12248030D+01  1  2  2  1  6  1        1 0.421916469520D-03 0.100000000000D+01
0.482381563992D-06 0.000000000000D+00 -.742370181066D-07 0.390125548052D-05 0.000000000000D+00  6 1 22 9900012 13 2 21 2 0.40102585D+00 0.14307533D-02 0.71398818D+04 0.71398818D+04 0.71398818D+04 0.12248030D+01  1  2  3  1  6  1        1 0.789696439807D-05 0.100000000000D+01
-.543400319127D-05 0.000000000000D+00 0.000000000000D+00 0.390125548052D-05 0.000000000000D+00  6 1 22 9900012 13 2 21 2 0.40102585D+00 0.14307533D-02 0.71398818D+04 0.71398818D+04 0.71398818D+04 0.12248030D+01  1  2 15  1  6  1        1 -.889588925940D-04 0.100000000000D+01
  </mgrwgt>
  </event>
  <event>
  6     66 0.10089070E-05 0.65997442E+02 0.78161638E-02 0.11755508E+00
        3 -1    0    0  501    0 0.00000000E+00 0.00000000E+00 0.97979665E+02 0.97979665E+02 0.00000000E+00 0.0000E+00 0.9000E+01
       22 -1    0    0    0    0 0.00000000E+00 0.00000000E+00 -.15011357E+04 0.15011357E+04 0.00000000E+00 0.0000E+00 0.9000E+01
      -24  2    1    2    0    0 0.32223334E+02 -.57596172E+02 -.14880353E+04 0.14915972E+04 0.79105374E+02 0.0000E+00 0.0000E+00
  9900012  1    3    3    0    0 0.15177011E+02 -.42083221E+02 -.69589791E+03 0.69912462E+03 0.50000000E+02 0.0000E+00 0.9000E+01
       13  1    3    3    0    0 0.17046323E+02 -.15512951E+02 -.79213735E+03 0.79247259E+03 0.00000000E+00 0.0000E+00 0.9000E+01
        4  1    1    2  501    0 -.32223334E+02 0.57596172E+02 0.84879244E+02 0.10751813E+03 0.00000000E+00 0.0000E+00 0.9000E+01
#aMCatNLO 1  0  0  1  1 0.35870984D+03 0.00000000D+00  -5  6  0 0.00000000D+00 0.00000000D+00 0.00000000D+00 0.00000000D+00 0.00000000D+00
  <mgrwgt>
 0.9820292236D-04    4    2    0
 0.383511110270112D+03 0.000000000000000D+00 0.000000000000000D+00 0.383511110270112D+03
 0.383511110270112D+03 0.000000000000000D+00 0.000000000000000D+00 -.383511110270112D+03
 0.184515615538800D+03 0.151770111176365D+02 -.420832209382856D+02 -.171885639966394D+03
 0.203074685655314D+03 0.170463230556955D+02 -.155129513776847D+02 -.201762482052138D+03
 0.379431919346109D+03 -.322233341733320D+02 0.575961723159703D+02 0.373648122018531D+03
 0.000000000000000D+00 0.000000000000000D+00 0.000000000000000D+00 -.000000000000000D+00
 0.384810271885869D+03 0.000000000000000D+00 0.000000000000000D+00 0.384810271885869D+03
 0.608562063629995D+03 0.000000000000000D+00 0.000000000000000D+00 -.608562063629995D+03
 0.185475390852800D+03 0.102957330975599D+02 -.474388581789865D+02 -.171885639966394D+03
 0.203229854825108D+03 0.116859618884153D+02 -.213942287343556D+02 -.201762482052138D+03
 0.378905631400738D+03 -.422280541646647D+02 0.466192005581673D+02 0.373648122018531D+03
 0.225761458437218D+03 0.202463591786895D+02 0.222138863551748D+02 -.223751791744125D+03
0.296712396867D-03 0.000000000000D+00 0.000000000000D+00 0.180451712315D-03 0.000000000000D+00  6 3 22 9900012 13 4 21 0 0.15073795D-01 0.23094395D+00 0.60947581D+04 0.60947581D+04 0.60947581D+04 0.12322829D+01  1  2  2  1  6  1        3 0.125135439586D-03 0.100000000000D+01
0.623820256208D-05 0.000000000000D+00 -.569726865068D-06 0.180451712315D-03 0.000000000000D+00  6 3 22 9900012 13 4 21 2 0.15073795D-01 0.23094395D+00 0.60947581D+04 0.60947581D+04 0.60947581D+04 0.12322829D+01  1  2  3  1  6  1        3 0.399507511048D-05 0.100000000000D+01
-.481492539872D-04 0.000000000000D+00 0.000000000000D+00 0.180451712315D-03 0.000000000000D+00  6 3 22 9900012 13 4 21 2 0.15073795D-01 0.23094395D+00 0.60947581D+04 0.60947581D+04 0.60947581D+04 0.12322829D+01  1  2 15  1  6  1        3 -.308357871163D-04 0.100000000000D+01
-.143351383860D-06 0.000000000000D+00 0.000000000000D+00 0.180451712315D-03 0.000000000000D+00  6 3 22 9900012 13 4 21 2 0.15073795D-01 0.23094395D+00 0.60947581D+04 0.60947581D+04 0.60947581D+04 0.12322829D+01  1  2  4  1  6  1        3 -.918052179315D-07 0.100000000000D+01
  </mgrwgt>
  </event>
  <event>
  7     66 -.10089070E-05 0.78394814E+02 0.78161638E-02 0.11285410E+00
        1 -1    0    0  501    0 0.00000000E+00 0.00000000E+00 0.70015763E+03 0.70015763E+03 0.00000000E+00 0.0000E+00 0.9000E+01
       22 -1    0    0    0    0 0.00000000E+00 0.00000000E+00 -.74308336E+02 0.74308336E+02 0.00000000E+00 0.0000E+00 0.9000E+01
      -24  2    1    2    0    0 0.53698501E+02 -.92832793E+02 -.43136193E+01 0.13336356E+03 0.79156649E+02 0.0000E+00 0.0000E+00
  9900012  1    3    3    0    0 0.20603408E+02 -.39929099E+02 0.13294501E+02 0.68524281E+02 0.50000000E+02 0.0000E+00 0.9000E+01
       13  1    3    3    0    0 0.33095093E+02 -.52903694E+02 -.17608121E+02 0.64839277E+02 0.00000000E+00 0.0000E+00 0.9000E+01
        2  1    1    2  502    0 -.60868828E+02 0.68044890E+02 0.45732586E+03 0.46634973E+03 0.00000000E+00 0.0000E+00 0.9000E+01
       21  1    1    2  501  502 0.71703272E+01 0.24787903E+02 0.17283705E+03 0.17475268E+03 0.00000000E+00 0.0000E+00 0.9000E+01
#aMCatNLO 2  0  0  5  1 0.21673042D+02 0.00000000D+00  -5  6  0 0.00000000D+00 0.00000000D+00 0.00000000D+00 0.00000000D+00 0.00000000D+00
  <mgrwgt>
 -.1019675368D-03    2    2    0
 0.228095481366506D+03 0.000000000000000D+00 0.000000000000000D+00 0.228095481366506D+03
 0.228095481366506D+03 -.000000000000000D+00 -.000000000000000D+00 -.228095481366506D+03
 0.991113151303913D+02 0.208941460903738D+02 -.404317202446568D+02 -.724690516295588D+02
 0.135851657694238D+03 0.334932764623580D+02 -.535920657123567D+02 -.120257073899089D+03
 0.221227989908383D+03 -.543874225527319D+02 0.940237859570135D+02 0.192726125528648D+03
 0.000000000000000D+00 0.000000000000000D+00 0.000000000000000D+00 0.000000000000000D+00
 0.228095481366506D+03 0.000000000000000D+00 0.000000000000000D+00 0.228095481366506D+03
 0.228095481366506D+03 -.000000000000000D+00 -.000000000000000D+00 -.228095481366506D+03
 0.980935035148168D+02 0.206034082917184D+02 -.399290991005146D+02 -.714387992872039D+02
 0.134232917541187D+03 0.330950925062346D+02 -.529036940024129D+02 -.118846077615216D+03
 0.164306021340433D+03 -.608688279555440D+02 0.680448896076084D+02 0.136606542414079D+03
 0.595585203365761D+02 0.717032715759102D+01 0.247879034953192D+02 0.536783344883408D+02
-.189361921717D-04 0.000000000000D+00 0.000000000000D+00 0.841912447547D-05 0.000000000000D+00  6 1 22 9900012 13 2 21 2 0.10771656D+00 0.11432052D-01 0.15218418D+05 0.15218418D+05 0.15218418D+05 0.11908680D+01  1  2 13  2  6  5        2 -.351897720981D-03 0.100000000000D+01
0.134491521673D-04 0.000000000000D+00 0.000000000000D+00 0.841912447547D-05 0.983902208568D-07  6 1 22 9900012 13 2 21 2 0.10771656D+00 0.11432052D-01 0.15218418D+05 0.15218418D+05 0.15218418D+05 0.11908680D+01  1  2  1  2  6  5        2 0.249930184163D-03 0.100000000000D+01
  </mgrwgt>
  </event>
  <event>
  6     66 0.10089070E-05 0.78838675E+02 0.78161638E-02 0.11656764E+00
        1 -1    0    0  501    0 0.00000000E+00 0.00000000E+00 0.14882916E+03 0.14882916E+03 0.00000000E+00 0.0000E+00 0.9000E+01
       22 -1    0    0    0    0 0.00000000E+00 0.00000000E+00 -.65856831E+02 0.65856831E+02 0.00000000E+00 0.0000E+00 0.9000E+01
      -24  2    1    2    0    0 -.15681313E+02 0.80850220E+02 0.40970294E+02 0.12223691E+03 0.80502390E+02 0.0000E+00 0.0000E+00
  9900012  1    3    3    0    0 -.69144716E+01 0.21497164E+02 0.24025696E+02 0.59893005E+02 0.50000000E+02 0.0000E+00 0.9000E+01
       13  1    3    3    0    0 -.87668412E+01 0.59353056E+02 0.16944598E+02 0.62343903E+02 0.00000000E+00 0.0000E+00 0.9000E+01
        2  1    1    2  501    0 0.15681313E+02 -.80850220E+02 0.42002029E+02 0.92449079E+02 0.00000000E+00 0.0000E+00 0.9000E+01
#aMCatNLO 1  0  0  1  1 0.91244429D+00 0.00000000D+00  -5  6  0 0.00000000D+00 0.00000000D+00 0.00000000D+00 0.00000000D+00 0.00000000D+00
  <mgrwgt>
 0.7255540168D-04    7    2    0
 0.990021038992416D+02 0.000000000000000D+00 0.000000000000000D+00 0.990021038992416D+02
 0.990021038992416D+02 0.000000000000000D+00 0.000000000000000D+00 -.990021038992416D+02
 0.548711624472540D+02 -.691447155535989D+01 0.214971642318971D+02 0.952093172908470D+00
 0.604958332527673D+02 -.876684121355860D+01 0.593530561617893D+02 -.775261635439043D+01
 0.826372120984619D+02 0.156813127689185D+02 -.808502203936864D+02 0.680052318148196D+01
 0.000000000000000D+00 -.000000000000000D+00 -.000000000000000D+00 -.000000000000000D+00
 0.993112650331091D+02 0.000000000000000D+00 0.000000000000000D+00 0.993112650331091D+02
 0.993299266116957D+02 0.000000000000000D+00 0.000000000000000D+00 -.993299266116957D+02
 0.548637799286211D+02 -.674201880494374D+01 0.215330687334631D+02 0.952093172908470D+00
 0.605074299909431D+02 -.857667985652951D+01 0.593926475787123D+02 -.775261635439043D+01
 0.826340183122002D+02 0.159410429663551D+02 -.807961448091677D+02 0.680052318148196D+01
 0.635963413040316D+00 -.622344304881826D+00 -.129571503007805D+00 -.186615785865691D-01
0.688501928687D-06 0.000000000000D+00 0.000000000000D+00 0.345112260680D-06 0.000000000000D+00  6 1 22 9900012 13 2 21 0 0.22896793D-01 0.10131820D-01 0.97236206D+04 0.97236206D+04 0.97236206D+04 0.12105936D+01  1  2  2  1  6  1        1 0.773675378226D-04 0.100000000000D+01
-.253577966042D-07 0.000000000000D+00 -.132201434644D-08 0.345112260680D-06 0.000000000000D+00  6 1 22 9900012 13 2 21 2 0.22896793D-01 0.10131820D-01 0.97236206D+04 0.97236206D+04 0.97236206D+04 0.12105936D+01  1  2  3  1  6  1        1 -.417601315874D-05 0.100000000000D+01
-.768987447117D-07 0.000000000000D+00 0.000000000000D+00 0.345112260680D-06 0.000000000000D+00  6 1 22 9900012 13 2 21 2 0.22896793D-01 0.10131820D-01 0.97236206D+04 0.97236206D+04 0.97236206D+04 0.12105936D+01  1  2 15  1  6  1        1 -.126639618899D-04 0.100000000000D+01
-.490135294288D-05 0.000000000000D+00 0.000000000000D+00 0.345112260680D-06 0.000000000000D+00  6 1 22 9900012 13 2 21 2 0.22896793D-01 0.10131820D-01 0.97236206D+04 0.97236206D+04 0.97236206D+04 0.12105936D+01  1  2  4  1  6  1        1 -.807172433181D-03 0.100000000000D+01
0.489038499752D-05 0.000000000000D+00 0.000000000000D+00 0.345112260680D-06 0.299895518967D-05  6 1 22 9900012 13 2 21 2 0.22968295D-01 0.10165369D-01 0.97865153D+04 0.97865153D+04 0.97865153D+04 0.12103025D+01  1  2 11  1  6  1        1 0.798506203698D-03 0.100000000000D+01
0.639558669163D-13 0.000000000000D+00 0.000000000000D+00 0.345112260680D-06 0.000000000000D+00  6 21 22 9900012 13 2 -1 2 0.23044349D-01 0.10131820D-01 0.97865153D+04 0.97865153D+04 0.97865153D+04 0.12103025D+01  1  2 12  3  6  1        1 0.823337935504D-10 0.100000000000D+01
0.160535596381D-07 0.000000000000D+00 0.000000000000D+00 0.345112260680D-06 0.411782023538D-08  6 21 22 9900012 13 2 -1 2 0.22968295D-01 0.10165369D-01 0.97865153D+04 0.97865153D+04 0.97865153D+04 0.12103025D+01  1  2 11  3  6  1        1 0.206939860496D-04 0.100000000000D+01
  </mgrwgt>
  </event>
  <event>
  6     66 0.10089070E-05 0.16235819E+02 0.78161638E-02 0.12791684E+00
        1 -1    0    0  501    0 0.00000000E+00 0.00000000E+00 0.50663727E+03 0.50663727E+03 0.00000000E+00 0.0000E+00 0.9000E+01
       22 -1    0    0    0    0 0.00000000E+00 0.00000000E+00 -.52203025E+02 0.52203025E+02 0.00000000E+00 0.0000E+00 0.9000E+01
      -24  2    1    2    0    0 0.15912417E+02 -.32244050E+01 -.18306216E+02 0.85821115E+02 0.82259008E+02 0.0000E+00 0.0000E+00
  9900012  1    3    3    0    0 0.17996187E+02 -.26013675E+02 -.20992951E+02 0.62779599E+02 0.50000000E+02 0.0000E+00 0.9000E+01
       13  1    3    3    0    0 -.20837692E+01 0.22789270E+02 0.26867346E+01 0.23041517E+02 0.00000000E+00 0.0000E+00 0.9000E+01
        2  1    1    2  501    0 -.15912417E+02 0.32244050E+01 0.47274046E+03 0.47301918E+03 0.00000000E+00 0.0000E+00 0.9000E+01
#aMCatNLO 1  0  0  5  1 0.74270426D+01 0.00000000D+00  -5  6  0 0.00000000D+00 0.00000000D+00 0.00000000D+00 0.00000000D+00 0.00000000D+00
  <mgrwgt>
 0.3484038943D-03    8    2    0
 0.162628405734128D+03 0.000000000000000D+00 0.000000000000000D+00 0.162628405734128D+03
 0.162628405734128D+03 -.000000000000000D+00 -.000000000000000D+00 -.162628405734128D+03
 0.137195236611968D+03 0.179961865498278D+02 -.260136754070270D+02 -.123781900577166D+03
 0.358350180925382D+02 -.208376915581324D+01 0.227892704390765D+02 -.275763590898519D+02
 0.152226556763750D+03 -.159124173940145D+02 0.322440496795050D+01 0.151358259667018D+03
 0.000000000000000D+00 0.000000000000000D+00 0.000000000000000D+00 0.000000000000000D+00
 0.162628405734128D+03 0.000000000000000D+00 0.000000000000000D+00 0.162628405734128D+03
 0.162628405734128D+03 -.000000000000000D+00 -.000000000000000D+00 -.162628405734128D+03
 0.136260865308525D+03 0.178893491561280D+02 -.259920264636591D+02 -.122765667683236D+03
 0.356362914711426D+02 -.211169249847944D+01 0.227949286720517D+02 -.273107534030860D+02
 0.140864909155190D+03 -.191602026850134D+02 0.852953239116676D+01 0.139294853966531D+03
 0.124947455333980D+02 0.338254602736481D+01 -.533243459955934D+01 0.107815671197906D+02
0.812528280509D-06 0.000000000000D+00 0.000000000000D+00 0.344772290001D-05 0.000000000000D+00  6 1 22 9900012 13 2 21 0 0.77944196D-01 0.80312347D-02 0.24150249D+04 0.24150249D+04 0.24150249D+04 0.12790855D+01  1  2  2  2  6  5        2 0.246810655090D-04 0.100000000000D+01
0.142468680217D-06 0.000000000000D+00 -.156016127038D-08 0.344772290001D-05 0.000000000000D+00  6 1 22 9900012 13 2 21 2 0.77944196D-01 0.80312347D-02 0.24150249D+04 0.24150249D+04 0.24150249D+04 0.12790855D+01  1  2  3  2  6  5        2 0.708017415781D-05 0.100000000000D+01
-.119399547481D-06 0.000000000000D+00 0.000000000000D+00 0.344772290001D-05 0.000000000000D+00  6 1 22 9900012 13 2 21 2 0.77944196D-01 0.80312347D-02 0.24150249D+04 0.24150249D+04 0.24150249D+04 0.12790855D+01  1  2 15  2  6  5        2 -.593372233984D-05 0.100000000000D+01
0.604234338472D-05 0.000000000000D+00 0.000000000000D+00 0.344772290001D-05 0.000000000000D+00  6 1 22 9900012 13 2 21 2 0.77944196D-01 0.80312347D-02 0.29868424D+04 0.29868424D+04 0.29868424D+04 0.12678527D+01  1  2 12  2  6  5        2 0.299172221627D-03 0.100000000000D+01
-.100114354068D-06 0.000000000000D+00 0.000000000000D+00 0.344772290001D-05 0.000000000000D+00  6 1 22 9900012 13 2 21 2 0.77944196D-01 0.80312347D-02 0.24150249D+04 0.24150249D+04 0.24150249D+04 0.12790855D+01  1  2  4  2  6  5        2 -.497531851504D-05 0.100000000000D+01
-.665929084773D-05 0.000000000000D+00 0.000000000000D+00 0.344772290001D-05 0.000000000000D+00  6 1 22 9900012 13 2 21 2 0.77944196D-01 0.80312347D-02 0.24150249D+04 0.24150249D+04 0.24150249D+04 0.12790855D+01  1  2  5  2  6  5        2 -.330942484325D-03 0.100000000000D+01
0.722823517750D-05 0.000000000000D+00 -.000000000000D+00 0.344772290001D-05 0.000000000000D+00  6 1 22 9900012 13 2 21 2 0.77944196D-01 0.80312347D-02 0.24150249D+04 0.24150249D+04 0.24150249D+04 0.12790855D+01  1  2  6  2  6  5        2 0.359216943910D-03 0.100000000000D+01
0.212095923077D-08 0.000000000000D+00 0.000000000000D+00 0.344772290001D-05 0.191951408101D-07  6 1 22 9900012 13 2 21 2 0.77944196D-01 0.80312347D-02 0.29868424D+04 0.29868424D+04 0.29868424D+04 0.12678527D+01  1  2 11  2  6  5        2 0.105014237796D-06 0.100000000000D+01
  </mgrwgt>
  </event>
  <event>
  6     66 0.10089070E-05 0.32570254E+02 0.78161638E-02 0.12467495E+00
        1 -1    0    0  501    0 0.00000000E+00 0.00000000E+00 0.56742084E+03 0.56742084E+03 0.00000000E+00 0.0000E+00 0.9000E+01
       22 -1    0    0    0    0 0.00000000E+00 0.00000000E+00 -.93847034E+01 0.93847034E+01 0.00000000E+00 0.0000E+00 0.9000E+01
      -24  2    1    2    0    0 -.25614690E+02 0.32055876E+02 0.21807997E+03 0.23438199E+03 0.75447693E+02 0.0000E+00 0.0000E+00
  9900012  1    3    3    0    0 -.33707562E+02 0.89178722E+01 0.16550204E+03 0.17637079E+03 0.50000000E+02 0.0000E+00 0.9000E+01
       13  1    3    3    0    0 0.80928718E+01 0.23138004E+02 0.52577926E+02 0.58011206E+02 0.00000000E+00 0.0000E+00 0.9000E+01
        2  1    1    2  501    0 0.25614690E+02 -.32055876E+02 0.33995617E+03 0.34242355E+03 0.00000000E+00 0.0000E+00 0.9000E+01
#aMCatNLO 1  0  0  5  1 0.75250930D+01 0.00000000D+00  -5  6  0 0.00000000D+00 0.00000000D+00 0.00000000D+00 0.00000000D+00 0.00000000D+00
  <mgrwgt>
 0.1586619184D-03    8    2    0
 0.729731202754935D+02 0.000000000000000D+00 0.000000000000000D+00 0.729731202754935D+02
 0.729731202754935D+02 -.000000000000000D+00 -.000000000000000D+00 -.729731202754935D+02
 0.642395911842591D+02 -.337075618975305D+02 0.891787222613386D+01 -.202730585113161D+02
 0.282350743671182D+02 0.809287182996660D+01 0.231380040365865D+02 -.140127662958936D+02
 0.534715749996096D+02 0.256146900675639D+02 -.320558762627204D+02 0.342858248072097D+02
 0.000000000000000D+00 0.000000000000000D+00 -.000000000000000D+00 0.000000000000000D+00
 0.729731202754935D+02 0.000000000000000D+00 0.000000000000000D+00 0.729731202754935D+02
 0.729731202754935D+02 -.000000000000000D+00 -.000000000000000D+00 -.729731202754935D+02
 0.633995051966417D+02 -.329453856444162D+02 0.796403567391446D+01 -.192528688694519D+02
 0.277706090027149D+02 0.842730072451578D+01 0.227194781346892D+02 -.135651258810091D+02
 0.448211775603597D+02 0.264667907290398D+02 -.217359299524027D+02 0.289136005282418D+02
 0.995494879127062D+01 -.194870580913932D+01 -.894758385620096D+01 0.390439422221925D+01
0.212120817357D-06 0.000000000000D+00 0.000000000000D+00 0.197394574743D-07 0.000000000000D+00  6 1 22 9900012 13 2 21 0 0.87295514D-01 0.14438005D-02 0.40006932D+04 0.40006932D+04 0.40006932D+04 0.12528981D+01  1  2  2  2  6  5        2 0.582883063956D-04 0.100000000000D+01
0.129203239765D-08 0.000000000000D+00 -.407299895672D-09 0.197394574743D-07 0.000000000000D+00  6 1 22 9900012 13 2 21 2 0.87295514D-01 0.14438005D-02 0.40006932D+04 0.40006932D+04 0.40006932D+04 0.12528981D+01  1  2  3  2  6  5        2 0.557317973255D-06 0.100000000000D+01
-.236928648924D-07 0.000000000000D+00 0.000000000000D+00 0.197394574743D-07 0.000000000000D+00  6 1 22 9900012 13 2 21 2 0.87295514D-01 0.14438005D-02 0.40006932D+04 0.40006932D+04 0.40006932D+04 0.12528981D+01  1  2 15  2  6  5        2 -.102199135768D-04 0.100000000000D+01
0.345691646201D-06 0.000000000000D+00 0.000000000000D+00 0.197394574743D-07 0.000000000000D+00  6 1 22 9900012 13 2 21 2 0.87295514D-01 0.14438005D-02 0.40987623D+04 0.40987623D+04 0.40987623D+04 0.12516835D+01  1  2 12  2  6  5        2 0.149150593072D-03 0.100000000000D+01
-.161978242325D-06 0.000000000000D+00 0.000000000000D+00 0.197394574743D-07 0.000000000000D+00  6 1 22 9900012 13 2 21 2 0.87295514D-01 0.14438005D-02 0.40006932D+04 0.40006932D+04 0.40006932D+04 0.12528981D+01  1  2  4  2  6  5        2 -.698692895689D-04 0.100000000000D+01
-.339322855590D-06 0.000000000000D+00 0.000000000000D+00 0.197394574743D-07 0.000000000000D+00  6 1 22 9900012 13 2 21 2 0.87295514D-01 0.14438005D-02 0.40006932D+04 0.40006932D+04 0.40006932D+04 0.12528981D+01  1  2  5  2  6  5        2 -.146366860847D-03 0.100000000000D+01
0.408253416884D-06 0.000000000000D+00 -.000000000000D+00 0.197394574743D-07 0.000000000000D+00  6 1 22 9900012 13 2 21 2 0.87295514D-01 0.14438005D-02 0.40006932D+04 0.40006932D+04 0.40006932D+04 0.12528981D+01  1  2  6  2  6  5        2 0.176100047712D-03 0.100000000000D+01
0.236807053795D-08 0.000000000000D+00 0.000000000000D+00 0.197394574743D-07 0.110829320221D-08  6 1 22 9900012 13 2 21 2 0.87295514D-01 0.14438005D-02 0.40987623D+04 0.40987623D+04 0.40987623D+04 0.12516835D+01  1  2 11  2  6  5        2 0.102171727044D-05 0.100000000000D+01
  </mgrwgt>
  </event>
  <event>
  6     66 0.10089070E-05 0.28859405E+02 0.78161638E-02 0.12643736E+00
        3 -1    0    0  501    0 0.00000000E+00 0.00000000E+00 0.11175692E+03 0.11175692E+03 0.00000000E+00 0.0000E+00 0.9000E+01
       22 -1    0    0    0    0 0.00000000E+00 0.00000000E+00 -.80877393E+02 0.80877393E+02 0.00000000E+00 0.0000E+00 0.9000E+01
      -24  2    1    2    0    0 -.92789080E+01 0.30735309E+02 -.53820618E+02 0.10205357E+03 0.80545105E+02 0.0000E+00 0.0000E+00
  9900012  1    3    3    0    0 -.57352980E+01 0.11405883E+02 -.62088186E+02 0.80733702E+02 0.50000000E+02 0.0000E+00 0.9000E+01
       13  1    3    3    0    0 -.35436100E+01 0.19329426E+02 0.82675680E+01 0.21319863E+02 0.00000000E+00 0.0000E+00 0.9000E+01
        4  1    1    2  501    0 0.92789080E+01 -.30735309E+02 0.84700147E+02 0.90580750E+02 0.00000000E+00 0.0000E+00 0.9000E+01
#aMCatNLO 1  0  0  1  5 0.13234237D+02 0.00000000D+00  -5  6  0 0.00000000D+00 0.00000000D+00 0.00000000D+00 0.00000000D+00 0.00000000D+00
  <mgrwgt>
 0.1235498903D-03    9    2    0
 0.950715966791778D+02 0.000000000000000D+00 0.000000000000000D+00 0.950715966791778D+02
 0.950715966791778D+02 0.000000000000000D+00 0.000000000000000D+00 -.950715966791778D+02
 0.918746286334832D+02 -.573529798878256D+01 0.114058826585772D+02 -.760128909087076D+02
 0.202565162310274D+02 -.354360997494878D+01 0.193294263895326D+02 0.491350726212584D+01
 0.780120484938450D+02 0.927890796373135D+01 -.307353090481098D+02 0.710993836465817D+02
 0.000000000000000D+00 -.000000000000000D+00 0.000000000000000D+00 0.000000000000000D+00
 0.108636011483361D+03 0.000000000000000D+00 0.000000000000000D+00 0.108636011483361D+03
 0.979383463691074D+02 0.000000000000000D+00 0.000000000000000D+00 -.979383463691074D+02
 0.914116549753038D+02 -.583843855952302D+00 0.881987570075475D+01 -.760128909087076D+02
 0.195512508809009D+02 -.242477073411834D+01 0.187677740896444D+02 0.491350726212584D+01
 0.795567696787214D+02 0.137075456315275D+02 -.329584653700518D+02 0.710993836465817D+02
 0.160546823175424D+02 -.106989310414569D+02 0.537081557965260D+01 0.106976651142537D+02
0.502627753870D-06 0.000000000000D+00 0.000000000000D+00 0.179498628144D-05 0.000000000000D+00  6 3 22 9900012 13 4 21 0 0.17193373D-01 0.12442676D-01 0.26708802D+04 0.26708802D+04 0.26708802D+04 0.12737262D+01  1  2  2  1  6  1        3 0.289955297207D-04 0.100000000000D+01
0.160057498779D-07 0.000000000000D+00 -.965111459894D-09 0.179498628144D-05 0.000000000000D+00  6 3 22 9900012 13 4 21 2 0.17193373D-01 0.12442676D-01 0.26708802D+04 0.26708802D+04 0.26708802D+04 0.12737262D+01  1  2  3  1  6  1        3 0.149800329368D-05 0.100000000000D+01
-.615833101315D-07 0.000000000000D+00 0.000000000000D+00 0.179498628144D-05 0.000000000000D+00  6 3 22 9900012 13 4 21 2 0.17193373D-01 0.12442676D-01 0.26708802D+04 0.26708802D+04 0.26708802D+04 0.12737262D+01  1  2 15  1  6  1        3 -.576367881021D-05 0.100000000000D+01
0.111737396281D-05 0.000000000000D+00 0.000000000000D+00 0.179498628144D-05 0.000000000000D+00  6 3 22 9900012 13 4 21 2 0.20238862D-01 0.12442676D-01 0.34436790D+04 0.34436790D+04 0.34436790D+04 0.12604994D+01  1  2 12  1  6  1        3 0.799468967290D-04 0.100000000000D+01
-.976895236649D-07 0.000000000000D+00 0.000000000000D+00 0.179498628144D-05 0.000000000000D+00  6 3 22 9900012 13 4 21 2 0.17193373D-01 0.12442676D-01 0.26708802D+04 0.26708802D+04 0.26708802D+04 0.12737262D+01  1  2  4  1  6  1        3 -.914291609731D-05 0.100000000000D+01
-.183400879506D-05 0.000000000000D+00 -.408850738884D-06 0.179498628144D-05 0.000000000000D+00  6 3 22 9900012 13 4 21 2 0.20182053D-01 0.12442676D-01 0.26708802D+04 0.26708802D+04 0.26708802D+04 0.12737262D+01  1  2  5  1  6  1        3 -.131018920970D-03 0.100000000000D+01
0.188052681574D-05 0.000000000000D+00 0.403655406574D-06 0.179498628144D-05 0.000000000000D+00  6 3 22 9900012 13 4 21 2 0.17193373D-01 0.12442676D-01 0.26708802D+04 0.26708802D+04 0.26708802D+04 0.12737262D+01  1  2  6  1  6  1        3 0.176001461057D-03 0.100000000000D+01
0.272591892332D-07 0.000000000000D+00 0.000000000000D+00 0.179498628144D-05 0.000000000000D+00  6 21 22 9900012 13 4 -3 2 0.20238862D-01 0.12442676D-01 0.34436790D+04 0.34436790D+04 0.34436790D+04 0.12604994D+01  1  2 12  3  6  1        3 0.332517017024D-04 0.100000000000D+01
-.409307294765D-07 0.000000000000D+00 -.983671763992D-08 0.179498628144D-05 0.000000000000D+00  6 21 22 9900012 13 4 -3 2 0.20182053D-01 0.12442676D-01 0.26708802D+04 0.26708802D+04 0.26708802D+04 0.12737262D+01  1  2  5  3  6  1        3 -.502181863133D-04 0.100000000000D+01
  </mgrwgt>
  </event>
  <event>
  7     66 0.10089070E-05 0.53232681E+02 0.78161638E-02 0.10846791E+00
       21 -1    0    0  501  502 0.00000000E+00 0.00000000E+00 0.11647997E+03 0.11647997E+03 0.00000000E+00 0.0000E+00 0.9000E+01
       22 -1    0    0    0    0 0.00000000E+00 0.00000000E+00 -.75509500E+03 0.75509500E+03 0.00000000E+00 0.0000E+00 0.9000E+01
      -24  2    1    2    0    0 -.48624591E+02 -.86935892E+02 -.65743871E+03 0.66974172E+03 0.80038244E+02 0.0000E+00 0.0000E+00
  9900012  1    3    3    0    0 -.30105185E+02 -.27230355E+02 -.29461349E+03 0.30157076E+03 0.50000000E+02 0.0000E+00 0.9000E+01
       13  1    3    3    0    0 -.18519405E+02 -.59705537E+02 -.36282522E+03 0.36817096E+03 0.00000000E+00 0.0000E+00 0.9000E+01
        2  1    1    2  501    0 0.10194703E+03 0.50906947E+01 -.13783678E+01 0.10208336E+03 0.00000000E+00 0.0000E+00 0.9000E+01
       -1  1    1    2    0  502 -.53322441E+02 0.81845197E+02 0.20202044E+02 0.99749895E+02 0.00000000E+00 0.0000E+00 0.9000E+01
#aMCatNLO 2  0  0  1  5 0.92435586D+02 0.00000000D+00  -5  6  0 0.00000000D+00 0.00000000D+00 0.00000000D+00 0.00000000D+00 0.00000000D+00
  <mgrwgt>
 0.1460931614D-04    1    2    0
 0.195020576100918D+03 0.000000000000000D+00 0.000000000000000D+00 0.195020576100918D+03
 0.195020576100918D+03 0.000000000000000D+00 0.000000000000000D+00 -.195020576100918D+03
 0.975283925983715D+02 -.431431967070541D+02 -.721816892547524D+01 -.714027308867232D+02
 0.105704291877239D+03 -.331900613974529D+02 -.371873872286119D+02 -.932143517748807D+02
 0.186808467726226D+03 0.763332581045071D+02 0.444055561540871D+02 0.164617082661604D+03
 0.000000000000000D+00 -.000000000000000D+00 0.000000000000000D+00 0.000000000000000D+00
 0.414440476123552D+03 0.000000000000000D+00 0.000000000000000D+00 0.414440476123552D+03
 0.212222143334860D+03 0.000000000000000D+00 0.000000000000000D+00 -.212222143334860D+03
 0.961569778443189D+02 -.301051854651271D+02 -.272303547200787D+02 -.714027308867232D+02
 0.112234731392729D+03 -.185194054312646D+02 -.597055372344924D+02 -.932143517748807D+02
 0.193695370216572D+03 0.101947032161658D+03 0.509069472151396D+01 0.164617082661604D+03
 0.224575540004792D+03 -.533224412652659D+02 0.818451972330571D+02 0.202218332788692D+03
0.388773601638D-06 0.000000000000D+00 0.000000000000D+00 0.104661542558D-04 0.646732835510D-09  6 21 22 9900012 13 2 -1 2 0.17919996D-01 0.11616846D+00 0.26678663D+05 0.26678663D+05 0.26678663D+05 0.11674965D+01  1  2  1  3  6  1        1 0.146093161424D-04 0.100000000000D+01
  </mgrwgt>
  </event>
  <event>
  7     66 -.10089070E-05 0.10563129E+03 0.78161638E-02 0.11331592E+00
        3 -1    0    0  502    0 0.00000000E+00 0.00000000E+00 0.16009874E+04 0.16009874E+04 0.00000000E+00 0.0000E+00 0.9000E+01
       22 -1    0    0    0    0 0.00000000E+00 0.00000000E+00 -.12479809E+02 0.12479809E+02 0.00000000E+00 0.0000E+00 0.9000E+01
      -24  2    1    2    0    0 0.64050373E+02 0.86639338E+02 0.45746447E+03 0.47722817E+03 0.82850246E+02 0.0000E+00 0.0000E+00
  9900012  1    3    3    0    0 0.64247972E+02 0.51141292E+02 0.38071593E+03 0.39266761E+03 0.50000000E+02 0.0000E+00 0.9000E+01
       13  1    3    3    0    0 -.19759831E+00 0.35498046E+02 0.76748540E+02 0.84560562E+02 0.00000000E+00 0.0000E+00 0.9000E+01
        4  1    1    2  501    0 -.60605684E+02 -.77074828E+02 0.10477856E+04 0.10523632E+04 0.00000000E+00 0.0000E+00 0.9000E+01
       21  1    1    2  502  501 -.34446896E+01 -.95645104E+01 0.83257426E+02 0.83875769E+02 0.00000000E+00 0.0000E+00 0.9000E+01
#aMCatNLO 2  0  0  1  5 0.12344871D+02 0.00000000D+00  -5  6  0 0.00000000D+00 0.00000000D+00 0.00000000D+00 0.00000000D+00 0.00000000D+00
  <mgrwgt>
 -.5979504526D-05    3    2    0
 0.135801842403399D+03 0.000000000000000D+00 0.000000000000000D+00 0.135801842403399D+03
 0.135801842403399D+03 0.000000000000000D+00 0.000000000000000D+00 -.135801842403399D+03
 0.988125170586952D+02 0.629790610790025D+02 0.476180400371369D+02 -.320947605709067D+02
 0.496256841769758D+02 -.834452437577962D+00 0.337297596094870D+02 -.363911463937121D+02
 0.123165483571127D+03 -.621446086414245D+02 -.813477996466239D+02 0.684859069646188D+02
 0.000000000000000D+00 -.000000000000000D+00 -.000000000000000D+00 0.000000000000000D+00
 0.143380979083103D+03 0.000000000000000D+00 0.000000000000000D+00 0.143380979083103D+03
 0.139349137047761D+03 0.000000000000000D+00 0.000000000000000D+00 -.139349137047761D+03
 0.101357324796921D+03 0.642479717872525D+02 0.511412920750843D+02 -.320947605709067D+02
 0.508376421068784D+02 -.197598307474062D+00 0.354980460595701D+02 -.363911463937121D+02
 0.119598902318587D+03 -.606056838664358D+02 -.770748277074047D+02 0.684859069646188D+02
 0.109362469084776D+02 -.344468961334261D+01 -.956451042724968D+01 0.403184203534154D+01
-.245551370699D-05 0.000000000000D+00 0.000000000000D+00 0.979433792634D-07 0.000000000000D+00  6 3 22 9900012 13 4 21 2 0.25273953D+00 0.18710955D-02 0.14382617D+05 0.14382617D+05 0.14382617D+05 0.11933021D+01  1  2 13  1  6  1        3 -.727445711600D-05 0.100000000000D+01
-.393466965407D-07 0.000000000000D+00 0.000000000000D+00 0.979433792634D-07 0.000000000000D+00  6 3 22 9900012 13 4 21 2 0.23328599D+00 0.18710955D-02 0.13174921D+05 0.13174921D+05 0.13174921D+05 0.11971120D+01  1  2  8  1  6  1        3 -.155603624489D-06 0.100000000000D+01
0.461856318877D-06 0.000000000000D+00 0.000000000000D+00 0.979433792634D-07 0.339217877586D-07  6 3 22 9900012 13 4 21 2 0.24630575D+00 0.19199705D-02 0.14382617D+05 0.14382617D+05 0.14382617D+05 0.11933021D+01  1  2  1  1  6  1        3 0.145055621422D-05 0.100000000000D+01
  </mgrwgt>
  </event>
  <event>
  6     66 0.10089070E-05 0.16054102E+02 0.78161638E-02 0.13014831E+00
        1 -1    0    0  501    0 0.00000000E+00 0.00000000E+00 0.17271070E+04 0.17271070E+04 0.00000000E+00 0.0000E+00 0.9000E+01
       22 -1    0    0    0    0 0.00000000E+00 0.00000000E+00 -.74459504E+01 0.74459504E+01 0.00000000E+00 0.0000E+00 0.9000E+01
      -24  2    1    2    0    0 -.12097461E+02 -.10553940E+02 0.22617997E+03 0.24098558E+03 0.81602329E+02 0.0000E+00 0.0000E+00
  9900012  1    3    3    0    0 0.15653182E+02 0.93353713E+00 0.12788453E+03 0.13820400E+03 0.50000000E+02 0.0000E+00 0.9000E+01
       13  1    3    3    0    0 -.27750643E+02 -.11487477E+02 0.98295440E+02 0.10278158E+03 0.00000000E+00 0.0000E+00 0.9000E+01
        2  1    1    2  501    0 0.12097461E+02 0.10553940E+02 0.14934811E+04 0.14935673E+04 0.00000000E+00 0.0000E+00 0.9000E+01
#aMCatNLO 1  0  0  5  5 0.22232707D+02 0.00000000D+00  -5  6  0 0.00000000D+00 0.00000000D+00 0.00000000D+00 0.00000000D+00 0.00000000D+00
  <mgrwgt>
 0.1161398899D-03    4    2    0
 0.113401732332923D+03 0.000000000000000D+00 0.000000000000000D+00 0.113401732332923D+03
 0.113401732332923D+03 -.000000000000000D+00 -.000000000000000D+00 -.113401732332923D+03
 0.873184066281604D+02 0.156531822165998D+02 0.933537133232563D+00 -.698470509828122D+02
 0.407633043198126D+02 -.277506429696879D+02 -.114874768969705D+02 -.275605999277978D+02
 0.987217537178730D+02 0.120974607530882D+02 0.105539397637380D+02 0.974076509106100D+02
 0.000000000000000D+00 0.000000000000000D+00 0.000000000000000D+00 -.000000000000000D+00
 0.113401732332923D+03 0.000000000000000D+00 0.000000000000000D+00 0.113401732332923D+03
 0.113401732332923D+03 -.000000000000000D+00 -.000000000000000D+00 -.113401732332923D+03
 0.811741640560517D+02 0.166636047113416D+02 0.181503932307921D+01 -.617112211877113D+02
 0.378369299629493D+02 -.272792901706370D+02 -.110762642342320D+02 -.237653101688321D+02
 0.927411489006273D+02 -.241757429418785D+01 0.650313573339245D+01 0.924812697770390D+02
 0.150512217462177D+02 0.130332597534834D+02 0.275808917776039D+01 -.700473842049573D+01
0.219243204047D-05 0.000000000000D+00 0.000000000000D+00 0.131940238490D-05 0.000000000000D+00  6 1 22 9900012 13 2 21 0 0.26570877D+00 0.11455308D-02 0.24250551D+04 0.24250551D+04 0.24250551D+04 0.12788635D+01  1  2  2  2  6  5        2 0.114666959435D-03 0.100000000000D+01
0.355155016651D-06 0.000000000000D+00 -.420975815801D-08 0.131940238490D-05 0.000000000000D+00  6 1 22 9900012 13 2 21 2 0.26570877D+00 0.11455308D-02 0.24250551D+04 0.24250551D+04 0.24250551D+04 0.12788635D+01  1  2  3  2  6  5        2 0.303793526965D-04 0.100000000000D+01
-.330702900253D-06 0.000000000000D+00 0.000000000000D+00 0.131940238490D-05 0.000000000000D+00  6 1 22 9900012 13 2 21 2 0.26570877D+00 0.11455308D-02 0.24250551D+04 0.24250551D+04 0.24250551D+04 0.12788635D+01  1  2 15  2  6  5        2 -.282877604806D-04 0.100000000000D+01
-.723257066364D-08 0.000000000000D+00 0.000000000000D+00 0.131940238490D-05 0.000000000000D+00  6 1 22 9900012 13 2 21 2 0.26570877D+00 0.11455308D-02 0.24250551D+04 0.24250551D+04 0.24250551D+04 0.12788635D+01  1  2  4  2  6  5        2 -.618661724575D-06 0.100000000000D+01
  </mgrwgt>
  </event>
  <event>
  6     66 0.10089070E-05 0.40485385E+02 0.78161638E-02 0.11014486E+00
        1 -1    0    0  501    0 0.00000000E+00 0.00000000E+00 0.35569955E+02 0.35569955E+02 0.00000000E+00 0.0000E+00 0.9000E+01
       22 -1    0    0    0    0 -.00000000E+00 -.00000000E+00 -.18538356E+04 0.18538356E+04 0.00000000E+00 0.0000E+00 0.9000E+01
      -24  2    1    2    0    0 0.59286192E+02 -.11379303E+03 -.17230420E+04 0.17296205E+04 0.79056109E+02 0.0000E+00 0.0000E+00
  9900012  1    3    3    0    0 0.22268937E+02 -.38855038E+02 -.76106293E+03 0.76401727E+03 0.50000000E+02 0.0000E+00 0.9000E+01
       13  1    3    3    0    0 0.37017255E+02 -.74937988E+02 -.96197903E+03 0.96560325E+03 0.00000000E+00 0.0000E+00 0.9000E+01
        2  1    1    2  501    0 -.59286192E+02 0.11379303E+03 -.95223690E+02 0.15978503E+03 0.00000000E+00 0.0000E+00 0.9000E+01
#aMCatNLO 1  0  0  5  1 0.22935985D+02 0.00000000D+00  -5  6  0 0.00000000D+00 0.00000000D+00 0.00000000D+00 0.00000000D+00 0.00000000D+00
  <mgrwgt>
 0.8428117824D-04    7    2    0
 0.256789502331607D+03 0.000000000000000D+00 0.000000000000000D+00 0.256789502331607D+03
 0.256789502331607D+03 -.000000000000000D+00 -.000000000000000D+00 -.256789502331607D+03
 0.116289628406702D+03 0.222689365483608D+02 -.388550380329904D+02 -.949613508719670D+02
 0.146584496133480D+03 0.370172550495181D+02 -.749379880796610D+02 -.120420244468602D+03
 0.250704880123031D+03 -.592861915978789D+02 0.113793026112651D+03 0.215381595340569D+03
 0.000000000000000D+00 0.000000000000000D+00 0.000000000000000D+00 0.000000000000000D+00
 0.256789502331607D+03 0.000000000000000D+00 0.000000000000000D+00 0.256789502331607D+03
 0.256789502331607D+03 -.000000000000000D+00 -.000000000000000D+00 -.256789502331607D+03
 0.114141047574828D+03 0.217021576184669D+02 -.377671710637814D+02 -.929022921462189D+02
 0.143574143214612D+03 0.363035662040174D+02 -.735681444239374D+02 -.117827474753129D+03
 0.227266902430047D+03 -.742396623398434D+02 0.998049879888058D+02 0.190204316061358D+03
 0.285969114437261D+02 0.162339385173591D+02 0.115303274989131D+02 0.205254508379895D+02
0.112694448310D-04 0.000000000000D+00 0.000000000000D+00 0.753261311465D-05 0.000000000000D+00  6 1 22 9900012 13 2 21 0 0.54723007D-02 0.28520548D+00 0.19462629D+05 0.19462629D+05 0.19462629D+05 0.11804514D+01  1  2  2  2  6  5        2 0.182620528545D-04 0.100000000000D+01
0.465213409730D-07 0.000000000000D+00 -.216388177320D-07 0.753261311465D-05 0.000000000000D+00  6 1 22 9900012 13 2 21 2 0.54723007D-02 0.28520548D+00 0.19462629D+05 0.19462629D+05 0.19462629D+05 0.11804514D+01  1  2  3  2  6  5        2 0.105049865237D-06 0.100000000000D+01
-.169520699205D-05 0.000000000000D+00 0.000000000000D+00 0.753261311465D-05 0.000000000000D+00  6 1 22 9900012 13 2 21 2 0.54723007D-02 0.28520548D+00 0.19462629D+05 0.19462629D+05 0.19462629D+05 0.11804514D+01  1  2 15  2  6  5        2 -.382794782648D-05 0.100000000000D+01
0.337131029255D-04 0.000000000000D+00 0.000000000000D+00 0.753261311465D-05 0.000000000000D+00  6 1 22 9900012 13 2 21 2 0.54723007D-02 0.28520548D+00 0.21411179D+05 0.21411179D+05 0.21411179D+05 0.11764868D+01  1  2 12  2  6  5        2 0.760867369610D-04 0.100000000000D+01
-.679524494525D-05 0.000000000000D+00 0.000000000000D+00 0.753261311465D-05 0.000000000000D+00  6 1 22 9900012 13 2 21 2 0.54723007D-02 0.28520548D+00 0.19462629D+05 0.19462629D+05 0.19462629D+05 0.11804514D+01  1  2  4  2  6  5        2 -.153443462896D-04 0.100000000000D+01
-.330679644267D-04 0.000000000000D+00 0.000000000000D+00 0.753261311465D-05 0.000000000000D+00  6 1 22 9900012 13 2 21 2 0.54723007D-02 0.28520548D+00 0.19462629D+05 0.19462629D+05 0.19462629D+05 0.11804514D+01  1  2  5  2  6  5        2 -.746707883739D-04 0.100000000000D+01
0.370534524538D-04 0.000000000000D+00 -.000000000000D+00 0.753261311465D-05 0.000000000000D+00  6 1 22 9900012 13 2 21 2 0.54723007D-02 0.28520548D+00 0.19462629D+05 0.19462629D+05 0.19462629D+05 0.11804514D+01  1  2  6  2  6  5        2 0.836704210456D-04 0.100000000000D+01
  </mgrwgt>
  </event>
  <event>
  6     66 0.10089070E-05 0.88628954E+02 0.78161638E-02 0.11702502E+00
        3 -1    0    0  501    0 0.00000000E+00 0.00000000E+00 0.99930858E+02 0.99930858E+02 0.00000000E+00 0.0000E+00 0.9000E+01
       22 -1    0    0    0    0 -.00000000E+00 -.00000000E+00 -.62363796E+03 0.62363796E+03 0.00000000E+00 0.0000E+00 0.9000E+01
      -24  2    1    2    0    0 -.13925417E+02 0.87528134E+02 -.59673635E+03 0.60872822E+03 0.81244578E+02 0.0000E+00 0.0000E+00
  9900012  1    3    3    0    0 -.12941844E+02 0.72323315E+02 -.33623712E+03 0.34778377E+03 0.50000000E+02 0.0000E+00 0.9000E+01
       13  1    3    3    0    0 -.98357296E+00 0.15204819E+02 -.26049923E+03 0.26094445E+03 0.00000000E+00 0.0000E+00 0.9000E+01
        4  1    1    2  501    0 0.13925417E+02 -.87528134E+02 0.73029250E+02 0.11484060E+03 0.00000000E+00 0.0000E+00 0.9000E+01
#aMCatNLO 1  0  0  5  5 0.35590047D+03 0.00000000D+00  -5  6  0 0.00000000D+00 0.00000000D+00 0.00000000D+00 0.00000000D+00 0.00000000D+00
  <mgrwgt>
 0.9506694838D-04    4    2    0
 0.249641094831362D+03 0.000000000000000D+00 0.000000000000000D+00 0.249641094831362D+03
 0.249641094831362D+03 -.000000000000000D+00 -.000000000000000D+00 -.249641094831362D+03
 0.151328703884204D+03 -.129418437727028D+02 0.723233149655711D+02 -.122483563841957D+03
 0.104922562133491D+03 -.983572958952848D+00 0.152048191480466D+02 -.103810356436946D+03
 0.243030923645030D+03 0.139254167316557D+02 -.875281341136178D+02 0.226293920278903D+03
 0.000000000000000D+00 -.000000000000000D+00 0.000000000000000D+00 0.000000000000000D+00
 0.249641094831362D+03 0.000000000000000D+00 0.000000000000000D+00 0.249641094831362D+03
 0.249641094831362D+03 -.000000000000000D+00 -.000000000000000D+00 -.249641094831362D+03
 0.110340818640420D+03 -.103409490292930D+02 0.559754046442181D+02 -.802179226004245D+02
 0.748781374731196D+02 0.803577068900429D+00 0.397169698492277D+01 -.747684115010991D+02
 0.202697632478838D+03 0.870437723825233D+02 -.133975787991879D+03 0.124740531239453D+03
 0.111365601070346D+03 -.775064004221307D+02 0.740286863627377D+02 0.302458028620706D+02
0.399018359412D-04 0.000000000000D+00 0.000000000000D+00 0.109699664136D-04 0.000000000000D+00  6 3 22 9900012 13 4 21 0 0.15373978D-01 0.95944301D-01 0.92868981D+04 0.92868981D+04 0.92868981D+04 0.12126746D+01  1  2  2  2  6  5        4 0.118701031502D-03 0.100000000000D+01
0.301465210097D-06 0.000000000000D+00 -.766167782044D-07 0.109699664136D-04 0.000000000000D+00  6 3 22 9900012 13 4 21 2 0.15373978D-01 0.95944301D-01 0.92868981D+04 0.92868981D+04 0.92868981D+04 0.12126746D+01  1  2  3  2  6  5        4 0.131882571056D-05 0.100000000000D+01
-.550638843211D-05 0.000000000000D+00 0.000000000000D+00 0.109699664136D-04 0.000000000000D+00  6 3 22 9900012 13 4 21 2 0.15373978D-01 0.95944301D-01 0.92868981D+04 0.92868981D+04 0.92868981D+04 0.12126746D+01  1  2 15  2  6  5        4 -.240889044352D-04 0.100000000000D+01
-.197499384298D-06 0.000000000000D+00 0.000000000000D+00 0.109699664136D-04 0.000000000000D+00  6 3 22 9900012 13 4 21 2 0.15373978D-01 0.95944301D-01 0.92868981D+04 0.92868981D+04 0.92868981D+04 0.12126746D+01  1  2  4  2  6  5        4 -.864004392905D-06 0.100000000000D+01
  </mgrwgt>
  </event>
  <event>
  6     66 0.10089070E-05 0.68027682E+02 0.78161638E-02 0.11154493E+00
        3 -1    0    0  501    0 0.00000000E+00 0.00000000E+00 0.55162571E+02 0.55162571E+02 0.00000000E+00 0.0000E+00 0.9000E+01
       22 -1    0    0    0    0 -.00000000E+00 -.00000000E+00 -.34268888E+03 0.34268888E+03 0.00000000E+00 0.0000E+00 0.9000E+01
      -24  2    1    2    0    0 0.56623211E+02 0.10979776E+03 -.19018042E+03 0.24056840E+03 0.80267229E+02 0.0000E+00 0.0000E+00
  9900012  1    3    3    0    0 0.33483259E+02 0.10416805E+03 -.17488016E+03 0.21226206E+03 0.50000000E+02 0.0000E+00 0.9000E+01
       13  1    3    3    0    0 0.23139952E+02 0.56297097E+01 -.15300253E+02 0.28306338E+02 0.00000000E+00 0.0000E+00 0.9000E+01
        4  1    1    2  501    0 -.56623211E+02 -.10979776E+03 -.97345891E+02 0.15728305E+03 0.00000000E+00 0.0000E+00 0.9000E+01
#aMCatNLO 1  0  0  5  5 0.35590047D+03 0.00000000D+00  -5  6  0 0.00000000D+00 0.00000000D+00 0.00000000D+00 0.00000000D+00 0.00000000D+00
  <mgrwgt>
 0.1357396764D-05    1    2    0
 0.137490362673357D+03 0.000000000000000D+00 0.000000000000000D+00 0.137490362673357D+03
 0.137490362673357D+03 -.000000000000000D+00 -.000000000000000D+00 -.137490362673357D+03
 0.124249149647915D+03 0.334832588759019D+02 0.104168048797044D+03 -.310763603579309D+02
 0.249562668663900D+02 0.231399523376542D+02 0.562970969111968D+01 0.746084650098617D+01
 0.125775308832408D+03 -.566232112135561D+02 -.109797758488164D+03 0.236155138569447D+02
 0.000000000000000D+00 0.000000000000000D+00 0.000000000000000D+00 -.000000000000000D+00
 0.137490362673357D+03 0.000000000000000D+00 0.000000000000000D+00 0.137490362673357D+03
 0.137490362673357D+03 -.000000000000000D+00 -.000000000000000D+00 -.137490362673357D+03
 0.781553471444448D+02 0.851692445890856D+01 0.557559665802114D+02 -.206637962566482D+02
 0.207537414272941D+02 0.175016815909604D+02 -.530343020802047D+01 0.981236733659497D+01
 0.107156299499010D+03 -.847862243872495D+02 -.460863015127388D+02 0.465813427173741D+02
 0.689153372759642D+02 0.587676183373806D+02 -.436623485945208D+01 -.357299137973209D+02
0.401608684572D-07 0.000000000000D+00 0.000000000000D+00 0.284287754646D-06 0.000000000000D+00  6 3 22 9900012 13 4 21 2 0.84865494D-02 0.52721366D-01 0.17909588D+05 0.17909588D+05 0.17909588D+05 0.11839404D+01  1  2 14  2  6  5        4 0.135739676374D-05 0.100000000000D+01
  </mgrwgt>
  </event>
  <event>
  6     66 0.10089070E-05 0.24744711E+02 0.78161638E-02 0.12474938E+00
        3 -1    0    0  501    0 0.00000000E+00 0.00000000E+00 0.24475476E+03 0.24475476E+03 0.00000000E+00 0.0000E+00 0.9000E+01
       22 -1    0    0    0    0 0.00000000E+00 0.00000000E+00 -.57379698E+02 0.57379698E+02 0.00000000E+00 0.0000E+00 0.9000E+01
      -24  2    1    2    0    0 0.24716295E+02 0.11855297E+01 -.26550004E+02 0.86783037E+02 0.78829513E+02 0.0000E+00 0.0000E+00
  9900012  1    3    3    0    0 0.23485087E+02 0.20708799E+02 -.31112079E+02 0.66696065E+02 0.50000000E+02 0.0000E+00 0.9000E+01
       13  1    3    3    0    0 0.12312077E+01 -.19523270E+02 0.45620741E+01 0.20086972E+02 0.00000000E+00 0.0000E+00 0.9000E+01
        4  1    1    2  501    0 -.24716295E+02 -.11855297E+01 0.21392506E+03 0.21535142E+03 0.00000000E+00 0.0000E+00 0.9000E+01
#aMCatNLO 1  0  0  1  5 0.36262623D+02 0.00000000D+00  -5  6  0 0.00000000D+00 0.00000000D+00 0.00000000D+00 0.00000000D+00 0.00000000D+00
  <mgrwgt>
 0.1561366278D-04    4    2    0
 0.118507190669015D+03 0.000000000000000D+00 0.000000000000000D+00 0.118507190669015D+03
 0.118507190669015D+03 0.000000000000000D+00 0.000000000000000D+00 -.118507190669015D+03
 0.109617006798048D+03 0.234850869340903D+02 0.207087991948337D+02 -.923876859054793D+02
 0.219992873567226D+02 0.123120773629613D+01 -.195232695330342D+02 -.100645277313064D+02
 0.105398087183259D+03 -.247162946703864D+02 -.118552966179945D+01 0.102452213636786D+03
 0.000000000000000D+00 0.000000000000000D+00 0.000000000000000D+00 -.000000000000000D+00
 0.126826968591510D+03 0.000000000000000D+00 0.000000000000000D+00 0.126826968591510D+03
 0.133953255983959D+03 0.000000000000000D+00 0.000000000000000D+00 -.133953255983959D+03
 0.107741547291265D+03 0.212175292076958D+02 0.110712673198180D+02 -.923876859054793D+02
 0.237999204811955D+02 0.753414957305946D+00 -.215539755580984D+02 -.100645277313064D+02
 0.106458477815358D+03 -.269264537913964D+02 -.105791070466883D+02 0.102452213636786D+03
 0.227802789876508D+02 0.495550962639465D+01 0.210618152849687D+02 -.712628739244849D+01
0.745291683147D-06 0.000000000000D+00 0.000000000000D+00 0.292614305018D-05 0.000000000000D+00  6 3 22 9900012 13 4 21 0 0.37654578D-01 0.88276459D-02 0.26678108D+04 0.26678108D+04 0.26678108D+04 0.12737870D+01  1  2  2  1  6  1        3 0.175797599664D-04 0.100000000000D+01
0.651991305514D-07 0.000000000000D+00 -.143105815155D-08 0.292614305018D-05 0.000000000000D+00  6 3 22 9900012 13 4 21 2 0.37654578D-01 0.88276459D-02 0.26678108D+04 0.26678108D+04 0.26678108D+04 0.12737870D+01  1  2  3  1  6  1        3 0.249529619278D-05 0.100000000000D+01
-.112607333519D-06 0.000000000000D+00 0.000000000000D+00 0.292614305018D-05 0.000000000000D+00  6 3 22 9900012 13 4 21 2 0.37654578D-01 0.88276459D-02 0.26678108D+04 0.26678108D+04 0.26678108D+04 0.12737870D+01  1  2 15  1  6  1        3 -.430969935079D-05 0.100000000000D+01
-.396358520441D-08 0.000000000000D+00 0.000000000000D+00 0.292614305018D-05 0.000000000000D+00  6 3 22 9900012 13 4 21 2 0.37654578D-01 0.88276459D-02 0.26678108D+04 0.26678108D+04 0.26678108D+04 0.12737870D+01  1  2  4  1  6  1        3 -.151694033136D-06 0.100000000000D+01
  </mgrwgt>
  </event>
  <event>
  7     66 0.10089070E-05 0.28997543E+02 0.78161638E-02 0.12816712E+00
        1 -1    0    0  501    0 0.00000000E+00 0.00000000E+00 0.80716160E+01 0.80716160E+01 0.00000000E+00 0.0000E+00 0.9000E+01
       22 -1    0    0    0    0 -.00000000E+00 -.00000000E+00 -.77836288E+03 0.77836288E+03 0.00000000E+00 0.0000E+00 0.9000E+01
      -24  2    1    2    0    0 0.24119074E+02 0.17212555E+02 -.24479776E+03 0.25927612E+03 0.80125896E+02 0.0000E+00 0.0000E+00
  9900012  1    3    3    0    0 0.30604678E+01 0.24302836E+02 -.11713789E+03 0.12969687E+03 0.50000000E+02 0.0000E+00 0.9000E+01
       13  1    3    3    0    0 0.21058606E+02 -.70902811E+01 -.12765988E+03 0.12957925E+03 0.00000000E+00 0.0000E+00 0.9000E+01
        2  1    1    2  502    0 -.62314312E+00 0.41070448E+00 -.26709332E+03 0.26709436E+03 0.00000000E+00 0.0000E+00 0.9000E+01
       21  1    1    2  501  502 -.23495931E+02 -.17623260E+02 -.25840018E+03 0.26006401E+03 0.00000000E+00 0.0000E+00 0.9000E+01
#aMCatNLO 2  0  0  5  1 0.14680817D+02 0.00000000D+00  -5  6  0 0.00000000D+00 0.00000000D+00 0.00000000D+00 0.00000000D+00 0.00000000D+00
  <mgrwgt>
 0.9649415289D-02    2    2    0
 0.792631456189394D+02 0.000000000000000D+00 0.000000000000000D+00 0.792631456189394D+02
 0.792631456189394D+02 -.000000000000000D+00 -.000000000000000D+00 -.792631456189394D+02
 0.767672593936427D+02 0.469611791356177D+01 0.254701165505025D+02 0.521769274129530D+02
 0.227453956480488D+02 0.215489471273154D+02 -.674034985299507D+01 -.275019722014125D+01
 0.590136361961873D+02 -.262450650408772D+02 -.187297666975074D+02 -.494267301928118D+02
 0.000000000000000D+00 0.000000000000000D+00 -.000000000000000D+00 0.000000000000000D+00
 0.792631456189394D+02 0.000000000000000D+00 0.000000000000000D+00 0.792631456189394D+02
 0.792631456189394D+02 -.000000000000000D+00 -.000000000000000D+00 -.792631456189394D+02
 0.742325066794692D+02 0.306046779954561D+01 0.243028363404303D+02 0.490965449963196D+02
 0.225218261739792D+02 0.210586063906381D+02 -.709028107190979D+01 -.367364470470824D+01
 0.272041274138171D+02 -.623143120175916D+00 0.410704483450464D+00 -.271938883359156D+02
 0.345678309706134D+02 -.234959310700078D+02 -.176232597519710D+02 -.182290119556958D+02
-.300358543168D-06 0.000000000000D+00 0.000000000000D+00 0.106090136882D-06 0.000000000000D+00  6 1 22 9900012 13 2 21 2 0.12417871D-02 0.11974814D+00 0.29167993D+04 0.29167993D+04 0.29167993D+04 0.12690924D+01  1  2 13  2  6  5        2 -.408628357458D-04 0.100000000000D+01
0.712275045819D-04 0.000000000000D+00 0.000000000000D+00 0.106090136882D-06 0.256979356704D-06  6 1 22 9900012 13 2 21 2 0.12417871D-02 0.11974814D+00 0.29167993D+04 0.29167993D+04 0.29167993D+04 0.12690924D+01  1  2  1  2  6  5        2 0.969027812433D-02 0.100000000000D+01
  </mgrwgt>
  </event>
  <event>
  6     66 0.10089070E-05 0.31467867E+02 0.78161638E-02 0.12555554E+00
        1 -1    0    0  501    0 0.00000000E+00 0.00000000E+00 0.19808328E+03 0.19808328E+03 0.00000000E+00 0.0000E+00 0.9000E+01
       22 -1    0    0    0    0 0.00000000E+00 0.00000000E+00 -.34556948E+02 0.34556948E+02 0.00000000E+00 0.0000E+00 0.9000E+01
      -24  2    1    2    0    0 0.27672530E+02 0.14981915E+02 0.17819833E+03 0.19792001E+03 0.80171431E+02 0.0000E+00 0.0000E+00
  9900012  1    3    3    0    0 0.10656865E+02 0.33074521E+02 0.11757299E+03 0.13240431E+03 0.50000000E+02 0.0000E+00 0.9000E+01
       13  1    3    3    0    0 0.17015665E+02 -.18092606E+02 0.60625341E+02 0.65515702E+02 0.00000000E+00 0.0000E+00 0.9000E+01
        2  1    1    2  501    0 -.27672530E+02 -.14981915E+02 -.14671991E+02 0.34720225E+02 0.00000000E+00 0.0000E+00 0.9000E+01
#aMCatNLO 1  0  0  5  1 0.57123929D+01 0.00000000D+00  -5  6  0 0.00000000D+00 0.00000000D+00 0.00000000D+00 0.00000000D+00 0.00000000D+00
  <mgrwgt>
 0.1284820637D-03    6    2    0
 0.827354438481169D+02 0.000000000000000D+00 0.000000000000000D+00 0.827354438481169D+02
 0.827354438481169D+02 -.000000000000000D+00 -.000000000000000D+00 -.827354438481169D+02
 0.699596678684251D+02 0.106568647807908D+02 0.330745206665070D+02 0.344508700033119D+02
 0.321974956616746D+02 0.170156651453648D+02 -.180926060145325D+02 0.204891062310505D+02
 0.633137241661342D+02 -.276725299261556D+02 -.149819146519745D+02 -.549399762343623D+02
 0.000000000000000D+00 0.000000000000000D+00 -.000000000000000D+00 0.000000000000000D+00
 0.827354438481169D+02 0.000000000000000D+00 0.000000000000000D+00 0.827354438481169D+02
 0.827354438481169D+02 -.000000000000000D+00 -.000000000000000D+00 -.827354438481169D+02
 0.689607929066252D+02 0.992691341881212D+01 0.326793248158045D+02 0.330016526536020D+02
 0.317033689706501D+02 0.166799009036559D+02 -.182743888593209D+02 0.198224928238535D+02
 0.460759385375112D+01 0.274458252099044D+01 0.221750383839367D+01 -.296308363589476D+01
 0.601991319652074D+02 -.293513968434585D+02 -.166224397948773D+02 -.498610618415608D+02
0.738265974678D-06 0.000000000000D+00 0.000000000000D+00 0.313662160809D-06 0.000000000000D+00  6 1 22 9900012 13 2 21 0 0.30474351D-01 0.53164535D-02 0.34336098D+04 0.34336098D+04 0.34336098D+04 0.12606493D+01  1  2  2  2  6  5        2 0.130169701753D-03 0.100000000000D+01
-.468916041127D-07 0.000000000000D+00 -.141756786633D-08 0.313662160809D-06 0.000000000000D+00  6 1 22 9900012 13 2 21 2 0.30474351D-01 0.53164535D-02 0.34336098D+04 0.34336098D+04 0.34336098D+04 0.12606493D+01  1  2  3  2  6  5        2 -.131395566519D-04 0.100000000000D+01
-.582048448590D-07 0.000000000000D+00 0.000000000000D+00 0.313662160809D-06 0.000000000000D+00  6 1 22 9900012 13 2 21 2 0.30474351D-01 0.53164535D-02 0.34336098D+04 0.34336098D+04 0.34336098D+04 0.12606493D+01  1  2 15  2  6  5        2 -.163096543808D-04 0.100000000000D+01
0.679705927436D-07 0.000000000000D+00 0.000000000000D+00 0.313662160809D-06 0.000000000000D+00  6 1 22 9900012 13 2 21 2 0.30474351D-01 0.53164535D-02 0.37548402D+04 0.37548402D+04 0.37548402D+04 0.12560961D+01  1  2 12  2  6  5        2 0.190691903008D-04 0.100000000000D+01
-.668062529411D-07 0.000000000000D+00 0.000000000000D+00 0.313662160809D-06 0.000000000000D+00  6 1 22 9900012 13 2 21 2 0.30474351D-01 0.53164535D-02 0.34336098D+04 0.34336098D+04 0.34336098D+04 0.12606493D+01  1  2  5  2  6  5        2 -.187198659938D-04 0.100000000000D+01
0.977087521834D-07 0.000000000000D+00 0.000000000000D+00 0.313662160809D-06 0.890429675051D-08  6 1 22 9900012 13 2 21 2 0.30474351D-01 0.53164535D-02 0.37548402D+04 0.37548402D+04 0.37548402D+04 0.12560961D+01  1  2 11  2  6  5        2 0.274122486539D-04 0.100000000000D+01
  </mgrwgt>
  </event>
  <event>
  7     66 -.10089070E-05 0.54675849E+02 0.78161638E-02 0.12240672E+00
        1 -1    0    0  501    0 0.00000000E+00 0.00000000E+00 0.17308498E+03 0.17308498E+03 0.00000000E+00 0.0000E+00 0.9000E+01
       22 -1    0    0    0    0 0.00000000E+00 0.00000000E+00 -.43497122E+02 0.43497122E+02 0.00000000E+00 0.0000E+00 0.9000E+01
      -24  2    1    2    0    0 0.53128579E+02 0.48927830E+01 0.11305203E+03 0.14866961E+03 0.80469276E+02 0.0000E+00 0.0000E+00
  9900012  1    3    3    0    0 0.35384152E+02 0.15938389E+02 0.45480820E+02 0.77939562E+02 0.50000000E+02 0.0000E+00 0.9000E+01
       13  1    3    3    0    0 0.17744427E+02 -.11045606E+02 0.67571215E+02 0.70730045E+02 0.00000000E+00 0.0000E+00 0.9000E+01
        2  1    1    2  502    0 -.56180316E+02 -.37494266E+01 0.56951624E+01 0.56592588E+02 0.00000000E+00 0.0000E+00 0.9000E+01
       21  1    1    2  501  502 0.30517373E+01 -.11433564E+01 0.10840659E+02 0.11319905E+02 0.00000000E+00 0.0000E+00 0.9000E+01
#aMCatNLO 2  0  0  5  1 0.10674804D+02 0.00000000D+00  -5  6  0 0.00000000D+00 0.00000000D+00 0.00000000D+00 0.00000000D+00 0.00000000D+00
  <mgrwgt>
 -.4639796509D-04    3    2    0
 0.867680723350577D+02 0.000000000000000D+00 0.000000000000000D+00 0.867680723350577D+02
 0.867680723350577D+02 -.000000000000000D+00 -.000000000000000D+00 -.867680723350577D+02
 0.655300208024718D+02 0.390984633943771D+02 0.162804518660249D+02 0.663832515765713D+00
 0.398949841667643D+02 0.199847498861487D+02 -.108392872949859D+02 0.327830655154641D+02
 0.681111397008794D+02 -.590832132805257D+02 -.544116457103904D+01 -.334468980312298D+02
 0.000000000000000D+00 0.000000000000000D+00 0.000000000000000D+00 0.000000000000000D+00
 0.867680723350577D+02 0.000000000000000D+00 0.000000000000000D+00 0.867680723350577D+02
 0.867680723350577D+02 -.000000000000000D+00 -.000000000000000D+00 -.867680723350577D+02
 0.633098782342013D+02 0.353841518658405D+02 0.159383888810800D+02 -.143883238773798D+01
 0.378160566100979D+02 0.177444266880537D+02 -.110456059180992D+02 0.315148226863561D+02
 0.663776274927482D+02 -.561803158508706D+02 -.374942659836725D+01 -.351525723474957D+02
 0.603258233306803D+01 0.305173729697645D+01 -.114335636461348D+01 0.507658204887749D+01
-.309556310449D-06 0.000000000000D+00 0.000000000000D+00 0.199025283311D-06 0.000000000000D+00  6 1 22 9900012 13 2 21 2 0.26628458D-01 0.66918649D-02 0.51666731D+04 0.51666731D+04 0.51666731D+04 0.12402452D+01  1  2 13  2  6  5        2 -.750297699154D-04 0.100000000000D+01
-.206723899756D-07 0.000000000000D+00 0.000000000000D+00 0.199025283311D-06 0.000000000000D+00  6 1 22 9900012 13 2 21 2 0.26628458D-01 0.66918649D-02 0.54460631D+04 0.54460631D+04 0.54460631D+04 0.12376890D+01  1  2  8  2  6  5        2 -.501383620603D-05 0.100000000000D+01
0.138814506738D-06 0.000000000000D+00 0.000000000000D+00 0.199025283311D-06 0.119607414441D-06  6 1 22 9900012 13 2 21 2 0.26628458D-01 0.66918649D-02 0.51666731D+04 0.51666731D+04 0.51666731D+04 0.12402452D+01  1  2  1  2  6  5        2 0.336456410349D-04 0.100000000000D+01
  </mgrwgt>
  </event>
  <event>
  6     66 0.10089070E-05 0.29938690E+02 0.78161638E-02 0.12189864E+00
        1 -1    0    0  501    0 0.00000000E+00 0.00000000E+00 0.39453920E+04 0.39453920E+04 0.00000000E+00 0.0000E+00 0.9000E+01
       22 -1    0    0    0    0 0.00000000E+00 0.00000000E+00 -.14725439E+01 0.14725439E+01 0.00000000E+00 0.0000E+00 0.9000E+01
      -24  2    1    2    0    0 0.29904788E+02 0.14243506E+01 0.13134425E+04 0.13162172E+04 0.80001529E+02 0.0000E+00 0.0000E+00
  9900012  1    3    3    0    0 0.43397015E+02 0.87179091E+01 0.11816265E+04 0.11835119E+04 0.50000000E+02 0.0000E+00 0.9000E+01
       13  1    3    3    0    0 -.13492226E+02 -.72935585E+01 0.13181599E+03 0.13270528E+03 0.00000000E+00 0.0000E+00 0.9000E+01
        2  1    1    2  501    0 -.29904788E+02 -.14243506E+01 0.26304769E+04 0.26306473E+04 0.00000000E+00 0.0000E+00 0.9000E+01
#aMCatNLO 1  0  0  1  5 0.34066375D+02 0.00000000D+00  -5  6  0 0.00000000D+00 0.00000000D+00 0.00000000D+00 0.00000000D+00 0.00000000D+00
  <mgrwgt>
 0.6663482644D-04    7    2    0
 0.762217997350421D+02 0.000000000000000D+00 0.000000000000000D+00 0.762217997350421D+02
 0.762217997350421D+02 0.000000000000000D+00 0.000000000000000D+00 -.762217997350421D+02
 0.716430880132276D+02 0.433970145422881D+02 0.871790912469078D+01 -.259505153972160D+02
 0.255708839335408D+02 -.134922262097486D+02 -.729355852584851D+01 -.204605459623542D+02
 0.552296275233158D+02 -.299047883325396D+02 -.142435059884227D+01 0.464110613595702D+02
 0.000000000000000D+00 0.000000000000000D+00 0.000000000000000D+00 0.000000000000000D+00
 0.101464155423620D+03 0.000000000000000D+00 0.000000000000000D+00 0.101464155423620D+03
 0.860884338422332D+02 0.000000000000000D+00 0.000000000000000D+00 -.860884338422332D+02
 0.668838617918627D+02 0.360096189225986D+02 -.182457224057328D+01 -.259505153972160D+02
 0.285877577935590D+02 -.163804101568148D+02 -.114152581083436D+02 -.204605459623542D+02
 0.596278439125351D+02 -.360299328085254D+02 -.101654854753233D+02 0.464110613595702D+02
 0.324531257678967D+02 0.164007240427416D+02 0.234053158242402D+02 0.153757215813870D+02
0.322033505040D-05 0.000000000000D+00 0.000000000000D+00 0.532644490554D-06 0.000000000000D+00  6 1 22 9900012 13 2 21 0 0.60698338D+00 0.22654521D-03 0.31390310D+04 0.31390310D+04 0.31390310D+04 0.12652692D+01  1  2  2  1  6  1        1 0.377714125914D-04 0.100000000000D+01
0.120403442102D-06 0.000000000000D+00 -.618346726362D-08 0.532644490554D-06 0.000000000000D+00  6 1 22 9900012 13 2 21 2 0.60698338D+00 0.22654521D-03 0.31390310D+04 0.31390310D+04 0.31390310D+04 0.12652692D+01  1  2  3  1  6  1        1 0.226082491850D-05 0.100000000000D+01
-.419125701060D-06 0.000000000000D+00 0.000000000000D+00 0.532644490554D-06 0.000000000000D+00  6 1 22 9900012 13 2 21 2 0.60698338D+00 0.22654521D-03 0.31390310D+04 0.31390310D+04 0.31390310D+04 0.12652692D+01  1  2 15  1  6  1        1 -.786995631019D-05 0.100000000000D+01
-.935712225341D-07 0.000000000000D+00 0.000000000000D+00 0.532644490554D-06 0.000000000000D+00  6 1 22 9900012 13 2 21 2 0.60698338D+00 0.22654521D-03 0.31390310D+04 0.31390310D+04 0.31390310D+04 0.12652692D+01  1  2  4  1  6  1        1 -.175699421766D-05 0.100000000000D+01
-.171256963074D-05 0.000000000000D+00 -.621771712780D-06 0.532644490554D-06 0.000000000000D+00  6 1 22 9900012 13 2 21 2 0.81725784D+00 0.22654521D-03 0.31390310D+04 0.31390310D+04 0.31390310D+04 0.12652692D+01  1  2  5  1  6  1        1 -.188232151026D-05 0.100000000000D+01
0.203019616979D-05 0.000000000000D+00 0.689062457512D-06 0.532644490554D-06 0.000000000000D+00  6 1 22 9900012 13 2 21 2 0.60698338D+00 0.22654521D-03 0.31390310D+04 0.31390310D+04 0.31390310D+04 0.12652692D+01  1  2  6  1  6  1        1 0.381211534319D-04 0.100000000000D+01
-.520354755709D-07 0.000000000000D+00 -.238871006010D-07 0.532644490554D-06 0.000000000000D+00  6 21 22 9900012 13 2 -1 2 0.81725784D+00 0.22654521D-03 0.31390310D+04 0.31390310D+04 0.31390310D+04 0.12652692D+01  1  2  5  3  6  1        1 -.929246559642D-08 0.100000000000D+01
  </mgrwgt>
  </event>
  <event>
  6     66 0.10089070E-05 0.27979859E+02 0.78161638E-02 0.12535680E+00
        3 -1    0    0  501    0 0.00000000E+00 0.00000000E+00 0.46962758E+03 0.46962758E+03 0.00000000E+00 0.0000E+00 0.9000E+01
       22 -1    0    0    0    0 0.00000000E+00 0.00000000E+00 -.73711771E+01 0.73711771E+01 0.00000000E+00 0.0000E+00 0.9000E+01
      -24  2    1    2    0    0 -.18217880E+02 0.21236321E+02 0.29148847E+03 0.30395379E+03 0.81483175E+02 0.0000E+00 0.0000E+00
  9900012  1    3    3    0    0 -.12306147E+02 -.44629711E+01 0.12305798E+03 0.13347144E+03 0.50000000E+02 0.0000E+00 0.9000E+01
       13  1    3    3    0    0 -.59117339E+01 0.25699292E+02 0.16843049E+03 0.17048235E+03 0.00000000E+00 0.0000E+00 0.9000E+01
        4  1    1    2  501    0 0.18217880E+02 -.21236321E+02 0.17076794E+03 0.17304497E+03 0.00000000E+00 0.0000E+00 0.9000E+01
#aMCatNLO 1  0  0  1  5 0.19517715D+02 0.00000000D+00  -5  6  0 0.00000000D+00 0.00000000D+00 0.00000000D+00 0.00000000D+00 0.00000000D+00
  <mgrwgt>
 0.7886283964D-04    9    2    0
 0.588362816113187D+02 0.000000000000000D+00 0.000000000000000D+00 0.588362816113187D+02
 0.588362816113187D+02 0.000000000000000D+00 0.000000000000000D+00 -.588362816113187D+02
 0.576291747473784D+02 -.123061465181595D+02 -.446297114906383D+01 -.254904379809388D+02
 0.294188993454420D+02 -.591173389890620D+01 0.256992921040798D+02 0.130410669178160D+02
 0.306244891298169D+02 0.182178804170657D+02 -.212363209550160D+02 0.124493710631228D+02
 0.000000000000000D+00 0.000000000000000D+00 0.000000000000000D+00 0.000000000000000D+00
 0.734006302652878D+02 0.000000000000000D+00 0.000000000000000D+00 0.734006302652878D+02
 0.642838322256147D+02 0.000000000000000D+00 0.000000000000000D+00 -.642838322256147D+02
 0.597082657345291D+02 -.170774351402994D+02 -.111209611812073D+02 -.254904379809388D+02
 0.272594079166026D+02 -.821644211012067D+01 0.224832375929228D+02 0.130410669178160D+02
 0.318573802014777D+02 0.156771821454309D+02 -.247816826186837D+02 0.124493710631228D+02
 0.188594086382932D+02 0.961669510498916D+01 0.134194062069682D+02 0.911679803967316D+01
0.347636742602D-06 0.000000000000D+00 0.000000000000D+00 0.975598603633D-07 0.000000000000D+00  6 3 22 9900012 13 4 21 0 0.72250397D-01 0.11340272D-02 0.28108836D+04 0.28108836D+04 0.28108836D+04 0.12710324D+01  1  2  2  1  6  1        3 0.365194490696D-04 0.100000000000D+01
0.276276284457D-10 0.000000000000D+00 -.667508313224D-09 0.975598603633D-07 0.000000000000D+00  6 3 22 9900012 13 4 21 2 0.72250397D-01 0.11340272D-02 0.28108836D+04 0.28108836D+04 0.28108836D+04 0.12710324D+01  1  2  3  1  6  1        3 0.468873164299D-08 0.100000000000D+01
-.347642478073D-07 0.000000000000D+00 0.000000000000D+00 0.975598603633D-07 0.000000000000D+00  6 3 22 9900012 13 4 21 2 0.72250397D-01 0.11340272D-02 0.28108836D+04 0.28108836D+04 0.28108836D+04 0.12710324D+01  1  2 15  1  6  1        3 -.589989940899D-05 0.100000000000D+01
0.265807945028D-06 0.000000000000D+00 0.000000000000D+00 0.975598603633D-07 0.000000000000D+00  6 3 22 9900012 13 4 21 2 0.98480750D-01 0.11340272D-02 0.38294299D+04 0.38294299D+04 0.38294299D+04 0.12551016D+01  1  2 12  1  6  1        3 0.232419047851D-04 0.100000000000D+01
-.755663046772D-07 0.000000000000D+00 0.000000000000D+00 0.975598603633D-07 0.000000000000D+00  6 3 22 9900012 13 4 21 2 0.72250397D-01 0.11340272D-02 0.28108836D+04 0.28108836D+04 0.28108836D+04 0.12710324D+01  1  2  4  1  6  1        3 -.128244856260D-04 0.100000000000D+01
-.535698311183D-06 0.000000000000D+00 -.162432902829D-06 0.975598603633D-07 0.000000000000D+00  6 3 22 9900012 13 4 21 2 0.96373181D-01 0.11340272D-02 0.28108836D+04 0.28108836D+04 0.28108836D+04 0.12710324D+01  1  2  5  1  6  1        3 -.488625501591D-04 0.100000000000D+01
0.565383774867D-06 0.000000000000D+00 0.155917758729D-06 0.975598603633D-07 0.000000000000D+00  6 3 22 9900012 13 4 21 2 0.72250397D-01 0.11340272D-02 0.28108836D+04 0.28108836D+04 0.28108836D+04 0.12710324D+01  1  2  6  1  6  1        3 0.959522385665D-04 0.100000000000D+01
0.105141991233D-07 0.000000000000D+00 0.000000000000D+00 0.975598603633D-07 0.000000000000D+00  6 21 22 9900012 13 4 -3 2 0.98480750D-01 0.11340272D-02 0.38294299D+04 0.38294299D+04 0.38294299D+04 0.12551016D+01  1  2 12  3  6  1        3 0.135653035838D-04 0.100000000000D+01
-.166906348122D-07 0.000000000000D+00 -.609749603318D-08 0.975598603633D-07 0.000000000000D+00  6 21 22 9900012 13 4 -3 2 0.96373181D-01 0.11340272D-02 0.28108836D+04 0.28108836D+04 0.28108836D+04 0.12710324D+01  1  2  5  3  6  1        3 -.228338099025D-04 0.100000000000D+01
  </mgrwgt>
  </event>
  <event>
  7     66 -.10089070E-05 0.82793101E+02 0.78161638E-02 0.11608871E+00
        1 -1    0    0  501    0 0.00000000E+00 0.00000000E+00 0.95556365E+03 0.95556365E+03 0.00000000E+00 0.0000E+00 0.9000E+01
       22 -1    0    0    0    0 0.00000000E+00 0.00000000E+00 -.14194843E+03 0.14194843E+03 0.00000000E+00 0.0000E+00 0.9000E+01
      -24  2    1    2    0    0 0.17187412E+02 -.86398050E+02 -.11417895E+03 0.16511696E+03 0.80416090E+02 0.0000E+00 0.0000E+00
  9900012  1    3    3    0    0 0.17684289E+02 -.37815507E+02 -.39982806E+02 0.76428865E+02 0.50000000E+02 0.0000E+00 0.9000E+01
       13  1    3    3    0    0 -.49687654E+00 -.48582542E+02 -.74196142E+02 0.88688093E+02 0.00000000E+00 0.0000E+00 0.9000E+01
        2  1    1    2  502    0 -.99330909E+01 0.77806612E+02 0.86918247E+03 0.87271456E+03 0.00000000E+00 0.0000E+00 0.9000E+01
       21  1    1    2  501  502 -.72543216E+01 0.85914375E+01 0.58611698E+02 0.59680559E+02 0.00000000E+00 0.0000E+00 0.9000E+01
#aMCatNLO 2  0  0  5  1 0.70338596D+01 0.00000000D+00  -5  6  0 0.00000000D+00 0.00000000D+00 0.00000000D+00 0.00000000D+00 0.00000000D+00
  <mgrwgt>
 -.1417878588D-02    5    2    0
 0.368294391191119D+03 0.000000000000000D+00 0.000000000000000D+00 0.368294391191119D+03
 0.368294391191119D+03 -.000000000000000D+00 -.000000000000000D+00 -.368294391191119D+03
 0.158265443786894D+03 0.176954419158223D+02 -.378715708605608D+02 -.144224013787648D+03
 0.214418606660564D+03 -.481767142041721D+00 -.486584947086907D+02 -.208823987308362D+03
 0.363904731934781D+03 -.172136747737806D+02 0.865300655692515D+02 0.353048001096010D+03
 0.000000000000000D+00 -.000000000000000D+00 0.000000000000000D+00 0.000000000000000D+00
 0.368294391191119D+03 0.000000000000000D+00 0.000000000000000D+00 0.368294391191119D+03
 0.368294391191119D+03 -.000000000000000D+00 -.000000000000000D+00 -.368294391191119D+03
 0.158042350788788D+03 0.176842890147156D+02 -.378155072206504D+02 -.143995270681142D+03
 0.214099600984855D+03 -.496876542676975D+00 -.485825424530067D+02 -.208514097423597D+03
 0.340264050102922D+03 -.993309086100787D+01 0.778066121601871D+02 0.331099816675493D+03
 0.241827805056740D+02 -.725432161103074D+01 0.859143751347000D+01 0.214095514292449D+02
-.402504885033D-03 0.000000000000D+00 0.000000000000D+00 0.139199173523D-03 0.000000000000D+00  6 1 22 9900012 13 2 21 2 0.14700979D+00 0.21838220D-01 0.10343298D+05 0.10343298D+05 0.10343298D+05 0.12078136D+01  1  2 13  2  6  5        2 -.181551214783D-02 0.100000000000D+01
-.228354691790D-04 0.000000000000D+00 0.000000000000D+00 0.139199173523D-03 0.000000000000D+00  6 1 22 9900012 13 2 21 2 0.14700979D+00 0.21838220D-01 0.10206907D+05 0.10206907D+05 0.10206907D+05 0.12084092D+01  1  2  8  2  6  5        2 -.103064120596D-03 0.100000000000D+01
-.581823686646D-04 0.000000000000D+00 0.000000000000D+00 0.139199173523D-03 0.000000000000D+00  6 1 22 9900012 13 2 21 2 0.14700979D+00 0.21838220D-01 0.10206907D+05 0.10206907D+05 0.10206907D+05 0.12084092D+01  1  2  9  2  6  5        2 -.262596516569D-03 0.100000000000D+01
0.621769625761D-04 0.000000000000D+00 0.000000000000D+00 0.139199173523D-03 0.000000000000D+00  6 1 22 9900012 13 2 21 2 0.14700979D+00 0.21838220D-01 0.10206907D+05 0.10206907D+05 0.10206907D+05 0.12084092D+01  1  2 10  2  6  5        2 0.280625456785D-03 0.100000000000D+01
0.107009212747D-03 0.000000000000D+00 0.000000000000D+00 0.139199173523D-03 0.496157072298D-05  6 1 22 9900012 13 2 21 2 0.14700979D+00 0.21838220D-01 0.10343298D+05 0.10343298D+05 0.10343298D+05 0.12078136D+01  1  2  1  2  6  5        2 0.482668739922D-03 0.100000000000D+01
  </mgrwgt>
  </event>
  <event>
  6     66 0.10089070E-05 0.18692386E+02 0.78161638E-02 0.12768998E+00
        1 -1    0    0  501    0 0.00000000E+00 0.00000000E+00 0.28199599E+03 0.28199599E+03 0.00000000E+00 0.0000E+00 0.9000E+01
       22 -1    0    0    0    0 0.00000000E+00 0.00000000E+00 -.16491291E+02 0.16491291E+02 0.00000000E+00 0.0000E+00 0.9000E+01
      -24  2    1    2    0    0 -.60796763E+01 -.17676053E+02 0.26713367E+03 0.27972405E+03 0.80843929E+02 0.0000E+00 0.0000E+00
  9900012  1    3    3    0    0 -.56570175E+00 0.12876607E+02 0.17802317E+03 0.18536013E+03 0.50000000E+02 0.0000E+00 0.9000E+01
       13  1    3    3    0    0 -.55139746E+01 -.30552660E+02 0.89110492E+02 0.94363917E+02 0.00000000E+00 0.0000E+00 0.9000E+01
        2  1    1    2  501    0 0.60796763E+01 0.17676053E+02 -.16289702E+01 0.18763231E+02 0.00000000E+00 0.0000E+00 0.9000E+01
#aMCatNLO 1  0  0  1  5 0.10803957D+02 0.00000000D+00  -5  6  0 0.00000000D+00 0.00000000D+00 0.00000000D+00 0.00000000D+00 0.00000000D+00
  <mgrwgt>
 0.8242392618D-03    8    2    0
 0.681944115501294D+02 0.000000000000000D+00 0.000000000000000D+00 0.681944115501294D+02
 0.681944115501294D+02 0.000000000000000D+00 0.000000000000000D+00 -.681944115501294D+02
 0.591078608791342D+02 -.565701751613026D+00 0.128766067367555D+02 0.287682498282784D+02
 0.330465082795415D+02 -.551397456788752D+01 -.305526595782592D+02 0.113226669397941D+02
 0.442344539415832D+02 0.607967631950054D+01 0.176760528415036D+02 -.400909167680725D+02
 0.000000000000000D+00 0.000000000000000D+00 0.000000000000000D+00 0.000000000000000D+00
 0.135381688977787D+03 0.000000000000000D+00 0.000000000000000D+00 0.135381688977787D+03
 0.688356336537530D+02 0.000000000000000D+00 0.000000000000000D+00 -.688356336537530D+02
 0.583789967269956D+02 -.240756985359315D+01 0.864283912082109D+01 0.287682498282784D+02
 0.355272967647015D+02 -.658902165584201D+01 -.330237917628565D+02 0.113226669397941D+02
 0.429044523604002D+02 0.471357993025910D+01 0.145359068957665D+02 -.400909167680725D+02
 0.674065767794423D+02 0.428301157917606D+01 0.984504574626895D+01 0.665460553240338D+02
0.169435764860D-06 0.000000000000D+00 0.000000000000D+00 0.297896013708D-06 0.000000000000D+00  6 1 22 9900012 13 2 21 0 0.43383998D-01 0.25371216D-02 0.25691303D+04 0.25691303D+04 0.25691303D+04 0.12757854D+01  1  2  2  1  6  1        1 0.511348791601D-04 0.100000000000D+01
-.100858285697D-07 0.000000000000D+00 -.325338975263D-09 0.297896013708D-06 0.000000000000D+00  6 1 22 9900012 13 2 21 2 0.43383998D-01 0.25371216D-02 0.25691303D+04 0.25691303D+04 0.25691303D+04 0.12757854D+01  1  2  3  1  6  1        1 -.495426180884D-05 0.100000000000D+01
-.165579432995D-07 0.000000000000D+00 0.000000000000D+00 0.297896013708D-06 0.000000000000D+00  6 1 22 9900012 13 2 21 2 0.43383998D-01 0.25371216D-02 0.25691303D+04 0.25691303D+04 0.25691303D+04 0.12757854D+01  1  2 15  1  6  1        1 -.813343054115D-05 0.100000000000D+01
0.197466653877D-05 0.000000000000D+00 0.000000000000D+00 0.297896013708D-06 0.000000000000D+00  6 1 22 9900012 13 2 21 2 0.86937119D-01 0.25371216D-02 0.30520474D+04 0.30520474D+04 0.30520474D+04 0.12667279D+01  1  2 12  1  6  1        1 0.404227889417D-03 0.100000000000D+01
-.193002048322D-05 0.000000000000D+00 -.491158171585D-07 0.297896013708D-06 0.000000000000D+00  6 1 22 9900012 13 2 21 2 0.86409901D-01 0.25371216D-02 0.25691303D+04 0.25691303D+04 0.25691303D+04 0.12757854D+01  1  2  5  1  6  1        1 -.398334383697D-03 0.100000000000D+01
0.158278399823D-05 0.000000000000D+00 0.393900574917D-07 0.297896013708D-06 0.000000000000D+00  6 1 22 9900012 13 2 21 2 0.43383998D-01 0.25371216D-02 0.25691303D+04 0.25691303D+04 0.25691303D+04 0.12757854D+01  1  2  6  1  6  1        1 0.777479634905D-03 0.100000000000D+01
0.148504101343D-06 0.000000000000D+00 0.000000000000D+00 0.297896013708D-06 0.000000000000D+00  6 21 22 9900012 13 2 -1 2 0.86937119D-01 0.25371216D-02 0.30520474D+04 0.30520474D+04 0.30520474D+04 0.12667279D+01  1  2 12  3  6  1        1 0.889124449978D-04 0.100000000000D+01
-.140978028228D-06 0.000000000000D+00 -.366240000434D-08 0.297896013708D-06 0.000000000000D+00  6 21 22 9900012 13 2 -1 2 0.86409901D-01 0.25371216D-02 0.25691303D+04 0.25691303D+04 0.25691303D+04 0.12757854D+01  1  2  5  3  6  1        1 -.860935106730D-04 0.100000000000D+01
  </mgrwgt>
  </event>
  <event>
  6     66 0.10089070E-05 0.34981038E+02 0.78161638E-02 0.12440452E+00
        1 -1    0    0  501    0 0.00000000E+00 0.00000000E+00 0.48276034E+03 0.48276034E+03 0.00000000E+00 0.0000E+00 0.9000E+01
       22 -1    0    0    0    0 0.00000000E+00 0.00000000E+00 -.10555821E+03 0.10555821E+03 0.00000000E+00 0.0000E+00 0.9000E+01
      -24  2    1    2    0    0 -.39622456E+02 -.27341955E+01 -.85585170E+02 0.12383012E+03 0.80197646E+02 0.0000E+00 0.0000E+00
  9900012  1    3    3    0    0 -.66683125E+01 0.11469463E+02 -.62629799E+02 0.81231193E+02 0.50000000E+02 0.0000E+00 0.9000E+01
       13  1    3    3    0    0 -.32954144E+02 -.14203659E+02 -.22955371E+02 0.42598927E+02 0.00000000E+00 0.0000E+00 0.9000E+01
        2  1    1    2  501    0 0.39622456E+02 0.27341955E+01 0.46278730E+03 0.46448843E+03 0.00000000E+00 0.0000E+00 0.9000E+01
#aMCatNLO 1  0  0  1  5 0.21202128D+01 0.00000000D+00  -5  6  0 0.00000000D+00 0.00000000D+00 0.00000000D+00 0.00000000D+00 0.00000000D+00
  <mgrwgt>
 0.1245622845D-03   11    2    0
 0.225741703409327D+03 0.000000000000000D+00 0.000000000000000D+00 0.225741703409327D+03
 0.225741703409327D+03 0.000000000000000D+00 0.000000000000000D+00 -.225741703409327D+03
 0.158176158918497D+03 -.666831247658633D+01 0.114694632203602D+02 -.149478032741808D+03
 0.746883559536546D+02 -.329541436544709D+02 -.142036586860383D+02 -.655029084162744D+02
 0.218618891946503D+03 0.396224561310572D+02 0.273419546567813D+01 0.214980941158082D+03
 0.000000000000000D+00 -.000000000000000D+00 0.000000000000000D+00 0.000000000000000D+00
 0.228100927438757D+03 0.000000000000000D+00 0.000000000000000D+00 0.228100927438757D+03
 0.226150007743863D+03 0.000000000000000D+00 0.000000000000000D+00 -.226150007743863D+03
 0.158133856763369D+03 -.602178941913971D+01 0.112415494789811D+02 -.149478032741808D+03
 0.745748121208567D+02 -.326490566353967D+02 -.143112086382984D+02 -.655029084162744D+02
 0.218778979120622D+03 0.405164771702373D+02 0.241903318714172D+01 0.214980941158082D+03
 0.276328717777206D+01 -.184563111570089D+01 0.650625972175632D+00 0.195091969489435D+01
0.423001411904D-05 0.000000000000D+00 0.000000000000D+00 0.524302302216D-04 0.000000000000D+00  6 1 22 9900012 13 2 21 0 0.74270822D-01 0.16239724D-01 0.40533407D+04 0.40533407D+04 0.40533407D+04 0.12522420D+01  1  2  2  1  6  1        1 0.521285254250D-04 0.100000000000D+01
0.248874294533D-06 0.000000000000D+00 -.812218400271D-08 0.524302302216D-04 0.000000000000D+00  6 1 22 9900012 13 2 21 2 0.74270822D-01 0.16239724D-01 0.40533407D+04 0.40533407D+04 0.40533407D+04 0.12522420D+01  1  2  3  1  6  1        1 0.480939184757D-05 0.100000000000D+01
-.604757811218D-06 0.000000000000D+00 0.000000000000D+00 0.524302302216D-04 0.000000000000D+00  6 1 22 9900012 13 2 21 2 0.74270822D-01 0.16239724D-01 0.40533407D+04 0.40533407D+04 0.40533407D+04 0.12522420D+01  1  2 15  1  6  1        1 -.116866922415D-04 0.100000000000D+01
0.462356236141D-08 0.000000000000D+00 0.000000000000D+00 0.524302302216D-04 0.000000000000D+00  6 1 22 9900012 13 2 21 2 0.75182764D-01 0.16239724D-01 0.42116326D+04 0.42116326D+04 0.42116326D+04 0.12503253D+01  1  2 12  1  6  1        1 0.878573240326D-07 0.100000000000D+01
-.335887561876D-05 0.000000000000D+00 0.000000000000D+00 0.524302302216D-04 0.000000000000D+00  6 1 22 9900012 13 2 21 2 0.74270822D-01 0.16239724D-01 0.40533407D+04 0.40533407D+04 0.40533407D+04 0.12522420D+01  1  2  4  1  6  1        1 -.649088691469D-04 0.100000000000D+01
-.371951483130D-03 0.000000000000D+00 -.410401573850D-04 0.524302302216D-04 0.000000000000D+00  6 1 22 9900012 13 2 21 2 0.75138419D-01 0.16239724D-01 0.40533407D+04 0.40533407D+04 0.40533407D+04 0.12522420D+01  1  2  5  1  6  1        1 -.708033310232D-02 0.100000000000D+01
0.372405769054D-03 0.000000000000D+00 0.410373897655D-04 0.524302302216D-04 0.000000000000D+00  6 1 22 9900012 13 2 21 2 0.74270822D-01 0.16239724D-01 0.40533407D+04 0.40533407D+04 0.40533407D+04 0.12522420D+01  1  2  6  1  6  1        1 0.719658602362D-02 0.100000000000D+01
0.326445423294D-05 0.000000000000D+00 0.000000000000D+00 0.524302302216D-04 0.368912294593D-05  6 1 22 9900012 13 2 21 2 0.75047025D-01 0.16269098D-01 0.42116326D+04 0.42116326D+04 0.42116326D+04 0.12503253D+01  1  2 11  1  6  1        1 0.620144013549D-04 0.100000000000D+01
0.555576503586D-09 0.000000000000D+00 0.000000000000D+00 0.524302302216D-04 0.000000000000D+00  6 21 22 9900012 13 2 -1 2 0.75182764D-01 0.16239724D-01 0.42116326D+04 0.42116326D+04 0.42116326D+04 0.12503253D+01  1  2 12  3  6  1        1 0.351502771543D-07 0.100000000000D+01
-.793985439981D-06 0.000000000000D+00 -.878320152971D-07 0.524302302216D-04 0.000000000000D+00  6 21 22 9900012 13 2 -1 2 0.75138419D-01 0.16239724D-01 0.40533407D+04 0.40533407D+04 0.40533407D+04 0.12522420D+01  1  2  5  3  6  1        1 -.504099142249D-04 0.100000000000D+01
0.256311065521D-06 0.000000000000D+00 0.000000000000D+00 0.524302302216D-04 0.198017686852D-06  6 21 22 9900012 13 2 -1 2 0.75047025D-01 0.16269098D-01 0.42116326D+04 0.42116326D+04 0.42116326D+04 0.12503253D+01  1  2 11  3  6  1        1 0.162395126236D-04 0.100000000000D+01
  </mgrwgt>
  </event>
  <event>
  6     66 0.10089070E-05 0.20164872E+02 0.78161638E-02 0.12921405E+00
        3 -1    0    0  501    0 0.00000000E+00 0.00000000E+00 0.26518929E+02 0.26518929E+02 0.00000000E+00 0.0000E+00 0.9000E+01
       22 -1    0    0    0    0 0.00000000E+00 0.00000000E+00 -.13500923E+03 0.13500923E+03 0.00000000E+00 0.0000E+00 0.9000E+01
      -24  2    1    2    0    0 -.16000245E+02 0.12272499E+02 -.11399654E+03 0.14062503E+03 0.79834624E+02 0.0000E+00 0.0000E+00
  9900012  1    3    3    0    0 0.87560464E+01 -.49097056E+01 -.82842684E+02 0.97281467E+02 0.50000000E+02 0.0000E+00 0.9000E+01
       13  1    3    3    0    0 -.24756291E+02 0.17182205E+02 -.31153856E+02 0.43343568E+02 0.00000000E+00 0.0000E+00 0.9000E+01
        4  1    1    2  501    0 0.16000245E+02 -.12272499E+02 0.55062357E+01 0.20903127E+02 0.00000000E+00 0.0000E+00 0.9000E+01
#aMCatNLO 1  0  0  1  5 0.84174905D+01 0.00000000D+00  -5  6  0 0.00000000D+00 0.00000000D+00 0.00000000D+00 0.00000000D+00 0.00000000D+00
  <mgrwgt>
 0.6511096000D-04   10    2    0
 0.598356098660596D+02 0.000000000000000D+00 0.000000000000000D+00 0.598356098660596D+02
 0.598356098660596D+02 0.000000000000000D+00 0.000000000000000D+00 -.598356098660596D+02
 0.562045623728328D+02 0.875604637020700D+01 -.490970560066674D+01 -.236258179625431D+02
 0.302605380110849D+02 -.247562914147859D+02 0.171822046301858D+02 -.275645427187366D+01
 0.332061193482014D+02 0.160002450445789D+02 -.122724990295191D+02 0.263822722344167D+02
 0.000000000000000D+00 0.000000000000000D+00 -.000000000000000D+00 -.000000000000000D+00
 0.600166561712647D+02 0.000000000000000D+00 0.000000000000000D+00 0.600166561712647D+02
 0.640990015200692D+02 0.000000000000000D+00 0.000000000000000D+00 -.640990015200692D+02
 0.560657075989446D+02 0.804097454332769D+01 -.453067572936871D+01 -.236258179625431D+02
 0.306950769975277D+02 -.251445299305899D+02 0.173879937399601D+02 -.275645427187366D+01
 0.329228730716970D+02 0.155790562522898D+02 -.120492443469368D+02 0.263822722344167D+02
 0.443200002316451D+01 0.152449913497245D+01 -.808073663654615D+00 -.408234534880456D+01
0.112751177571D-06 0.000000000000D+00 0.000000000000D+00 0.338432851846D-06 0.000000000000D+00  6 3 22 9900012 13 4 21 0 0.40798352D-02 0.20770651D-01 0.25652901D+04 0.25652901D+04 0.25652901D+04 0.12758649D+01  1  2  2  1  6  1        3 0.290012722484D-04 0.100000000000D+01
0.601865154399D-08 0.000000000000D+00 -.216497104970D-09 0.338432851846D-06 0.000000000000D+00  6 3 22 9900012 13 4 21 2 0.40798352D-02 0.20770651D-01 0.25652901D+04 0.25652901D+04 0.25652901D+04 0.12758649D+01  1  2  3  1  6  1        3 0.252002305719D-05 0.100000000000D+01
-.147612478908D-07 0.000000000000D+00 0.000000000000D+00 0.338432851846D-06 0.000000000000D+00  6 3 22 9900012 13 4 21 2 0.40798352D-02 0.20770651D-01 0.25652901D+04 0.25652901D+04 0.25652901D+04 0.12758649D+01  1  2 15  1  6  1        3 -.618056798367D-05 0.100000000000D+01
0.852742864904D-07 0.000000000000D+00 0.000000000000D+00 0.338432851846D-06 0.000000000000D+00  6 3 22 9900012 13 4 21 2 0.43837546D-02 0.20770651D-01 0.26438182D+04 0.26438182D+04 0.26438182D+04 0.12742651D+01  1  2 12  1  6  1        3 0.321621950747D-04 0.100000000000D+01
-.259542062384D-08 0.000000000000D+00 0.000000000000D+00 0.338432851846D-06 0.000000000000D+00  6 3 22 9900012 13 4 21 2 0.40798352D-02 0.20770651D-01 0.25652901D+04 0.25652901D+04 0.25652901D+04 0.12758649D+01  1  2  4  1  6  1        3 -.108670850395D-05 0.100000000000D+01
0.581499728048D-09 0.000000000000D+00 0.000000000000D+00 0.338432851846D-06 0.000000000000D+00  6 3 22 9900012 13 4 21 2 0.43851373D-02 0.20770651D-01 0.25652901D+04 0.25652901D+04 0.25652901D+04 0.12758649D+01  1  2  5  1  6  1        3 0.218878772133D-06 0.100000000000D+01
-.579988870485D-09 0.000000000000D+00 0.000000000000D+00 0.338432851846D-06 0.000000000000D+00  6 3 22 9900012 13 4 21 2 0.40798352D-02 0.20770651D-01 0.25652901D+04 0.25652901D+04 0.25652901D+04 0.12758649D+01  1  2  6  1  6  1        3 -.242842656009D-06 0.100000000000D+01
0.481820633745D-11 0.000000000000D+00 0.000000000000D+00 0.338432851846D-06 0.557061801402D-08  6 3 22 9900012 13 4 21 2 0.40921796D-02 0.22250596D-01 0.26438182D+04 0.26438182D+04 0.26438182D+04 0.12742651D+01  1  2 11  1  6  1        3 0.181673487366D-08 0.100000000000D+01
0.123720645531D-08 0.000000000000D+00 0.000000000000D+00 0.338432851846D-06 0.000000000000D+00  6 21 22 9900012 13 4 -3 2 0.43837546D-02 0.20770651D-01 0.26438182D+04 0.26438182D+04 0.26438182D+04 0.12742651D+01  1  2 12  3  6  1        3 0.867953813577D-05 0.100000000000D+01
0.530318170306D-11 0.000000000000D+00 0.000000000000D+00 0.338432851846D-06 0.335867959092D-08  6 21 22 9900012 13 4 -3 2 0.40921796D-02 0.22250596D-01 0.26438182D+04 0.26438182D+04 0.26438182D+04 0.12742651D+01  1  2 11  3  6  1        3 0.373551178728D-07 0.100000000000D+01
  </mgrwgt>
  </event>
  <event>
  6     66 0.10089070E-05 0.70185990E+02 0.78161638E-02 0.10845861E+00
        1 -1    0    0  501    0 0.00000000E+00 0.00000000E+00 0.17314147E+04 0.17314147E+04 0.00000000E+00 0.0000E+00 0.9000E+01
       22 -1    0    0    0    0 0.00000000E+00 0.00000000E+00 -.50091135E+02 0.50091135E+02 0.00000000E+00 0.0000E+00 0.9000E+01
      -24  2    1    2    0    0 -.75575795E+01 -.69777906E+02 0.87246995E+01 0.10743504E+03 0.80870844E+02 0.0000E+00 0.0000E+00
  9900012  1    3    3    0    0 -.16776040E+02 -.25285959E+02 0.17726485E+02 0.61115002E+02 0.50000000E+02 0.0000E+00 0.9000E+01
       13  1    3    3    0    0 0.92184607E+01 -.44491947E+02 -.90017851E+01 0.46320033E+02 0.00000000E+00 0.0000E+00 0.9000E+01
        2  1    1    2  501    0 0.75575795E+01 0.69777906E+02 0.16725988E+04 0.16740708E+04 0.00000000E+00 0.0000E+00 0.9000E+01
#aMCatNLO 1  0  0  1  5 0.91952448D+01 0.00000000D+00  -5  6  0 0.00000000D+00 0.00000000D+00 0.00000000D+00 0.00000000D+00 0.00000000D+00
  <mgrwgt>
 0.2550753661D-03    7    2    0
 0.294497070423432D+03 0.000000000000000D+00 0.000000000000000D+00 0.294497070423432D+03
 0.294497070423432D+03 0.000000000000000D+00 0.000000000000000D+00 -.294497070423432D+03
 0.134250529169125D+03 -.167760402199581D+02 -.252859593321489D+02 -.120840346397143D+03
 0.165798458393592D+03 0.921846073938000D+01 -.444919469335171D+02 -.159450981324522D+03
 0.288945153284147D+03 0.755757948057807D+01 0.697779062656660D+02 0.280291327721665D+03
 0.000000000000000D+00 -.000000000000000D+00 0.000000000000000D+00 0.000000000000000D+00
 0.361002971816117D+03 0.000000000000000D+00 0.000000000000000D+00 0.361002971816117D+03
 0.353931488907878D+03 0.000000000000000D+00 0.000000000000000D+00 -.353931488907878D+03
 0.133614750098518D+03 0.904903793047593D+01 -.258578235557591D+02 -.120840346397143D+03
 0.170897073190899D+03 0.416795114580265D+02 -.452107565130527D+02 -.159450981324522D+03
 0.295539945332321D+03 0.639081949496794D+02 0.685300919985618D+02 0.280291327721665D+03
 0.114882692102257D+03 -.114636744338182D+03 0.253848807025007D+01 0.707148290823924D+01
0.571944825029D-04 0.000000000000D+00 0.000000000000D+00 0.570410577783D-04 0.000000000000D+00  6 1 22 9900012 13 2 21 0 0.26637149D+00 0.77063284D-02 0.75786290D+04 0.75786290D+04 0.75786290D+04 0.12220199D+01  1  2  2  1  6  1        1 0.237013583654D-03 0.100000000000D+01
0.144552704949D-05 0.000000000000D+00 -.109820936232D-06 0.570410577783D-04 0.000000000000D+00  6 1 22 9900012 13 2 21 2 0.26637149D+00 0.77063284D-02 0.75786290D+04 0.75786290D+04 0.75786290D+04 0.12220199D+01  1  2  3  1  6  1        1 0.894544308236D-05 0.100000000000D+01
-.853290442984D-05 0.000000000000D+00 0.000000000000D+00 0.570410577783D-04 0.000000000000D+00  6 1 22 9900012 13 2 21 2 0.26637149D+00 0.77063284D-02 0.75786290D+04 0.75786290D+04 0.75786290D+04 0.12220199D+01  1  2 15  1  6  1        1 -.528046921924D-04 0.100000000000D+01
-.324385364520D-06 0.000000000000D+00 0.000000000000D+00 0.570410577783D-04 0.000000000000D+00  6 1 22 9900012 13 2 21 2 0.26637149D+00 0.77063284D-02 0.75786290D+04 0.75786290D+04 0.75786290D+04 0.12220199D+01  1  2  4  1  6  1        1 -.200741370843D-05 0.100000000000D+01
-.656318527378D-05 0.000000000000D+00 -.207467600788D-04 0.570410577783D-04 0.000000000000D+00  6 1 22 9900012 13 2 21 2 0.35776510D+00 0.77063284D-02 0.75786290D+04 0.75786290D+04 0.75786290D+04 0.12220199D+01  1  2  5  1  6  1        1 -.167385486992D-04 0.100000000000D+01
0.129851381061D-04 0.000000000000D+00 0.198757186205D-04 0.570410577783D-04 0.000000000000D+00  6 1 22 9900012 13 2 21 2 0.26637149D+00 0.77063284D-02 0.75786290D+04 0.75786290D+04 0.75786290D+04 0.12220199D+01  1  2  6  1  6  1        1 0.803567210214D-04 0.100000000000D+01
0.202505304394D-06 0.000000000000D+00 -.792255745433D-06 0.570410577783D-04 0.000000000000D+00  6 21 22 9900012 13 2 -1 2 0.35776510D+00 0.77063284D-02 0.75786290D+04 0.75786290D+04 0.75786290D+04 0.12220199D+01  1  2  5  3  6  1        1 0.310272914412D-06 0.100000000000D+01
  </mgrwgt>
  </event>
  <event>
  7     66 0.10089070E-05 0.42038279E+02 0.78161638E-02 0.11964760E+00
        3 -1    0    0  502    0 0.00000000E+00 0.00000000E+00 0.53583008E+01 0.53583008E+01 0.00000000E+00 0.0000E+00 0.9000E+01
       22 -1    0    0    0    0 0.00000000E+00 0.00000000E+00 -.26712145E+04 0.26712145E+04 0.00000000E+00 0.0000E+00 0.9000E+01
      -24  2    1    2    0    0 -.51270140E+02 0.45926450E+02 -.98216068E+03 0.98785019E+03 0.80439608E+02 0.0000E+00 0.0000E+00
  9900012  1    3    3    0    0 -.33983252E+02 0.48773462E+02 -.91983394E+03 0.92310790E+03 0.50000000E+02 0.0000E+00 0.9000E+01
       13  1    3    3    0    0 -.17286888E+02 -.28470117E+01 -.62326731E+02 0.64742285E+02 0.00000000E+00 0.0000E+00 0.9000E+01
        4  1    1    2  501    0 0.76738119E+01 -.17951747E+02 -.14119022E+04 0.14120372E+04 0.00000000E+00 0.0000E+00 0.9000E+01
       21  1    1    2  502  501 0.43596329E+02 -.27974703E+02 -.27179334E+03 0.27668546E+03 0.00000000E+00 0.0000E+00 0.9000E+01
#aMCatNLO 2  0  0  1  5 0.59105246D+02 0.00000000D+00  -5  6  0 0.00000000D+00 0.00000000D+00 0.00000000D+00 0.00000000D+00 0.00000000D+00
  <mgrwgt>
 0.1967059011D-04    1    2    0
 0.794340188662335D+02 0.000000000000000D+00 0.000000000000000D+00 0.794340188662335D+02
 0.794340188662335D+02 0.000000000000000D+00 0.000000000000000D+00 -.794340188662335D+02
 0.652662166656116D+02 -.146774039328072D+02 0.363853690018221D+02 0.148444526418799D+02
 0.345322842771317D+02 -.773794536164994D+01 -.897433590245423D+01 0.324355384429899D+02
 0.590695367897238D+02 0.224153492944572D+02 -.274110330993679D+02 -.472799910848698D+02
 0.000000000000000D+00 0.000000000000000D+00 -.000000000000000D+00 0.000000000000000D+00
 0.153725244680574D+03 0.000000000000000D+00 0.000000000000000D+00 0.153725244680574D+03
 0.931087858040091D+02 0.000000000000000D+00 0.000000000000000D+00 -.931087858040091D+02
 0.790826768627956D+02 -.339832521649888D+02 0.487734618193041D+02 0.148444526418799D+02
 0.368647004251621D+02 -.172868883234234D+02 -.284701166905927D+01 0.324355384429899D+02
 0.511522255697744D+02 0.767381187091400D+01 -.179517474114787D+02 -.472799910848698D+02
 0.797344276268507D+02 0.435963286174983D+02 -.279747027387662D+02 0.606164588765647D+02
0.272719314658D-05 0.000000000000D+00 0.000000000000D+00 0.274917695973D-06 0.210895255063D-08  6 3 22 9900012 13 4 21 2 0.82435397D-03 0.41095608D+00 0.69322032D+04 0.69322032D+04 0.69322032D+04 0.12261876D+01  1  2  1  1  6  1        3 0.196705901122D-04 0.100000000000D+01
  </mgrwgt>
  </event>
  <event>
  6     66 0.10089070E-05 0.20476422E+02 0.78161638E-02 0.12775650E+00
        3 -1    0    0  501    0 0.00000000E+00 0.00000000E+00 0.32185769E+02 0.32185769E+02 0.00000000E+00 0.0000E+00 0.9000E+01
       22 -1    0    0    0    0 -.00000000E+00 -.00000000E+00 -.14051235E+03 0.14051235E+03 0.00000000E+00 0.0000E+00 0.9000E+01
      -24  2    1    2    0    0 0.18309937E+01 -.25274577E+02 -.11854138E+03 0.14537599E+03 0.80249393E+02 0.0000E+00 0.0000E+00
  9900012  1    3    3    0    0 -.18196003E+02 -.22392389E+02 -.10823830E+03 0.12267047E+03 0.50000000E+02 0.0000E+00 0.9000E+01
       13  1    3    3    0    0 0.20026997E+02 -.28821882E+01 -.10303075E+02 0.22705528E+02 0.00000000E+00 0.0000E+00 0.9000E+01
        4  1    1    2  501    0 -.18309937E+01 0.25274577E+02 0.10214791E+02 0.27322129E+02 0.00000000E+00 0.0000E+00 0.9000E+01
#aMCatNLO 1  0  0  5  1 0.12772130D+02 0.00000000D+00  -5  6  0 0.00000000D+00 0.00000000D+00 0.00000000D+00 0.00000000D+00 0.00000000D+00
  <mgrwgt>
 0.7954206099D-04    7    2    0
 0.672495214610252D+02 0.000000000000000D+00 0.000000000000000D+00 0.672495214610252D+02
 0.672495214610252D+02 -.000000000000000D+00 -.000000000000000D+00 -.672495214610252D+02
 0.703341344795878D+02 -.181960033086327D+02 -.223923886404426D+02 -.401793089482677D+02
 0.208559477805051D+02 0.200269970573841D+02 -.288218819827893D+01 0.505795787609826D+01
 0.433089606619576D+02 -.183099374875144D+01 0.252745768387216D+02 0.351213510721695D+02
 0.000000000000000D+00 -.000000000000000D+00 0.000000000000000D+00 0.000000000000000D+00
 0.672495214610252D+02 0.000000000000000D+00 0.000000000000000D+00 0.672495214610252D+02
 0.672495214610252D+02 -.000000000000000D+00 -.000000000000000D+00 -.672495214610252D+02
 0.674044181518704D+02 -.183966729885316D+02 -.196223948885440D+02 -.363301476487953D+02
 0.210140832098541D+02 0.199659971009037D+02 -.204016015297616D+01 0.622803335472641D+01
 0.311795449776996D+02 0.110045459999976D+02 0.162044666690586D+02 0.242585913095072D+02
 0.149009965826264D+02 -.125738701123697D+02 0.545808837246155D+01 0.584352298456168D+01
0.257468527958D-06 0.000000000000D+00 0.000000000000D+00 0.568167047860D-06 0.000000000000D+00  6 3 22 9900012 13 4 21 0 0.49516568D-02 0.21617285D-01 0.26678294D+04 0.26678294D+04 0.26678294D+04 0.12737866D+01  1  2  2  2  6  5        4 0.471002002781D-04 0.100000000000D+01
0.932225096478D-08 0.000000000000D+00 -.494373470190D-09 0.568167047860D-06 0.000000000000D+00  6 3 22 9900012 13 4 21 2 0.49516568D-02 0.21617285D-01 0.26678294D+04 0.26678294D+04 0.26678294D+04 0.12737866D+01  1  2  3  2  6  5        4 0.276702304995D-05 0.100000000000D+01
-.342329854067D-07 0.000000000000D+00 0.000000000000D+00 0.568167047860D-06 0.000000000000D+00  6 3 22 9900012 13 4 21 2 0.49516568D-02 0.21617285D-01 0.26678294D+04 0.26678294D+04 0.26678294D+04 0.12737866D+01  1  2 15  2  6  5        4 -.101610072553D-04 0.100000000000D+01
0.113507246859D-06 0.000000000000D+00 0.000000000000D+00 0.568167047860D-06 0.000000000000D+00  6 3 22 9900012 13 4 21 2 0.49516568D-02 0.21617285D-01 0.30327545D+04 0.30327545D+04 0.30327545D+04 0.12670578D+01  1  2 12  2  6  5        4 0.338968087248D-04 0.100000000000D+01
-.206139505434D-07 0.000000000000D+00 0.000000000000D+00 0.568167047860D-06 0.000000000000D+00  6 3 22 9900012 13 4 21 2 0.49516568D-02 0.21617285D-01 0.26678294D+04 0.26678294D+04 0.26678294D+04 0.12737866D+01  1  2  4  2  6  5        4 -.611861625692D-05 0.100000000000D+01
-.101977046525D-06 0.000000000000D+00 0.000000000000D+00 0.568167047860D-06 0.000000000000D+00  6 3 22 9900012 13 4 21 2 0.49516568D-02 0.21617285D-01 0.26678294D+04 0.26678294D+04 0.26678294D+04 0.12737866D+01  1  2  5  2  6  5        4 -.302687451095D-04 0.100000000000D+01
0.142599932632D-06 0.000000000000D+00 -.000000000000D+00 0.568167047860D-06 0.000000000000D+00  6 3 22 9900012 13 4 21 2 0.49516568D-02 0.21617285D-01 0.26678294D+04 0.26678294D+04 0.26678294D+04 0.12737866D+01  1  2  6  2  6  5        4 0.423263975625D-04 0.100000000000D+01
  </mgrwgt>
  </event>
  <event>
  6     66 -.10089070E-05 0.26105607E+02 0.78161638E-02 0.12726692E+00
        1 -1    0    0  501    0 0.00000000E+00 0.00000000E+00 0.62185924E+03 0.62185924E+03 0.00000000E+00 0.0000E+00 0.9000E+01
       22 -1    0    0    0    0 0.00000000E+00 0.00000000E+00 -.10092449E+02 0.10092449E+02 0.00000000E+00 0.0000E+00 0.9000E+01
      -24  2    1    2    0    0 -.24532436E+02 -.89253737E+01 0.18790703E+03 0.20728876E+03 0.83534888E+02 0.0000E+00 0.0000E+00
  9900012  1    3    3    0    0 -.13064658E+00 0.15271261E+02 0.12729713E+03 0.13761463E+03 0.50000000E+02 0.0000E+00 0.9000E+01
       13  1    3    3    0    0 -.24401789E+02 -.24196635E+02 0.60609901E+02 0.69674131E+02 0.00000000E+00 0.0000E+00 0.9000E+01
        2  1    1    2  501    0 0.24532436E+02 0.89253737E+01 0.42385977E+03 0.42466293E+03 0.00000000E+00 0.0000E+00 0.9000E+01
#aMCatNLO 1  0  0  1  5 0.77275963D+02 0.00000000D+00  -5  6  0 0.00000000D+00 0.00000000D+00 0.00000000D+00 0.00000000D+00 0.00000000D+00
  <mgrwgt>
 -.6248763289D-05    1    2    0
 0.792217332280518D+02 0.000000000000000D+00 0.000000000000000D+00 0.792217332280518D+02
 0.792217332280518D+02 0.000000000000000D+00 0.000000000000000D+00 -.792217332280518D+02
 0.573683773760660D+02 -.130646580611886D+00 0.152712609952275D+02 -.236199543151409D+02
 0.438740730783416D+02 -.244017890410904D+02 -.241966346481119D+02 -.272765439853287D+02
 0.572010160016959D+02 0.245324356217023D+02 0.892537365288440D+01 0.508964983004696D+02
 0.000000000000000D+00 0.000000000000000D+00 0.000000000000000D+00 0.000000000000000D+00
 0.119662143456165D+03 0.000000000000000D+00 0.000000000000000D+00 0.119662143456165D+03
 0.837245261305056D+02 0.000000000000000D+00 0.000000000000000D+00 -.837245261305056D+02
 0.576501984785291D+02 -.863039306603093D+01 0.138260427559828D+02 -.236199543151409D+02
 0.486083215066526D+02 -.312361364714627D+02 -.253586838429499D+02 -.272765439853287D+02
 0.539755730888563D+02 0.163166077403180D+02 0.752843030580458D+01 0.508964983004696D+02
 0.431525765126326D+02 0.235499217971757D+02 0.400421078116254D+01 0.359376173256594D+02
-.180907269448D-07 0.000000000000D+00 0.000000000000D+00 0.648379405967D-07 0.000000000000D+00  6 1 22 9900012 13 2 21 2 0.95670653D-01 0.15526845D-02 0.31781674D+04 0.31781674D+04 0.31781674D+04 0.12646277D+01  1  2 14  1  6  1        1 -.624876328872D-05 0.100000000000D+01
  </mgrwgt>
  </event>
  <event>
  6     66 0.10089070E-05 0.25101605E+02 0.78161638E-02 0.12946607E+00
        1 -1    0    0  501    0 0.00000000E+00 0.00000000E+00 0.76537909E+03 0.76537909E+03 0.00000000E+00 0.0000E+00 0.9000E+01
       22 -1    0    0    0    0 0.00000000E+00 0.00000000E+00 -.61638679E+01 0.61638679E+01 0.00000000E+00 0.0000E+00 0.9000E+01
      -24  2    1    2    0    0 0.22706495E+02 0.10700732E+02 0.28790689E+03 0.29956665E+03 0.78865141E+02 0.0000E+00 0.0000E+00
  9900012  1    3    3    0    0 0.16009397E+01 -.49386237E+01 0.12801051E+03 0.13752689E+03 0.50000000E+02 0.0000E+00 0.9000E+01
       13  1    3    3    0    0 0.21105555E+02 0.15639356E+02 0.15989638E+03 0.16203977E+03 0.00000000E+00 0.0000E+00 0.9000E+01
        2  1    1    2  501    0 -.22706495E+02 -.10700732E+02 0.47130833E+03 0.47197630E+03 0.00000000E+00 0.0000E+00 0.9000E+01
#aMCatNLO 1  0  0  1  5 0.77275963D+02 0.00000000D+00  -5  6  0 0.00000000D+00 0.00000000D+00 0.00000000D+00 0.00000000D+00 0.00000000D+00
  <mgrwgt>
 0.1299741846D-04    1    2    0
 0.686854831608316D+02 0.000000000000000D+00 0.000000000000000D+00 0.686854831608316D+02
 0.686854831608316D+02 0.000000000000000D+00 0.000000000000000D+00 -.686854831608316D+02
 0.649363605152757D+02 0.160093972334572D+01 -.493862369682729D+01 -.411069082388011D+02
 0.263874958912051D+02 0.211055548112820D+02 0.156393558529292D+02 0.250320674771118D+01
 0.460471099151824D+02 -.227064945346277D+02 -.107007321561019D+02 0.386037014910899D+02
 0.000000000000000D+00 -.000000000000000D+00 -.000000000000000D+00 0.000000000000000D+00
 0.135453939074587D+03 0.000000000000000D+00 0.000000000000000D+00 0.135453939074587D+03
 0.117230336874047D+03 0.000000000000000D+00 0.000000000000000D+00 -.117230336874047D+03
 0.742548528552868D+02 0.115783716545981D+02 0.344956022912354D+02 -.411069082388011D+02
 0.443128067763104D+02 0.261734570179113D+02 0.356694399746391D+02 0.250320674771118D+01
 0.444579693145768D+02 -.162189566679702D+02 0.149402379956006D+02 0.386037014910899D+02
 0.896586470024595D+02 -.215328720045392D+02 -.851052802614751D+02 0.182236022005406D+02
0.263922737088D-07 0.000000000000D+00 0.000000000000D+00 0.316423335460D-06 0.000000000000D+00  6 1 22 9900012 13 2 21 2 0.11775063D+00 0.94828737D-03 0.25826169D+04 0.25826169D+04 0.25826169D+04 0.12755072D+01  1  2 14  1  6  1        1 0.129974184574D-04 0.100000000000D+01
  </mgrwgt>
  </event>
  <event>
  5     66 0.10089070E-05 0.84138514E+02 0.78161638E-02 0.11486362E+00
        3 -1    0    0  501    0 0.00000000E+00 0.00000000E+00 0.82942069E+02 0.82942069E+02 0.00000000E+00 0.0000E+00 0.9000E+01
       22 -1    0    0    0    0 -.00000000E+00 -.00000000E+00 -.44785983E+03 0.44785983E+03 0.00000000E+00 0.0000E+00 0.9000E+01
  9900012  1    1    2    0    0 0.38442893E+02 0.72319833E+00 -.45144157E+02 0.77565289E+02 0.50000000E+02 0.0000E+00 0.9000E+01
       13  1    1    2    0    0 0.14551291E+02 -.66075367E+02 -.35546080E+03 0.36184261E+03 0.00000000E+00 0.0000E+00 0.9000E+01
        4  1    1    2  501    0 -.52994184E+02 0.65352168E+02 0.35687188E+02 0.91394009E+02 0.00000000E+00 0.0000E+00 0.9000E+01
#aMCatNLO 1  0  0  5  1 0.38403917D+02 0.00000000D+00  -5  6  0 0.00000000D+00 0.00000000D+00 0.00000000D+00 0.00000000D+00 0.00000000D+00
  <mgrwgt>
 0.3580235468D-03    7    2    0
 0.192734068811889D+03 0.000000000000000D+00 0.000000000000000D+00 0.192734068811889D+03
 0.192734068811889D+03 -.000000000000000D+00 -.000000000000000D+00 -.192734068811889D+03
 0.640724754586878D+02 0.384428931787970D+02 0.723198331877171D+00 0.112651258146781D+02
 0.161758595793355D+03 0.145512910548724D+02 -.660753667729627D+02 -.146929061616458D+03
 0.159637066371734D+03 -.529941842336694D+02 0.653521684410856D+02 0.135663935801780D+03
 0.000000000000000D+00 0.000000000000000D+00 0.000000000000000D+00 0.000000000000000D+00
 0.192734068811889D+03 0.000000000000000D+00 0.000000000000000D+00 0.192734068811889D+03
 0.192734068811889D+03 -.000000000000000D+00 -.000000000000000D+00 -.192734068811889D+03
 0.640082680511689D+02 0.373578417216317D+02 0.206127847446870D+01 0.140428334698697D+02
 0.153964114129473D+03 0.118766080613624D+02 -.627769608054770D+02 -.140081932499012D+03
 0.973194988675322D+02 -.384360842260338D+02 0.687452150080239D+02 0.571650916442666D+02
 0.701762565756034D+02 -.107983655569603D+02 -.802953267701561D+01 0.688740073848757D+02
0.284351848103D-04 0.000000000000D+00 0.000000000000D+00 0.446517011234D-08 0.000000000000D+00  6 3 22 9900012 13 4 21 0 0.12760318D-01 0.68901513D-01 0.11542447D+05 0.11542447D+05 0.11542447D+05 0.12029265D+01  1  2  2  2  6  5        4 0.215331402605D-03 0.100000000000D+01
0.682594657050D-07 0.000000000000D+00 -.545992984139D-07 0.446517011234D-08 0.000000000000D+00  6 3 22 9900012 13 4 21 2 0.12760318D-01 0.68901513D-01 0.11542447D+05 0.11542447D+05 0.11542447D+05 0.12029265D+01  1  2  3  2  6  5        4 0.747984162930D-06 0.100000000000D+01
-.431411120387D-05 0.000000000000D+00 0.000000000000D+00 0.446517011234D-08 0.000000000000D+00  6 3 22 9900012 13 4 21 2 0.12760318D-01 0.68901513D-01 0.11542447D+05 0.11542447D+05 0.11542447D+05 0.12029265D+01  1  2 15  2  6  5        4 -.472738370317D-04 0.100000000000D+01
0.139778876275D-04 0.000000000000D+00 0.000000000000D+00 0.446517011234D-08 0.000000000000D+00  6 3 22 9900012 13 4 21 2 0.12760318D-01 0.68901513D-01 0.11941739D+05 0.11941739D+05 0.11941739D+05 0.12014236D+01  1  2 12  2  6  5        4 0.153206740930D-03 0.100000000000D+01
-.436098967195D-05 0.000000000000D+00 0.000000000000D+00 0.446517011234D-08 0.000000000000D+00  6 3 22 9900012 13 4 21 2 0.12760318D-01 0.68901513D-01 0.11542447D+05 0.11542447D+05 0.11542447D+05 0.12029265D+01  1  2  4  2  6  5        4 -.477875291818D-04 0.100000000000D+01
-.146496483703D-04 0.000000000000D+00 0.000000000000D+00 0.446517011234D-08 0.000000000000D+00  6 3 22 9900012 13 4 21 2 0.12760318D-01 0.68901513D-01 0.11542447D+05 0.11542447D+05 0.11542447D+05 0.12029265D+01  1  2  5  2  6  5        4 -.160530189627D-03 0.100000000000D+01
0.222969497371D-04 0.000000000000D+00 -.000000000000D+00 0.446517011234D-08 0.000000000000D+00  6 3 22 9900012 13 4 21 2 0.12760318D-01 0.68901513D-01 0.11542447D+05 0.11542447D+05 0.11542447D+05 0.12029265D+01  1  2  6  2  6  5        4 0.244328974930D-03 0.100000000000D+01
  </mgrwgt>
  </event>
  <event>
  6     66 0.10089070E-05 0.62189857E+02 0.78161638E-02 0.10109738E+00
        3 -1    0    0  501    0 0.00000000E+00 0.00000000E+00 0.74824470E+01 0.74824470E+01 0.00000000E+00 0.0000E+00 0.9000E+01
       22 -1    0    0    0    0 0.00000000E+00 0.00000000E+00 -.12084498E+04 0.12084498E+04 0.00000000E+00 0.0000E+00 0.9000E+01
      -24  2    1    2    0    0 0.63588790E+01 -.61863907E+02 -.10086558E+04 0.10138152E+04 0.81037648E+02 0.0000E+00 0.0000E+00
  9900012  1    3    3    0    0 -.10142637E+01 -.14918193E+02 -.63685921E+03 0.63899392E+03 0.50000000E+02 0.0000E+00 0.9000E+01
       13  1    3    3    0    0 0.73731427E+01 -.46945715E+02 -.37179661E+03 0.37482127E+03 0.00000000E+00 0.0000E+00 0.9000E+01
        4  1    1    2  501    0 -.63588790E+01 0.61863907E+02 -.19231153E+03 0.20211705E+03 0.00000000E+00 0.0000E+00 0.9000E+01
#aMCatNLO 1  0  0  1  5 0.25646695D+00 0.00000000D+00  -5  6  0 0.00000000D+00 0.00000000D+00 0.00000000D+00 0.00000000D+00 0.00000000D+00
  <mgrwgt>
 0.1113174943D-03    3    2    0
 0.950902806913311D+02 0.000000000000000D+00 0.000000000000000D+00 0.950902806913311D+02
 0.950902806913311D+02 0.000000000000000D+00 0.000000000000000D+00 -.950902806913311D+02
 0.637614991995969D+02 -.101426372982457D+01 -.149181925499325D+02 -.366326026963646D+02
 0.485942167541031D+02 0.737314270094892D+01 -.469457147231054D+02 -.101555176034018D+02
 0.778248454289622D+02 -.635887897112434D+01 0.618639072730379D+02 0.467881202997664D+02
 0.000000000000000D+00 -.000000000000000D+00 -.000000000000000D+00 -.000000000000000D+00
 0.261845793803020D+03 0.000000000000000D+00 0.000000000000000D+00 0.261845793803020D+03
 0.311933804270806D+03 0.000000000000000D+00 0.000000000000000D+00 -.311933804270806D+03
 0.900218395974106D+02 0.485519992748026D+02 0.436427243720164D+02 -.366326026963646D+02
 0.395257502789169D+02 0.357752927393426D+02 -.133895043497747D+02 -.101555176034018D+02
 0.186673887428860D+03 0.788923183287782D+02 0.162585405726738D+03 0.467881202997664D+02
 0.257558120768637D+03 -.163219610342923D+03 -.192838625748980D+03 -.500880104677858D+02
0.389398001819D-05 0.000000000000D+00 0.000000000000D+00 0.395801604029D-06 0.000000000000D+00  6 3 22 9900012 13 4 21 0 0.11511457D-02 0.18591535D+00 0.65528205D+04 0.65528205D+04 0.65528205D+04 0.12288407D+01  1  2  2  1  6  1        3 0.138379393458D-03 0.100000000000D+01
-.232865946334D-07 0.000000000000D+00 -.747695428918D-08 0.395801604029D-06 0.000000000000D+00  6 3 22 9900012 13 4 21 2 0.11511457D-02 0.18591535D+00 0.65528205D+04 0.65528205D+04 0.65528205D+04 0.12288407D+01  1  2  3  1  6  1        3 -.124961116108D-05 0.100000000000D+01
-.481013859004D-06 0.000000000000D+00 0.000000000000D+00 0.395801604029D-06 0.000000000000D+00  6 3 22 9900012 13 4 21 2 0.11511457D-02 0.18591535D+00 0.65528205D+04 0.65528205D+04 0.65528205D+04 0.12288407D+01  1  2 15  1  6  1        3 -.258122879840D-04 0.100000000000D+01
  </mgrwgt>
  </event>
  <event>
  7     66 -.10089070E-05 0.44330296E+02 0.78161638E-02 0.12383029E+00
        3 -1    0    0  502    0 0.00000000E+00 0.00000000E+00 0.99583964E+02 0.99583964E+02 0.00000000E+00 0.0000E+00 0.9000E+01
       22 -1    0    0    0    0 0.00000000E+00 0.00000000E+00 -.50519881E+02 0.50519881E+02 0.00000000E+00 0.0000E+00 0.9000E+01
      -24  2    1    2    0    0 -.45995931E+02 0.85812597E+01 0.15487290E+02 0.91435321E+02 0.77014921E+02 0.0000E+00 0.0000E+00
  9900012  1    3    3    0    0 -.46117820E+02 -.95065808E+01 0.17197218E+01 0.68703608E+02 0.50000000E+02 0.0000E+00 0.9000E+01
       13  1    3    3    0    0 0.12188860E+00 0.18087840E+02 0.13767568E+02 0.22731713E+02 0.00000000E+00 0.0000E+00 0.9000E+01
        4  1    1    2  501    0 0.38242219E+02 -.80182366E+01 0.32493749E+02 0.50819319E+02 0.00000000E+00 0.0000E+00 0.9000E+01
       21  1    1    2  502  501 0.77537116E+01 -.56302304E+00 0.10830435E+01 0.78492052E+01 0.00000000E+00 0.0000E+00 0.9000E+01
#aMCatNLO 2  0  0  1  5 0.12275165D+02 0.00000000D+00  -5  6  0 0.00000000D+00 0.00000000D+00 0.00000000D+00 0.00000000D+00 0.00000000D+00
  <mgrwgt>
 -.2748646602D-04    2    2    0
 0.668464013437600D+02 0.000000000000000D+00 0.000000000000000D+00 0.668464013437600D+02
 0.668464013437600D+02 0.000000000000000D+00 0.000000000000000D+00 -.668464013437600D+02
 0.698516375339238D+02 -.419972958563786D+02 -.980578586725478D+01 -.227887026933966D+02
 0.191773269871707D+02 0.123422923175168D+01 0.180070696921959D+02 0.648012265908247D+01
 0.446638381664255D+02 0.407630666246269D+02 -.820128382494116D+01 0.163085800343142D+02
 0.000000000000000D+00 0.000000000000000D+00 -.000000000000000D+00 -.000000000000000D+00
 0.701033014431063D+02 0.000000000000000D+00 0.000000000000000D+00 0.701033014431063D+02
 0.717650944210672D+02 0.000000000000000D+00 0.000000000000000D+00 -.717650944210672D+02
 0.723640334121609D+02 -.461178195789077D+02 -.950658080045798D+01 -.227887026933966D+02
 0.192139745961741D+02 0.121888602476616D+00 0.180878404812253D+02 0.648012265908247D+01
 0.423406334486241D+02 0.382422193307176D+02 -.801823663634357D+01 0.163085800343142D+02
 0.794975440721443D+01 0.775371164571348D+01 -.563023044423791D+00 -.166179297796091D+01
-.138972388424D-06 0.000000000000D+00 0.000000000000D+00 0.331422251525D-07 0.000000000000D+00  6 3 22 9900012 13 4 21 2 0.16447931D-01 0.72395861D-02 0.44634578D+04 0.44634578D+04 0.44634578D+04 0.12474363D+01  1  2 13  1  6  1        3 -.304048019847D-04 0.100000000000D+01
0.130781570145D-07 0.000000000000D+00 0.000000000000D+00 0.331422251525D-07 0.625962741252D-08  6 3 22 9900012 13 4 21 2 0.15320610D-01 0.77722895D-02 0.44634578D+04 0.44634578D+04 0.44634578D+04 0.12474363D+01  1  2  1  1  6  1        3 0.291833596470D-05 0.100000000000D+01
  </mgrwgt>
  </event>
  <event>
  6     66 0.10089070E-05 0.29534683E+02 0.78161638E-02 0.96468435E-01
        1 -1    0    0  501    0 0.00000000E+00 0.00000000E+00 0.17385092E+02 0.17385092E+02 0.00000000E+00 0.0000E+00 0.9000E+01
       22 -1    0    0    0    0 0.00000000E+00 0.00000000E+00 -.22008817E+03 0.22008817E+03 0.00000000E+00 0.0000E+00 0.9000E+01
      -24  2    1    2    0    0 0.21463866E+02 0.20287925E+02 -.18329373E+03 0.20213178E+03 0.79927262E+02 0.0000E+00 0.0000E+00
  9900012  1    3    3    0    0 0.27319656E+02 -.65784288E+01 -.11496996E+03 0.12848242E+03 0.50000000E+02 0.0000E+00 0.9000E+01
       13  1    3    3    0    0 -.58557896E+01 0.26866354E+02 -.68323766E+02 0.73649360E+02 0.00000000E+00 0.0000E+00 0.9000E+01
        2  1    1    2  501    0 -.21463866E+02 -.20287925E+02 -.19409343E+02 0.35341478E+02 0.00000000E+00 0.0000E+00 0.9000E+01
#aMCatNLO 1  0  0  1  5 0.57713576D+02 0.00000000D+00  -5  6  0 0.00000000D+00 0.00000000D+00 0.00000000D+00 0.00000000D+00 0.00000000D+00
  <mgrwgt>
 0.5352237079D-04    5    2    0
 0.618567134271989D+02 0.000000000000000D+00 0.000000000000000D+00 0.618567134271989D+02
 0.618567134271989D+02 0.000000000000000D+00 0.000000000000000D+00 -.618567134271989D+02
 0.582505363004587D+02 0.273196560535755D+02 -.657842878498038D+01 -.101727895449741D+02
 0.294253922541154D+02 -.585578958350175D+01 0.268663541201615D+02 -.104767577977344D+02
 0.360374982998237D+02 -.214638664700737D+02 -.202879253351811D+02 0.206495473427084D+02
 0.000000000000000D+00 0.000000000000000D+00 -.000000000000000D+00 0.000000000000000D+00
 0.277596032560480D+04 0.000000000000000D+00 0.000000000000000D+00 0.277596032560480D+04
 0.221915122620616D+03 0.000000000000000D+00 0.000000000000000D+00 -.221915122620616D+03
 0.151247809930670D+03 -.137189986912898D+02 0.141718747653957D+03 -.101727895449741D+02
 0.185927213693440D+03 -.480412359265411D+02 0.179307573706478D+03 -.104767577977344D+02
 0.763537168107145D+02 -.434801943134862D+02 0.592702199069103D+02 0.206495473427084D+02
 0.258434670779060D+04 0.105240428931317D+03 -.380296541267346D+03 0.255404520298419D+04
0.233646914341D-06 0.000000000000D+00 0.000000000000D+00 0.223275124226D-06 0.000000000000D+00  6 1 22 9900012 13 2 21 0 0.26746295D-02 0.33859718D-01 0.32711064D+04 0.32711064D+04 0.32711064D+04 0.12631397D+01  1  2  2  1  6  1        1 0.650605478292D-04 0.100000000000D+01
0.347120172192D-08 0.000000000000D+00 -.448632835858D-09 0.223275124226D-06 0.000000000000D+00  6 1 22 9900012 13 2 21 2 0.26746295D-02 0.33859718D-01 0.32711064D+04 0.32711064D+04 0.32711064D+04 0.12631397D+01  1  2  3  1  6  1        1 0.154219848393D-05 0.100000000000D+01
-.271680541070D-07 0.000000000000D+00 0.000000000000D+00 0.223275124226D-06 0.000000000000D+00  6 1 22 9900012 13 2 21 2 0.26746295D-02 0.33859718D-01 0.32711064D+04 0.32711064D+04 0.32711064D+04 0.12631397D+01  1  2 15  1  6  1        1 -.120703246920D-04 0.100000000000D+01
-.117919896594D-05 0.000000000000D+00 -.162136280599D-05 0.223275124226D-06 0.000000000000D+00  6 1 22 9900012 13 2 21 2 0.30486401D+00 0.33859718D-01 0.32711064D+04 0.32711064D+04 0.32711064D+04 0.12631397D+01  1  2  5  1  6  1        1 -.618351871551D-06 0.100000000000D+01
-.100194227709D-05 0.000000000000D+00 -.592149258471D-06 0.223275124226D-06 0.000000000000D+00  6 21 22 9900012 13 2 -1 2 0.30486401D+00 0.33859718D-01 0.32711064D+04 0.32711064D+04 0.32711064D+04 0.12631397D+01  1  2  5  3  6  1        1 -.391698960966D-06 0.100000000000D+01
  </mgrwgt>
  </event>
  <event>
  7     66 -.10089070E-05 0.76694888E+01 0.78161638E-02 0.13113881E+00
        1 -1    0    0  501    0 0.00000000E+00 0.00000000E+00 0.17052053E+04 0.17052053E+04 0.00000000E+00 0.0000E+00 0.9000E+01
       22 -1    0    0    0    0 0.00000000E+00 0.00000000E+00 -.15842856E+01 0.15842856E+01 0.00000000E+00 0.0000E+00 0.9000E+01
      -24  2    1    2    0    0 0.13497896E+02 0.15681057E+01 0.12252200E+04 0.12279638E+04 0.80910034E+02 0.0000E+00 0.0000E+00
  9900012  1    3    3    0    0 0.10071595E+02 -.19057140E+02 0.10642153E+04 0.10656073E+04 0.50000000E+02 0.0000E+00 0.9000E+01
       13  1    3    3    0    0 0.34263014E+01 0.20625246E+02 0.16100465E+03 0.16235652E+03 0.00000000E+00 0.0000E+00 0.9000E+01
        2  1    1    2  502    0 -.33887263E+01 -.48576576E+01 0.60425902E+02 0.60715483E+02 0.00000000E+00 0.0000E+00 0.9000E+01
       21  1    1    2  501  502 -.10109170E+02 0.32895520E+01 0.41797514E+03 0.41811032E+03 0.00000000E+00 0.0000E+00 0.9000E+01
#aMCatNLO 2  0  0  5  1 0.68652774D+01 0.00000000D+00  -5  6  0 0.00000000D+00 0.00000000D+00 0.00000000D+00 0.00000000D+00 0.00000000D+00
  <mgrwgt>
 -.1599931132D-03    1    2    0
 0.519762657141739D+02 0.000000000000000D+00 0.000000000000000D+00 0.519762657141739D+02
 0.519762657141739D+02 -.000000000000000D+00 -.000000000000000D+00 -.519762657141739D+02
 0.555139474142476D+02 0.129127783538149D+02 -.187270685394599D+02 0.802218278372374D+01
 0.279499284154339D+02 0.483792831528909D+01 0.207892405688202D+02 -.180444014756855D+02
 0.204886555986663D+02 -.177507066691040D+02 -.206217202936031D+01 0.100222186919618D+02
 0.000000000000000D+00 0.000000000000000D+00 0.000000000000000D+00 0.000000000000000D+00
 0.519762657141739D+02 0.000000000000000D+00 0.000000000000000D+00 0.519762657141739D+02
 0.519762657141739D+02 -.000000000000000D+00 -.000000000000000D+00 -.519762657141739D+02
 0.552926585144984D+02 0.100715945393111D+02 -.190571404572579D+02 0.962634232868325D+01
 0.271037369115961D+02 0.342630144029164D+01 0.206252461143019D+02 -.172473834461273D+02
 0.659645746089550D+01 -.338872626454587D+01 -.485765764797933D+01 -.290395377242973D+01
 0.149596785413577D+02 -.101091697150569D+02 0.328955199093527D+01 0.105249948898738D+02
-.242509330163D-06 0.000000000000D+00 0.000000000000D+00 0.469249863104D-07 0.000000000000D+00  6 1 22 9900012 13 2 21 2 0.26233928D+00 0.24373625D-03 0.21118589D+04 0.21118589D+04 0.21118589D+04 0.12863331D+01  1  2 13  2  6  5        2 -.159993113235D-03 0.100000000000D+01
  </mgrwgt>
  </event>
  <event>
  6     66 0.10089070E-05 0.97993627E+02 0.78161638E-02 0.11085898E+00
        1 -1    0    0  501    0 0.00000000E+00 0.00000000E+00 0.15755970E+03 0.15755970E+03 0.00000000E+00 0.0000E+00 0.9000E+01
       22 -1    0    0    0    0 0.00000000E+00 0.00000000E+00 -.73119693E+03 0.73119693E+03 0.00000000E+00 0.0000E+00 0.9000E+01
      -24  2    1    2    0    0 -.10186511E+03 -.72572478E+02 -.69644978E+03 0.71346777E+03 0.91382198E+02 0.0000E+00 0.0000E+00
  9900012  1    3    3    0    0 -.34952065E+02 -.43233068E+02 -.45839845E+03 0.46445655E+03 0.50000000E+02 0.0000E+00 0.9000E+01
       13  1    3    3    0    0 -.66913044E+02 -.29339410E+02 -.23805133E+03 0.24901123E+03 0.00000000E+00 0.0000E+00 0.9000E+01
        2  1    1    2  501    0 0.10186511E+03 0.72572478E+02 0.12281255E+03 0.17528886E+03 0.00000000E+00 0.0000E+00 0.9000E+01
#aMCatNLO 1  0  0  1  5 0.73449928D+01 0.00000000D+00  -5  6  0 0.00000000D+00 0.00000000D+00 0.00000000D+00 0.00000000D+00 0.00000000D+00
  <mgrwgt>
 0.3193267039D-03   11    2    0
 0.339421819924332D+03 0.000000000000000D+00 0.000000000000000D+00 0.339421819924332D+03
 0.339421819924332D+03 0.000000000000000D+00 0.000000000000000D+00 -.339421819924332D+03
 0.220720077420922D+03 -.349520646382435D+02 -.432330683000255D+02 -.207669467085527D+03
 0.124852427064707D+03 -.669130437246903D+02 -.293394098546837D+02 -.101242146129093D+03
 0.333271135363036D+03 0.101865108362934D+03 0.725724781547092D+02 0.308911613214620D+03
 0.000000000000000D+00 0.000000000000000D+00 0.000000000000000D+00 0.000000000000000D+00
 0.356954856907492D+03 0.000000000000000D+00 0.000000000000000D+00 0.356954856907492D+03
 0.340178342260974D+03 0.000000000000000D+00 0.000000000000000D+00 -.340178342260974D+03
 0.221260899678132D+03 -.370743477712171D+02 -.442184452929779D+02 -.207669467085527D+03
 0.125632869028422D+03 -.681158120484438D+02 -.298978557169085D+02 -.101242146129093D+03
 0.331987924513039D+03 0.986706992028390D+02 0.710893125753724D+02 0.308911613214620D+03
 0.182515059488740D+02 0.651946061682188D+01 0.302698843451395D+01 0.167765146465173D+02
0.768409642963D-05 0.000000000000D+00 0.000000000000D+00 0.279653256263D-06 0.000000000000D+00  6 1 22 9900012 13 2 21 0 0.24239954D-01 0.11249184D+00 0.18619559D+05 0.18619559D+05 0.18619559D+05 0.11823053D+01  1  2  2  1  6  1        1 0.169982688139D-04 0.100000000000D+01
0.683601253661D-07 0.000000000000D+00 -.147544767794D-07 0.279653256263D-06 0.000000000000D+00  6 1 22 9900012 13 2 21 2 0.24239954D-01 0.11249184D+00 0.18619559D+05 0.18619559D+05 0.18619559D+05 0.11823053D+01  1  2  3  1  6  1        1 0.211384936995D-06 0.100000000000D+01
-.121225254200D-05 0.000000000000D+00 0.000000000000D+00 0.279653256263D-06 0.000000000000D+00  6 1 22 9900012 13 2 21 2 0.24239954D-01 0.11249184D+00 0.18619559D+05 0.18619559D+05 0.18619559D+05 0.11823053D+01  1  2 15  1  6  1        1 -.374855847384D-05 0.100000000000D+01
0.108990933626D-03 0.000000000000D+00 0.000000000000D+00 0.279653256263D-06 0.000000000000D+00  6 1 22 9900012 13 2 21 2 0.25548902D-01 0.11249184D+00 0.19535913D+05 0.19535913D+05 0.19535913D+05 0.11802944D+01  1  2 12  1  6  1        1 0.314991635520D-03 0.100000000000D+01
-.178461599777D-04 0.000000000000D+00 0.000000000000D+00 0.279653256263D-06 0.000000000000D+00  6 1 22 9900012 13 2 21 2 0.24239954D-01 0.11249184D+00 0.18619559D+05 0.18619559D+05 0.18619559D+05 0.11823053D+01  1  2  4  1  6  1        1 -.551843546555D-04 0.100000000000D+01
-.270437262284D-03 0.000000000000D+00 -.179788096822D-04 0.279653256263D-06 0.000000000000D+00  6 1 22 9900012 13 2 21 2 0.25530046D-01 0.11249184D+00 0.18619559D+05 0.18619559D+05 0.18619559D+05 0.11823053D+01  1  2  5  1  6  1        1 -.783170944419D-03 0.100000000000D+01
0.271029219848D-03 0.000000000000D+00 0.179546659228D-04 0.279653256263D-06 0.000000000000D+00  6 1 22 9900012 13 2 21 2 0.24239954D-01 0.11249184D+00 0.18619559D+05 0.18619559D+05 0.18619559D+05 0.11823053D+01  1  2  6  1  6  1        1 0.838083520979D-03 0.100000000000D+01
0.723303584473D-06 0.000000000000D+00 0.000000000000D+00 0.279653256263D-06 0.917485399294D-06  6 1 22 9900012 13 2 21 2 0.25492084D-01 0.11274256D+00 0.19535913D+05 0.19535913D+05 0.19535913D+05 0.11802944D+01  1  2 11  1  6  1        1 0.208694664983D-05 0.100000000000D+01
0.189626683959D-05 0.000000000000D+00 0.000000000000D+00 0.279653256263D-06 0.000000000000D+00  6 21 22 9900012 13 2 -1 2 0.25548902D-01 0.11249184D+00 0.19535913D+05 0.19535913D+05 0.19535913D+05 0.11802944D+01  1  2 12  3  6  1        1 0.401915100144D-04 0.100000000000D+01
-.244789837551D-05 0.000000000000D+00 -.161978028832D-06 0.279653256263D-06 0.000000000000D+00  6 21 22 9900012 13 2 -1 2 0.25530046D-01 0.11249184D+00 0.18619559D+05 0.18619559D+05 0.18619559D+05 0.11823053D+01  1  2  5  3  6  1        1 -.520554362480D-04 0.100000000000D+01
0.435489221599D-07 0.000000000000D+00 0.000000000000D+00 0.279653256263D-06 0.362961899263D-09  6 21 22 9900012 13 2 -1 2 0.25492084D-01 0.11274256D+00 0.19535913D+05 0.19535913D+05 0.19535913D+05 0.11802944D+01  1  2 11  3  6  1        1 0.922730832439D-06 0.100000000000D+01
  </mgrwgt>
  </event>
  <event>
  6     66 0.10089070E-05 0.18586964E+02 0.78161638E-02 0.13117657E+00
        1 -1    0    0  501    0 0.00000000E+00 0.00000000E+00 0.24956883E+04 0.24956883E+04 0.00000000E+00 0.0000E+00 0.9000E+01
       22 -1    0    0    0    0 0.00000000E+00 0.00000000E+00 -.35211444E+02 0.35211444E+02 0.00000000E+00 0.0000E+00 0.9000E+01
      -24  2    1    2    0    0 0.14838665E+02 0.11193268E+02 0.12909283E+02 0.83261597E+02 0.80127204E+02 0.0000E+00 0.0000E+00
  9900012  1    3    3    0    0 -.20711029E+01 0.19500816E+02 0.26636718E+02 0.59950697E+02 0.50000000E+02 0.0000E+00 0.9000E+01
       13  1    3    3    0    0 0.16909768E+02 -.83075487E+01 -.13727435E+02 0.23310901E+02 0.00000000E+00 0.0000E+00 0.9000E+01
        2  1    1    2  501    0 -.14838665E+02 -.11193268E+02 0.24475676E+04 0.24476382E+04 0.00000000E+00 0.0000E+00 0.9000E+01
#aMCatNLO 1  0  0  1  5 0.10701979D+02 0.00000000D+00  -5  6  0 0.00000000D+00 0.00000000D+00 0.00000000D+00 0.00000000D+00 0.00000000D+00
  <mgrwgt>
 0.7138922324D-03    6    2    0
 0.296440198144754D+03 0.000000000000000D+00 0.000000000000000D+00 0.296440198144754D+03
 0.296440198144754D+03 0.000000000000000D+00 0.000000000000000D+00 -.296440198144754D+03
 0.145375319394484D+03 -.207110293835301D+01 0.195008162671585D+02 -.135090385248476D+03
 0.156479435221661D+03 0.169097680364678D+02 -.830754869792134D+01 -.155341102181214D+03
 0.291025641673363D+03 -.148386650981148D+02 -.111932675692372D+02 0.290431487429690D+03
 0.000000000000000D+00 0.000000000000000D+00 -.000000000000000D+00 -.000000000000000D+00
 0.297197883540370D+03 0.000000000000000D+00 0.000000000000000D+00 0.297197883540370D+03
 0.301468253869989D+03 0.000000000000000D+00 0.000000000000000D+00 -.301468253869989D+03
 0.145506782633487D+03 -.221792515208087D+01 0.204424170240992D+02 -.135090385248476D+03
 0.156411939274094D+03 0.167518366823571D+02 -.729470276133264D+01 -.155341102181214D+03
 0.290974401623884D+03 -.151324285650000D+02 -.930930263125176D+01 0.290431487429690D+03
 0.577301387889328D+01 0.598517034723778D+00 -.383841163151481D+01 -.427037032961917D+01
0.256233800577D-03 0.000000000000D+00 0.000000000000D+00 0.273824209176D-03 0.000000000000D+00  6 1 22 9900012 13 2 21 0 0.38395205D+00 0.54171453D-02 0.20764169D+04 0.20764169D+04 0.20764169D+04 0.12872568D+01  1  2  2  1  6  1        1 0.545993295924D-03 0.100000000000D+01
0.354914254536D-04 0.000000000000D+00 -.492002631063D-06 0.273824209176D-03 0.000000000000D+00  6 1 22 9900012 13 2 21 2 0.38395205D+00 0.54171453D-02 0.20764169D+04 0.20764169D+04 0.20764169D+04 0.12872568D+01  1  2  3  1  6  1        1 0.125315471623D-03 0.100000000000D+01
-.343040254510D-04 0.000000000000D+00 0.000000000000D+00 0.273824209176D-03 0.000000000000D+00  6 1 22 9900012 13 2 21 2 0.38395205D+00 0.54171453D-02 0.20764169D+04 0.20764169D+04 0.20764169D+04 0.12872568D+01  1  2 15  1  6  1        1 -.121122921185D-03 0.100000000000D+01
0.483474234124D-04 0.000000000000D+00 0.000000000000D+00 0.273824209176D-03 0.000000000000D+00  6 1 22 9900012 13 2 21 2 0.39146244D+00 0.54171453D-02 0.22083264D+04 0.22083264D+04 0.22083264D+04 0.12839055D+01  1  2 12  1  6  1        1 0.157637308849D-03 0.100000000000D+01
-.281186753576D-07 0.000000000000D+00 0.000000000000D+00 0.273824209176D-03 0.000000000000D+00  6 1 22 9900012 13 2 21 2 0.38395205D+00 0.54171453D-02 0.20764169D+04 0.20764169D+04 0.20764169D+04 0.12872568D+01  1  2  4  1  6  1        1 -.992832781110D-07 0.100000000000D+01
0.319789620710D-05 0.000000000000D+00 0.000000000000D+00 0.273824209176D-03 0.000000000000D+00  6 21 22 9900012 13 2 -1 2 0.39146244D+00 0.54171453D-02 0.22083264D+04 0.22083264D+04 0.22083264D+04 0.12839055D+01  1  2 12  3  6  1        1 0.616836048255D-05 0.100000000000D+01
  </mgrwgt>
  </event>
  <event>
  6     66 0.10089070E-05 0.25298220E+02 0.78161638E-02 0.11496178E+00
        1 -1    0    0  501    0 0.00000000E+00 0.00000000E+00 0.76594419E+03 0.76594419E+03 0.00000000E+00 0.0000E+00 0.9000E+01
       22 -1    0    0    0    0 0.00000000E+00 0.00000000E+00 -.17886863E+02 0.17886863E+02 0.00000000E+00 0.0000E+00 0.9000E+01
      -24  2    1    2    0    0 0.53523664E+01 -.24725536E+02 0.87726311E+02 0.12301561E+03 0.82443523E+02 0.0000E+00 0.0000E+00
  9900012  1    3    3    0    0 -.19573767E+02 -.52075606E+01 0.47934018E+02 0.72165927E+02 0.50000000E+02 0.0000E+00 0.9000E+01
       13  1    3    3    0    0 0.24926134E+02 -.19517975E+02 0.39792294E+02 0.50849682E+02 0.00000000E+00 0.0000E+00 0.9000E+01
        2  1    1    2  501    0 -.53523664E+01 0.24725536E+02 0.66033102E+03 0.66081545E+03 0.00000000E+00 0.0000E+00 0.9000E+01
#aMCatNLO 1  0  0  1  1 0.98080408D+02 0.00000000D+00  -5  6  0 0.00000000D+00 0.00000000D+00 0.00000000D+00 0.00000000D+00 0.00000000D+00
  <mgrwgt>
 0.6603805072D-04    5    2    0
 0.117048446235199D+03 0.000000000000000D+00 0.000000000000000D+00 0.117048446235199D+03
 0.117048446235199D+03 0.000000000000000D+00 0.000000000000000D+00 -.117048446235199D+03
 0.884612424751445D+02 -.195737672205647D+02 -.520756063018387D+01 -.701080620850727D+02
 0.431045568229093D+02 0.249261335759749D+02 -.195179754308095D+02 -.292530223897359D+02
 0.102531093172345D+03 -.535236635541022D+01 0.247255360609934D+02 0.993610844748087D+02
 0.000000000000000D+00 0.000000000000000D+00 0.000000000000000D+00 0.000000000000000D+00
 0.264058709029792D+03 0.000000000000000D+00 0.000000000000000D+00 0.264058709029792D+03
 0.139817797830626D+03 0.000000000000000D+00 0.000000000000000D+00 -.139817797830626D+03
 0.977045573794174D+02 -.241821649836606D+02 -.393225515459827D+02 -.701080620850727D+02
 0.522855888110278D+02 0.225648205200631D+02 -.369982750040974D+02 -.292530223897359D+02
 0.100682745650290D+03 -.103827758129582D+02 -.125135178942164D+02 0.993610844748087D+02
 0.153203615019682D+03 0.120001202765558D+02 0.888343444442966D+02 0.124240911199166D+03
0.103290451547D-05 0.000000000000D+00 0.000000000000D+00 0.678898633894D-06 0.000000000000D+00  6 1 22 9900012 13 2 21 0 0.11783757D+00 0.27518251D-02 0.30748971D+04 0.30748971D+04 0.30748971D+04 0.12663402D+01  1  2  2  1  6  1        1 0.774686256764D-04 0.100000000000D+01
0.969919422474D-07 0.000000000000D+00 -.198331265470D-08 0.678898633894D-06 0.000000000000D+00  6 1 22 9900012 13 2 21 2 0.11783757D+00 0.27518251D-02 0.30748971D+04 0.30748971D+04 0.30748971D+04 0.12663402D+01  1  2  3  1  6  1        1 0.116654663942D-04 0.100000000000D+01
-.155962240759D-06 0.000000000000D+00 0.000000000000D+00 0.678898633894D-06 0.000000000000D+00  6 1 22 9900012 13 2 21 2 0.11783757D+00 0.27518251D-02 0.30748971D+04 0.30748971D+04 0.30748971D+04 0.12663402D+01  1  2 15  1  6  1        1 -.187579734582D-04 0.100000000000D+01
-.194988892899D-06 0.000000000000D+00 -.266195506982D-06 0.678898633894D-06 0.000000000000D+00  6 1 22 9900012 13 2 21 2 0.28562647D+00 0.27518251D-02 0.30748971D+04 0.30748971D+04 0.30748971D+04 0.12663402D+01  1  2  5  1  6  1        1 -.429844731621D-05 0.100000000000D+01
-.224007831386D-08 0.000000000000D+00 -.258219214445D-07 0.678898633894D-06 0.000000000000D+00  6 21 22 9900012 13 2 -1 2 0.28562647D+00 0.27518251D-02 0.30748971D+04 0.30748971D+04 0.30748971D+04 0.12663402D+01  1  2  5  3  6  1        1 -.396205780518D-07 0.100000000000D+01
  </mgrwgt>
  </event>
  <event>
  6     66 0.10089070E-05 0.15414050E+02 0.78161638E-02 0.12700819E+00
        1 -1    0    0  501    0 0.00000000E+00 0.00000000E+00 0.79275342E+03 0.79275342E+03 0.00000000E+00 0.0000E+00 0.9000E+01
       22 -1    0    0    0    0 0.00000000E+00 0.00000000E+00 -.31403880E+01 0.31403880E+01 0.00000000E+00 0.0000E+00 0.9000E+01
      -24  2    1    2    0    0 0.15229471E+02 0.23782629E+01 0.55772935E+03 0.56349838E+03 0.78935439E+02 0.0000E+00 0.0000E+00
  9900012  1    3    3    0    0 0.20941827E+02 0.22385640E+02 0.36998172E+03 0.37460132E+03 0.50000000E+02 0.0000E+00 0.9000E+01
       13  1    3    3    0    0 -.57123556E+01 -.20007377E+02 0.18774763E+03 0.18889706E+03 0.00000000E+00 0.0000E+00 0.9000E+01
        2  1    1    2  501    0 -.15229471E+02 -.23782629E+01 0.23188369E+03 0.23239543E+03 0.00000000E+00 0.0000E+00 0.9000E+01
#aMCatNLO 1  0  0  1  1 0.98080408D+02 0.00000000D+00  -5  6  0 0.00000000D+00 0.00000000D+00 0.00000000D+00 0.00000000D+00 0.00000000D+00
  <mgrwgt>
 0.3388529362D-03    7    2    0
 0.498954236197871D+02 0.000000000000000D+00 0.000000000000000D+00 0.498954236197871D+02
 0.498954236197871D+02 0.000000000000000D+00 0.000000000000000D+00 -.498954236197871D+02
 0.601306102899534D+02 0.209418266489657D+02 0.223856397009847D+02 -.132670013802899D+02
 0.209841269345357D+02 -.571235562227101D+01 -.200073768244852D+02 0.272166292043493D+01
 0.186761100150852D+02 -.152294710266947D+02 -.237826287649954D+01 0.105453384598550D+02
 0.000000000000000D+00 0.000000000000000D+00 -.000000000000000D+00 0.000000000000000D+00
 0.849597316289358D+02 0.000000000000000D+00 0.000000000000000D+00 0.849597316289358D+02
 0.528448429512102D+02 0.000000000000000D+00 0.000000000000000D+00 -.528448429512102D+02
 0.597288802898827D+02 0.118781146324944D+02 0.273940907466527D+02 -.132670013802899D+02
 0.204855455990700D+02 -.884827057938999D+01 -.182745242672144D+02 0.272166292043493D+01
 0.210773780235078D+02 -.182356090095025D+02 -.717122838504636D+00 0.105453384598550D+02
 0.365127706676856D+02 0.152057649563981D+02 -.840244364093365D+01 0.321148886777256D+02
0.303743709571D-06 0.000000000000D+00 0.000000000000D+00 0.115805699051D-06 0.000000000000D+00  6 1 22 9900012 13 2 21 0 0.12196207D+00 0.48313661D-03 0.22500643D+04 0.22500643D+04 0.22500643D+04 0.12828922D+01  1  2  2  1  6  1        1 0.207408352620D-03 0.100000000000D+01
0.154067557935D-07 0.000000000000D+00 -.583227911154D-09 0.115805699051D-06 0.000000000000D+00  6 1 22 9900012 13 2 21 2 0.12196207D+00 0.48313661D-03 0.22500643D+04 0.22500643D+04 0.22500643D+04 0.12828922D+01  1  2  3  1  6  1        1 0.173145200561D-04 0.100000000000D+01
-.351584182403D-07 0.000000000000D+00 0.000000000000D+00 0.115805699051D-06 0.000000000000D+00  6 1 22 9900012 13 2 21 2 0.12196207D+00 0.48313661D-03 0.22500643D+04 0.22500643D+04 0.22500643D+04 0.12828922D+01  1  2 15  1  6  1        1 -.395119612411D-04 0.100000000000D+01
-.137148283742D-06 0.000000000000D+00 0.000000000000D+00 0.115805699051D-06 0.000000000000D+00  6 1 22 9900012 13 2 21 2 0.12196207D+00 0.48313661D-03 0.22500643D+04 0.22500643D+04 0.22500643D+04 0.12828922D+01  1  2  4  1  6  1        1 -.154130872284D-03 0.100000000000D+01
-.489269102912D-06 0.000000000000D+00 -.877581067475D-07 0.115805699051D-06 0.000000000000D+00  6 1 22 9900012 13 2 21 2 0.21240367D+00 0.48313661D-03 0.22500643D+04 0.22500643D+04 0.22500643D+04 0.12828922D+01  1  2  5  1  6  1        1 -.213352700367D-03 0.100000000000D+01
0.474939166218D-06 0.000000000000D+00 0.757922320393D-07 0.115805699051D-06 0.000000000000D+00  6 1 22 9900012 13 2 21 2 0.12196207D+00 0.48313661D-03 0.22500643D+04 0.22500643D+04 0.22500643D+04 0.12828922D+01  1  2  6  1  6  1        1 0.533749209058D-03 0.100000000000D+01
-.256046067532D-07 0.000000000000D+00 -.538517486162D-08 0.115805699051D-06 0.000000000000D+00  6 21 22 9900012 13 2 -1 2 0.21240367D+00 0.48313661D-03 0.22500643D+04 0.22500643D+04 0.22500643D+04 0.12828922D+01  1  2  5  3  6  1        1 -.126236116194D-04 0.100000000000D+01
  </mgrwgt>
  </event>
  <event>
  7     66 0.10089070E-05 0.46900455E+02 0.78161638E-02 0.12129698E+00
        3 -1    0    0  502    0 0.00000000E+00 0.00000000E+00 0.48420331E+01 0.48420331E+01 0.00000000E+00 0.0000E+00 0.9000E+01
       22 -1    0    0    0    0 0.00000000E+00 0.00000000E+00 -.26589881E+04 0.26589881E+04 0.00000000E+00 0.0000E+00 0.9000E+01
      -24  2    1    2    0    0 0.54287179E+02 0.17249356E+01 -.24475397E+04 0.24495592E+04 0.83305910E+02 0.0000E+00 0.0000E+00
  9900012  1    3    3    0    0 0.47037726E+02 -.22917572E+02 -.16101206E+04 0.16117463E+04 0.50000000E+02 0.0000E+00 0.9000E+01
       13  1    3    3    0    0 0.72494533E+01 0.24642508E+02 -.83741909E+03 0.83781295E+03 0.00000000E+00 0.0000E+00 0.9000E+01
        4  1    1    2  501    0 -.49360610E+02 -.12327566E+01 -.20005995E+03 0.20606304E+03 0.00000000E+00 0.0000E+00 0.9000E+01
       21  1    1    2  502  501 -.49265689E+01 -.49217901E+00 -.65464505E+01 0.82078825E+01 0.00000000E+00 0.0000E+00 0.9000E+01
#aMCatNLO 2  0  0  1  5 0.49909655D+01 0.00000000D+00  -5  6  0 0.00000000D+00 0.00000000D+00 0.00000000D+00 0.00000000D+00 0.00000000D+00
  <mgrwgt>
 0.3250676334D-04    2    2    0
 0.103103461825457D+03 0.000000000000000D+00 0.000000000000000D+00 0.103103461825457D+03
 0.103103461825457D+03 0.000000000000000D+00 0.000000000000000D+00 -.103103461825457D+03
 0.825102107057431D+02 0.450542448297951D+02 -.231157280506454D+02 -.417577898147353D+02
 0.374207040878630D+02 0.635290802978952D+01 0.245529404089530D+02 -.275155005636976D+02
 0.862760088573078D+02 -.514071528595846D+02 -.143721235830763D+01 0.692732903784329D+02
 0.000000000000000D+00 -.000000000000000D+00 -.000000000000000D+00 0.000000000000000D+00
 0.124491344267435D+03 0.000000000000000D+00 0.000000000000000D+00 0.124491344267435D+03
 0.103420108335229D+03 0.000000000000000D+00 0.000000000000000D+00 -.103420108335229D+03
 0.835552258299305D+02 0.470377256026708D+02 -.229175723715868D+02 -.417577898147353D+02
 0.376418722029837D+02 0.724945327087846D+01 0.246425079679050D+02 -.275155005636976D+02
 0.850692557014758D+02 -.493606099734455D+02 -.123275658496660D+01 0.692732903784329D+02
 0.216450988682738D+02 -.492656890010380D+01 -.492179011351619D+00 0.210712359322054D+02
-.377959319238D-05 0.000000000000D+00 0.000000000000D+00 0.106372657405D-06 0.000000000000D+00  6 3 22 9900012 13 4 21 2 0.74721595D-03 0.40782261D+00 0.58053890D+04 0.58053890D+04 0.58053890D+04 0.12346104D+01  1  2 13  1  6  1        3 -.321311636015D-04 0.100000000000D+01
0.767162100949D-05 0.000000000000D+00 0.000000000000D+00 0.106372657405D-06 0.985259259917D-07  6 3 22 9900012 13 4 21 2 0.74492817D-03 0.40907509D+00 0.58053890D+04 0.58053890D+04 0.58053890D+04 0.12346104D+01  1  2  1  1  6  1        3 0.646379269379D-04 0.100000000000D+01
  </mgrwgt>
  </event>
  <event>
  7     66 -.10089070E-05 0.38932245E+02 0.78161638E-02 0.12082697E+00
        3 -1    0    0  501    0 0.00000000E+00 0.00000000E+00 0.27536889E+03 0.27536889E+03 0.00000000E+00 0.0000E+00 0.9000E+01
       22 -1    0    0    0    0 0.00000000E+00 0.00000000E+00 -.50476564E+02 0.50476564E+02 0.00000000E+00 0.0000E+00 0.9000E+01
      -24  2    1    2    0    0 0.18236085E+02 0.48201869E+02 0.32985388E+01 0.92581406E+02 0.76840494E+02 0.0000E+00 0.0000E+00
  9900012  1    3    3    0    0 0.14862798E+02 0.88431006E+01 0.41510640E+01 0.53069149E+02 0.50000000E+02 0.0000E+00 0.9000E+01
       13  1    3    3    0    0 0.33732868E+01 0.39358768E+02 -.85252524E+00 0.39512258E+02 0.00000000E+00 0.0000E+00 0.9000E+01
        4  1    1    2  502    0 0.11763281E+02 -.11717718E+02 0.12098704E+03 0.12212102E+03 0.00000000E+00 0.0000E+00 0.9000E+01
       21  1    1    2  501  502 -.29999366E+02 -.36484151E+02 0.10060675E+03 0.11114303E+03 0.00000000E+00 0.0000E+00 0.9000E+01
#aMCatNLO 2  0  0  5  1 0.25731374D+02 0.00000000D+00  -5  6  0 0.00000000D+00 0.00000000D+00 0.00000000D+00 0.00000000D+00 0.00000000D+00
  <mgrwgt>
 -.1552638872D-04    2    2    0
 0.117896885060796D+03 0.000000000000000D+00 0.000000000000000D+00 0.117896885060796D+03
 0.117896885060796D+03 -.000000000000000D+00 -.000000000000000D+00 -.117896885060796D+03
 0.719874620331732D+02 0.155866456520252D+02 0.107563847666368D+02 -.482032297055687D+02
 0.584298162925864D+02 0.395622177170356D+01 0.408995902081083D+02 -.415405255393731D+02
 0.105376491795831D+03 -.195428674237287D+02 -.516559749747450D+02 0.897437552449418D+02
 0.000000000000000D+00 -.000000000000000D+00 0.000000000000000D+00 0.000000000000000D+00
 0.117896885060796D+03 0.000000000000000D+00 0.000000000000000D+00 0.117896885060796D+03
 0.117896885060796D+03 -.000000000000000D+00 -.000000000000000D+00 -.117896885060796D+03
 0.693775683490274D+02 0.148627979667901D+02 0.884310064597436D+01 -.448792134243406D+02
 0.554154419739482D+02 0.337328675270753D+01 0.393587683778072D+02 -.388636011897270D+02
 0.533666432853429D+02 0.117632810858804D+02 -.117177181448398D+02 0.507180334310953D+02
 0.576341165132726D+02 -.299993658053781D+02 -.364841508789417D+02 0.330247811829724D+02
-.580955870231D-06 0.000000000000D+00 0.000000000000D+00 0.284584285944D-06 0.000000000000D+00  6 3 22 9900012 13 4 21 2 0.42364445D-01 0.77656253D-02 0.61033018D+04 0.61033018D+04 0.61033018D+04 0.12322161D+01  1  2 13  2  6  5        4 -.215557398196D-04 0.100000000000D+01
0.162499034746D-06 0.000000000000D+00 0.000000000000D+00 0.284584285944D-06 0.324800917360D-09  6 3 22 9900012 13 4 21 2 0.42364445D-01 0.77656253D-02 0.61033018D+04 0.61033018D+04 0.61033018D+04 0.12322161D+01  1  2  1  2  6  5        4 0.602935109776D-05 0.100000000000D+01
  </mgrwgt>
  </event>
  <event>
  6     66 0.10089070E-05 0.18148357E+02 0.78161638E-02 0.13017306E+00
        1 -1    0    0  501    0 0.00000000E+00 0.00000000E+00 0.56474470E+03 0.56474470E+03 0.00000000E+00 0.0000E+00 0.9000E+01
       22 -1    0    0    0    0 0.00000000E+00 0.00000000E+00 -.45129454E+02 0.45129454E+02 0.00000000E+00 0.0000E+00 0.9000E+01
      -24  2    1    2    0    0 -.24796602E+01 -.17978158E+02 -.87637732E+01 0.81183553E+02 0.78642245E+02 0.0000E+00 0.0000E+00
  9900012  1    3    3    0    0 -.21302871E+02 -.20114587E+02 0.43943190E+01 0.58118147E+02 0.50000000E+02 0.0000E+00 0.9000E+01
       13  1    3    3    0    0 0.18823211E+02 0.21364296E+01 -.13158092E+02 0.23065407E+02 0.00000000E+00 0.0000E+00 0.9000E+01
        2  1    1    2  501    0 0.24796602E+01 0.17978158E+02 0.52837902E+03 0.52869060E+03 0.00000000E+00 0.0000E+00 0.9000E+01
#aMCatNLO 1  0  0  1  5 0.54640660D+01 0.00000000D+00  -5  6  0 0.00000000D+00 0.00000000D+00 0.00000000D+00 0.00000000D+00 0.00000000D+00
  <mgrwgt>
 0.2712870743D-03   11    2    0
 0.159645293316098D+03 0.000000000000000D+00 0.000000000000000D+00 0.159645293316098D+03
 0.159645293316098D+03 0.000000000000000D+00 0.000000000000000D+00 -.159645293316098D+03
 0.103859623646027D+03 -.213028709612233D+02 -.201145872553614D+02 -.861882387118469D+02
 0.654705821055803D+02 0.188232107764332D+02 0.213642959471537D+01 -.626699252105531D+02
 0.149960380880589D+03 0.247966018479002D+01 0.179781576606460D+02 0.148858163922400D+03
 0.000000000000000D+00 0.000000000000000D+00 0.000000000000000D+00 0.000000000000000D+00
 0.181377817646024D+03 0.000000000000000D+00 0.000000000000000D+00 0.181377817646024D+03
 0.160006115173163D+03 0.000000000000000D+00 0.000000000000000D+00 -.160006115173163D+03
 0.104352069795258D+03 -.221999742204041D+02 -.216356909507753D+02 -.861882387118469D+02
 0.652865687305874D+02 0.182598290362554D+02 0.118117495915004D+01 -.626699252105531D+02
 0.149697887994164D+03 0.118854917558132D+01 0.157889852245875D+02 0.148858163922400D+03
 0.220474062991778D+02 0.275159600856737D+01 0.466553076703784D+01 0.213717024728609D+02
0.310575970955D-06 0.000000000000D+00 0.000000000000D+00 0.793991291947D-05 0.000000000000D+00  6 1 22 9900012 13 2 21 0 0.86883799D-01 0.69429929D-02 0.22583501D+04 0.22583501D+04 0.22583501D+04 0.12826935D+01  1  2  2  1  6  1        1 0.995754337436D-05 0.100000000000D+01
0.445336262969D-07 0.000000000000D+00 -.596346752499D-09 0.793991291947D-05 0.000000000000D+00  6 1 22 9900012 13 2 21 2 0.86883799D-01 0.69429929D-02 0.22583501D+04 0.22583501D+04 0.22583501D+04 0.12826935D+01  1  2  3  1  6  1        1 0.234919045203D-05 0.100000000000D+01
-.452287785256D-07 0.000000000000D+00 0.000000000000D+00 0.793991291947D-05 0.000000000000D+00  6 1 22 9900012 13 2 21 2 0.86883799D-01 0.69429929D-02 0.22583501D+04 0.22583501D+04 0.22583501D+04 0.12826935D+01  1  2 15  1  6  1        1 -.238586038246D-05 0.100000000000D+01
0.487256496868D-05 0.000000000000D+00 0.000000000000D+00 0.793991291947D-05 0.000000000000D+00  6 1 22 9900012 13 2 21 2 0.98934399D-01 0.69429929D-02 0.24195538D+04 0.24195538D+04 0.24195538D+04 0.12789851D+01  1  2 12  1  6  1        1 0.215471321508D-03 0.100000000000D+01
-.795709857238D-06 0.000000000000D+00 0.000000000000D+00 0.793991291947D-05 0.000000000000D+00  6 1 22 9900012 13 2 21 2 0.86883799D-01 0.69429929D-02 0.22583501D+04 0.22583501D+04 0.22583501D+04 0.12826935D+01  1  2  4  1  6  1        1 -.419744394213D-04 0.100000000000D+01
-.854764497915D-05 0.000000000000D+00 -.286657030508D-06 0.793991291947D-05 0.000000000000D+00  6 1 22 9900012 13 2 21 2 0.98810741D-01 0.69429929D-02 0.22583501D+04 0.22583501D+04 0.22583501D+04 0.12826935D+01  1  2  5  1  6  1        1 -.379220789888D-03 0.100000000000D+01
0.851631792019D-05 0.000000000000D+00 0.284301631160D-06 0.793991291947D-05 0.000000000000D+00  6 1 22 9900012 13 2 21 2 0.86883799D-01 0.69429929D-02 0.22583501D+04 0.22583501D+04 0.22583501D+04 0.12826935D+01  1  2  6  1  6  1        1 0.449243738006D-03 0.100000000000D+01
0.417155753449D-06 0.000000000000D+00 0.000000000000D+00 0.793991291947D-05 0.171129855024D-05  6 1 22 9900012 13 2 21 2 0.98711297D-01 0.69586851D-02 0.24195538D+04 0.24195538D+04 0.24195538D+04 0.12789851D+01  1  2 11  1  6  1        1 0.184471501128D-04 0.100000000000D+01
0.987720083157D-07 0.000000000000D+00 0.000000000000D+00 0.793991291947D-05 0.000000000000D+00  6 21 22 9900012 13 2 -1 2 0.98934399D-01 0.69429929D-02 0.24195538D+04 0.24195538D+04 0.24195538D+04 0.12789851D+01  1  2 12  3  6  1        1 0.113148446564D-04 0.100000000000D+01
-.170376641699D-06 0.000000000000D+00 -.576431925288D-08 0.793991291947D-05 0.000000000000D+00  6 21 22 9900012 13 2 -1 2 0.98810741D-01 0.69429929D-02 0.22583501D+04 0.22583501D+04 0.22583501D+04 0.12826935D+01  1  2  5  3  6  1        1 -.196528141216D-04 0.100000000000D+01
0.673869791130D-07 0.000000000000D+00 0.000000000000D+00 0.793991291947D-05 0.799201617327D-07  6 21 22 9900012 13 2 -1 2 0.98711297D-01 0.69586851D-02 0.24195538D+04 0.24195538D+04 0.24195538D+04 0.12789851D+01  1  2 11  3  6  1        1 0.773719004968D-05 0.100000000000D+01
  </mgrwgt>
  </event>
  <event>
  7     66 0.10089070E-05 0.13387567E+02 0.78161638E-02 0.12827582E+00
       21 -1    0    0  501  502 0.00000000E+00 0.00000000E+00 0.23377839E+03 0.23377839E+03 0.00000000E+00 0.0000E+00 0.9000E+01
       22 -1    0    0    0    0 0.00000000E+00 0.00000000E+00 -.26112291E+02 0.26112291E+02 0.00000000E+00 0.0000E+00 0.9000E+01
      -24  2    1    2    0    0 -.22571077E+02 -.24293790E+02 0.59125418E+02 0.10469916E+03 0.79790078E+02 0.0000E+00 0.0000E+00
  9900012  1    3    3    0    0 -.78524229E+01 -.12984982E+02 0.11385827E+02 0.53478102E+02 0.50000000E+02 0.0000E+00 0.9000E+01
       13  1    3    3    0    0 -.14718654E+02 -.11308808E+02 0.47739591E+02 0.51221055E+02 0.00000000E+00 0.0000E+00 0.9000E+01
        2  1    1    2  501    0 0.14798382E+02 0.46335196E+01 0.22111865E+02 0.27007336E+02 0.00000000E+00 0.0000E+00 0.9000E+01
       -1  1    1    2    0  502 0.77726946E+01 0.19660270E+02 0.12642881E+03 0.12818419E+03 0.00000000E+00 0.0000E+00 0.9000E+01
#aMCatNLO 2  0  0  1  5 0.15533505D+02 0.00000000D+00  -5  6  0 0.00000000D+00 0.00000000D+00 0.00000000D+00 0.00000000D+00 0.00000000D+00
  <mgrwgt>
 0.4275647600D-03    1    2    0
 0.507448592765825D+02 0.000000000000000D+00 0.000000000000000D+00 0.507448592765825D+02
 0.507448592765825D+02 0.000000000000000D+00 0.000000000000000D+00 -.507448592765825D+02
 0.571697004104781D+02 -.345042914320869D+01 -.185056957884658D+01 -.274416576756099D+02
 0.249401910158270D+02 -.127256589449717D+02 -.626772235808457D+01 0.205130784809147D+02
 0.193798271268600D+02 0.161760880881804D+02 0.811829193693115D+01 0.692857919469519D+01
 0.000000000000000D+00 0.000000000000000D+00 0.000000000000000D+00 0.000000000000000D+00
 0.113811234856675D+03 0.000000000000000D+00 0.000000000000000D+00 0.113811234856675D+03
 0.536369668577413D+02 0.000000000000000D+00 0.000000000000000D+00 -.536369668577413D+02
 0.590196143343354D+02 -.785242291327342D+01 -.129849818859878D+02 -.274416576756099D+02
 0.276643143746441D+02 -.147186537871805D+02 -.113088077067430D+02 0.205130784809147D+02
 0.169843112145430D+02 0.147983821366116D+02 0.463351960329299D+01 0.692857919469519D+01
 0.637799617908937D+02 0.777269456384233D+01 0.196602699894378D+02 0.601742679989337D+02
0.209548060935D-06 0.000000000000D+00 0.000000000000D+00 0.347268338110D-06 0.119303892776D-08  6 21 22 9900012 13 2 -1 2 0.35965906D-01 0.40172756D-02 0.28869803D+04 0.28869803D+04 0.28869803D+04 0.12696305D+01  1  2  1  3  6  1        1 0.427564760024D-03 0.100000000000D+01
  </mgrwgt>
  </event>
  <event>
  6     66 0.10089070E-05 0.38192911E+02 0.78161638E-02 0.10195657E+00
        1 -1    0    0  501    0 0.00000000E+00 0.00000000E+00 0.13202641E+04 0.13202641E+04 0.00000000E+00 0.0000E+00 0.9000E+01
       22 -1    0    0    0    0 0.00000000E+00 0.00000000E+00 -.22338360E+02 0.22338360E+02 0.00000000E+00 0.0000E+00 0.9000E+01
      -24  2    1    2    0    0 0.37496269E+02 -.72614234E+01 0.65627223E+02 0.10971222E+03 0.79190539E+02 0.0000E+00 0.0000E+00
  9900012  1    3    3    0    0 0.27818295E+02 0.80776327E+01 0.70282284E+02 0.90987390E+02 0.50000000E+02 0.0000E+00 0.9000E+01
       13  1    3    3    0    0 0.96779741E+01 -.15339056E+02 -.46550617E+01 0.18724834E+02 0.00000000E+00 0.0000E+00 0.9000E+01
        2  1    1    2  501    0 -.37496269E+02 0.72614234E+01 0.12322985E+04 0.12328902E+04 0.00000000E+00 0.0000E+00 0.9000E+01
#aMCatNLO 1  0  0  1  5 0.48749881D+02 0.00000000D+00  -5  6  0 0.00000000D+00 0.00000000D+00 0.00000000D+00 0.00000000D+00 0.00000000D+00
  <mgrwgt>
 0.2454399680D-03    3    2    0
 0.171733905585622D+03 0.000000000000000D+00 0.000000000000000D+00 0.171733905585622D+03
 0.171733905585622D+03 0.000000000000000D+00 0.000000000000000D+00 -.171733905585622D+03
 0.900774573239324D+02 0.278182945594069D+02 0.807763274828995D+01 -.691002362871119D+02
 0.907856027573354D+02 0.967797407021614D+01 -.153390561041958D+02 -.889554711287691D+02
 0.162604751089976D+03 -.374962686296230D+02 0.726142335590589D+01 0.158055707415881D+03
 0.000000000000000D+00 0.000000000000000D+00 0.000000000000000D+00 -.000000000000000D+00
 0.300439204866903D+03 0.000000000000000D+00 0.000000000000000D+00 0.300439204866903D+03
 0.374684185667195D+03 0.000000000000000D+00 0.000000000000000D+00 -.374684185667195D+03
 0.103439145182804D+03 0.239927958254948D+02 -.533775219515733D+02 -.691002362871119D+02
 0.121653102216836D+03 0.547841709998495D+01 -.828033114151674D+02 -.889554711287691D+02
 0.195756311952923D+03 -.445804659294712D+02 -.106543460992155D+03 0.158055707415881D+03
 0.254274831181535D+03 0.151092530039915D+02 0.242724294358896D+03 -.742449808002923D+02
0.134688474356D-04 0.000000000000D+00 0.000000000000D+00 0.139838959166D-04 0.000000000000D+00  6 1 22 9900012 13 2 21 0 0.20311755D+00 0.34366708D-02 0.32555514D+04 0.32555514D+04 0.32555514D+04 0.12633854D+01  1  2  2  1  6  1        1 0.301415680314D-03 0.100000000000D+01
0.591904776315D-06 0.000000000000D+00 -.258619602908D-07 0.139838959166D-04 0.000000000000D+00  6 1 22 9900012 13 2 21 2 0.20311755D+00 0.34366708D-02 0.32555514D+04 0.32555514D+04 0.32555514D+04 0.12633854D+01  1  2  3  1  6  1        1 0.211426265256D-04 0.100000000000D+01
-.215898971087D-05 0.000000000000D+00 0.000000000000D+00 0.139838959166D-04 0.000000000000D+00  6 1 22 9900012 13 2 21 2 0.20311755D+00 0.34366708D-02 0.32555514D+04 0.32555514D+04 0.32555514D+04 0.12633854D+01  1  2 15  1  6  1        1 -.771183388884D-04 0.100000000000D+01
  </mgrwgt>
  </event>
  <event>
  6     66 0.10089070E-05 0.12803960E+03 0.78161638E-02 0.10103094E+00
        1 -1    0    0  501    0 0.00000000E+00 0.00000000E+00 0.95563272E+03 0.95563272E+03 0.00000000E+00 0.0000E+00 0.9000E+01
       22 -1    0    0    0    0 0.00000000E+00 0.00000000E+00 -.20486778E+02 0.20486778E+02 0.00000000E+00 0.0000E+00 0.9000E+01
      -24  2    1    2    0    0 0.11214576E+03 -.61785663E+02 0.46917269E+03 0.49287504E+03 0.80054024E+02 0.0000E+00 0.0000E+00
  9900012  1    3    3    0    0 0.43558662E+02 -.16209471E+02 0.19509925E+03 0.20669742E+03 0.50000000E+02 0.0000E+00 0.9000E+01
       13  1    3    3    0    0 0.68587101E+02 -.45576191E+02 0.27407344E+03 0.28617762E+03 0.00000000E+00 0.0000E+00 0.9000E+01
        2  1    1    2  501    0 -.11214576E+03 0.61785663E+02 0.46597325E+03 0.48324446E+03 0.00000000E+00 0.0000E+00 0.9000E+01
#aMCatNLO 1  0  0  1  1 0.22169401D+03 0.00000000D+00  -5  6  0 0.00000000D+00 0.00000000D+00 0.00000000D+00 0.00000000D+00 0.00000000D+00
  <mgrwgt>
 0.7321879211D-04    5    2    0
 0.139920819048993D+03 0.000000000000000D+00 0.000000000000000D+00 0.139920819048993D+03
 0.139920819048993D+03 0.000000000000000D+00 0.000000000000000D+00 -.139920819048993D+03
 0.690215549180499D+02 0.435586616550725D+02 -.162094712883665D+02 -.101917161791286D+02
 0.823497522360560D+02 0.685871007858503D+02 -.455761913165338D+02 -.319506197335502D+00
 0.128470330943880D+03 -.112145762440923D+03 0.617856626049003D+02 0.105112223764641D+02
 0.000000000000000D+00 -.000000000000000D+00 0.000000000000000D+00 0.000000000000000D+00
 0.746742314842444D+03 0.000000000000000D+00 0.000000000000000D+00 0.746742314842444D+03
 0.193581690732599D+03 0.000000000000000D+00 0.000000000000000D+00 -.193581690732599D+03
 0.113637033211901D+03 0.758392764624564D+02 -.675122832096349D+02 -.101917161791286D+02
 0.158742548847160D+03 0.111194501751614D+03 -.113291118409578D+03 -.319506197335502D+00
 0.767202483802193D+02 -.758831474657494D+02 0.415435270125047D+01 0.105112223764641D+02
 0.591224175135763D+03 -.111150630748321D+03 0.176649048917962D+03 0.553160624109845D+03
0.185923828316D-05 0.000000000000D+00 0.000000000000D+00 0.556879308866D-06 0.000000000000D+00  6 1 22 9900012 13 2 21 0 0.14702042D+00 0.31518120D-02 0.19411970D+05 0.19411970D+05 0.19411970D+05 0.11805602D+01  1  2  2  1  6  1        1 0.920763114878D-04 0.100000000000D+01
-.749269374223D-07 0.000000000000D+00 -.356998227801D-08 0.556879308866D-06 0.000000000000D+00  6 1 22 9900012 13 2 21 2 0.14702042D+00 0.31518120D-02 0.19411970D+05 0.19411970D+05 0.19411970D+05 0.11805602D+01  1  2  3  1  6  1        1 -.517162639643D-05 0.100000000000D+01
-.197667083422D-06 0.000000000000D+00 0.000000000000D+00 0.556879308866D-06 0.000000000000D+00  6 1 22 9900012 13 2 21 2 0.14702042D+00 0.31518120D-02 0.19411970D+05 0.19411970D+05 0.19411970D+05 0.11805602D+01  1  2 15  1  6  1        1 -.136434284051D-04 0.100000000000D+01
-.116476849364D-05 0.000000000000D+00 -.662639834723D-06 0.556879308866D-06 0.000000000000D+00  6 1 22 9900012 13 2 21 2 0.80232612D+00 0.31518120D-02 0.19411970D+05 0.19411970D+05 0.19411970D+05 0.11805602D+01  1  2  5  1  6  1        1 -.412051601073D-07 0.100000000000D+01
-.271866829827D-06 0.000000000000D+00 -.137585400677D-06 0.556879308866D-06 0.000000000000D+00  6 21 22 9900012 13 2 -1 2 0.80232612D+00 0.31518120D-02 0.19411970D+05 0.19411970D+05 0.19411970D+05 0.11805602D+01  1  2  5  3  6  1        1 -.125941944719D-08 0.100000000000D+01
  </mgrwgt>
  </event>
  <event>
  7     66 -.10089070E-05 0.18175251E+02 0.78161638E-02 0.12951044E+00
        3 -1    0    0  501    0 0.00000000E+00 0.00000000E+00 0.11139121E+02 0.11139121E+02 0.00000000E+00 0.0000E+00 0.9000E+01
       22 -1    0    0    0    0 -.00000000E+00 -.00000000E+00 -.42613545E+03 0.42613545E+03 0.00000000E+00 0.0000E+00 0.9000E+01
      -24  2    1    2    0    0 -.23524012E+02 0.60960780E+01 -.39257845E+03 0.40159576E+03 0.81060338E+02 0.0000E+00 0.0000E+00
  9900012  1    3    3    0    0 -.18904360E+02 0.23004856E+02 -.35930939E+03 0.36399154E+03 0.50000000E+02 0.0000E+00 0.9000E+01
       13  1    3    3    0    0 -.46196529E+01 -.16908778E+02 -.33269055E+02 0.37604228E+02 0.00000000E+00 0.0000E+00 0.9000E+01
        4  1    1    2  502    0 0.18978481E+02 -.82293509E+01 -.11514148E+02 0.23674470E+02 0.00000000E+00 0.0000E+00 0.9000E+01
       21  1    1    2  501  502 0.45455316E+01 0.21332729E+01 -.10903734E+02 0.12004337E+02 0.00000000E+00 0.0000E+00 0.9000E+01
#aMCatNLO 2  0  0  5  1 0.42783827D+01 0.00000000D+00  -5  6  0 0.00000000D+00 0.00000000D+00 0.00000000D+00 0.00000000D+00 0.00000000D+00
  <mgrwgt>
 -.1318523376D-04    3    2    0
 0.688968389246109D+02 0.000000000000000D+00 0.000000000000000D+00 0.688968389246109D+02
 0.688968389246109D+02 -.000000000000000D+00 -.000000000000000D+00 -.688968389246109D+02
 0.736934310710423D+02 -.194849844464645D+02 0.231553203169591D+02 -.448875072282090D+02
 0.190462231085188D+02 -.477083249180098D+01 -.168696004858928D+02 0.744408164121118D+01
 0.450540236696607D+02 0.242558169382655D+02 -.628571983106623D+01 0.374434255869979D+02
 0.000000000000000D+00 0.000000000000000D+00 0.000000000000000D+00 0.000000000000000D+00
 0.688968389246109D+02 0.000000000000000D+00 0.000000000000000D+00 0.688968389246109D+02
 0.688968389246109D+02 -.000000000000000D+00 -.000000000000000D+00 -.688968389246109D+02
 0.729508337653746D+02 -.189043595155742D+02 0.230048555582664D+02 -.439912032014644D+02
 0.191361250256844D+02 -.461965287852813D+01 -.169087775911464D+02 0.767745587116436D+01
 0.404511652696340D+02 0.189784808055277D+02 -.822935085037507D+01 0.347619306507405D+02
 0.525555378852883D+01 0.454553158857455D+01 0.213327288325505D+01 0.155181667955957D+01
-.677320175348D-07 0.000000000000D+00 0.000000000000D+00 0.335740283397D-06 0.000000000000D+00  6 3 22 9900012 13 4 21 2 0.17137110D-02 0.65559300D-01 0.25720145D+04 0.25720145D+04 0.25720145D+04 0.12757257D+01  1  2 13  2  6  5        4 -.160243039002D-04 0.100000000000D+01
-.128099844207D-08 0.000000000000D+00 0.000000000000D+00 0.335740283397D-06 0.000000000000D+00  6 3 22 9900012 13 4 21 2 0.17137110D-02 0.65559300D-01 0.25519371D+04 0.25519371D+04 0.25519371D+04 0.12761423D+01  1  2  8  2  6  5        4 -.302931254903D-06 0.100000000000D+01
0.132807075560D-07 0.000000000000D+00 0.000000000000D+00 0.335740283397D-06 0.267735422713D-07  6 3 22 9900012 13 4 21 2 0.17137110D-02 0.65559300D-01 0.25720145D+04 0.25720145D+04 0.25720145D+04 0.12757257D+01  1  2  1  2  6  5        4 0.314200139953D-05 0.100000000000D+01
  </mgrwgt>
  </event>
  <event>
  7     66 -.10089070E-05 0.93866994E+02 0.78161638E-02 0.11258235E+00
        1 -1    0    0  501    0 0.00000000E+00 0.00000000E+00 0.62513468E+03 0.62513468E+03 0.00000000E+00 0.0000E+00 0.9000E+01
       22 -1    0    0    0    0 0.00000000E+00 0.00000000E+00 -.70706378E+02 0.70706378E+02 0.00000000E+00 0.0000E+00 0.9000E+01
      -24  2    1    2    0    0 -.28885898E+01 -.10473506E+03 0.14203736E+02 0.14240452E+03 0.95391417E+02 0.0000E+00 0.0000E+00
  9900012  1    3    3    0    0 -.27271934E+02 -.94049608E+02 0.26471294E+02 0.11309207E+03 0.50000000E+02 0.0000E+00 0.9000E+01
       13  1    3    3    0    0 0.24383344E+02 -.10685455E+02 -.12267558E+02 0.29312444E+02 0.00000000E+00 0.0000E+00 0.9000E+01
        2  1    1    2  502    0 -.99648705E+01 0.10018944E+03 0.51513360E+03 0.52488079E+03 0.00000000E+00 0.0000E+00 0.9000E+01
       21  1    1    2  501  502 0.12853460E+02 0.45456215E+01 0.25090968E+02 0.28555749E+02 0.00000000E+00 0.0000E+00 0.9000E+01
#aMCatNLO 2  0  0  5  1 0.14996194D+02 0.00000000D+00  -5  6  0 0.00000000D+00 0.00000000D+00 0.00000000D+00 0.00000000D+00 0.00000000D+00
  <mgrwgt>
 -.7932890218D-04    3    2    0
 0.210240359537163D+03 0.000000000000000D+00 0.000000000000000D+00 0.210240359537163D+03
 0.210240359537163D+03 -.000000000000000D+00 -.000000000000000D+00 -.210240359537163D+03
 0.155209084299921D+03 -.273196636715255D+02 -.957802093878668D+02 -.108026141816280D+03
 0.658516554221895D+02 0.243630795115731D+02 -.114202057638756D+02 -.601037418042029D+02
 0.199419979352215D+03 0.295658415995235D+01 0.107200415151742D+03 0.168129883620483D+03
 0.000000000000000D+00 0.000000000000000D+00 0.000000000000000D+00 0.000000000000000D+00
 0.210240359537163D+03 0.000000000000000D+00 0.000000000000000D+00 0.210240359537163D+03
 0.210240359537163D+03 -.000000000000000D+00 -.000000000000000D+00 -.210240359537163D+03
 0.152248768957755D+03 -.272719337503177D+02 -.940496084335816D+02 -.105311919705987D+03
 0.646837832728682D+02 0.243833439027335D+02 -.106854554480839D+02 -.589513816672640D+02
 0.189376007600892D+03 -.996487048583725D+01 0.100189442378573D+03 0.160393420210818D+03
 0.141721592428099D+02 0.128534603334214D+02 0.454562150309248D+01 0.386988116243211D+01
-.385262037714D-05 0.000000000000D+00 0.000000000000D+00 0.348563115307D-07 0.000000000000D+00  6 1 22 9900012 13 2 21 2 0.96174566D-01 0.10877904D-01 0.15736403D+05 0.15736403D+05 0.15736403D+05 0.11894333D+01  1  2 13  2  6  5        2 -.904028092260D-04 0.100000000000D+01
-.111863183255D-06 0.000000000000D+00 0.000000000000D+00 0.348563115307D-07 0.000000000000D+00  6 1 22 9900012 13 2 21 2 0.96174566D-01 0.10877904D-01 0.15079113D+05 0.15079113D+05 0.15079113D+05 0.11912631D+01  1  2  8  2  6  5        2 -.262762260706D-05 0.100000000000D+01
0.583906548991D-06 0.000000000000D+00 0.000000000000D+00 0.348563115307D-07 0.209657970019D-09  6 1 22 9900012 13 2 21 2 0.96174566D-01 0.10877904D-01 0.15736403D+05 0.15736403D+05 0.15736403D+05 0.11894333D+01  1  2  1  2  6  5        2 0.137015296569D-04 0.100000000000D+01
  </mgrwgt>
  </event>
  <event>
  6     66 0.10089070E-05 0.17586154E+02 0.78161638E-02 0.12959897E+00
        1 -1    0    0  501    0 0.00000000E+00 0.00000000E+00 0.67308963E+03 0.67308963E+03 0.00000000E+00 0.0000E+00 0.9000E+01
       22 -1    0    0    0    0 0.00000000E+00 0.00000000E+00 -.82819016E+01 0.82819016E+01 0.00000000E+00 0.0000E+00 0.9000E+01
      -24  2    1    2    0    0 -.17582675E+02 0.34980179E+00 0.20325642E+03 0.21948531E+03 0.80940445E+02 0.0000E+00 0.0000E+00
  9900012  1    3    3    0    0 -.37319580E+02 -.37641337E+01 0.14757692E+03 0.16026811E+03 0.50000000E+02 0.0000E+00 0.9000E+01
       13  1    3    3    0    0 0.19736905E+02 0.41139355E+01 0.55679502E+02 0.59217200E+02 0.00000000E+00 0.0000E+00 0.9000E+01
        2  1    1    2  501    0 0.17582675E+02 -.34980179E+00 0.46155131E+03 0.46188622E+03 0.00000000E+00 0.0000E+00 0.9000E+01
#aMCatNLO 1  0  0  1  5 0.96402851D+00 0.00000000D+00  -5  6  0 0.00000000D+00 0.00000000D+00 0.00000000D+00 0.00000000D+00 0.00000000D+00
  <mgrwgt>
 0.4117035459D-04   11    2    0
 0.746623201715194D+02 0.000000000000000D+00 0.000000000000000D+00 0.746623201715194D+02
 0.746623201715194D+02 0.000000000000000D+00 0.000000000000000D+00 -.746623201715194D+02
 0.742801090665998D+02 -.373195798608363D+02 -.376413371754659D+01 -.401324663995754D+02
 0.223188303687342D+02 0.197369050037325D+02 0.411393551069543D+01 -.957393881930576D+01
 0.527257009077048D+02 0.175826748571038D+02 -.349801793148842D+00 0.497064052188812D+02
 0.000000000000000D+00 0.000000000000000D+00 -.000000000000000D+00 0.000000000000000D+00
 0.776314765697817D+02 0.000000000000000D+00 0.000000000000000D+00 0.776314765697817D+02
 0.747400907944570D+02 0.000000000000000D+00 0.000000000000000D+00 -.747400907944570D+02
 0.745135794773821D+02 -.377887853658765D+02 -.369680507882104D+01 -.401324663995754D+02
 0.221985286675647D+02 0.195965241170559D+02 0.413407946446726D+01 -.957393881930576D+01
 0.526155631197618D+02 0.172504920778929D+02 -.302135228941706D+00 0.497064052188812D+02
 0.304389609953017D+01 0.941769170927735D+00 -.135139156704520D+00 0.289138577532474D+01
0.256164078382D-07 0.000000000000D+00 0.000000000000D+00 0.427986866005D-06 0.000000000000D+00  6 1 22 9900012 13 2 21 0 0.10355225D+00 0.12741387D-02 0.25126465D+04 0.25126465D+04 0.25126465D+04 0.12769684D+01  1  2  2  1  6  1        1 0.630392888745D-05 0.100000000000D+01
0.275655979226D-08 0.000000000000D+00 -.491868755270D-10 0.427986866005D-06 0.000000000000D+00  6 1 22 9900012 13 2 21 2 0.10355225D+00 0.12741387D-02 0.25126465D+04 0.25126465D+04 0.25126465D+04 0.12769684D+01  1  2  3  1  6  1        1 0.110616725719D-05 0.100000000000D+01
-.375422216452D-08 0.000000000000D+00 0.000000000000D+00 0.427986866005D-06 0.000000000000D+00  6 1 22 9900012 13 2 21 2 0.10355225D+00 0.12741387D-02 0.25126465D+04 0.25126465D+04 0.25126465D+04 0.12769684D+01  1  2 15  1  6  1        1 -.150651462242D-05 0.100000000000D+01
0.282945304041D-11 0.000000000000D+00 0.000000000000D+00 0.427986866005D-06 0.000000000000D+00  6 1 22 9900012 13 2 21 2 0.10778245D+00 0.12741387D-02 0.25510087D+04 0.25510087D+04 0.25510087D+04 0.12761617D+01  1  2 12  1  6  1        1 0.107354093868D-08 0.100000000000D+01
-.120387219916D-06 0.000000000000D+00 0.000000000000D+00 0.427986866005D-06 0.000000000000D+00  6 1 22 9900012 13 2 21 2 0.10355225D+00 0.12741387D-02 0.25126465D+04 0.25126465D+04 0.25126465D+04 0.12769684D+01  1  2  4  1  6  1        1 -.483096362463D-04 0.100000000000D+01
-.173885631872D-05 0.000000000000D+00 -.718336741613D-07 0.427986866005D-06 0.000000000000D+00  6 1 22 9900012 13 2 21 2 0.10772258D+00 0.12741387D-02 0.25126465D+04 0.25126465D+04 0.25126465D+04 0.12769684D+01  1  2  5  1  6  1        1 -.660209992934D-03 0.100000000000D+01
0.174039175098D-05 0.000000000000D+00 0.717777196983D-07 0.427986866005D-06 0.000000000000D+00  6 1 22 9900012 13 2 21 2 0.10355225D+00 0.12741387D-02 0.25126465D+04 0.25126465D+04 0.25126465D+04 0.12769684D+01  1  2  6  1  6  1        1 0.698393836778D-03 0.100000000000D+01
0.124081812244D-06 0.000000000000D+00 0.000000000000D+00 0.427986866005D-06 0.254745846806D-03  6 1 22 9900012 13 2 21 2 0.10767030D+00 0.12754659D-02 0.25510087D+04 0.25510087D+04 0.25510087D+04 0.12761617D+01  1  2 11  1  6  1        1 0.470834296951D-04 0.100000000000D+01
0.679958684665D-13 0.000000000000D+00 0.000000000000D+00 0.427986866005D-06 0.000000000000D+00  6 21 22 9900012 13 2 -1 2 0.10778245D+00 0.12741387D-02 0.25510087D+04 0.25510087D+04 0.25510087D+04 0.12761617D+01  1  2 12  3  6  1        1 0.610905441188D-10 0.100000000000D+01
-.121036605189D-07 0.000000000000D+00 -.501662280765D-09 0.427986866005D-06 0.000000000000D+00  6 21 22 9900012 13 2 -1 2 0.10772258D+00 0.12741387D-02 0.25126465D+04 0.25126465D+04 0.25126465D+04 0.12769684D+01  1  2  5  3  6  1        1 -.108941968159D-04 0.100000000000D+01
0.102302029823D-07 0.000000000000D+00 0.000000000000D+00 0.427986866005D-06 0.299966865156D-07  6 21 22 9900012 13 2 -1 2 0.10767030D+00 0.12754659D-02 0.25510087D+04 0.25510087D+04 0.25510087D+04 0.12761617D+01  1  2 11  3  6  1        1 0.920219795765D-05 0.100000000000D+01
  </mgrwgt>
  </event>
  <event>
  6     66 0.10089070E-05 0.52620876E+02 0.78161638E-02 0.11669037E+00
        1 -1    0    0  501    0 0.00000000E+00 0.00000000E+00 0.18005721E+04 0.18005721E+04 0.00000000E+00 0.0000E+00 0.9000E+01
       22 -1    0    0    0    0 0.00000000E+00 0.00000000E+00 -.61111162E+01 0.61111162E+01 0.00000000E+00 0.0000E+00 0.9000E+01
      -24  2    1    2    0    0 0.15239158E+02 -.81755305E+02 0.71762204E+03 0.72663772E+03 0.78133365E+02 0.0000E+00 0.0000E+00
  9900012  1    3    3    0    0 0.28369177E+02 -.66124665E+02 0.65341870E+03 0.65926723E+03 0.50000000E+02 0.0000E+00 0.9000E+01
       13  1    3    3    0    0 -.13130019E+02 -.15630639E+02 0.64203342E+02 0.67370494E+02 0.00000000E+00 0.0000E+00 0.9000E+01
        2  1    1    2  501    0 -.15239158E+02 0.81755305E+02 0.10768389E+04 0.10800455E+04 0.00000000E+00 0.0000E+00 0.9000E+01
#aMCatNLO 1  0  0  1  5 0.84266952D+01 0.00000000D+00  -5  6  0 0.00000000D+00 0.00000000D+00 0.00000000D+00 0.00000000D+00 0.00000000D+00
  <mgrwgt>
 0.1293064359D-03    8    2    0
 0.104897593774882D+03 0.000000000000000D+00 0.000000000000000D+00 0.104897593774882D+03
 0.104897593774882D+03 0.000000000000000D+00 0.000000000000000D+00 -.104897593774882D+03
 0.884323147418409D+02 0.283691767065657D+02 -.661246654959268D+02 -.119579562067879D+02
 0.310147611758746D+02 -.131300186776770D+02 -.156306393876312D+02 -.233495424506398D+02
 0.903481116320492D+02 -.152391580288887D+02 0.817553048835580D+02 0.353074986574277D+02
 0.000000000000000D+00 0.000000000000000D+00 0.000000000000000D+00 -.000000000000000D+00
 0.106781318808828D+03 0.000000000000000D+00 0.000000000000000D+00 0.106781318808828D+03
 0.108334186872976D+03 0.000000000000000D+00 0.000000000000000D+00 -.108334186872976D+03
 0.887294757517900D+02 0.265756701837646D+02 -.672581660828468D+02 -.119579562067879D+02
 0.314895836169847D+02 -.137627846357148D+02 -.160305490482321D+02 -.233495424506398D+02
 0.896363153481572D+02 -.170612396577330D+02 0.806037447584876D+02 0.353074986574277D+02
 0.526013096487221D+01 0.424835410968321D+01 0.268497037259126D+01 -.155286806414854D+01
0.120297764327D-05 0.000000000000D+00 0.000000000000D+00 0.741958957210D-07 0.000000000000D+00  6 1 22 9900012 13 2 21 0 0.27701109D+00 0.94017172D-03 0.91390869D+04 0.91390869D+04 0.91390869D+04 0.12134039D+01  1  2  2  1  6  1        1 0.788185870357D-04 0.100000000000D+01
-.290735877979D-07 0.000000000000D+00 -.230987545072D-08 0.741958957210D-07 0.000000000000D+00  6 1 22 9900012 13 2 21 2 0.27701109D+00 0.94017172D-03 0.91390869D+04 0.91390869D+04 0.91390869D+04 0.12134039D+01  1  2  3  1  6  1        1 -.280466190751D-05 0.100000000000D+01
-.152023494386D-06 0.000000000000D+00 0.000000000000D+00 0.741958957210D-07 0.000000000000D+00  6 1 22 9900012 13 2 21 2 0.27701109D+00 0.94017172D-03 0.91390869D+04 0.91390869D+04 0.91390869D+04 0.12134039D+01  1  2 15  1  6  1        1 -.146653556044D-04 0.100000000000D+01
0.105242972904D-05 0.000000000000D+00 0.000000000000D+00 0.741958957210D-07 0.000000000000D+00  6 1 22 9900012 13 2 21 2 0.29122383D+00 0.94017172D-03 0.96494595D+04 0.96494595D+04 0.96494595D+04 0.12109395D+01  1  2 12  1  6  1        1 0.884358158421D-04 0.100000000000D+01
-.225413802321D-06 0.000000000000D+00 0.000000000000D+00 0.741958957210D-07 0.000000000000D+00  6 1 22 9900012 13 2 21 2 0.27701109D+00 0.94017172D-03 0.91390869D+04 0.91390869D+04 0.91390869D+04 0.12134039D+01  1  2  4  1  6  1        1 -.217451492121D-04 0.100000000000D+01
0.715918613528D-09 0.000000000000D+00 0.000000000000D+00 0.741958957210D-07 0.618772000631D-08  6 1 22 9900012 13 2 21 2 0.28198559D+00 0.97097307D-03 0.96494595D+04 0.96494595D+04 0.96494595D+04 0.12109395D+01  1  2 11  1  6  1        1 0.629909590158D-07 0.100000000000D+01
0.192677346712D-07 0.000000000000D+00 0.000000000000D+00 0.741958957210D-07 0.000000000000D+00  6 21 22 9900012 13 2 -1 2 0.29122383D+00 0.94017172D-03 0.96494595D+04 0.96494595D+04 0.96494595D+04 0.12109395D+01  1  2 12  3  6  1        1 0.120187480181D-05 0.100000000000D+01
0.344719774258D-10 0.000000000000D+00 0.000000000000D+00 0.741958957210D-07 0.858610197545D-10  6 21 22 9900012 13 2 -1 2 0.28198559D+00 0.97097307D-03 0.96494595D+04 0.96494595D+04 0.96494595D+04 0.12109395D+01  1  2 11  3  6  1        1 0.233400565085D-08 0.100000000000D+01
  </mgrwgt>
  </event>
  <event>
  7     66 -.10089070E-05 0.20807116E+03 0.78161638E-02 0.10236416E+00
        3 -1    0    0  502    0 0.00000000E+00 0.00000000E+00 0.11815367E+03 0.11815367E+03 0.00000000E+00 0.0000E+00 0.9000E+01
       22 -1    0    0    0    0 0.00000000E+00 0.00000000E+00 -.15311590E+04 0.15311590E+04 0.00000000E+00 0.0000E+00 0.9000E+01
      -24  2    1    2    0    0 -.14674007E+03 0.18407542E+03 -.13526641E+04 0.13753015E+04 0.79608060E+02 0.0000E+00 0.0000E+00
  9900012  1    3    3    0    0 -.10119428E+03 0.16260877E+03 -.10550621E+04 0.10734701E+04 0.50000000E+02 0.0000E+00 0.9000E+01
       13  1    3    3    0    0 -.45545793E+02 0.21466655E+02 -.29760202E+03 0.30183141E+03 0.00000000E+00 0.0000E+00 0.9000E+01
        4  1    1    2  501    0 0.11643565E+03 -.19089448E+03 -.22022780E+02 0.22468414E+03 0.00000000E+00 0.0000E+00 0.9000E+01
       21  1    1    2  502  501 0.30304427E+02 0.68190519E+01 -.38318402E+02 0.49327048E+02 0.00000000E+00 0.0000E+00 0.9000E+01
#aMCatNLO 2  0  0  1  5 0.39466784D+02 0.00000000D+00  -5  6  0 0.00000000D+00 0.00000000D+00 0.00000000D+00 0.00000000D+00 0.00000000D+00
  <mgrwgt>
 -.7921008770D-05    3    2    0
 0.409030855401082D+03 0.000000000000000D+00 0.000000000000000D+00 0.409030855401082D+03
 0.409030855401082D+03 0.000000000000000D+00 0.000000000000000D+00 -.409030855401082D+03
 0.324179400729194D+03 -.891496873866622D+02 0.165319022928082D+03 -.259449875224684D+03
 0.887249052831440D+02 -.422335120841775D+02 0.222119787291106D+02 -.748001823224786D+02
 0.405157404789825D+03 0.131383199470840D+03 -.187531001657192D+03 0.334250057547163D+03
 0.000000000000000D+00 0.000000000000000D+00 0.000000000000000D+00 0.000000000000000D+00
 0.429326263266144D+03 0.000000000000000D+00 0.000000000000000D+00 0.429326263266144D+03
 0.421385938481323D+03 0.000000000000000D+00 0.000000000000000D+00 -.421385938481323D+03
 0.326337450696235D+03 -.101194280048185D+03 0.162608768700654D+03 -.259449875224684D+03
 0.901681972910854D+02 -.455457929970259D+02 0.214666547817802D+02 -.748001823224786D+02
 0.402145572286565D+03 0.116435645857104D+03 -.190894475334533D+03 0.334250057547163D+03
 0.320609814735815D+02 0.303044271881072D+02 0.681905185209796D+01 0.794032478482110D+01
-.201333433345D-04 0.000000000000D+00 0.000000000000D+00 0.797728380995D-05 0.000000000000D+00  6 3 22 9900012 13 4 21 2 0.18726552D-01 0.22865619D+00 0.63242114D+05 0.63242114D+05 0.63242114D+05 0.11341719D+01  1  2 13  1  6  1        3 -.885659644755D-05 0.100000000000D+01
-.261771275204D-06 0.000000000000D+00 0.000000000000D+00 0.797728380995D-05 0.000000000000D+00  6 3 22 9900012 13 4 21 2 0.17318189D-01 0.22865619D+00 0.55474105D+05 0.55474105D+05 0.55474105D+05 0.11390421D+01  1  2  8  1  6  1        3 -.132234777593D-06 0.100000000000D+01
0.249958661145D-05 0.000000000000D+00 0.000000000000D+00 0.797728380995D-05 0.968169726182D-08  6 3 22 9900012 13 4 21 2 0.18177487D-01 0.23556292D+00 0.63242114D+05 0.63242114D+05 0.63242114D+05 0.11341719D+01  1  2  1  1  6  1        3 0.106782245497D-05 0.100000000000D+01
  </mgrwgt>
  </event>
  <event>
  6     66 0.10089070E-05 0.25029656E+02 0.78161638E-02 0.12835382E+00
        1 -1    0    0  501    0 0.00000000E+00 0.00000000E+00 0.32146188E+03 0.32146188E+03 0.00000000E+00 0.0000E+00 0.9000E+01
       22 -1    0    0    0    0 0.00000000E+00 0.00000000E+00 -.14901208E+02 0.14901208E+02 0.00000000E+00 0.0000E+00 0.9000E+01
      -24  2    1    2    0    0 0.47820925E+00 0.25025087E+02 0.10779732E+03 0.13602998E+03 0.79103790E+02 0.0000E+00 0.0000E+00
  9900012  1    3    3    0    0 -.18521862E+02 0.36118499E+01 0.60314739E+02 0.80585188E+02 0.50000000E+02 0.0000E+00 0.9000E+01
       13  1    3    3    0    0 0.19000072E+02 0.21413237E+02 0.47482577E+02 0.55444788E+02 0.00000000E+00 0.0000E+00 0.9000E+01
        2  1    1    2  501    0 -.47820925E+00 -.25025087E+02 0.19876336E+03 0.20033312E+03 0.00000000E+00 0.0000E+00 0.9000E+01
#aMCatNLO 1  0  0  5  1 0.36058911D+01 0.00000000D+00  -5  6  0 0.00000000D+00 0.00000000D+00 0.00000000D+00 0.00000000D+00 0.00000000D+00
  <mgrwgt>
 0.6693923769D-04    8    2    0
 0.692110567302978D+02 0.000000000000000D+00 0.000000000000000D+00 0.692110567302978D+02
 0.692110567302978D+02 -.000000000000000D+00 -.000000000000000D+00 -.692110567302978D+02
 0.622426270047209D+02 -.185218623790746D+02 0.361184989760436D+01 -.319067355079865D+02
 0.295710667965931D+02 0.190000716251600D+02 0.214132370877498D+02 -.741070490244856D+01
 0.466084196592815D+02 -.478209246085347D+00 -.250250869853542D+02 0.393174404104351D+02
 0.000000000000000D+00 -.000000000000000D+00 0.000000000000000D+00 0.000000000000000D+00
 0.692110567302978D+02 0.000000000000000D+00 0.000000000000000D+00 0.692110567302978D+02
 0.692110567302978D+02 -.000000000000000D+00 -.000000000000000D+00 -.692110567302978D+02
 0.620801335155095D+02 -.185255003208570D+02 0.342147338293613D+01 -.316076309624001D+02
 0.294691961142376D+02 0.189983439846347D+02 0.213228282243122D+02 -.726866163591112D+01
 0.360434302260524D+02 0.157674741200727D+01 -.167313745341925D+02 0.318857936431825D+02
 0.108293536047959D+02 -.204959107578498D+01 -.801292707305590D+01 0.699049895512878D+01
0.751878132471D-07 0.000000000000D+00 0.000000000000D+00 0.331022771844D-06 0.000000000000D+00  6 1 22 9900012 13 2 21 0 0.49455675D-01 0.22924935D-02 0.28675821D+04 0.28675821D+04 0.28675821D+04 0.12699839D+01  1  2  2  2  6  5        2 0.223615798749D-04 0.100000000000D+01
0.372585677215D-08 0.000000000000D+00 -.144370500137D-09 0.331022771844D-06 0.000000000000D+00  6 1 22 9900012 13 2 21 2 0.49455675D-01 0.22924935D-02 0.28675821D+04 0.28675821D+04 0.28675821D+04 0.12699839D+01  1  2  3  2  6  5        2 0.178721830470D-05 0.100000000000D+01
-.107580855284D-07 0.000000000000D+00 0.000000000000D+00 0.331022771844D-06 0.000000000000D+00  6 1 22 9900012 13 2 21 2 0.49455675D-01 0.22924935D-02 0.28675821D+04 0.28675821D+04 0.28675821D+04 0.12699839D+01  1  2 15  2  6  5        2 -.516043652662D-05 0.100000000000D+01
0.223069891689D-07 0.000000000000D+00 0.000000000000D+00 0.331022771844D-06 0.000000000000D+00  6 1 22 9900012 13 2 21 2 0.49455675D-01 0.22924935D-02 0.28658030D+04 0.28658030D+04 0.28658030D+04 0.12700164D+01  1  2 12  2  6  5        2 0.107001042849D-04 0.100000000000D+01
-.182508173464D-06 0.000000000000D+00 0.000000000000D+00 0.331022771844D-06 0.000000000000D+00  6 1 22 9900012 13 2 21 2 0.49455675D-01 0.22924935D-02 0.28675821D+04 0.28675821D+04 0.28675821D+04 0.12699839D+01  1  2  4  2  6  5        2 -.875454877416D-04 0.100000000000D+01
-.419370120084D-06 0.000000000000D+00 0.000000000000D+00 0.331022771844D-06 0.000000000000D+00  6 1 22 9900012 13 2 21 2 0.49455675D-01 0.22924935D-02 0.28675821D+04 0.28675821D+04 0.28675821D+04 0.12699839D+01  1  2  5  2  6  5        2 -.201163383590D-03 0.100000000000D+01
0.527745166806D-06 0.000000000000D+00 -.000000000000D+00 0.331022771844D-06 0.000000000000D+00  6 1 22 9900012 13 2 21 2 0.49455675D-01 0.22924935D-02 0.28675821D+04 0.28675821D+04 0.28675821D+04 0.12699839D+01  1  2  6  2  6  5        2 0.253148706462D-03 0.100000000000D+01
0.151792237852D-06 0.000000000000D+00 0.000000000000D+00 0.331022771844D-06 0.530524861942D-07  6 1 22 9900012 13 2 21 2 0.49455675D-01 0.22924935D-02 0.28658030D+04 0.28658030D+04 0.28658030D+04 0.12700164D+01  1  2 11  2  6  5        2 0.728109366247D-04 0.100000000000D+01
  </mgrwgt>
  </event>
  <event>
  6     66 0.10089070E-05 0.20122539E+02 0.78161638E-02 0.12756911E+00
        3 -1    0    0  501    0 0.00000000E+00 0.00000000E+00 0.15579358E+02 0.15579358E+02 0.00000000E+00 0.0000E+00 0.9000E+01
       22 -1    0    0    0    0 -.00000000E+00 -.00000000E+00 -.31446931E+03 0.31446931E+03 0.00000000E+00 0.0000E+00 0.9000E+01
      -24  2    1    2    0    0 -.14926814E+02 -.13494696E+02 -.29884571E+03 0.30992608E+03 0.79627264E+02 0.0000E+00 0.0000E+00
  9900012  1    3    3    0    0 -.24024620E+02 0.93104910E+01 -.23177042E+03 0.23849821E+03 0.50000000E+02 0.0000E+00 0.9000E+01
       13  1    3    3    0    0 0.90978056E+01 -.22805187E+02 -.67075283E+02 0.71427867E+02 0.00000000E+00 0.0000E+00 0.9000E+01
        4  1    1    2  501    0 0.14926814E+02 0.13494696E+02 -.44244734E-01 0.20122588E+02 0.00000000E+00 0.0000E+00 0.9000E+01
#aMCatNLO 1  0  0  5  1 0.11331464D+02 0.00000000D+00  -5  6  0 0.00000000D+00 0.00000000D+00 0.00000000D+00 0.00000000D+00 0.00000000D+00
  <mgrwgt>
 0.7112349580D-04    7    2    0
 0.699944982752783D+02 0.000000000000000D+00 0.000000000000000D+00 0.699944982752783D+02
 0.699944982752783D+02 -.000000000000000D+00 -.000000000000000D+00 -.699944982752783D+02
 0.674493438908472D+02 -.240246197787752D+02 0.931049101180805D+01 -.372229283226090D+02
 0.251915813493540D+02 0.909780563416451D+01 -.228051865817992D+02 -.563641450688406D+01
 0.473480713103555D+02 0.149268141446107D+02 0.134946955699911D+02 0.428593428294931D+02
 0.000000000000000D+00 0.000000000000000D+00 0.000000000000000D+00 0.000000000000000D+00
 0.699944982752783D+02 0.000000000000000D+00 0.000000000000000D+00 0.699944982752783D+02
 0.699944982752783D+02 -.000000000000000D+00 -.000000000000000D+00 -.699944982752783D+02
 0.653458401001997D+02 -.228252597890599D+02 0.103947811880798D+02 -.337792074805602D+02
 0.247321439429705D+02 0.954869938538057D+01 -.223975527861262D+02 -.434176384158970D+01
 0.382602455272724D+02 0.698595264695635D+01 0.197007566644534D+02 0.320456399572492D+02
 0.116507669801140D+02 0.629060775672303D+01 -.769798506640699D+01 0.607533136490076D+01
0.221214392952D-06 0.000000000000D+00 0.000000000000D+00 0.617969896138D-06 0.000000000000D+00  6 3 22 9900012 13 4 21 0 0.23968242D-02 0.48379893D-01 0.25464004D+04 0.25464004D+04 0.25464004D+04 0.12762579D+01  1  2  2  2  6  5        4 0.332315173759D-04 0.100000000000D+01
0.170846290353D-07 0.000000000000D+00 -.424760758012D-09 0.617969896138D-06 0.000000000000D+00  6 3 22 9900012 13 4 21 2 0.23968242D-02 0.48379893D-01 0.25464004D+04 0.25464004D+04 0.25464004D+04 0.12762579D+01  1  2  3  2  6  5        4 0.418041327144D-05 0.100000000000D+01
-.319604741938D-07 0.000000000000D+00 0.000000000000D+00 0.617969896138D-06 0.000000000000D+00  6 3 22 9900012 13 4 21 2 0.23968242D-02 0.48379893D-01 0.25464004D+04 0.25464004D+04 0.25464004D+04 0.12762579D+01  1  2 15  2  6  5        4 -.782036239739D-05 0.100000000000D+01
0.145128906804D-06 0.000000000000D+00 0.000000000000D+00 0.617969896138D-06 0.000000000000D+00  6 3 22 9900012 13 4 21 2 0.23968242D-02 0.48379893D-01 0.30874689D+04 0.30874689D+04 0.30874689D+04 0.12661283D+01  1  2 12  2  6  5        4 0.358682354561D-04 0.100000000000D+01
-.137054318236D-07 0.000000000000D+00 0.000000000000D+00 0.617969896138D-06 0.000000000000D+00  6 3 22 9900012 13 4 21 2 0.23968242D-02 0.48379893D-01 0.25464004D+04 0.25464004D+04 0.25464004D+04 0.12762579D+01  1  2  4  2  6  5        4 -.335356237280D-05 0.100000000000D+01
-.133923418901D-06 0.000000000000D+00 0.000000000000D+00 0.617969896138D-06 0.000000000000D+00  6 3 22 9900012 13 4 21 2 0.23968242D-02 0.48379893D-01 0.25464004D+04 0.25464004D+04 0.25464004D+04 0.12762579D+01  1  2  5  2  6  5        4 -.327695284792D-04 0.100000000000D+01
0.170775384846D-06 0.000000000000D+00 -.000000000000D+00 0.617969896138D-06 0.000000000000D+00  6 3 22 9900012 13 4 21 2 0.23968242D-02 0.48379893D-01 0.25464004D+04 0.25464004D+04 0.25464004D+04 0.12762579D+01  1  2  6  2  6  5        4 0.417867829479D-04 0.100000000000D+01
  </mgrwgt>
  </event>
  <event>
  6     66 0.10089070E-05 0.41265043E+02 0.78161638E-02 0.11397845E+00
        1 -1    0    0  501    0 0.00000000E+00 0.00000000E+00 0.35609804E+03 0.35609804E+03 0.00000000E+00 0.0000E+00 0.9000E+01
       22 -1    0    0    0    0 0.00000000E+00 0.00000000E+00 -.21401568E+03 0.21401568E+03 0.00000000E+00 0.0000E+00 0.9000E+01
      -24  2    1    2    0    0 0.73612990E+02 -.68171375E+02 -.18653237E+03 0.22652407E+03 0.80328213E+02 0.0000E+00 0.0000E+00
  9900012  1    3    3    0    0 0.55001948E+02 -.21972020E+02 -.12830469E+03 0.14990023E+03 0.50000000E+02 0.0000E+00 0.9000E+01
       13  1    3    3    0    0 0.18611042E+02 -.46199354E+02 -.58227674E+02 0.76623842E+02 0.00000000E+00 0.0000E+00 0.9000E+01
        2  1    1    2  501    0 -.73612990E+02 0.68171375E+02 0.32861473E+03 0.34358965E+03 0.00000000E+00 0.0000E+00 0.9000E+01
#aMCatNLO 1  0  0  5  1 0.14407043D+02 0.00000000D+00  -5  6  0 0.00000000D+00 0.00000000D+00 0.00000000D+00 0.00000000D+00 0.00000000D+00
  <mgrwgt>
 0.3112648640D-03    7    2    0
 0.276062611653964D+03 0.000000000000000D+00 0.000000000000000D+00 0.276062611653964D+03
 0.276062611653964D+03 -.000000000000000D+00 -.000000000000000D+00 -.276062611653964D+03
 0.187801621562097D+03 0.550019479828638D+02 -.219720201429903D+02 -.171059829037327D+03
 0.941044306109360D+02 0.186110421198242D+02 -.461993544240150D+02 -.798429246873312D+02
 0.270219171134895D+03 -.736129901026880D+02 0.681713745670052D+02 0.250902753724658D+03
 0.000000000000000D+00 0.000000000000000D+00 0.000000000000000D+00 0.000000000000000D+00
 0.276062611653964D+03 0.000000000000000D+00 0.000000000000000D+00 0.276062611653964D+03
 0.276062611653964D+03 -.000000000000000D+00 -.000000000000000D+00 -.276062611653964D+03
 0.186719230299987D+03 0.546931166705099D+02 -.216860182424680D+02 -.170007207392725D+03
 0.935560863310381D+02 0.184562965470849D+02 -.460560479452661D+02 -.793154893763512D+02
 0.235710795731675D+03 -.662616241977672D+02 0.456716026753688D+02 0.221547017791250D+03
 0.361391109452283D+02 -.688778901982757D+01 0.220704635123652D+02 0.277756789778255D+02
0.357205144249D-05 0.000000000000D+00 0.000000000000D+00 0.238895523068D-04 0.000000000000D+00  6 1 22 9900012 13 2 21 0 0.54784314D-01 0.32925489D-01 0.12955997D+05 0.12955997D+05 0.12955997D+05 0.11978440D+01  1  2  2  2  6  5        2 0.238047800276D-04 0.100000000000D+01
0.456046370969D-07 0.000000000000D+00 -.685880904095D-08 0.238895523068D-04 0.000000000000D+00  6 1 22 9900012 13 2 21 2 0.54784314D-01 0.32925489D-01 0.12955997D+05 0.12955997D+05 0.12955997D+05 0.11978440D+01  1  2  3  2  6  5        2 0.436069753414D-06 0.100000000000D+01
-.490147954371D-06 0.000000000000D+00 0.000000000000D+00 0.238895523068D-04 0.000000000000D+00  6 1 22 9900012 13 2 21 2 0.54784314D-01 0.32925489D-01 0.12955997D+05 0.12955997D+05 0.12955997D+05 0.11978440D+01  1  2 15  2  6  5        2 -.468677553875D-05 0.100000000000D+01
0.340450238966D-04 0.000000000000D+00 0.000000000000D+00 0.238895523068D-04 0.000000000000D+00  6 1 22 9900012 13 2 21 2 0.54784314D-01 0.32925489D-01 0.13273917D+05 0.13273917D+05 0.13273917D+05 0.11967855D+01  1  2 12  2  6  5        2 0.325334025509D-03 0.100000000000D+01
-.833794123049D-05 0.000000000000D+00 0.000000000000D+00 0.238895523068D-04 0.000000000000D+00  6 1 22 9900012 13 2 21 2 0.54784314D-01 0.32925489D-01 0.12955997D+05 0.12955997D+05 0.12955997D+05 0.11978440D+01  1  2  4  2  6  5        2 -.797270674172D-04 0.100000000000D+01
-.338139180838D-04 0.000000000000D+00 0.000000000000D+00 0.238895523068D-04 0.000000000000D+00  6 1 22 9900012 13 2 21 2 0.54784314D-01 0.32925489D-01 0.12955997D+05 0.12955997D+05 0.12955997D+05 0.11978440D+01  1  2  5  2  6  5        2 -.323327360099D-03 0.100000000000D+01
0.386355056737D-04 0.000000000000D+00 -.000000000000D+00 0.238895523068D-04 0.000000000000D+00  6 1 22 9900012 13 2 21 2 0.54784314D-01 0.32925489D-01 0.12955997D+05 0.12955997D+05 0.12955997D+05 0.11978440D+01  1  2  6  2  6  5        2 0.369431191753D-03 0.100000000000D+01
  </mgrwgt>
  </event>
  <event>
  7     66 -.10089070E-05 0.95973728E+02 0.78161638E-02 0.11403863E+00
        1 -1    0    0  501    0 0.00000000E+00 0.00000000E+00 0.28815062E+03 0.28815062E+03 0.00000000E+00 0.0000E+00 0.9000E+01
       22 -1    0    0    0    0 -.00000000E+00 -.00000000E+00 -.12080876E+04 0.12080876E+04 0.00000000E+00 0.0000E+00 0.9000E+01
      -24  2    1    2    0    0 0.46677107E+02 -.75839878E+02 -.11922355E+04 0.11982174E+04 0.79806625E+02 0.0000E+00 0.0000E+00
  9900012  1    3    3    0    0 0.38495615E+02 -.37998164E+02 -.56394595E+03 0.56873615E+03 0.50000000E+02 0.0000E+00 0.9000E+01
       13  1    3    3    0    0 0.81814915E+01 -.37841714E+02 -.62828951E+03 0.62948125E+03 0.00000000E+00 0.0000E+00 0.9000E+01
        2  1    1    2  502    0 -.55948291E+02 0.86545005E+02 0.25834033E+03 0.27813662E+03 0.00000000E+00 0.0000E+00 0.9000E+01
       21  1    1    2  501  502 0.92711845E+01 -.10705128E+02 0.13958104E+02 0.19884247E+02 0.00000000E+00 0.0000E+00 0.9000E+01
#aMCatNLO 2  0  0  5  1 0.19671819D+02 0.00000000D+00  -5  6  0 0.00000000D+00 0.00000000D+00 0.00000000D+00 0.00000000D+00 0.00000000D+00
  <mgrwgt>
 -.1634900665D-02    3    2    0
 0.590009494329122D+03 0.000000000000000D+00 0.000000000000000D+00 0.590009494329122D+03
 0.590009494329122D+03 -.000000000000000D+00 -.000000000000000D+00 -.590009494329122D+03
 0.282846687327122D+03 0.386054642196030D+02 -.381766439753353D+02 -.273046535446059D+03
 0.309861533631891D+03 0.830182751833563D+01 -.380372328560086D+02 -.307405950822721D+03
 0.587310767699230D+03 -.469072917379386D+02 0.762138768313438D+02 0.580452486268780D+03
 0.000000000000000D+00 0.000000000000000D+00 0.000000000000000D+00 0.000000000000000D+00
 0.590009494329122D+03 0.000000000000000D+00 0.000000000000000D+00 0.590009494329122D+03
 0.590009494329122D+03 -.000000000000000D+00 -.000000000000000D+00 -.590009494329122D+03
 0.281495496467795D+03 0.384956152002976D+02 -.379981638432024D+02 -.271687212961056D+03
 0.308357026138712D+03 0.818149148027711D+01 -.378417136596712D+02 -.305916857125540D+03
 0.554072006473088D+03 -.559482911908020D+02 0.865450051903629D+02 0.544403838291523D+03
 0.360944595786486D+02 0.927118451022724D+01 -.107051276874893D+02 0.332002317950730D+02
-.348820185483D-02 0.000000000000D+00 0.000000000000D+00 0.953195286655D-03 0.000000000000D+00  6 1 22 9900012 13 2 21 2 0.44330864D-01 0.18585964D+00 0.13178146D+05 0.13178146D+05 0.13178146D+05 0.11971014D+01  1  2 13  2  6  5        2 -.170056653111D-02 0.100000000000D+01
-.553069594730D-04 0.000000000000D+00 0.000000000000D+00 0.953195286655D-03 0.000000000000D+00  6 1 22 9900012 13 2 21 2 0.44330864D-01 0.18585964D+00 0.10224678D+05 0.10224678D+05 0.10224678D+05 0.12083311D+01  1  2  8  2  6  5        2 -.272439245938D-04 0.100000000000D+01
0.190576550831D-03 0.000000000000D+00 0.000000000000D+00 0.953195286655D-03 0.239787363623D-05  6 1 22 9900012 13 2 21 2 0.44330864D-01 0.18585964D+00 0.13178146D+05 0.13178146D+05 0.13178146D+05 0.11971014D+01  1  2  1  2  6  5        2 0.929097906155D-04 0.100000000000D+01
  </mgrwgt>
  </event>
  <event>
  6     66 0.10089070E-05 0.20485688E+02 0.78161638E-02 0.12830793E+00
        1 -1    0    0  501    0 0.00000000E+00 0.00000000E+00 0.14378069E+04 0.14378069E+04 0.00000000E+00 0.0000E+00 0.9000E+01
       22 -1    0    0    0    0 0.00000000E+00 0.00000000E+00 -.10329252E+02 0.10329252E+02 0.00000000E+00 0.0000E+00 0.9000E+01
      -24  2    1    2    0    0 0.21115013E+01 0.22892658E+02 0.15148527E+03 0.17193668E+03 0.78012203E+02 0.0000E+00 0.0000E+00
  9900012  1    3    3    0    0 -.61729396E+00 0.70121263E+00 0.13554954E+03 0.14448028E+03 0.50000000E+02 0.0000E+00 0.9000E+01
       13  1    3    3    0    0 0.27287952E+01 0.22191445E+02 0.15935721E+02 0.27456397E+02 0.00000000E+00 0.0000E+00 0.9000E+01
        2  1    1    2  501    0 -.21115013E+01 -.22892658E+02 0.12759924E+04 0.12761995E+04 0.00000000E+00 0.0000E+00 0.9000E+01
#aMCatNLO 1  0  0  1  5 0.11372559D+02 0.00000000D+00  -5  6  0 0.00000000D+00 0.00000000D+00 0.00000000D+00 0.00000000D+00 0.00000000D+00
  <mgrwgt>
 0.2205870139D-03    9    2    0
 0.121866605505669D+03 0.000000000000000D+00 0.000000000000000D+00 0.121866605505669D+03
 0.121866605505669D+03 0.000000000000000D+00 0.000000000000000D+00 -.121866605505669D+03
 0.645508012837197D+02 -.617293956668983D+00 0.701212629943385D+00 -.408158449059790D+02
 0.698005694283254D+02 0.272879521914093D+01 0.221914453158981D+02 -.661227111056555D+02
 0.109381840299294D+03 -.211150126247194D+01 -.228926579458414D+02 0.106938556011635D+03
 0.000000000000000D+00 0.000000000000000D+00 0.000000000000000D+00 0.000000000000000D+00
 0.143997389290405D+03 0.000000000000000D+00 0.000000000000000D+00 0.143997389290405D+03
 0.123359942523250D+03 0.000000000000000D+00 0.000000000000000D+00 -.123359942523250D+03
 0.646431951354520D+02 -.352491029803882D+01 0.620072029663453D+00 -.408158449059790D+02
 0.697205912629594D+02 -.411242383509367D+00 0.221038187152508D+02 -.661227111056555D+02
 0.109616649691287D+03 -.704024103274690D+01 -.230302004743702D+02 0.106938556011635D+03
 0.233768957239568D+02 0.109763937142951D+02 0.306309729455976D+00 0.206374467671554D+02
0.536862283702D-06 0.000000000000D+00 0.000000000000D+00 0.162246708985D-05 0.000000000000D+00  6 1 22 9900012 13 2 21 0 0.22120106D+00 0.15891156D-02 0.22732463D+04 0.22732463D+04 0.22732463D+04 0.12823385D+01  1  2  2  1  6  1        1 0.276518544813D-04 0.100000000000D+01
0.470384297346D-07 0.000000000000D+00 -.103084626425D-08 0.162246708985D-05 0.000000000000D+00  6 1 22 9900012 13 2 21 2 0.22120106D+00 0.15891156D-02 0.22732463D+04 0.22732463D+04 0.22732463D+04 0.12823385D+01  1  2  3  1  6  1        1 0.398400194417D-05 0.100000000000D+01
-.768076825549D-07 0.000000000000D+00 0.000000000000D+00 0.162246708985D-05 0.000000000000D+00  6 1 22 9900012 13 2 21 2 0.22120106D+00 0.15891156D-02 0.22732463D+04 0.22732463D+04 0.22732463D+04 0.12823385D+01  1  2 15  1  6  1        1 -.650536079442D-05 0.100000000000D+01
0.240619196853D-05 0.000000000000D+00 0.000000000000D+00 0.162246708985D-05 0.000000000000D+00  6 1 22 9900012 13 2 21 2 0.26457363D+00 0.15891156D-02 0.28782420D+04 0.28782420D+04 0.28782420D+04 0.12697893D+01  1  2 12  1  6  1        1 0.134474261216D-03 0.100000000000D+01
-.170490934748D-06 0.000000000000D+00 0.000000000000D+00 0.162246708985D-05 0.000000000000D+00  6 1 22 9900012 13 2 21 2 0.22120106D+00 0.15891156D-02 0.22732463D+04 0.22732463D+04 0.22732463D+04 0.12823385D+01  1  2  4  1  6  1        1 -.144400274272D-04 0.100000000000D+01
-.271313304057D-05 0.000000000000D+00 -.325981291875D-06 0.162246708985D-05 0.000000000000D+00  6 1 22 9900012 13 2 21 2 0.26254997D+00 0.15891156D-02 0.22732463D+04 0.22732463D+04 0.22732463D+04 0.12823385D+01  1  2  5  1  6  1        1 -.155803296482D-03 0.100000000000D+01
0.273348885493D-05 0.000000000000D+00 0.321252552137D-06 0.162246708985D-05 0.000000000000D+00  6 1 22 9900012 13 2 21 2 0.22120106D+00 0.15891156D-02 0.22732463D+04 0.22732463D+04 0.22732463D+04 0.12823385D+01  1  2  6  1  6  1        1 0.231517611746D-03 0.100000000000D+01
0.631975784473D-07 0.000000000000D+00 0.000000000000D+00 0.162246708985D-05 0.000000000000D+00  6 21 22 9900012 13 2 -1 2 0.26457363D+00 0.15891156D-02 0.28782420D+04 0.28782420D+04 0.28782420D+04 0.12697893D+01  1  2 12  3  6  1        1 0.309125277861D-05 0.100000000000D+01
-.659765605541D-07 0.000000000000D+00 -.827163459007D-08 0.162246708985D-05 0.000000000000D+00  6 21 22 9900012 13 2 -1 2 0.26254997D+00 0.15891156D-02 0.22732463D+04 0.22732463D+04 0.22732463D+04 0.12823385D+01  1  2  5  3  6  1        1 -.338328353407D-05 0.100000000000D+01
  </mgrwgt>
  </event>
  <event>
  6     66 0.10089070E-05 0.36272646E+02 0.78161638E-02 0.12155557E+00
        1 -1    0    0  501    0 0.00000000E+00 0.00000000E+00 0.19782259E+04 0.19782259E+04 0.00000000E+00 0.0000E+00 0.9000E+01
       22 -1    0    0    0    0 0.00000000E+00 0.00000000E+00 -.30323879E+03 0.30323879E+03 0.00000000E+00 0.0000E+00 0.9000E+01
      -24  2    1    2    0    0 0.46911035E+02 -.60437199E+01 -.29475712E+03 0.31115266E+03 0.87732793E+02 0.0000E+00 0.0000E+00
  9900012  1    3    3    0    0 -.60548629E+00 -.71326279E+01 -.12369071E+03 0.13360626E+03 0.50000000E+02 0.0000E+00 0.9000E+01
       13  1    3    3    0    0 0.47516521E+02 0.10889080E+01 -.17106642E+03 0.17754640E+03 0.00000000E+00 0.0000E+00 0.9000E+01
        2  1    1    2  501    0 -.46911035E+02 0.60437199E+01 0.19697443E+04 0.19703121E+04 0.00000000E+00 0.0000E+00 0.9000E+01
#aMCatNLO 1  0  0  1  5 0.48763293D+01 0.00000000D+00  -5  6  0 0.00000000D+00 0.00000000D+00 0.00000000D+00 0.00000000D+00 0.00000000D+00
  <mgrwgt>
 0.2210408909D-01   11    2    0
 0.774515870911672D+03 0.000000000000000D+00 0.000000000000000D+00 0.774515870911672D+03
 0.774515870911672D+03 0.000000000000000D+00 0.000000000000000D+00 -.774515870911672D+03
 0.330527957390745D+03 -.605486290902942D+00 -.713262789058403D+01 -.326645816784210D+03
 0.446472382601611D+03 0.475165211969913D+02 0.108890800645233D+01 -.443935336415844D+03
 0.772031401830990D+03 -.469110349060883D+02 0.604371988413170D+01 0.770581153200054D+03
 0.000000000000000D+00 -.000000000000000D+00 -.000000000000000D+00 0.000000000000000D+00
 0.851001201287817D+03 0.000000000000000D+00 0.000000000000000D+00 0.851001201287817D+03
 0.774597344290125D+03 0.000000000000000D+00 0.000000000000000D+00 -.774597344290125D+03
 0.330507170888034D+03 -.420770114665928D+00 -.610928296110064D+01 -.326645816784210D+03
 0.446504519432685D+03 0.477660499614326D+02 0.247132074936059D+01 -.443935336415844D+03
 0.772027718239638D+03 -.464795711542511D+02 0.843406950966700D+01 0.770581153200054D+03
 0.765591370175849D+02 -.865708692515572D+00 -.479610729792694D+01 0.764038569976923D+02
0.520598757056D-03 0.000000000000D+00 0.000000000000D+00 0.150634830063D-03 0.000000000000D+00  6 1 22 9900012 13 2 21 0 0.30434245D+00 0.46652122D-01 0.52807514D+04 0.52807514D+04 0.52807514D+04 0.12391831D+01  1  2  2  1  6  1        1 0.102524646133D-03 0.100000000000D+01
0.290983418711D-04 0.000000000000D+00 -.999618151947D-06 0.150634830063D-03 0.000000000000D+00  6 1 22 9900012 13 2 21 2 0.30434245D+00 0.46652122D-01 0.52807514D+04 0.52807514D+04 0.52807514D+04 0.12391831D+01  1  2  3  1  6  1        1 0.879962875676D-05 0.100000000000D+01
-.802929745808D-04 0.000000000000D+00 0.000000000000D+00 0.150634830063D-03 0.000000000000D+00  6 1 22 9900012 13 2 21 2 0.30434245D+00 0.46652122D-01 0.52807514D+04 0.52807514D+04 0.52807514D+04 0.12391831D+01  1  2 15  1  6  1        1 -.242813962121D-04 0.100000000000D+01
0.753940030310D-01 0.000000000000D+00 0.000000000000D+00 0.150634830063D-03 0.000000000000D+00  6 1 22 9900012 13 2 21 2 0.33443218D+00 0.46652122D-01 0.56487058D+04 0.56487058D+04 0.56487058D+04 0.12359257D+01  1  2 12  1  6  1        1 0.169477674993D-01 0.100000000000D+01
-.732120792840D-01 0.000000000000D+00 0.000000000000D+00 0.150634830063D-03 0.000000000000D+00  6 1 22 9900012 13 2 21 2 0.30434245D+00 0.46652122D-01 0.52807514D+04 0.52807514D+04 0.52807514D+04 0.12391831D+01  1  2  4  1  6  1        1 -.221400628621D-01 0.100000000000D+01
-.218457761500D+00 0.000000000000D+00 -.489596852794D-03 0.150634830063D-03 0.000000000000D+00  6 1 22 9900012 13 2 21 2 0.33440817D+00 0.46652122D-01 0.52807514D+04 0.52807514D+04 0.52807514D+04 0.12391831D+01  1  2  5  1  6  1        1 -.494346762557D-01 0.100000000000D+01
0.217539970678D+00 0.000000000000D+00 0.487432200482D-03 0.150634830063D-03 0.000000000000D+00  6 1 22 9900012 13 2 21 2 0.30434245D+00 0.46652122D-01 0.52807514D+04 0.52807514D+04 0.52807514D+04 0.12391831D+01  1  2  6  1  6  1        1 0.657862564886D-01 0.100000000000D+01
0.483508061956D-01 0.000000000000D+00 0.000000000000D+00 0.150634830063D-03 0.250577721448D-04  6 1 22 9900012 13 2 21 2 0.33439701D+00 0.46657029D-01 0.56487058D+04 0.56487058D+04 0.56487058D+04 0.12359257D+01  1  2 11  1  6  1        1 0.108705939925D-01 0.100000000000D+01
0.117804316532D-02 0.000000000000D+00 0.000000000000D+00 0.150634830063D-03 0.000000000000D+00  6 21 22 9900012 13 2 -1 2 0.33443218D+00 0.46652122D-01 0.56487058D+04 0.56487058D+04 0.56487058D+04 0.12359257D+01  1  2 12  3  6  1        1 0.173696370459D-03 0.100000000000D+01
-.338232207690D-02 0.000000000000D+00 -.755116189750D-05 0.150634830063D-03 0.000000000000D+00  6 21 22 9900012 13 2 -1 2 0.33440817D+00 0.46652122D-01 0.52807514D+04 0.52807514D+04 0.52807514D+04 0.12391831D+01  1  2  5  3  6  1        1 -.503930219069D-03 0.100000000000D+01
0.215207273572D-02 0.000000000000D+00 0.000000000000D+00 0.150634830063D-03 0.805259250143D-06  6 21 22 9900012 13 2 -1 2 0.33439701D+00 0.46657029D-01 0.56487058D+04 0.56487058D+04 0.56487058D+04 0.12359257D+01  1  2 11  3  6  1        1 0.317401200201D-03 0.100000000000D+01
  </mgrwgt>
  </event>
  <event>
  6     66 0.10089070E-05 0.26677665E+02 0.78161638E-02 0.10802107E+00
        1 -1    0    0  501    0 0.00000000E+00 0.00000000E+00 0.21680796E+03 0.21680796E+03 0.00000000E+00 0.0000E+00 0.9000E+01
       22 -1    0    0    0    0 0.00000000E+00 0.00000000E+00 -.43776357E+02 0.43776357E+02 0.00000000E+00 0.0000E+00 0.9000E+01
      -24  2    1    2    0    0 0.19995780E+02 -.17659745E+02 -.10595365E+01 0.84461001E+02 0.80130146E+02 0.0000E+00 0.0000E+00
  9900012  1    3    3    0    0 0.36844508E+02 -.15269114E+02 0.91597144E+01 0.64610866E+02 0.50000000E+02 0.0000E+00 0.9000E+01
       13  1    3    3    0    0 -.16848729E+02 -.23906301E+01 -.10219251E+02 0.19850135E+02 0.00000000E+00 0.0000E+00 0.9000E+01
        2  1    1    2  501    0 -.19995780E+02 0.17659745E+02 0.17409114E+03 0.17612331E+03 0.00000000E+00 0.0000E+00 0.9000E+01
#aMCatNLO 1  0  0  1  5 0.48763293D+01 0.00000000D+00  -5  6  0 0.00000000D+00 0.00000000D+00 0.00000000D+00 0.00000000D+00 0.00000000D+00
  <mgrwgt>
 0.7768156260D-04    3    2    0
 0.974220848160712D+02 0.000000000000000D+00 0.000000000000000D+00 0.974220848160712D+02
 0.974220848160712D+02 0.000000000000000D+00 0.000000000000000D+00 -.974220848160712D+02
 0.782761848665290D+02 0.368445084857687D+02 -.152691144663836D+02 -.451275686816120D+02
 0.356227602067489D+02 -.168487286716720D+02 -.239063005220766D+01 -.312951477844313D+02
 0.809452245588645D+02 -.199957798140968D+02 0.176597445185913D+02 0.764227164660433D+02
 0.000000000000000D+00 0.000000000000000D+00 0.000000000000000D+00 -.000000000000000D+00
 0.141013056564053D+03 0.000000000000000D+00 0.000000000000000D+00 0.141013056564053D+03
 0.406657417429485D+03 0.000000000000000D+00 0.000000000000000D+00 -.406657417429485D+03
 0.735679416930173D+02 -.126989789865796D+02 -.267297684713504D+02 -.451275686816120D+02
 0.574127324343195D+02 -.472042180052615D+02 -.941261776750320D+01 -.312951477844313D+02
 0.113089697345251D+03 -.833052204909793D+02 0.301467950877180D+01 0.764227164660433D+02
 0.303600102520951D+03 0.143208417482820D+03 0.331277067300818D+02 -.265644360865432D+03
0.771353315445D-06 0.000000000000D+00 0.000000000000D+00 0.178088421248D-05 0.000000000000D+00  6 1 22 9900012 13 2 21 0 0.33355070D-01 0.67348242D-02 0.28973161D+04 0.28973161D+04 0.28973161D+04 0.12694433D+01  1  2  2  1  6  1        1 0.867617102472D-04 0.100000000000D+01
0.538330241830D-07 0.000000000000D+00 -.148109991665D-08 0.178088421248D-05 0.000000000000D+00  6 1 22 9900012 13 2 21 2 0.33355070D-01 0.67348242D-02 0.28973161D+04 0.28973161D+04 0.28973161D+04 0.12694433D+01  1  2  3  1  6  1        1 0.975775960463D-05 0.100000000000D+01
-.103927700406D-06 0.000000000000D+00 0.000000000000D+00 0.178088421248D-05 0.000000000000D+00  6 1 22 9900012 13 2 21 2 0.33355070D-01 0.67348242D-02 0.28973161D+04 0.28973161D+04 0.28973161D+04 0.12694433D+01  1  2 15  1  6  1        1 -.188379072551D-04 0.100000000000D+01
  </mgrwgt>
  </event>
  <event>
  6     66 0.10089070E-05 0.48511382E+02 0.78161638E-02 0.10013874E+00
        1 -1    0    0  501    0 0.00000000E+00 0.00000000E+00 0.59515273E+01 0.59515273E+01 0.00000000E+00 0.0000E+00 0.9000E+01
       22 -1    0    0    0    0 0.00000000E+00 0.00000000E+00 -.28352812E+04 0.28352812E+04 0.00000000E+00 0.0000E+00 0.9000E+01
      -24  2    1    2    0    0 -.79564515E+01 -.47854458E+02 -.27196093E+04 0.27212664E+04 0.81626344E+02 0.0000E+00 0.0000E+00
  9900012  1    3    3    0    0 0.16566429E+02 -.22478528E+02 -.13711596E+04 0.13723551E+04 0.50000000E+02 0.0000E+00 0.9000E+01
       13  1    3    3    0    0 -.24522881E+02 -.25375930E+02 -.13484497E+04 0.13489113E+04 0.00000000E+00 0.0000E+00 0.9000E+01
        2  1    1    2  501    0 0.79564515E+01 0.47854458E+02 -.10972042E+03 0.11996634E+03 0.00000000E+00 0.0000E+00 0.9000E+01
#aMCatNLO 1  0  0  1  5 0.78784800D+02 0.00000000D+00  -5  6  0 0.00000000D+00 0.00000000D+00 0.00000000D+00 0.00000000D+00 0.00000000D+00
  <mgrwgt>
 0.7045680967D-04    5    2    0
 0.129900937522359D+03 0.000000000000000D+00 0.000000000000000D+00 0.129900937522359D+03
 0.129900937522359D+03 0.000000000000000D+00 0.000000000000000D+00 -.129900937522359D+03
 0.758945079004824D+02 0.165664294026086D+02 -.224785276183725D+02 -.498020636361068D+02
 0.668293934815691D+02 -.245228809405872D+02 -.253759299219902D+02 -.567526063197314D+02
 0.117077973662667D+03 0.795645153797858D+01 0.478544575403626D+02 0.106554669955838D+03
 0.000000000000000D+00 -.000000000000000D+00 -.000000000000000D+00 0.000000000000000D+00
 0.616552999280624D+03 0.000000000000000D+00 0.000000000000000D+00 0.616552999280624D+03
 0.242254987478284D+03 0.000000000000000D+00 0.000000000000000D+00 -.242254987478284D+03
 0.115986189734020D+03 0.895307559181121D+02 0.213727492693999D+02 -.498020636361068D+02
 0.619222751213505D+02 0.244360758652387D+02 0.404821299218555D+01 -.567526063197314D+02
 0.209226483241664D+03 0.132036597329311D+03 0.122426143310871D+03 0.106554669955838D+03
 0.471673038661875D+03 -.246003429112662D+03 -.147847105572456D+03 0.374298011802340D+03
0.168935907000D-04 0.000000000000D+00 0.000000000000D+00 0.136352784952D-05 0.000000000000D+00  6 1 22 9900012 13 2 21 0 0.91561958D-03 0.43619711D+00 0.49751340D+04 0.49751340D+04 0.49751340D+04 0.12420895D+01  1  2  2  1  6  1        1 0.564145795163D-04 0.100000000000D+01
0.524707227596D-06 0.000000000000D+00 -.324379182363D-07 0.136352784952D-05 0.000000000000D+00  6 1 22 9900012 13 2 21 2 0.91561958D-03 0.43619711D+00 0.49751340D+04 0.49751340D+04 0.49751340D+04 0.12420895D+01  1  2  3  1  6  1        1 0.270328727544D-05 0.100000000000D+01
-.241337155087D-05 0.000000000000D+00 0.000000000000D+00 0.136352784952D-05 0.000000000000D+00  6 1 22 9900012 13 2 21 2 0.91561958D-03 0.43619711D+00 0.49751340D+04 0.49751340D+04 0.49751340D+04 0.12420895D+01  1  2 15  1  6  1        1 -.124336701712D-04 0.100000000000D+01
0.755711273460D-04 0.000000000000D+00 -.215763022455D-04 0.136352784952D-05 0.000000000000D+00  6 1 22 9900012 13 2 21 2 0.18333958D-01 0.43619711D+00 0.49751340D+04 0.49751340D+04 0.49751340D+04 0.12420895D+01  1  2  5  1  6  1        1 0.735192221848D-05 0.100000000000D+01
0.187871908582D-04 0.000000000000D+00 -.694026934879D-05 0.136352784952D-05 0.000000000000D+00  6 21 22 9900012 13 2 -1 2 0.18333958D-01 0.43619711D+00 0.49751340D+04 0.49751340D+04 0.49751340D+04 0.12420895D+01  1  2  5  3  6  1        1 0.164206908268D-04 0.100000000000D+01
  </mgrwgt>
  </event>
  <event>
  6     66 0.10089070E-05 0.21475464E+02 0.78161638E-02 0.12693253E+00
        1 -1    0    0  501    0 0.00000000E+00 0.00000000E+00 0.13815624E+04 0.13815624E+04 0.00000000E+00 0.0000E+00 0.9000E+01
       22 -1    0    0    0    0 0.00000000E+00 0.00000000E+00 -.27081923E+01 0.27081923E+01 0.00000000E+00 0.0000E+00 0.9000E+01
      -24  2    1    2    0    0 0.26877830E+02 -.16762161E+02 0.81887858E+03 0.82339976E+03 0.80135179E+02 0.0000E+00 0.0000E+00
  9900012  1    3    3    0    0 0.12879984E+02 -.34969966E+02 0.64585194E+03 0.64885555E+03 0.50000000E+02 0.0000E+00 0.9000E+01
       13  1    3    3    0    0 0.13997846E+02 0.18207805E+02 0.17302664E+03 0.17454421E+03 0.00000000E+00 0.0000E+00 0.9000E+01
        2  1    1    2  501    0 -.26877830E+02 0.16762161E+02 0.55997563E+03 0.56087084E+03 0.00000000E+00 0.0000E+00 0.9000E+01
#aMCatNLO 1  0  0  5  1 0.92321925D+01 0.00000000D+00  -5  6  0 0.00000000D+00 0.00000000D+00 0.00000000D+00 0.00000000D+00 0.00000000D+00
  <mgrwgt>
 0.9475803107D-04    8    2    0
 0.611681016161721D+02 0.000000000000000D+00 0.000000000000000D+00 0.611681016161721D+02
 0.611681016161721D+02 -.000000000000000D+00 -.000000000000000D+00 -.611681016161721D+02
 0.625815350423441D+02 0.128799841537310D+02 -.349699659959596D+02 -.525889862016786D+01
 0.248324639431094D+02 0.139978459401058D+02 0.182078048398382D+02 -.944390901254647D+01
 0.349222042468907D+02 -.268778300938368D+02 0.167621611561215D+02 0.147028076327143D+02
 0.000000000000000D+00 0.000000000000000D+00 0.000000000000000D+00 0.000000000000000D+00
 0.611681016161721D+02 0.000000000000000D+00 0.000000000000000D+00 0.611681016161721D+02
 0.611681016161721D+02 -.000000000000000D+00 -.000000000000000D+00 -.611681016161721D+02
 0.614144037781102D+02 0.108622771700016D+02 -.337116378679438D+02 -.415516526307069D+01
 0.246004281115847D+02 0.131934559538408D+02 0.187094567416126D+02 -.900388869883641D+01
 0.193237364759072D+02 -.185615349370905D+02 0.536638938015877D+01 0.279422958956171D+00
 0.169976348667421D+02 -.549419818675186D+01 0.963579174617246D+01 0.128796310029509D+02
0.324977658305D-06 0.000000000000D+00 0.000000000000D+00 0.164480134552D-06 0.000000000000D+00  6 1 22 9900012 13 2 21 0 0.21254806D+00 0.41664497D-03 0.34224291D+04 0.34224291D+04 0.34224291D+04 0.12608163D+01  1  2  2  2  6  5        2 0.107973877261D-03 0.100000000000D+01
0.835185784066D-09 0.000000000000D+00 -.623999888238D-09 0.164480134552D-06 0.000000000000D+00  6 1 22 9900012 13 2 21 2 0.21254806D+00 0.41664497D-03 0.34224291D+04 0.34224291D+04 0.34224291D+04 0.12608163D+01  1  2  3  2  6  5        2 0.441115108285D-06 0.100000000000D+01
-.349456210945D-07 0.000000000000D+00 0.000000000000D+00 0.164480134552D-06 0.000000000000D+00  6 1 22 9900012 13 2 21 2 0.21254806D+00 0.41664497D-03 0.34224291D+04 0.34224291D+04 0.34224291D+04 0.12608163D+01  1  2 15  2  6  5        2 -.184570208537D-04 0.100000000000D+01
0.135470543476D-06 0.000000000000D+00 0.000000000000D+00 0.164480134552D-06 0.000000000000D+00  6 1 22 9900012 13 2 21 2 0.21254806D+00 0.41664497D-03 0.32821995D+04 0.32821995D+04 0.32821995D+04 0.12629653D+01  1  2 12  2  6  5        2 0.715413765744D-04 0.100000000000D+01
-.198522554642D-06 0.000000000000D+00 0.000000000000D+00 0.164480134552D-06 0.000000000000D+00  6 1 22 9900012 13 2 21 2 0.21254806D+00 0.41664497D-03 0.34224291D+04 0.34224291D+04 0.34224291D+04 0.12608163D+01  1  2  4  2  6  5        2 -.104852476968D-03 0.100000000000D+01
-.123749453515D-06 0.000000000000D+00 0.000000000000D+00 0.164480134552D-06 0.000000000000D+00  6 1 22 9900012 13 2 21 2 0.21254806D+00 0.41664497D-03 0.34224291D+04 0.34224291D+04 0.34224291D+04 0.12608163D+01  1  2  5  2  6  5        2 -.653600128606D-04 0.100000000000D+01
0.195891714554D-06 0.000000000000D+00 -.000000000000D+00 0.164480134552D-06 0.000000000000D+00  6 1 22 9900012 13 2 21 2 0.21254806D+00 0.41664497D-03 0.34224291D+04 0.34224291D+04 0.34224291D+04 0.12608163D+01  1  2  6  2  6  5        2 0.103462961806D-03 0.100000000000D+01
0.155483353486D-10 0.000000000000D+00 0.000000000000D+00 0.164480134552D-06 0.161384021011D-07  6 1 22 9900012 13 2 21 2 0.21254806D+00 0.41664497D-03 0.32821995D+04 0.32821995D+04 0.32821995D+04 0.12629653D+01  1  2 11  2  6  5        2 0.821100503280D-08 0.100000000000D+01
  </mgrwgt>
  </event>
  <event>
  6     66 0.10089070E-05 0.35672609E+02 0.78161638E-02 0.97957578E-01
        1 -1    0    0  501    0 0.00000000E+00 0.00000000E+00 0.31307277E+03 0.31307277E+03 0.00000000E+00 0.0000E+00 0.9000E+01
       22 -1    0    0    0    0 0.00000000E+00 0.00000000E+00 -.23168791E+03 0.23168791E+03 0.00000000E+00 0.0000E+00 0.9000E+01
      -24  2    1    2    0    0 0.14581052E+02 0.32556534E+02 -.22264069E+03 0.23864947E+03 0.78180280E+02 0.0000E+00 0.0000E+00
  9900012  1    3    3    0    0 0.26908010E+02 0.20577477E+02 -.11749518E+03 0.13210825E+03 0.50000000E+02 0.0000E+00 0.9000E+01
       13  1    3    3    0    0 -.12326958E+02 0.11979058E+02 -.10514551E+03 0.10654121E+03 0.00000000E+00 0.0000E+00 0.9000E+01
        2  1    1    2  501    0 -.14581052E+02 -.32556534E+02 0.30402556E+03 0.30611121E+03 0.00000000E+00 0.0000E+00 0.9000E+01
#aMCatNLO 1  0  0  1  1 0.18077868D+03 0.00000000D+00  -5  6  0 0.00000000D+00 0.00000000D+00 0.00000000D+00 0.00000000D+00 0.00000000D+00
  <mgrwgt>
 0.4503271716D-03    3    2    0
 0.269323551380089D+03 0.000000000000000D+00 0.000000000000000D+00 0.269323551380089D+03
 0.269323551380089D+03 0.000000000000000D+00 0.000000000000000D+00 -.269323551380089D+03
 0.151360160661097D+03 0.269080098333016D+02 0.205774768014069D+02 -.138789137509574D+03
 0.123637009136590D+03 -.123269580668006D+02 0.119790576758953D+02 -.122436343910859D+03
 0.263649932962492D+03 -.145810517665010D+02 -.325565344773022D+02 0.261225481420433D+03
 0.000000000000000D+00 -.000000000000000D+00 0.000000000000000D+00 -.000000000000000D+00
 0.372524279226825D+03 0.000000000000000D+00 0.000000000000000D+00 0.372524279226825D+03
 0.886406325543885D+03 0.000000000000000D+00 0.000000000000000D+00 -.886406325543885D+03
 0.178398691239429D+03 0.805659593562542D+02 -.597728578729168D+02 -.138789137509574D+03
 0.136084596007604D+03 0.299346179258626D+02 -.513057268726142D+02 -.122436343910859D+03
 0.325334429991908D+03 0.812577499368392D+02 -.176070773469150D+03 0.261225481420433D+03
 0.619112887531768D+03 -.191758327218956D+03 0.287149358214681D+03 -.513882046317060D+03
0.804038178424D-04 0.000000000000D+00 0.000000000000D+00 0.358127038180D-04 0.000000000000D+00  6 1 22 9900012 13 2 21 0 0.48165042D-01 0.35644293D-01 0.32067097D+04 0.32067097D+04 0.32067097D+04 0.12641656D+01  1  2  2  1  6  1        1 0.517280698097D-03 0.100000000000D+01
0.474167562625D-05 0.000000000000D+00 -.154385915663D-06 0.358127038180D-04 0.000000000000D+00  6 1 22 9900012 13 2 21 2 0.48165042D-01 0.35644293D-01 0.32067097D+04 0.32067097D+04 0.32067097D+04 0.12641656D+01  1  2  3  1  6  1        1 0.487516535564D-04 0.100000000000D+01
-.112536989451D-04 0.000000000000D+00 0.000000000000D+00 0.358127038180D-04 0.000000000000D+00  6 1 22 9900012 13 2 21 2 0.48165042D-01 0.35644293D-01 0.32067097D+04 0.32067097D+04 0.32067097D+04 0.12641656D+01  1  2 15  1  6  1        1 -.115705180076D-03 0.100000000000D+01
  </mgrwgt>
  </event>
  <event>
  6     66 0.10089070E-05 0.16248147E+02 0.78161638E-02 0.11527886E+00
        1 -1    0    0  501    0 0.00000000E+00 0.00000000E+00 0.25229715E+03 0.25229715E+03 0.00000000E+00 0.0000E+00 0.9000E+01
       22 -1    0    0    0    0 0.00000000E+00 0.00000000E+00 -.10580396E+02 0.10580396E+02 0.00000000E+00 0.0000E+00 0.9000E+01
      -24  2    1    2    0    0 -.76445725E+01 0.14337461E+02 0.22251748E+03 0.23772572E+03 0.82070005E+02 0.0000E+00 0.0000E+00
  9900012  1    3    3    0    0 -.26679756E+01 -.13627006E+02 0.10920017E+03 0.12090281E+03 0.50000000E+02 0.0000E+00 0.9000E+01
       13  1    3    3    0    0 -.49765969E+01 0.27964468E+02 0.11331731E+03 0.11682291E+03 0.00000000E+00 0.0000E+00 0.9000E+01
        2  1    1    2  501    0 0.76445725E+01 -.14337461E+02 0.19199268E+02 0.25151822E+02 0.00000000E+00 0.0000E+00 0.9000E+01
#aMCatNLO 1  0  0  1  5 0.35847883D+02 0.00000000D+00  -5  6  0 0.00000000D+00 0.00000000D+00 0.00000000D+00 0.00000000D+00 0.00000000D+00
  <mgrwgt>
 0.8006262672D-03    3    2    0
 0.516662728350002D+02 0.000000000000000D+00 0.000000000000000D+00 0.516662728350002D+02
 0.516662728350002D+02 0.000000000000000D+00 0.000000000000000D+00 -.516662728350002D+02
 0.521338603060371D+02 -.266797561324198D+01 -.136270061979520D+02 -.501258402597986D+01
 0.321237205577229D+02 -.497659686607533D+01 0.279644676596444D+02 0.150051809257983D+02
 0.190749648062405D+02 0.764457247931732D+01 -.143374614616924D+02 -.999259689981844D+01
 0.000000000000000D+00 -.000000000000000D+00 -.000000000000000D+00 -.000000000000000D+00
 0.986020484347116D+02 0.000000000000000D+00 0.000000000000000D+00 0.986020484347116D+02
 0.122898359562674D+03 0.000000000000000D+00 0.000000000000000D+00 -.122898359562674D+03
 0.635079377233379D+02 0.381351876477100D+02 -.733754852302927D+01 -.501258402597986D+01
 0.409697670012942D+02 0.208137795981971D+02 0.319398330046052D+02 0.150051809257983D+02
 0.290428958422128D+02 0.246225247185920D+02 -.117204557326791D+02 -.999259689981844D+01
 0.879798074305404D+02 -.835714919644991D+02 -.128818287488969D+02 -.242963111279622D+02
0.157405706114D-05 0.000000000000D+00 0.000000000000D+00 0.651579002940D-07 0.000000000000D+00  6 1 22 9900012 13 2 21 0 0.38814946D-01 0.16277532D-02 0.23302009D+04 0.23302009D+04 0.23302009D+04 0.12810049D+01  1  2  2  1  6  1        1 0.968840378071D-03 0.100000000000D+01
-.152967052954D-07 0.000000000000D+00 -.302239678676D-08 0.651579002940D-07 0.000000000000D+00  6 1 22 9900012 13 2 21 2 0.38814946D-01 0.16277532D-02 0.23302009D+04 0.23302009D+04 0.23302009D+04 0.12810049D+01  1  2  3  1  6  1        1 -.154500974034D-04 0.100000000000D+01
-.151247337332D-06 0.000000000000D+00 0.000000000000D+00 0.651579002940D-07 0.000000000000D+00  6 1 22 9900012 13 2 21 2 0.38814946D-01 0.16277532D-02 0.23302009D+04 0.23302009D+04 0.23302009D+04 0.12810049D+01  1  2 15  1  6  1        1 -.152764013470D-03 0.100000000000D+01
  </mgrwgt>
  </event>
  <event>
  7     66 0.10089070E-05 0.11386981E+03 0.78161638E-02 0.10096281E+00
        1 -1    0    0  502    0 0.00000000E+00 0.00000000E+00 0.57610256E+03 0.57610256E+03 0.00000000E+00 0.0000E+00 0.9000E+01
       22 -1    0    0    0    0 0.00000000E+00 0.00000000E+00 -.51305505E+03 0.51305505E+03 0.00000000E+00 0.0000E+00 0.9000E+01
      -24  2    1    2    0    0 -.78378856E+02 -.84606076E+02 -.39519668E+03 0.41948134E+03 0.80515535E+02 0.0000E+00 0.0000E+00
  9900012  1    3    3    0    0 -.26971967E+02 -.63002490E+02 -.24443846E+03 0.25874111E+03 0.50000000E+02 0.0000E+00 0.9000E+01
       13  1    3    3    0    0 -.51406889E+02 -.21603586E+02 -.15075821E+03 0.16074023E+03 0.00000000E+00 0.0000E+00 0.9000E+01
        2  1    1    2  501    0 0.20112507E+03 -.77575704E+02 0.62044964E+02 0.22431866E+03 0.00000000E+00 0.0000E+00 0.9000E+01
       21  1    1    2  502  501 -.12274622E+03 0.16218178E+03 0.39619922E+03 0.44535759E+03 0.00000000E+00 0.0000E+00 0.9000E+01
#aMCatNLO 2  0  0  1  5 0.65550013D+02 0.00000000D+00  -5  6  0 0.00000000D+00 0.00000000D+00 0.00000000D+00 0.00000000D+00 0.00000000D+00
  <mgrwgt>
 0.1028251195D-04    1    2    0
 0.255987705234904D+03 0.000000000000000D+00 0.000000000000000D+00 0.255987705234904D+03
 0.255987705234904D+03 0.000000000000000D+00 0.000000000000000D+00 -.255987705234904D+03
 0.152810636304533D+03 -.624678457770083D+02 -.161025933996785D+02 -.129188100448845D+03
 0.109508184834974D+03 -.752182564638158D+02 0.985783091838604D+01 -.789751835070924D+02
 0.249656589330301D+03 0.137686102240824D+03 0.624476248129243D+01 0.208163283955937D+03
 0.000000000000000D+00 -.000000000000000D+00 0.000000000000000D+00 0.000000000000000D+00
 0.102164935614346D+04 0.000000000000000D+00 0.000000000000000D+00 0.102164935614346D+04
 0.289308969633123D+03 0.000000000000000D+00 0.000000000000000D+00 -.289308969633123D+03
 0.154552146566024D+03 -.269719669508485D+02 -.630024897078454D+02 -.129188100448845D+03
 0.966771059374458D+02 -.514068892298182D+02 -.216035863266816D+02 -.789751835070924D+02
 0.299668545974954D+03 0.201125072492375D+03 -.775757041499466D+02 0.208163283955937D+03
 0.760060527298155D+03 -.122746216311708D+03 0.162181780184474D+03 0.732340386510332D+03
0.955272679917D-05 0.000000000000D+00 0.000000000000D+00 0.641625679022D-05 0.809234791830D-09  6 1 22 9900012 13 2 21 2 0.88631162D-01 0.78931545D-01 0.78276359D+05 0.78276359D+05 0.78276359D+05 0.11263819D+01  1  2  1  1  6  1        1 0.102825119548D-04 0.100000000000D+01
  </mgrwgt>
  </event>
  <event>
  6     66 0.10089070E-05 0.43330416E+02 0.78161638E-02 0.11776189E+00
        1 -1    0    0  501    0 0.00000000E+00 0.00000000E+00 0.56063189E+03 0.56063189E+03 0.00000000E+00 0.0000E+00 0.9000E+01
       22 -1    0    0    0    0 0.00000000E+00 0.00000000E+00 -.16825647E+02 0.16825647E+02 0.00000000E+00 0.0000E+00 0.9000E+01
      -24  2    1    2    0    0 -.46909908E+02 0.57071886E+02 0.22177747E+03 0.24706342E+03 0.79983429E+02 0.0000E+00 0.0000E+00
  9900012  1    3    3    0    0 -.24097844E+02 0.60239593E+02 0.14099106E+03 0.16305825E+03 0.50000000E+02 0.0000E+00 0.9000E+01
       13  1    3    3    0    0 -.22812064E+02 -.31677070E+01 0.80786409E+02 0.84005169E+02 0.00000000E+00 0.0000E+00 0.9000E+01
        2  1    1    2  501    0 0.46909908E+02 -.57071886E+02 0.32202877E+03 0.33039411E+03 0.00000000E+00 0.0000E+00 0.9000E+01
#aMCatNLO 1  0  0  1  5 0.67468837D+01 0.00000000D+00  -5  6  0 0.00000000D+00 0.00000000D+00 0.00000000D+00 0.00000000D+00 0.00000000D+00
  <mgrwgt>
 0.1034035658D-03   11    2    0
 0.971236018102471D+02 0.000000000000000D+00 0.000000000000000D+00 0.971236018102471D+02
 0.971236018102471D+02 0.000000000000000D+00 0.000000000000000D+00 -.971236018102471D+02
 0.900265104194493D+02 -.240978442800398D+02 0.602395927947113D+02 -.373531516646927D+02
 0.235641211639928D+02 -.228120638608616D+02 -.316770700778947D+01 0.498429342556242D+01
 0.806565720370521D+02 0.469099081409014D+02 -.570718857869219D+02 0.323688582391302D+02
 0.000000000000000D+00 -.000000000000000D+00 0.000000000000000D+00 0.000000000000000D+00
 0.102625528731416D+03 0.000000000000000D+00 0.000000000000000D+00 0.102625528731416D+03
 0.987672369734226D+02 0.000000000000000D+00 0.000000000000000D+00 -.987672369734226D+02
 0.889389023270344D+02 -.214480382919868D+02 0.596225801293243D+02 -.373531516646927D+02
 0.229211847509150D+02 -.221237909701423D+02 -.332797273770746D+01 0.498429342556242D+01
 0.824769227530232D+02 0.493253028516050D+02 -.576343153138882D+02 0.323688582391302D+02
 0.705575587386574D+01 -.575347358947588D+01 0.133970792227136D+01 0.385829175799314D+01
0.169072937772D-06 0.000000000000D+00 0.000000000000D+00 0.456371939529D-06 0.000000000000D+00  6 1 22 9900012 13 2 21 0 0.86251060D-01 0.25885610D-02 0.79940670D+04 0.79940670D+04 0.79940670D+04 0.12195448D+01  1  2  2  1  6  1        1 0.228934152658D-04 0.100000000000D+01
-.358837602738D-08 0.000000000000D+00 -.324642299485D-09 0.456371939529D-06 0.000000000000D+00  6 1 22 9900012 13 2 21 2 0.86251060D-01 0.25885610D-02 0.79940670D+04 0.79940670D+04 0.79940670D+04 0.12195448D+01  1  2  3  1  6  1        1 -.722653270606D-06 0.100000000000D+01
-.187744856018D-07 0.000000000000D+00 0.000000000000D+00 0.456371939529D-06 0.000000000000D+00  6 1 22 9900012 13 2 21 2 0.86251060D-01 0.25885610D-02 0.79940670D+04 0.79940670D+04 0.79940670D+04 0.12195448D+01  1  2 15  1  6  1        1 -.378094249894D-05 0.100000000000D+01
0.482529049340D-06 0.000000000000D+00 0.000000000000D+00 0.456371939529D-06 0.000000000000D+00  6 1 22 9900012 13 2 21 2 0.92679396D-01 0.25885610D-02 0.85428032D+04 0.85428032D+04 0.85428032D+04 0.12164866D+01  1  2 12  1  6  1        1 0.880647937018D-04 0.100000000000D+01
-.178415927091D-06 0.000000000000D+00 0.000000000000D+00 0.456371939529D-06 0.000000000000D+00  6 1 22 9900012 13 2 21 2 0.86251060D-01 0.25885610D-02 0.79940670D+04 0.79940670D+04 0.79940670D+04 0.12195448D+01  1  2  4  1  6  1        1 -.359306974121D-04 0.100000000000D+01
-.193118117605D-05 0.000000000000D+00 -.288861418840D-06 0.456371939529D-06 0.000000000000D+00  6 1 22 9900012 13 2 21 2 0.92233618D-01 0.25885610D-02 0.79940670D+04 0.79940670D+04 0.79940670D+04 0.12195448D+01  1  2  5  1  6  1        1 -.354843812929D-03 0.100000000000D+01
0.194682182241D-05 0.000000000000D+00 0.288213077306D-06 0.456371939529D-06 0.000000000000D+00  6 1 22 9900012 13 2 21 2 0.86251060D-01 0.25885610D-02 0.79940670D+04 0.79940670D+04 0.79940670D+04 0.12195448D+01  1  2  6  1  6  1        1 0.392065142147D-03 0.100000000000D+01
0.142646077434D-07 0.000000000000D+00 0.000000000000D+00 0.456371939529D-06 0.334610224705D-07  6 1 22 9900012 13 2 21 2 0.91137071D-01 0.26323676D-02 0.85428032D+04 0.85428032D+04 0.85428032D+04 0.12164866D+01  1  2 11  1  6  1        1 0.260452121987D-05 0.100000000000D+01
0.700035740769D-08 0.000000000000D+00 0.000000000000D+00 0.456371939529D-06 0.000000000000D+00  6 21 22 9900012 13 2 -1 2 0.92679396D-01 0.25885610D-02 0.85428032D+04 0.85428032D+04 0.85428032D+04 0.12164866D+01  1  2 12  3  6  1        1 0.339202893794D-05 0.100000000000D+01
-.215720891604D-07 0.000000000000D+00 -.329361061819D-08 0.456371939529D-06 0.000000000000D+00  6 21 22 9900012 13 2 -1 2 0.92233618D-01 0.25885610D-02 0.79940670D+04 0.79940670D+04 0.79940670D+04 0.12195448D+01  1  2  5  3  6  1        1 -.105973646893D-04 0.100000000000D+01
0.525574264019D-09 0.000000000000D+00 0.000000000000D+00 0.456371939529D-06 0.998949087687D-09  6 21 22 9900012 13 2 -1 2 0.91137071D-01 0.26323676D-02 0.85428032D+04 0.85428032D+04 0.85428032D+04 0.12164866D+01  1  2 11  3  6  1        1 0.259135331902D-06 0.100000000000D+01
  </mgrwgt>
  </event>
  <event>
  6     66 0.10089070E-05 0.38137268E+02 0.78161638E-02 0.11812606E+00
        3 -1    0    0  501    0 0.00000000E+00 0.00000000E+00 0.41220756E+02 0.41220756E+02 0.00000000E+00 0.0000E+00 0.9000E+01
       22 -1    0    0    0    0 -.00000000E+00 -.00000000E+00 -.37951410E+03 0.37951410E+03 0.00000000E+00 0.0000E+00 0.9000E+01
      -24  2    1    2    0    0 -.72423281E+02 0.26535257E+02 -.32386492E+03 0.34226556E+03 0.79422752E+02 0.0000E+00 0.0000E+00
  9900012  1    3    3    0    0 -.51796421E+02 0.47740573E+01 -.15775620E+03 0.17347241E+03 0.50000000E+02 0.0000E+00 0.9000E+01
       13  1    3    3    0    0 -.20626860E+02 0.21761200E+02 -.16610872E+03 0.16879314E+03 0.00000000E+00 0.0000E+00 0.9000E+01
        4  1    1    2  501    0 0.72423281E+02 -.26535257E+02 -.14428425E+02 0.78469299E+02 0.00000000E+00 0.0000E+00 0.9000E+01
#aMCatNLO 1  0  0  5  1 0.20203816D+02 0.00000000D+00  -5  6  0 0.00000000D+00 0.00000000D+00 0.00000000D+00 0.00000000D+00 0.00000000D+00
  <mgrwgt>
 0.7813533006D-04    7    2    0
 0.125075409033308D+03 0.000000000000000D+00 0.000000000000000D+00 0.125075409033308D+03
 0.125075409033308D+03 -.000000000000000D+00 -.000000000000000D+00 -.125075409033308D+03
 0.784247673890966D+02 -.517964206559435D+02 0.477405725478490D+01 -.307373278701076D+02
 0.592589825227890D+02 -.206268599471225D+02 0.217612001597930D+02 -.511136950920537D+02
 0.112467068154730D+03 0.724232806030660D+02 -.265352574145779D+02 0.818510229621613D+02
 0.000000000000000D+00 0.000000000000000D+00 -.000000000000000D+00 0.000000000000000D+00
 0.125075409033308D+03 0.000000000000000D+00 0.000000000000000D+00 0.125075409033308D+03
 0.125075409033308D+03 -.000000000000000D+00 -.000000000000000D+00 -.125075409033308D+03
 0.765663823728088D+02 -.501270755391310D+02 0.416242378527713D+01 -.288506747890787D+02
 0.574311717101475D+02 -.193700388999331D+02 0.213007119061055D+02 -.496932666395421D+02
 0.777411249726036D+02 0.466381066138872D+02 0.721323863892543D+00 0.621936428854352D+02
 0.384121390110553D+02 0.228590078251769D+02 -.261844595552751D+02 0.163502985431856D+02
0.110545469976D-05 0.000000000000D+00 0.000000000000D+00 0.124453508084D-05 0.000000000000D+00  6 3 22 9900012 13 4 21 0 0.63416547D-02 0.58386784D-01 0.80340094D+04 0.80340094D+04 0.80340094D+04 0.12193144D+01  1  2  2  2  6  5        4 0.327955498516D-04 0.100000000000D+01
-.457686474445D-08 0.000000000000D+00 -.212261855999D-08 0.124453508084D-05 0.000000000000D+00  6 3 22 9900012 13 4 21 2 0.63416547D-02 0.58386784D-01 0.80340094D+04 0.80340094D+04 0.80340094D+04 0.12193144D+01  1  2  3  2  6  5        4 -.201870780425D-06 0.100000000000D+01
-.147890318052D-06 0.000000000000D+00 0.000000000000D+00 0.124453508084D-05 0.000000000000D+00  6 3 22 9900012 13 4 21 2 0.63416547D-02 0.58386784D-01 0.80340094D+04 0.80340094D+04 0.80340094D+04 0.12193144D+01  1  2 15  2  6  5        4 -.652296617646D-05 0.100000000000D+01
0.119226769417D-05 0.000000000000D+00 0.000000000000D+00 0.124453508084D-05 0.000000000000D+00  6 3 22 9900012 13 4 21 2 0.63416547D-02 0.58386784D-01 0.82007580D+04 0.82007580D+04 0.82007580D+04 0.12183660D+01  1  2 12  2  6  5        4 0.526127778385D-04 0.100000000000D+01
-.466316357982D-06 0.000000000000D+00 0.000000000000D+00 0.124453508084D-05 0.000000000000D+00  6 3 22 9900012 13 4 21 2 0.63416547D-02 0.58386784D-01 0.80340094D+04 0.80340094D+04 0.80340094D+04 0.12193144D+01  1  2  4  2  6  5        4 -.205677144436D-04 0.100000000000D+01
-.114873405929D-05 0.000000000000D+00 0.000000000000D+00 0.124453508084D-05 0.000000000000D+00  6 3 22 9900012 13 4 21 2 0.63416547D-02 0.58386784D-01 0.80340094D+04 0.80340094D+04 0.80340094D+04 0.12193144D+01  1  2  5  2  6  5        4 -.506669639585D-04 0.100000000000D+01
0.160262238166D-05 0.000000000000D+00 -.000000000000D+00 0.124453508084D-05 0.000000000000D+00  6 3 22 9900012 13 4 21 2 0.63416547D-02 0.58386784D-01 0.80340094D+04 0.80340094D+04 0.80340094D+04 0.12193144D+01  1  2  6  2  6  5        4 0.706865177310D-04 0.100000000000D+01
  </mgrwgt>
  </event>
  <event>
  6     66 0.10089070E-05 0.70800882E+02 0.78161638E-02 0.11672715E+00
        3 -1    0    0  501    0 0.00000000E+00 0.00000000E+00 0.39828184E+03 0.39828184E+03 0.00000000E+00 0.0000E+00 0.9000E+01
       22 -1    0    0    0    0 0.00000000E+00 0.00000000E+00 -.68429009E+02 0.68429009E+02 0.00000000E+00 0.0000E+00 0.9000E+01
      -24  2    1    2    0    0 -.23689667E+02 0.77011469E+02 -.14064457E+02 0.11348137E+03 0.78665397E+02 0.0000E+00 0.0000E+00
  9900012  1    3    3    0    0 -.82611889E+01 0.69087192E+02 0.72663805E+01 0.85988881E+02 0.50000000E+02 0.0000E+00 0.9000E+01
       13  1    3    3    0    0 -.15428478E+02 0.79242769E+01 -.21330837E+02 0.27492485E+02 0.00000000E+00 0.0000E+00 0.9000E+01
        4  1    1    2  501    0 0.23689667E+02 -.77011469E+02 0.34391729E+03 0.35322948E+03 0.00000000E+00 0.0000E+00 0.9000E+01
#aMCatNLO 1  0  0  1  5 0.14097987D+02 0.00000000D+00  -5  6  0 0.00000000D+00 0.00000000D+00 0.00000000D+00 0.00000000D+00 0.00000000D+00
  <mgrwgt>
 0.4097277067D-04    9    2    0
 0.165087950633216D+03 0.000000000000000D+00 0.000000000000000D+00 0.165087950633216D+03
 0.165087950633216D+03 0.000000000000000D+00 0.000000000000000D+00 -.165087950633216D+03
 0.114287891027748D+03 -.826118887242377D+01 0.690871921800743D+02 -.756335551898628D+02
 0.601711928047083D+02 -.154284781049701D+02 0.792427693449729D+01 -.576171879040555D+02
 0.155716817433975D+03 0.236896669773939D+02 -.770114691145716D+02 0.133250743093918D+03
 0.000000000000000D+00 -.000000000000000D+00 -.000000000000000D+00 0.000000000000000D+00
 0.180691830115455D+03 0.000000000000000D+00 0.000000000000000D+00 0.180691830115455D+03
 0.167917178494848D+03 0.000000000000000D+00 0.000000000000000D+00 -.167917178494848D+03
 0.114454350796349D+03 -.383119956489382D+01 0.697472985530600D+02 -.756335551898628D+02
 0.596652754302336D+02 -.131076375435613D+02 0.827010206835609D+01 -.576171879040555D+02
 0.156309549794604D+03 0.297325974805975D+02 -.761110206801038D+02 0.133250743093918D+03
 0.181798325891169D+02 -.127937603721424D+02 -.190637994131225D+01 0.127746516206070D+02
0.964075907589D-06 0.000000000000D+00 0.000000000000D+00 0.186488554757D-05 0.000000000000D+00  6 3 22 9900012 13 4 21 0 0.61274129D-01 0.10527540D-01 0.84271084D+04 0.84271084D+04 0.84271084D+04 0.12171127D+01  1  2  2  1  6  1        3 0.763599081376D-05 0.100000000000D+01
0.469920381582D-08 0.000000000000D+00 -.185115266608D-08 0.186488554757D-05 0.000000000000D+00  6 3 22 9900012 13 4 21 2 0.61274129D-01 0.10527540D-01 0.84271084D+04 0.84271084D+04 0.84271084D+04 0.12171127D+01  1  2  3  1  6  1        3 0.551366038624D-07 0.100000000000D+01
-.133801138099D-06 0.000000000000D+00 0.000000000000D+00 0.186488554757D-05 0.000000000000D+00  6 3 22 9900012 13 4 21 2 0.61274129D-01 0.10527540D-01 0.84271084D+04 0.84271084D+04 0.84271084D+04 0.12171127D+01  1  2 15  1  6  1        3 -.156991282712D-05 0.100000000000D+01
0.356850703153D-05 0.000000000000D+00 0.000000000000D+00 0.186488554757D-05 0.000000000000D+00  6 3 22 9900012 13 4 21 2 0.68215025D-01 0.10527540D-01 0.96088191D+04 0.96088191D+04 0.96088191D+04 0.12111303D+01  1  2 12  1  6  1        3 0.335547174443D-04 0.100000000000D+01
-.680385344032D-06 0.000000000000D+00 0.000000000000D+00 0.186488554757D-05 0.000000000000D+00  6 3 22 9900012 13 4 21 2 0.61274129D-01 0.10527540D-01 0.84271084D+04 0.84271084D+04 0.84271084D+04 0.12171127D+01  1  2  4  1  6  1        3 -.798308365800D-05 0.100000000000D+01
-.661527080952D-05 0.000000000000D+00 -.113148296898D-05 0.186488554757D-05 0.000000000000D+00  6 3 22 9900012 13 4 21 2 0.67878235D-01 0.10527540D-01 0.84271084D+04 0.84271084D+04 0.84271084D+04 0.12171127D+01  1  2  5  1  6  1        3 -.629002273720D-04 0.100000000000D+01
0.670184974497D-05 0.000000000000D+00 0.112558140295D-05 0.186488554757D-05 0.000000000000D+00  6 3 22 9900012 13 4 21 2 0.61274129D-01 0.10527540D-01 0.84271084D+04 0.84271084D+04 0.84271084D+04 0.12171127D+01  1  2  6  1  6  1        3 0.786340088697D-04 0.100000000000D+01
0.615831586086D-07 0.000000000000D+00 0.000000000000D+00 0.186488554757D-05 0.000000000000D+00  6 21 22 9900012 13 4 -3 2 0.68215025D-01 0.10527540D-01 0.96088191D+04 0.96088191D+04 0.96088191D+04 0.12111303D+01  1  2 12  3  6  1        3 0.865102428314D-05 0.100000000000D+01
-.105730837559D-06 0.000000000000D+00 -.187509880200D-07 0.186488554757D-05 0.000000000000D+00  6 21 22 9900012 13 4 -3 2 0.67878235D-01 0.10527540D-01 0.84271084D+04 0.84271084D+04 0.84271084D+04 0.12171127D+01  1  2  5  3  6  1        3 -.151048834856D-04 0.100000000000D+01
  </mgrwgt>
  </event>
  <event>
  6     66 0.10089070E-05 0.49628581E+02 0.78161638E-02 0.12116976E+00
        1 -1    0    0  501    0 0.00000000E+00 0.00000000E+00 0.94098466E+03 0.94098466E+03 0.00000000E+00 0.0000E+00 0.9000E+01
       22 -1    0    0    0    0 0.00000000E+00 0.00000000E+00 -.12600742E+02 0.12600742E+02 0.00000000E+00 0.0000E+00 0.9000E+01
      -24  2    1    2    0    0 0.33672749E+02 0.48505553E+02 0.19230862E+03 0.21514550E+03 0.76278035E+02 0.0000E+00 0.0000E+00
  9900012  1    3    3    0    0 0.97863623E+01 0.14400875E+02 0.12819394E+03 0.13869695E+03 0.50000000E+02 0.0000E+00 0.9000E+01
       13  1    3    3    0    0 0.23886387E+02 0.34104678E+02 0.64114676E+02 0.76448546E+02 0.00000000E+00 0.0000E+00 0.9000E+01
        2  1    1    2  501    0 -.33672749E+02 -.48505553E+02 0.73607530E+03 0.73843991E+03 0.00000000E+00 0.0000E+00 0.9000E+01
#aMCatNLO 1  0  0  5  1 0.65383449D+01 0.00000000D+00  -5  6  0 0.00000000D+00 0.00000000D+00 0.00000000D+00 0.00000000D+00 0.00000000D+00
  <mgrwgt>
 0.3364890691D-03    8    2    0
 0.108890335113491D+03 0.000000000000000D+00 0.000000000000000D+00 0.108890335113491D+03
 0.108890335113491D+03 -.000000000000000D+00 -.000000000000000D+00 -.108890335113491D+03
 0.608235614854263D+02 0.978636225536556D+01 0.144008750167029D+02 -.299390638519558D+02
 0.614250267516191D+02 0.238863868953364D+02 0.341046775875530D+02 -.451591120281664D+02
 0.955320819899373D+02 -.336727491507020D+02 -.485055526042559D+02 0.750981758801222D+02
 0.000000000000000D+00 -.000000000000000D+00 0.000000000000000D+00 0.000000000000000D+00
 0.108890335113491D+03 0.000000000000000D+00 0.000000000000000D+00 0.108890335113491D+03
 0.108890335113491D+03 -.000000000000000D+00 -.000000000000000D+00 -.108890335113491D+03
 0.606332820538483D+02 0.966701532031264D+01 0.142289559075604D+02 -.296728920262090D+02
 0.610845556009644D+02 0.237660055093039D+02 0.339312683530815D+02 -.448906331326505D+02
 0.725368368610839D+02 -.201198551734027D+02 -.351508972759047D+02 0.601763952917719D+02
 0.235259957110862D+02 -.133131656562139D+02 -.130093269847373D+02 0.143871298670875D+02
0.455611138356D-06 0.000000000000D+00 0.000000000000D+00 0.140563501382D-06 0.000000000000D+00  6 1 22 9900012 13 2 21 0 0.14476687D+00 0.19385757D-02 0.59005630D+04 0.59005630D+04 0.59005630D+04 0.12338308D+01  1  2  2  2  6  5        2 0.416175165925D-04 0.100000000000D+01
0.386526484522D-08 0.000000000000D+00 -.874833368228D-09 0.140563501382D-06 0.000000000000D+00  6 1 22 9900012 13 2 21 2 0.14476687D+00 0.19385757D-02 0.59005630D+04 0.59005630D+04 0.59005630D+04 0.12338308D+01  1  2  3  2  6  5        2 0.537492340528D-06 0.100000000000D+01
-.606405693288D-07 0.000000000000D+00 0.000000000000D+00 0.140563501382D-06 0.000000000000D+00  6 1 22 9900012 13 2 21 2 0.14476687D+00 0.19385757D-02 0.59005630D+04 0.59005630D+04 0.59005630D+04 0.12338308D+01  1  2 15  2  6  5        2 -.843249889584D-05 0.100000000000D+01
0.298091764860D-05 0.000000000000D+00 0.000000000000D+00 0.140563501382D-06 0.000000000000D+00  6 1 22 9900012 13 2 21 2 0.14476687D+00 0.19385757D-02 0.58843265D+04 0.58843265D+04 0.58843265D+04 0.12339628D+01  1  2 12  2  6  5        2 0.414529123197D-03 0.100000000000D+01
-.187368586051D-05 0.000000000000D+00 0.000000000000D+00 0.140563501382D-06 0.000000000000D+00  6 1 22 9900012 13 2 21 2 0.14476687D+00 0.19385757D-02 0.59005630D+04 0.59005630D+04 0.59005630D+04 0.12338308D+01  1  2  4  2  6  5        2 -.260549235021D-03 0.100000000000D+01
-.327443227478D-05 0.000000000000D+00 0.000000000000D+00 0.140563501382D-06 0.000000000000D+00  6 1 22 9900012 13 2 21 2 0.14476687D+00 0.19385757D-02 0.59005630D+04 0.59005630D+04 0.59005630D+04 0.12338308D+01  1  2  5  2  6  5        2 -.455332904146D-03 0.100000000000D+01
0.417625269313D-05 0.000000000000D+00 -.000000000000D+00 0.140563501382D-06 0.000000000000D+00  6 1 22 9900012 13 2 21 2 0.14476687D+00 0.19385757D-02 0.59005630D+04 0.59005630D+04 0.59005630D+04 0.12338308D+01  1  2  6  2  6  5        2 0.580737394344D-03 0.100000000000D+01
0.168143445841D-06 0.000000000000D+00 0.000000000000D+00 0.140563501382D-06 0.854635995632D-08  6 1 22 9900012 13 2 21 2 0.14476687D+00 0.19385757D-02 0.58843265D+04 0.58843265D+04 0.58843265D+04 0.12339628D+01  1  2 11  2  6  5        2 0.233821807215D-04 0.100000000000D+01
  </mgrwgt>
  </event>
  <event>
  6     66 -.10089070E-05 0.52674554E+02 0.78161638E-02 0.11356537E+00
        1 -1    0    0  501    0 0.00000000E+00 0.00000000E+00 0.35714553E+03 0.35714553E+03 0.00000000E+00 0.0000E+00 0.9000E+01
       22 -1    0    0    0    0 -.00000000E+00 -.00000000E+00 -.67034101E+03 0.67034101E+03 0.00000000E+00 0.0000E+00 0.9000E+01
      -24  2    1    2    0    0 -.28968900E+02 -.43993312E+02 -.66488606E+03 0.67187317E+03 0.81027602E+02 0.0000E+00 0.0000E+00
  9900012  1    3    3    0    0 -.38557792E+02 -.15432172E+02 -.39521053E+03 0.40051993E+03 0.50000000E+02 0.0000E+00 0.9000E+01
       13  1    3    3    0    0 0.95888916E+01 -.28561140E+02 -.26967553E+03 0.27135324E+03 0.00000000E+00 0.0000E+00 0.9000E+01
        2  1    1    2  501    0 0.28968900E+02 0.43993312E+02 0.35169058E+03 0.35561338E+03 0.00000000E+00 0.0000E+00 0.9000E+01
#aMCatNLO 1  0  0  5  1 0.64714082D+02 0.00000000D+00  -5  6  0 0.00000000D+00 0.00000000D+00 0.00000000D+00 0.00000000D+00 0.00000000D+00
  <mgrwgt>
 -.1968620510D-03    4    2    0
 0.489294694897087D+03 0.000000000000000D+00 0.000000000000000D+00 0.489294694897087D+03
 0.489294694897087D+03 -.000000000000000D+00 -.000000000000000D+00 -.489294694897087D+03
 0.294046405071471D+03 -.385577918857828D+02 -.154321721600699D+02 -.286772441288855D+03
 0.198602849116661D+03 0.958889159070545D+01 -.285611397059516D+02 -.196304371153609D+03
 0.485940135606042D+03 0.289689002950774D+02 0.439933118660216D+02 0.483076812442464D+03
 0.000000000000000D+00 0.000000000000000D+00 0.000000000000000D+00 0.000000000000000D+00
 0.489294694897087D+03 0.000000000000000D+00 0.000000000000000D+00 0.489294694897087D+03
 0.489294694897087D+03 -.000000000000000D+00 -.000000000000000D+00 -.489294694897087D+03
 0.288708811684308D+03 -.382336808609244D+02 -.149399644044916D+02 -.281367661708987D+03
 0.194958263121554D+03 0.980777851228818D+01 -.282287294140007D+02 -.192654277595121D+03
 0.193753349544863D+03 -.484732973070945D+02 -.824352439599406D+01 0.187410629937484D+03
 0.301168965443448D+03 0.768991996557307D+02 0.514122182144864D+02 0.286611309366625D+03
0.371185833661D-03 0.000000000000D+00 0.000000000000D+00 0.472359329795D-03 0.000000000000D+00  6 1 22 9900012 13 2 21 0 0.54945467D-01 0.10312939D+00 0.54613032D+04 0.54613032D+04 0.54613032D+04 0.12375538D+01  1  2  2  2  6  5        2 0.331496221488D-03 0.100000000000D+01
0.160390671306D-04 0.000000000000D+00 -.712725668367D-06 0.472359329795D-03 0.000000000000D+00  6 1 22 9900012 13 2 21 2 0.54945467D-01 0.10312939D+00 0.54613032D+04 0.54613032D+04 0.54613032D+04 0.12375538D+01  1  2  3  2  6  5        2 0.219378718772D-04 0.100000000000D+01
-.544314850396D-04 0.000000000000D+00 0.000000000000D+00 0.472359329795D-03 0.000000000000D+00  6 1 22 9900012 13 2 21 2 0.54945467D-01 0.10312939D+00 0.54613032D+04 0.54613032D+04 0.54613032D+04 0.12375538D+01  1  2 15  2  6  5        2 -.744501494483D-04 0.100000000000D+01
-.347897275465D-03 0.000000000000D+00 0.000000000000D+00 0.472359329795D-03 0.000000000000D+00  6 1 22 9900012 13 2 21 2 0.54945467D-01 0.10312939D+00 0.54613032D+04 0.54613032D+04 0.54613032D+04 0.12375538D+01  1  2  5  2  6  5        2 -.475845994872D-03 0.100000000000D+01
  </mgrwgt>
  </event>
  <event>
  6     66 0.10089070E-05 0.18168077E+02 0.78161638E-02 0.90454310E-01
        3 -1    0    0  501    0 0.00000000E+00 0.00000000E+00 0.20693591E+03 0.20693591E+03 0.00000000E+00 0.0000E+00 0.9000E+01
       22 -1    0    0    0    0 0.00000000E+00 0.00000000E+00 -.22429399E+04 0.22429399E+04 0.00000000E+00 0.0000E+00 0.9000E+01
      -24  2    1    2    0    0 0.17211613E+02 0.58171624E+01 -.22417876E+04 0.22432917E+04 0.80097407E+02 0.0000E+00 0.0000E+00
  9900012  1    3    3    0    0 -.81340585E+01 -.10647636E+02 -.13503298E+04 0.13513216E+04 0.50000000E+02 0.0000E+00 0.9000E+01
       13  1    3    3    0    0 0.25345672E+02 0.16464799E+02 -.89145783E+03 0.89197004E+03 0.00000000E+00 0.0000E+00 0.9000E+01
        4  1    1    2  501    0 -.17211613E+02 -.58171624E+01 0.20578367E+03 0.20658412E+03 0.00000000E+00 0.0000E+00 0.9000E+01
#aMCatNLO 1  0  0  1  5 0.15042793D+02 0.00000000D+00  -5  6  0 0.00000000D+00 0.00000000D+00 0.00000000D+00 0.00000000D+00 0.00000000D+00
  <mgrwgt>
 0.1657396428D-02    5    2    0
 0.681281737270725D+03 0.000000000000000D+00 0.000000000000000D+00 0.681281737270725D+03
 0.681281737270725D+03 0.000000000000000D+00 0.000000000000000D+00 -.681281737270725D+03
 0.411939178061489D+03 -.813405850071914D+01 -.106476361723789D+02 -.408673893658774D+03
 0.271696796170989D+03 0.253456719969970D+02 0.164647985351503D+02 -.270010474555706D+03
 0.678927500308971D+03 -.172116134962779D+02 -.581716236277140D+01 0.678684368214480D+03
 0.000000000000000D+00 -.000000000000000D+00 -.000000000000000D+00 0.000000000000000D+00
 0.112072048968012D+04 0.000000000000000D+00 0.000000000000000D+00 0.112072048968012D+04
 0.109580524512069D+04 0.000000000000000D+00 0.000000000000000D+00 -.109580524512069D+04
 0.455098888687868D+03 0.690527048437834D+02 0.181197050418782D+03 -.408673893658774D+03
 0.316981533417634D+03 0.777518772774041D+02 0.146718375597050D+03 -.270010474555706D+03
 0.754846308205071D+03 0.110427949161253D+03 0.311425987027700D+03 0.678684368214480D+03
 0.689599004490239D+03 -.257232531282441D+03 -.639341413043532D+03 0.249152445594225D+02
0.272059591212D-01 0.000000000000D+00 0.000000000000D+00 0.669974301458D-02 0.000000000000D+00  6 3 22 9900012 13 4 21 0 0.31836294D-01 0.34506767D+00 0.25078233D+04 0.25078233D+04 0.25078233D+04 0.12770708D+01  1  2  2  1  6  1        3 0.866683415748D-03 0.100000000000D+01
0.453027466360D-02 0.000000000000D+00 -.522390232595D-04 0.669974301458D-02 0.000000000000D+00  6 3 22 9900012 13 4 21 2 0.31836294D-01 0.34506767D+00 0.25078233D+04 0.25078233D+04 0.25078233D+04 0.12770708D+01  1  2  3  1  6  1        3 0.235369907560D-03 0.100000000000D+01
-.396752728331D-02 0.000000000000D+00 0.000000000000D+00 0.669974301458D-02 0.000000000000D+00  6 3 22 9900012 13 4 21 2 0.31836294D-01 0.34506767D+00 0.25078233D+04 0.25078233D+04 0.25078233D+04 0.12770708D+01  1  2 15  1  6  1        3 -.206132431090D-03 0.100000000000D+01
0.458363357711D-01 0.000000000000D+00 -.807452931924D-02 0.669974301458D-02 0.000000000000D+00  6 3 22 9900012 13 4 21 2 0.99517532D-01 0.34506767D+00 0.25078233D+04 0.25078233D+04 0.25078233D+04 0.12770708D+01  1  2  5  1  6  1        3 0.246987973698D-03 0.100000000000D+01
0.636030485840D-02 0.000000000000D+00 -.105523236512D-02 0.669974301458D-02 0.000000000000D+00  6 21 22 9900012 13 4 -3 2 0.99517532D-01 0.34506767D+00 0.25078233D+04 0.25078233D+04 0.25078233D+04 0.12770708D+01  1  2  5  3  6  1        3 0.514487561780D-03 0.100000000000D+01
  </mgrwgt>
  </event>
  <event>
  6     66 0.10089070E-05 0.41763498E+02 0.78161638E-02 0.11972103E+00
        1 -1    0    0  501    0 0.00000000E+00 0.00000000E+00 0.85723287E+03 0.85723287E+03 0.00000000E+00 0.0000E+00 0.9000E+01
       22 -1    0    0    0    0 0.00000000E+00 0.00000000E+00 -.92982877E+01 0.92982877E+01 0.00000000E+00 0.0000E+00 0.9000E+01
      -24  2    1    2    0    0 -.28960905E+02 0.30090792E+02 0.24185031E+03 0.25900969E+03 0.82766278E+02 0.0000E+00 0.0000E+00
  9900012  1    3    3    0    0 -.46650721E+02 0.25541887E+02 0.20957762E+03 0.22192669E+03 0.50000000E+02 0.0000E+00 0.9000E+01
       13  1    3    3    0    0 0.17689816E+02 0.45489044E+01 0.32272686E+02 0.37082993E+02 0.00000000E+00 0.0000E+00 0.9000E+01
        2  1    1    2  501    0 0.28960905E+02 -.30090792E+02 0.60608428E+03 0.60752147E+03 0.00000000E+00 0.0000E+00 0.9000E+01
#aMCatNLO 1  0  0  1  1 0.11712465D+03 0.00000000D+00  -5  6  0 0.00000000D+00 0.00000000D+00 0.00000000D+00 0.00000000D+00 0.00000000D+00
  <mgrwgt>
 0.1216504227D-03    4    2    0
 0.892793250088369D+02 0.000000000000000D+00 0.000000000000000D+00 0.892793250088369D+02
 0.892793250088369D+02 0.000000000000000D+00 0.000000000000000D+00 -.892793250088369D+02
 0.817562274222434D+02 -.466507211947510D+02 0.255418872035971D+02 -.368157973213389D+02
 0.267051891189888D+02 0.176898161112572D+02 0.454890437087738D+01 -.194819147122524D+02
 0.700972334764417D+02 0.289609050834938D+02 -.300907915744745D+02 0.562977120335913D+02
 0.000000000000000D+00 -.000000000000000D+00 0.000000000000000D+00 -.000000000000000D+00
 0.927384392641778D+02 0.000000000000000D+00 0.000000000000000D+00 0.927384392641778D+02
 0.166668870615573D+03 0.000000000000000D+00 0.000000000000000D+00 -.166668870615573D+03
 0.752404567313539D+02 -.348070195591996D+02 0.243761109724732D+02 -.368157973213389D+02
 0.296303598466181D+02 0.219397239167677D+02 0.413058570188452D+01 -.194819147122524D+02
 0.757517635621545D+02 0.399636343072497D+02 -.311737908428828D+02 0.562977120335913D+02
 0.787847297396245D+02 -.270963386648178D+02 0.266709416852508D+01 -.739304313513954D+02
0.957162586075D-06 0.000000000000D+00 0.000000000000D+00 0.825117532523D-07 0.000000000000D+00  6 1 22 9900012 13 2 21 0 0.13188198D+00 0.14305058D-02 0.44240202D+04 0.44240202D+04 0.44240202D+04 0.12478765D+01  1  2  2  1  6  1        1 0.148820975046D-03 0.100000000000D+01
0.217475196482D-07 0.000000000000D+00 -.183787817861D-08 0.825117532523D-07 0.000000000000D+00  6 1 22 9900012 13 2 21 2 0.13188198D+00 0.14305058D-02 0.44240202D+04 0.44240202D+04 0.44240202D+04 0.12478765D+01  1  2  3  1  6  1        1 0.526540027689D-05 0.100000000000D+01
-.128588195034D-06 0.000000000000D+00 0.000000000000D+00 0.825117532523D-07 0.000000000000D+00  6 1 22 9900012 13 2 21 2 0.13188198D+00 0.14305058D-02 0.44240202D+04 0.44240202D+04 0.44240202D+04 0.12478765D+01  1  2 15  1  6  1        1 -.311331282230D-04 0.100000000000D+01
-.538101508604D-08 0.000000000000D+00 0.000000000000D+00 0.825117532523D-07 0.000000000000D+00  6 1 22 9900012 13 2 21 2 0.13188198D+00 0.14305058D-02 0.44240202D+04 0.44240202D+04 0.44240202D+04 0.12478765D+01  1  2  4  1  6  1        1 -.130282435801D-05 0.100000000000D+01
  </mgrwgt>
  </event>
  <event>
  6     66 0.10089070E-05 0.36485772E+02 0.78161638E-02 0.11616659E+00
        3 -1    0    0  501    0 0.00000000E+00 0.00000000E+00 0.24050308E+02 0.24050308E+02 0.00000000E+00 0.0000E+00 0.9000E+01
       22 -1    0    0    0    0 0.00000000E+00 0.00000000E+00 -.50110745E+03 0.50110745E+03 0.00000000E+00 0.0000E+00 0.9000E+01
      -24  2    1    2    0    0 -.70156877E+01 -.35804912E+02 -.48058752E+03 0.48850159E+03 0.79612941E+02 0.0000E+00 0.0000E+00
  9900012  1    3    3    0    0 0.15325127E+02 -.21372679E+02 -.39064447E+03 0.39470844E+03 0.50000000E+02 0.0000E+00 0.9000E+01
       13  1    3    3    0    0 -.22340815E+02 -.14432233E+02 -.89943055E+02 0.93793148E+02 0.00000000E+00 0.0000E+00 0.9000E+01
        4  1    1    2  501    0 0.70156877E+01 0.35804912E+02 0.35303775E+01 0.36656175E+02 0.00000000E+00 0.0000E+00 0.9000E+01
#aMCatNLO 1  0  0  1  5 0.78640826D+02 0.00000000D+00  -5  6  0 0.00000000D+00 0.00000000D+00 0.00000000D+00 0.00000000D+00 0.00000000D+00
  <mgrwgt>
 0.2023663630D-04    5    2    0
 0.109780637420504D+03 0.000000000000000D+00 0.000000000000000D+00 0.109780637420504D+03
 0.109780637420504D+03 0.000000000000000D+00 0.000000000000000D+00 -.109780637420504D+03
 0.953012535828810D+02 0.153251269339563D+02 -.213726788238559D+02 -.767507525619067D+02
 0.289132141420411D+02 -.223408146251053D+02 -.144322330341553D+02 -.113389860021980D+02
 0.953468071160855D+02 0.701568769114902D+01 0.358049118580112D+02 0.880897385641047D+02
 0.000000000000000D+00 0.000000000000000D+00 0.000000000000000D+00 0.000000000000000D+00
 0.249360670954736D+03 0.000000000000000D+00 0.000000000000000D+00 0.249360670954736D+03
 0.125813091730919D+03 0.000000000000000D+00 0.000000000000000D+00 -.125813091730919D+03
 0.997979800380650D+02 -.118159286503041D+02 -.378066479734704D+02 -.767507525619067D+02
 0.393662876235785D+02 -.318394565125808D+02 -.201836816930842D+02 -.113389860021980D+02
 0.923264688467503D+02 -.190923124278259D+02 0.199964600761216D+02 0.880897385641047D+02
 0.143683026177261D+03 0.627476975907108D+02 0.379938695904330D+02 0.123547579223817D+03
0.125096871396D-05 0.000000000000D+00 0.000000000000D+00 0.295950466704D-05 0.000000000000D+00  6 3 22 9900012 13 4 21 0 0.37000473D-02 0.77093454D-01 0.35746939D+04 0.35746939D+04 0.35746939D+04 0.12585928D+01  1  2  2  1  6  1        3 0.469422420379D-04 0.100000000000D+01
0.539260399318D-07 0.000000000000D+00 -.240202462461D-08 0.295950466704D-05 0.000000000000D+00  6 3 22 9900012 13 4 21 2 0.37000473D-02 0.77093454D-01 0.35746939D+04 0.35746939D+04 0.35746939D+04 0.12585928D+01  1  2  3  1  6  1        3 0.320543074017D-05 0.100000000000D+01
-.192045953629D-06 0.000000000000D+00 0.000000000000D+00 0.295950466704D-05 0.000000000000D+00  6 3 22 9900012 13 4 21 2 0.37000473D-02 0.77093454D-01 0.35746939D+04 0.35746939D+04 0.35746939D+04 0.12585928D+01  1  2 15  1  6  1        3 -.114154498284D-04 0.100000000000D+01
-.597447121111D-06 0.000000000000D+00 -.365590775572D-06 0.295950466704D-05 0.000000000000D+00  6 3 22 9900012 13 4 21 2 0.95886544D-02 0.77093454D-01 0.35746939D+04 0.35746939D+04 0.35746939D+04 0.12585928D+01  1  2  5  1  6  1        3 -.836858477098D-05 0.100000000000D+01
-.409205940238D-07 0.000000000000D+00 -.385499503881D-07 0.295950466704D-05 0.000000000000D+00  6 21 22 9900012 13 4 -3 2 0.95886544D-02 0.77093454D-01 0.35746939D+04 0.35746939D+04 0.35746939D+04 0.12585928D+01  1  2  5  3  6  1        3 -.101270018751D-04 0.100000000000D+01
  </mgrwgt>
  </event>
  <event>
  6     66 -.10089070E-05 0.15011650E+02 0.78161638E-02 0.13257879E+00
        1 -1    0    0  501    0 0.00000000E+00 0.00000000E+00 0.61346453E+01 0.61346453E+01 0.00000000E+00 0.0000E+00 0.9000E+01
       22 -1    0    0    0    0 -.00000000E+00 -.00000000E+00 -.40201798E+03 0.40201798E+03 0.00000000E+00 0.0000E+00 0.9000E+01
      -24  2    1    2    0    0 -.15007648E+02 -.34661537E+00 -.35924726E+03 0.36856030E+03 0.80949103E+02 0.0000E+00 0.0000E+00
  9900012  1    3    3    0    0 0.49752242E+01 0.92665202E+01 -.31446147E+03 0.31858537E+03 0.50000000E+02 0.0000E+00 0.9000E+01
       13  1    3    3    0    0 -.19982872E+02 -.96131355E+01 -.44785789E+02 0.49974938E+02 0.00000000E+00 0.0000E+00 0.9000E+01
        2  1    1    2  501    0 0.15007648E+02 0.34661537E+00 -.36636080E+02 0.39592323E+02 0.00000000E+00 0.0000E+00 0.9000E+01
#aMCatNLO 1  0  0  5  1 0.56649824D+00 0.00000000D+00  -5  6  0 0.00000000D+00 0.00000000D+00 0.00000000D+00 0.00000000D+00 0.00000000D+00
  <mgrwgt>
 -.3169392517D-02    7    2    0
 0.496612293998480D+02 0.000000000000000D+00 0.000000000000000D+00 0.496612293998480D+02
 0.496612293998480D+02 -.000000000000000D+00 -.000000000000000D+00 -.496612293998480D+02
 0.557920071842491D+02 0.497522415957021D+01 0.926652016295782D+01 -.224081863228337D+02
 0.268565109019521D+02 -.199828719094182D+02 -.961313553673314D+01 0.151507304520560D+02
 0.166739407134948D+02 0.150076477498480D+02 0.346615373775322D+00 0.725745587077771D+01
 0.000000000000000D+00 0.000000000000000D+00 0.000000000000000D+00 0.000000000000000D+00
 0.496612293998480D+02 0.000000000000000D+00 0.000000000000000D+00 0.496612293998480D+02
 0.496612293998480D+02 -.000000000000000D+00 -.000000000000000D+00 -.496612293998480D+02
 0.557776652114575D+02 0.511916850716944D+01 0.926984468953771D+01 -.223385771630265D+02
 0.268233908240326D+02 -.199136154684229D+02 -.961153599578029D+01 0.151842217474721D+02
 0.161314106113371D+02 0.147014371877214D+02 0.564449090069043D+00 0.661600711545580D+01
 0.589992152868880D+00 0.930097735320245D-01 -.222757783826465D+00 0.538348300098644D+00
0.327920622333D-06 0.000000000000D+00 0.000000000000D+00 0.165601474831D-06 0.000000000000D+00  6 1 22 9900012 13 2 21 0 0.94379158D-03 0.61848920D-01 0.19483758D+04 0.19483758D+04 0.19483758D+04 0.12907495D+01  1  2  2  2  6  5        2 0.128571776029D-03 0.100000000000D+01
0.115812730439D-07 0.000000000000D+00 -.629650766621D-09 0.165601474831D-06 0.000000000000D+00  6 1 22 9900012 13 2 21 2 0.94379158D-03 0.61848920D-01 0.19483758D+04 0.19483758D+04 0.19483758D+04 0.12907495D+01  1  2  3  2  6  5        2 0.756514301852D-05 0.100000000000D+01
-.350668683166D-07 0.000000000000D+00 0.000000000000D+00 0.165601474831D-06 0.000000000000D+00  6 1 22 9900012 13 2 21 2 0.94379158D-03 0.61848920D-01 0.19483758D+04 0.19483758D+04 0.19483758D+04 0.12907495D+01  1  2 15  2  6  5        2 -.229064519090D-04 0.100000000000D+01
0.122089053105D-15 0.000000000000D+00 0.000000000000D+00 0.165601474831D-06 0.000000000000D+00  6 1 22 9900012 13 2 21 2 0.94379158D-03 0.61848920D-01 0.19436887D+04 0.19436887D+04 0.19436887D+04 0.12908823D+01  1  2 12  2  6  5        2 0.797393058315D-13 0.100000000000D+01
-.516502380280D-05 0.000000000000D+00 0.000000000000D+00 0.165601474831D-06 0.000000000000D+00  6 1 22 9900012 13 2 21 2 0.94379158D-03 0.61848920D-01 0.19483758D+04 0.19483758D+04 0.19483758D+04 0.12907495D+01  1  2  4  2  6  5        2 -.337390748098D-02 0.100000000000D+01
-.276131489841D-05 0.000000000000D+00 0.000000000000D+00 0.165601474831D-06 0.000000000000D+00  6 1 22 9900012 13 2 21 2 0.94379158D-03 0.61848920D-01 0.19483758D+04 0.19483758D+04 0.19483758D+04 0.12907495D+01  1  2  5  2  6  5        2 -.180375180227D-02 0.100000000000D+01
0.290105986759D-05 0.000000000000D+00 -.000000000000D+00 0.165601474831D-06 0.000000000000D+00  6 1 22 9900012 13 2 21 2 0.94379158D-03 0.61848920D-01 0.19483758D+04 0.19483758D+04 0.19483758D+04 0.12907495D+01  1  2  6  2  6  5        2 0.189503629871D-02 0.100000000000D+01
  </mgrwgt>
  </event>
  <event>
  6     66 0.10089070E-05 0.97244402E+02 0.78161638E-02 0.10434371E+00
        1 -1    0    0  501    0 0.00000000E+00 0.00000000E+00 0.12332411E+04 0.12332411E+04 0.00000000E+00 0.0000E+00 0.9000E+01
       22 -1    0    0    0    0 0.00000000E+00 0.00000000E+00 -.83155467E+03 0.83155467E+03 0.00000000E+00 0.0000E+00 0.9000E+01
      -24  2    1    2    0    0 0.28014280E+02 -.16804124E+03 -.81504280E+03 0.83619791E+03 0.76873399E+02 0.0000E+00 0.0000E+00
  9900012  1    3    3    0    0 0.24668382E+01 -.10567996E+03 -.44740427E+03 0.46243370E+03 0.50000000E+02 0.0000E+00 0.9000E+01
       13  1    3    3    0    0 0.25547442E+02 -.62361281E+02 -.36763853E+03 0.37376422E+03 0.00000000E+00 0.0000E+00 0.9000E+01
        2  1    1    2  501    0 -.28014280E+02 0.16804124E+03 0.12167292E+04 0.12285978E+04 0.00000000E+00 0.0000E+00 0.9000E+01
#aMCatNLO 1  0  0  5  1 0.56272411D+02 0.00000000D+00  -5  6  0 0.00000000D+00 0.00000000D+00 0.00000000D+00 0.00000000D+00 0.00000000D+00
  <mgrwgt>
 0.3623490174D-03    7    2    0
 0.101267338635541D+04 0.000000000000000D+00 0.000000000000000D+00 0.101267338635541D+04
 0.101267338635541D+04 -.000000000000000D+00 -.000000000000000D+00 -.101267338635541D+04
 0.560174373512857D+03 0.246683818046469D+01 -.105679958439012D+03 -.547832994473901D+03
 0.453957903617705D+03 0.255474422030335D+02 -.623612813591494D+02 -.448927808273345D+03
 0.101121449558026D+04 -.280142803834982D+02 0.168041239798162D+03 0.996760802747246D+03
 0.000000000000000D+00 0.000000000000000D+00 0.000000000000000D+00 0.000000000000000D+00
 0.101267338635541D+04 0.000000000000000D+00 0.000000000000000D+00 0.101267338635541D+04
 0.101267338635541D+04 -.000000000000000D+00 -.000000000000000D+00 -.101267338635541D+04
 0.553634264129192D+03 0.228481792058372D+01 -.104588125640880D+03 -.541356631066684D+03
 0.448638019100481D+03 0.253999386383561D+02 -.614764939741542D+02 -.443679564537535D+03
 0.950489940230393D+03 -.133407963497061D+02 0.207791681587205D+03 0.927402699314108D+03
 0.725845492507574D+02 -.143439602092338D+02 -.417270619721703D+02 0.576334962901107D+02
0.536549187300D-03 0.000000000000D+00 0.000000000000D+00 0.120551616870D-03 0.000000000000D+00  6 1 22 9900012 13 2 21 0 0.18972940D+00 0.12793149D+00 0.31451091D+05 0.31451091D+05 0.31451091D+05 0.11609084D+01  1  2  2  2  6  5        2 0.505078734798D-04 0.100000000000D+01
0.464892777108D-05 0.000000000000D+00 -.103024507794D-05 0.120551616870D-03 0.000000000000D+00  6 1 22 9900012 13 2 21 2 0.18972940D+00 0.12793149D+00 0.31451091D+05 0.31451091D+05 0.31451091D+05 0.11609084D+01  1  2  3  2  6  5        2 0.589791155934D-06 0.100000000000D+01
-.757751914444D-04 0.000000000000D+00 0.000000000000D+00 0.120551616870D-03 0.000000000000D+00  6 1 22 9900012 13 2 21 2 0.18972940D+00 0.12793149D+00 0.31451091D+05 0.31451091D+05 0.31451091D+05 0.11609084D+01  1  2 15  2  6  5        2 -.961330008848D-05 0.100000000000D+01
0.243192604239D-02 0.000000000000D+00 0.000000000000D+00 0.120551616870D-03 0.000000000000D+00  6 1 22 9900012 13 2 21 2 0.18972940D+00 0.12793149D+00 0.47264501D+05 0.47264501D+05 0.47264501D+05 0.11450859D+01  1  2 12  2  6  5        2 0.299863644823D-03 0.100000000000D+01
-.616266056096D-04 0.000000000000D+00 0.000000000000D+00 0.120551616870D-03 0.000000000000D+00  6 1 22 9900012 13 2 21 2 0.18972940D+00 0.12793149D+00 0.31451091D+05 0.31451091D+05 0.31451091D+05 0.11609084D+01  1  2  4  2  6  5        2 -.781832472960D-05 0.100000000000D+01
-.305538302321D-02 0.000000000000D+00 0.000000000000D+00 0.120551616870D-03 0.000000000000D+00  6 1 22 9900012 13 2 21 2 0.18972940D+00 0.12793149D+00 0.31451091D+05 0.31451091D+05 0.31451091D+05 0.11609084D+01  1  2  5  2  6  5        2 -.387624410147D-03 0.100000000000D+01
0.328254647767D-02 0.000000000000D+00 -.000000000000D+00 0.120551616870D-03 0.000000000000D+00  6 1 22 9900012 13 2 21 2 0.18972940D+00 0.12793149D+00 0.31451091D+05 0.31451091D+05 0.31451091D+05 0.11609084D+01  1  2  6  2  6  5        2 0.416443742902D-03 0.100000000000D+01
  </mgrwgt>
  </event>
  <event>
  6     66 0.10089070E-05 0.32965146E+02 0.78161638E-02 0.11227878E+00
        1 -1    0    0  501    0 0.00000000E+00 0.00000000E+00 0.62020595E+02 0.62020595E+02 0.00000000E+00 0.0000E+00 0.9000E+01
       22 -1    0    0    0    0 0.00000000E+00 0.00000000E+00 -.66587925E+02 0.66587925E+02 0.00000000E+00 0.0000E+00 0.9000E+01
      -24  2    1    2    0    0 0.26956947E+02 -.18974296E+02 -.25720620E+02 0.89440133E+02 0.79065076E+02 0.0000E+00 0.0000E+00
  9900012  1    3    3    0    0 0.86216761E+01 -.32871777E+02 -.92825845E+01 0.61164151E+02 0.50000000E+02 0.0000E+00 0.9000E+01
       13  1    3    3    0    0 0.18335271E+02 0.13897482E+02 -.16438035E+02 0.28275982E+02 0.00000000E+00 0.0000E+00 0.9000E+01
        2  1    1    2  501    0 -.26956947E+02 0.18974296E+02 0.21153290E+02 0.39168387E+02 0.00000000E+00 0.0000E+00 0.9000E+01
#aMCatNLO 1  0  0  1  1 0.16059889D+03 0.00000000D+00  -5  6  0 0.00000000D+00 0.00000000D+00 0.00000000D+00 0.00000000D+00 0.00000000D+00
  <mgrwgt>
 0.8472150710D-04    3    2    0
 0.642636970217421D+02 0.000000000000000D+00 0.000000000000000D+00 0.642636970217421D+02
 0.642636970217421D+02 0.000000000000000D+00 0.000000000000000D+00 -.642636970217421D+02
 0.608728937067698D+02 0.862167611832091D+01 -.328717774020644D+02 -.711492372240233D+01
 0.277096901029325D+02 0.183352707404051D+02 0.138974817046617D+02 -.154435997987903D+02
 0.399448102337820D+02 -.269569468587260D+02 0.189742956974027D+02 0.225585235211926D+02
 0.000000000000000D+00 -.000000000000000D+00 0.000000000000000D+00 -.000000000000000D+00
 0.127415062264353D+03 0.000000000000000D+00 0.000000000000000D+00 0.127415062264353D+03
 0.148271003381357D+03 0.000000000000000D+00 0.000000000000000D+00 -.148271003381357D+03
 0.100127439639043D+03 0.570609962376835D+02 -.649532503994810D+02 -.711492372240233D+01
 0.423242465148915D+02 0.394060114311302D+02 -.577182617981258D-01 -.154435997987903D+02
 0.245627897414251D+02 -.754888589142799D+01 0.612029233153588D+01 0.225585235211926D+02
 0.108671589750351D+03 -.889181217773857D+02 0.588906763297432D+02 -.208559411170044D+02
0.341157317666D-06 0.000000000000D+00 0.000000000000D+00 0.122592405784D-06 0.000000000000D+00  6 1 22 9900012 13 2 21 0 0.95416301D-02 0.10244296D-01 0.33888588D+04 0.33888588D+04 0.33888588D+04 0.12613216D+01  1  2  2  1  6  1        1 0.103428522070D-03 0.100000000000D+01
0.254031834109D-08 0.000000000000D+00 -.655066964312D-09 0.122592405784D-06 0.000000000000D+00  6 1 22 9900012 13 2 21 2 0.95416301D-02 0.10244296D-01 0.33888588D+04 0.33888588D+04 0.33888588D+04 0.12613216D+01  1  2  3  1  6  1        1 0.122525203239D-05 0.100000000000D+01
-.413256228953D-07 0.000000000000D+00 0.000000000000D+00 0.122592405784D-06 0.000000000000D+00  6 1 22 9900012 13 2 21 2 0.95416301D-02 0.10244296D-01 0.33888588D+04 0.33888588D+04 0.33888588D+04 0.12613216D+01  1  2 15  1  6  1        1 -.199322670011D-04 0.100000000000D+01
  </mgrwgt>
  </event>
  <event>
  6     66 -.10089070E-05 0.36999516E+02 0.78161638E-02 0.12310446E+00
        1 -1    0    0  501    0 0.00000000E+00 0.00000000E+00 0.46949093E+03 0.46949093E+03 0.00000000E+00 0.0000E+00 0.9000E+01
       22 -1    0    0    0    0 0.00000000E+00 0.00000000E+00 -.30134642E+03 0.30134642E+03 0.00000000E+00 0.0000E+00 0.9000E+01
      -24  2    1    2    0    0 0.45211623E+02 -.25337567E+02 -.29217879E+03 0.30760564E+03 0.81035169E+02 0.0000E+00 0.0000E+00
  9900012  1    3    3    0    0 0.24686772E+02 -.93952802E+01 -.11101767E+03 0.12458986E+03 0.50000000E+02 0.0000E+00 0.9000E+01
       13  1    3    3    0    0 0.20524852E+02 -.15942287E+02 -.18116112E+03 0.18301578E+03 0.00000000E+00 0.0000E+00 0.9000E+01
        2  1    1    2  501    0 -.45211623E+02 0.25337567E+02 0.46032329E+03 0.46323171E+03 0.00000000E+00 0.0000E+00 0.9000E+01
#aMCatNLO 1  0  0  1  5 0.47864835D+01 0.00000000D+00  -5  6  0 0.00000000D+00 0.00000000D+00 0.00000000D+00 0.00000000D+00 0.00000000D+00
  <mgrwgt>
 -.3199691907D-02   11    2    0
 0.376137490032595D+03 0.000000000000000D+00 0.000000000000000D+00 0.376137490032595D+03
 0.376137490032595D+03 0.000000000000000D+00 0.000000000000000D+00 -.376137490032595D+03
 0.152478187698676D+03 0.246867718241944D+02 -.939528018864081D+01 -.141604695299802D+03
 0.228023862307693D+03 0.205248515238131D+02 -.159422869798976D+02 -.226537978576427D+03
 0.371772930058822D+03 -.452116233480075D+02 0.253375671685384D+02 0.368142673876229D+03
 0.000000000000000D+00 -.000000000000000D+00 0.000000000000000D+00 0.000000000000000D+00
 0.460337457764442D+03 0.000000000000000D+00 0.000000000000000D+00 0.460337457764442D+03
 0.376213059022269D+03 0.000000000000000D+00 0.000000000000000D+00 -.376213059022269D+03
 0.152646494696343D+03 0.256409307137852D+02 -.957106494919982D+01 -.141604695299802D+03
 0.228175210765452D+03 0.219514368710854D+02 -.162051069005869D+02 -.226537978576427D+03
 0.371468486850270D+03 -.428874245991899D+02 0.249093798666021D+02 0.368142673876229D+03
 0.842603244746460D+02 -.470494298568069D+01 0.866791983184668D+00 0.841243987421723D+02
0.631037173689D-05 0.000000000000D+00 0.000000000000D+00 0.230956721701D-03 0.000000000000D+00  6 1 22 9900012 13 2 21 0 0.72229373D-01 0.46360988D-01 0.45134666D+04 0.45134666D+04 0.45134666D+04 0.12468843D+01  1  2  2  1  6  1        1 0.162639788205D-04 0.100000000000D+01
0.201286317680D-06 0.000000000000D+00 -.121167445143D-07 0.230956721701D-03 0.000000000000D+00  6 1 22 9900012 13 2 21 2 0.72229373D-01 0.46360988D-01 0.45134666D+04 0.45134666D+04 0.45134666D+04 0.12468843D+01  1  2  3  1  6  1        1 0.806563206658D-06 0.100000000000D+01
-.945567185181D-06 0.000000000000D+00 0.000000000000D+00 0.230956721701D-03 0.000000000000D+00  6 1 22 9900012 13 2 21 2 0.72229373D-01 0.46360988D-01 0.45134666D+04 0.45134666D+04 0.45134666D+04 0.12468843D+01  1  2 15  1  6  1        1 -.378892966885D-05 0.100000000000D+01
0.627941018582D-03 0.000000000000D+00 0.000000000000D+00 0.230956721701D-03 0.000000000000D+00  6 1 22 9900012 13 2 21 2 0.88415984D-01 0.46360988D-01 0.48070734D+04 0.48070734D+04 0.48070734D+04 0.12437750D+01  1  2 12  1  6  1        1 0.192191152978D-02 0.100000000000D+01
-.386531880170D-02 0.000000000000D+00 0.000000000000D+00 0.230956721701D-03 0.000000000000D+00  6 1 22 9900012 13 2 21 2 0.72229373D-01 0.46360988D-01 0.45134666D+04 0.45134666D+04 0.45134666D+04 0.12468843D+01  1  2  4  1  6  1        1 -.154885039549D-01 0.100000000000D+01
-.199824636981D-02 0.000000000000D+00 -.395110345890D-05 0.230956721701D-03 0.000000000000D+00  6 1 22 9900012 13 2 21 2 0.88405534D-01 0.46360988D-01 0.45134666D+04 0.45134666D+04 0.45134666D+04 0.12468843D+01  1  2  5  1  6  1        1 -.613367989161D-02 0.100000000000D+01
0.195898587516D-02 0.000000000000D+00 0.387177344221D-05 0.230956721701D-03 0.000000000000D+00  6 1 22 9900012 13 2 21 2 0.72229373D-01 0.46360988D-01 0.45134666D+04 0.45134666D+04 0.45134666D+04 0.12468843D+01  1  2  6  1  6  1        1 0.784974332820D-02 0.100000000000D+01
0.280873703608D-02 0.000000000000D+00 0.000000000000D+00 0.230956721701D-03 0.251180541492D-03  6 1 22 9900012 13 2 21 2 0.88398224D-01 0.46370302D-01 0.48070734D+04 0.48070734D+04 0.48070734D+04 0.12437750D+01  1  2 11  1  6  1        1 0.859608260877D-02 0.100000000000D+01
0.181213379227D-04 0.000000000000D+00 0.000000000000D+00 0.230956721701D-03 0.000000000000D+00  6 21 22 9900012 13 2 -1 2 0.88415984D-01 0.46360988D-01 0.48070734D+04 0.48070734D+04 0.48070734D+04 0.12437750D+01  1  2 12  3  6  1        1 0.157213114980D-03 0.100000000000D+01
-.575939555884D-04 0.000000000000D+00 -.113971282884D-06 0.230956721701D-03 0.000000000000D+00  6 21 22 9900012 13 2 -1 2 0.88405534D-01 0.46360988D-01 0.45134666D+04 0.45134666D+04 0.45134666D+04 0.12468843D+01  1  2  5  3  6  1        1 -.502184871630D-03 0.100000000000D+01
0.445376663921D-04 0.000000000000D+00 0.000000000000D+00 0.230956721701D-03 0.277371808052D-05  6 21 22 9900012 13 2 -1 2 0.88398224D-01 0.46370302D-01 0.48070734D+04 0.48070734D+04 0.48070734D+04 0.12437750D+01  1  2 11  3  6  1        1 0.386444616865D-03 0.100000000000D+01
  </mgrwgt>
  </event>
  <event>
  6     66 0.10089070E-05 0.11805610E+03 0.78161638E-02 0.82686866E-01
        1 -1    0    0  501    0 0.00000000E+00 0.00000000E+00 0.21125058E+03 0.21125058E+03 0.00000000E+00 0.0000E+00 0.9000E+01
       22 -1    0    0    0    0 0.00000000E+00 0.00000000E+00 -.33528908E+03 0.33528908E+03 0.00000000E+00 0.0000E+00 0.9000E+01
      -24  2    1    2    0    0 0.29126350E+02 -.11440673E+03 -.30228680E+03 0.33274139E+03 0.73500214E+02 0.0000E+00 0.0000E+00
  9900012  1    3    3    0    0 0.33932771E+02 -.92577661E+02 -.28061968E+03 0.30161144E+03 0.50000000E+02 0.0000E+00 0.9000E+01
       13  1    3    3    0    0 -.48064209E+01 -.21829067E+02 -.21667119E+02 0.31129951E+02 0.00000000E+00 0.0000E+00 0.9000E+01
        2  1    1    2  501    0 -.29126350E+02 0.11440673E+03 0.17824830E+03 0.21379827E+03 0.00000000E+00 0.0000E+00 0.9000E+01
#aMCatNLO 1  0  0  1  5 0.71014606D+00 0.00000000D+00  -5  6  0 0.00000000D+00 0.00000000D+00 0.00000000D+00 0.00000000D+00 0.00000000D+00
  <mgrwgt>
 0.2592654766D-03    3    2    0
 0.266139084870953D+03 0.000000000000000D+00 0.000000000000000D+00 0.266139084870953D+03
 0.266139084870953D+03 0.000000000000000D+00 0.000000000000000D+00 -.266139084870953D+03
 0.244298896675322D+03 0.339327710775937D+02 -.925776605747409D+02 -.217852919939769D+03
 0.269148670025368D+02 -.480642086257832D+01 -.218290666412308D+02 -.149933396489483D+02
 0.261064406064047D+03 -.291263502150154D+02 0.114406727215972D+03 0.232846259588717D+03
 0.000000000000000D+00 -.000000000000000D+00 0.000000000000000D+00 -.000000000000000D+00
 0.102910364912949D+04 0.000000000000000D+00 0.000000000000000D+00 0.102910364912949D+04
 0.391241070270654D+04 0.000000000000000D+00 0.000000000000000D+00 -.391241070270654D+04
 0.999832577430158D+03 0.764390757096933D+03 -.604493224634592D+03 -.217852919939769D+03
 0.109199849456402D+03 0.751096360185295D+02 -.778353998167686D+02 -.149933396489483D+02
 0.549206668188513D+03 0.446602292092503D+03 -.218990813679465D+03 0.232846259588717D+03
 0.328327525676096D+04 -.128610268520796D+04 0.901319438130826D+03 -.288330705357704D+04
0.508563803746D-04 0.000000000000D+00 0.000000000000D+00 0.508810749360D-06 0.000000000000D+00  6 1 22 9900012 13 2 21 0 0.32500089D-01 0.51582935D-01 0.15745414D+05 0.15745414D+05 0.15745414D+05 0.11894088D+01  1  2  2  1  6  1        1 0.319255234925D-03 0.100000000000D+01
0.214398865290D-06 0.000000000000D+00 -.976509457155D-07 0.508810749360D-06 0.000000000000D+00  6 1 22 9900012 13 2 21 2 0.32500089D-01 0.51582935D-01 0.15745414D+05 0.15745414D+05 0.15745414D+05 0.11894088D+01  1  2  3  1  6  1        1 0.190404571989D-05 0.100000000000D+01
-.696935016947D-05 0.000000000000D+00 0.000000000000D+00 0.508810749360D-06 0.000000000000D+00  6 1 22 9900012 13 2 21 2 0.32500089D-01 0.51582935D-01 0.15745414D+05 0.15745414D+05 0.15745414D+05 0.11894088D+01  1  2 15  1  6  1        1 -.618938040675D-04 0.100000000000D+01
  </mgrwgt>
  </event>
  <event>
  7     66 -.10089070E-05 0.91713667E+02 0.78161638E-02 0.11150360E+00
        1 -1    0    0  501    0 0.00000000E+00 0.00000000E+00 0.39767175E+03 0.39767175E+03 0.00000000E+00 0.0000E+00 0.9000E+01
       22 -1    0    0    0    0 0.00000000E+00 0.00000000E+00 -.51439240E+02 0.51439240E+02 0.00000000E+00 0.0000E+00 0.9000E+01
      -24  2    1    2    0    0 0.99065585E+02 -.30253031E+02 0.98424861E+02 0.16622485E+03 0.84935341E+02 0.0000E+00 0.0000E+00
  9900012  1    3    3    0    0 0.31393309E+02 0.11074692E+01 0.37833789E+02 0.70129608E+02 0.50000000E+02 0.0000E+00 0.9000E+01
       13  1    3    3    0    0 0.67672276E+02 -.31360500E+02 0.60591072E+02 0.96095244E+02 0.00000000E+00 0.0000E+00 0.9000E+01
        2  1    1    2  502    0 -.89295587E+02 0.57205488E+02 0.21174474E+03 0.23681639E+03 0.00000000E+00 0.0000E+00 0.9000E+01
       21  1    1    2  501  502 -.97699980E+01 -.26952457E+02 0.36062913E+02 0.46069746E+02 0.00000000E+00 0.0000E+00 0.9000E+01
#aMCatNLO 2  0  0  5  1 0.35449373D+02 0.00000000D+00  -5  6  0 0.00000000D+00 0.00000000D+00 0.00000000D+00 0.00000000D+00 0.00000000D+00
  <mgrwgt>
 -.4208163786D-04    2    2    0
 0.143024237007051D+03 0.000000000000000D+00 0.000000000000000D+00 0.143024237007051D+03
 0.143024237007051D+03 -.000000000000000D+00 -.000000000000000D+00 -.143024237007051D+03
 0.689809237622361D+02 0.379595414407307D+02 -.897752200480515D+00 -.285768279850548D+02
 0.866530853734656D+02 0.757603945509981D+02 -.338304804592711D+02 -.249923671170439D+02
 0.130414464878400D+03 -.113719935991729D+03 0.347282326597516D+02 0.535691951020987D+02
 0.000000000000000D+00 0.000000000000000D+00 -.000000000000000D+00 0.000000000000000D+00
 0.143024237007051D+03 0.000000000000000D+00 0.000000000000000D+00 0.143024237007051D+03
 0.143024237007051D+03 -.000000000000000D+00 -.000000000000000D+00 -.143024237007051D+03
 0.643131902720702D+02 0.313933090639608D+02 0.110746916804929D+01 -.254837222757578D+02
 0.775352191546738D+02 0.676722762654289D+02 -.313604997021480D+02 -.211823580568909D+02
 0.115518644814857D+03 -.892955873586655D+02 0.572054878043960D+02 0.458081602249340D+02
 0.286814197725004D+02 -.976999797072426D+01 -.269524572702973D+02 0.857920107714812D+00
-.942773097120D-06 0.000000000000D+00 0.000000000000D+00 0.444317734885D-07 0.000000000000D+00  6 1 22 9900012 13 2 21 2 0.61180269D-01 0.79137292D-02 0.18003069D+05 0.18003069D+05 0.18003069D+05 0.11837211D+01  1  2 13  2  6  5        2 -.637746478047D-04 0.100000000000D+01
0.320685207552D-06 0.000000000000D+00 0.000000000000D+00 0.444317734885D-07 0.100875907490D-09  6 1 22 9900012 13 2 21 2 0.61180269D-01 0.79137292D-02 0.18003069D+05 0.18003069D+05 0.18003069D+05 0.11837211D+01  1  2  1  2  6  5        2 0.216930099409D-04 0.100000000000D+01
  </mgrwgt>
  </event>
  <event>
  6     66 0.10089070E-05 0.22710028E+02 0.78161638E-02 0.12731061E+00
        1 -1    0    0  501    0 0.00000000E+00 0.00000000E+00 0.75160859E+01 0.75160859E+01 0.00000000E+00 0.0000E+00 0.9000E+01
       22 -1    0    0    0    0 0.00000000E+00 0.00000000E+00 -.39333416E+03 0.39333416E+03 0.00000000E+00 0.0000E+00 0.9000E+01
      -24  2    1    2    0    0 0.21195457E+01 0.22610902E+02 -.30091707E+03 0.31296438E+03 0.82945000E+02 0.0000E+00 0.0000E+00
  9900012  1    3    3    0    0 -.17169122E+02 -.68948839E+00 -.14997325E+03 0.15901959E+03 0.50000000E+02 0.0000E+00 0.9000E+01
       13  1    3    3    0    0 0.19288668E+02 0.23300391E+02 -.15094382E+03 0.15394479E+03 0.00000000E+00 0.0000E+00 0.9000E+01
        2  1    1    2  501    0 -.21195457E+01 -.22610902E+02 -.84901001E+02 0.87885865E+02 0.00000000E+00 0.0000E+00 0.9000E+01
#aMCatNLO 1  0  0  1  5 0.69247221D+01 0.00000000D+00  -5  6  0 0.00000000D+00 0.00000000D+00 0.00000000D+00 0.00000000D+00 0.00000000D+00
  <mgrwgt>
 0.1411003337D-03   11    2    0
 0.543721740559819D+02 0.000000000000000D+00 0.000000000000000D+00 0.543721740559819D+02
 0.543721740559819D+02 0.000000000000000D+00 0.000000000000000D+00 -.543721740559819D+02
 0.540777626552763D+02 -.171691220335342D+02 -.689488391899115D+00 0.113644299529474D+02
 0.319276557728957D+02 0.192886676985288D+02 0.233003907804080D+02 -.102183311283464D+02
 0.227389296837917D+02 -.211954566499457D+01 -.226109023885089D+02 -.114609882460100D+01
 0.000000000000000D+00 0.000000000000000D+00 0.000000000000000D+00 0.000000000000000D+00
 0.651854581356903D+02 0.000000000000000D+00 0.000000000000000D+00 0.651854581356903D+02
 0.554789182623435D+02 0.000000000000000D+00 0.000000000000000D+00 -.554789182623435D+02
 0.549259726378834D+02 -.194511926063960D+02 -.305995232821507D+01 0.113644299529474D+02
 0.301631803070709D+02 0.179887519710411D+02 0.219501243211218D+02 -.102183311283464D+02
 0.238535559403248D+02 -.309499242444115D+01 -.236241319496634D+02 -.114609882460100D+01
 0.117216675127547D+02 0.455743305979610D+01 0.473395995675666D+01 0.970653987334678D+01
0.148159293030D-06 0.000000000000D+00 0.000000000000D+00 0.119292222642D-07 0.000000000000D+00  6 1 22 9900012 13 2 21 0 0.11563209D-02 0.60512947D-01 0.27999185D+04 0.27999185D+04 0.27999185D+04 0.12712379D+01  1  2  2  1  6  1        1 0.483941027071D-04 0.100000000000D+01
-.351525032076D-09 0.000000000000D+00 -.284485348236D-09 0.119292222642D-07 0.000000000000D+00  6 1 22 9900012 13 2 21 2 0.11563209D-02 0.60512947D-01 0.27999185D+04 0.27999185D+04 0.27999185D+04 0.12712379D+01  1  2  3  1  6  1        1 -.185555336241D-06 0.100000000000D+01
-.137277586741D-07 0.000000000000D+00 0.000000000000D+00 0.119292222642D-07 0.000000000000D+00  6 1 22 9900012 13 2 21 2 0.11563209D-02 0.60512947D-01 0.27999185D+04 0.27999185D+04 0.27999185D+04 0.12712379D+01  1  2 15  1  6  1        1 -.724630863861D-05 0.100000000000D+01
0.478331268148D-06 0.000000000000D+00 0.000000000000D+00 0.119292222642D-07 0.000000000000D+00  6 1 22 9900012 13 2 21 2 0.14145024D-02 0.60512947D-01 0.31648648D+04 0.31648648D+04 0.31648648D+04 0.12648448D+01  1  2 12  1  6  1        1 0.193857788881D-03 0.100000000000D+01
-.291937091961D-06 0.000000000000D+00 0.000000000000D+00 0.119292222642D-07 0.000000000000D+00  6 1 22 9900012 13 2 21 2 0.11563209D-02 0.60512947D-01 0.27999185D+04 0.27999185D+04 0.27999185D+04 0.12712379D+01  1  2  4  1  6  1        1 -.154101359269D-03 0.100000000000D+01
-.747309662543D-06 0.000000000000D+00 -.100181519895D-06 0.119292222642D-07 0.000000000000D+00  6 1 22 9900012 13 2 21 2 0.14142654D-02 0.60512947D-01 0.27999185D+04 0.27999185D+04 0.27999185D+04 0.12712379D+01  1  2  5  1  6  1        1 -.301069741357D-03 0.100000000000D+01
0.754138873704D-06 0.000000000000D+00 0.981841676066D-07 0.119292222642D-07 0.000000000000D+00  6 1 22 9900012 13 2 21 2 0.11563209D-02 0.60512947D-01 0.27999185D+04 0.27999185D+04 0.27999185D+04 0.12712379D+01  1  2  6  1  6  1        1 0.398078314527D-03 0.100000000000D+01
0.137230255126D-07 0.000000000000D+00 0.000000000000D+00 0.119292222642D-07 0.139322630363D-08  6 1 22 9900012 13 2 21 2 0.13862846D-02 0.61744687D-01 0.31648648D+04 0.31648648D+04 0.31648648D+04 0.12648448D+01  1  2 11  1  6  1        1 0.552048886377D-05 0.100000000000D+01
0.137687376758D-07 0.000000000000D+00 0.000000000000D+00 0.119292222642D-07 0.000000000000D+00  6 21 22 9900012 13 2 -1 2 0.14145024D-02 0.60512947D-01 0.31648648D+04 0.31648648D+04 0.31648648D+04 0.12648448D+01  1  2 12  3  6  1        1 0.991613942223D-04 0.100000000000D+01
-.203302266753D-07 0.000000000000D+00 -.288188257728D-08 0.119292222642D-07 0.000000000000D+00  6 21 22 9900012 13 2 -1 2 0.14142654D-02 0.60512947D-01 0.27999185D+04 0.27999185D+04 0.27999185D+04 0.12712379D+01  1  2  5  3  6  1        1 -.145362056059D-03 0.100000000000D+01
0.565540111183D-09 0.000000000000D+00 0.000000000000D+00 0.119292222642D-07 0.498979396893D-10  6 21 22 9900012 13 2 -1 2 0.13862846D-02 0.61744687D-01 0.31648648D+04 0.31648648D+04 0.31648648D+04 0.12648448D+01  1  2 11  3  6  1        1 0.405326515691D-05 0.100000000000D+01
  </mgrwgt>
  </event>
  <event>
  6     66 0.10089070E-05 0.28932954E+02 0.78161638E-02 0.12290516E+00
        1 -1    0    0  501    0 0.00000000E+00 0.00000000E+00 0.14224505E+04 0.14224505E+04 0.00000000E+00 0.0000E+00 0.9000E+01
       22 -1    0    0    0    0 0.00000000E+00 0.00000000E+00 -.50063826E+01 0.50063826E+01 0.00000000E+00 0.0000E+00 0.9000E+01
      -24  2    1    2    0    0 0.22504606E+02 0.18184018E+02 0.37180864E+03 0.38142119E+03 0.80020901E+02 0.0000E+00 0.0000E+00
  9900012  1    3    3    0    0 -.69266304E+01 0.31020115E+01 0.18921317E+03 0.19585511E+03 0.50000000E+02 0.0000E+00 0.9000E+01
       13  1    3    3    0    0 0.29431237E+02 0.15082006E+02 0.18259547E+03 0.18556608E+03 0.00000000E+00 0.0000E+00 0.9000E+01
        2  1    1    2  501    0 -.22504606E+02 -.18184018E+02 0.10456355E+04 0.10460357E+04 0.00000000E+00 0.0000E+00 0.9000E+01
#aMCatNLO 1  0  0  1  5 0.23769416D+02 0.00000000D+00  -5  6  0 0.00000000D+00 0.00000000D+00 0.00000000D+00 0.00000000D+00 0.00000000D+00
  <mgrwgt>
 0.4369139932D-03    9    2    0
 0.843879807417085D+02 0.000000000000000D+00 0.000000000000000D+00 0.843879807417085D+02
 0.843879807417085D+02 0.000000000000000D+00 0.000000000000000D+00 -.843879807417085D+02
 0.674007762242932D+02 -.692663041257243D+01 0.310201154415509D+01 -.445563009140660D+02
 0.359571589117649D+02 0.294312368843005D+02 0.150820060068633D+02 -.141156886929062D+02
 0.654180263473590D+02 -.225046064717281D+02 -.181840175510183D+02 0.586719896069723D+02
 0.000000000000000D+00 0.000000000000000D+00 0.000000000000000D+00 0.000000000000000D+00
 0.124206020314214D+03 0.000000000000000D+00 0.000000000000000D+00 0.124206020314214D+03
 0.883721750274076D+02 0.000000000000000D+00 0.000000000000000D+00 -.883721750274076D+02
 0.677187124124536D+02 -.820011784611066D+01 -.577218563160426D+01 -.445563009140660D+02
 0.337280864892430D+02 0.287744605360730D+02 0.105053115997950D+02 -.141156886929062D+02
 0.688217221123682D+02 -.237698024436014D+02 -.270004363272805D+02 0.586719896069723D+02
 0.423096743275572D+02 0.319545975363907D+01 0.222673103590897D+02 0.358338452868067D+02
0.111391604197D-05 0.000000000000D+00 0.000000000000D+00 0.118517795868D-05 0.000000000000D+00  6 1 22 9900012 13 2 21 0 0.21883853D+00 0.77021271D-03 0.31683547D+04 0.31683547D+04 0.31683547D+04 0.12647877D+01  1  2  2  1  6  1        1 0.155165825025D-03 0.100000000000D+01
0.591153113209D-07 0.000000000000D+00 -.213886545100D-08 0.118517795868D-05 0.000000000000D+00  6 1 22 9900012 13 2 21 2 0.21883853D+00 0.77021271D-03 0.31683547D+04 0.31683547D+04 0.31683547D+04 0.12647877D+01  1  2  3  1  6  1        1 0.131728238015D-04 0.100000000000D+01
-.148073433130D-06 0.000000000000D+00 0.000000000000D+00 0.118517795868D-05 0.000000000000D+00  6 1 22 9900012 13 2 21 2 0.21883853D+00 0.77021271D-03 0.31683547D+04 0.31683547D+04 0.31683547D+04 0.12647877D+01  1  2 15  1  6  1        1 -.329956013209D-04 0.100000000000D+01
0.141715643814D-05 0.000000000000D+00 0.000000000000D+00 0.118517795868D-05 0.000000000000D+00  6 1 22 9900012 13 2 21 2 0.33730346D+00 0.77021271D-03 0.49067145D+04 0.49067145D+04 0.49067145D+04 0.12427678D+01  1  2 12  1  6  1        1 0.101252619979D-03 0.100000000000D+01
-.228699314327D-06 0.000000000000D+00 0.000000000000D+00 0.118517795868D-05 0.000000000000D+00  6 1 22 9900012 13 2 21 2 0.21883853D+00 0.77021271D-03 0.31683547D+04 0.31683547D+04 0.31683547D+04 0.12647877D+01  1  2  4  1  6  1        1 -.509616832565D-04 0.100000000000D+01
-.173116545395D-05 0.000000000000D+00 -.344437483925D-06 0.118517795868D-05 0.000000000000D+00  6 1 22 9900012 13 2 21 2 0.32695049D+00 0.77021271D-03 0.31683547D+04 0.31683547D+04 0.31683547D+04 0.12647877D+01  1  2  5  1  6  1        1 -.138609979186D-03 0.100000000000D+01
0.175232849397D-05 0.000000000000D+00 0.318428489031D-06 0.118517795868D-05 0.000000000000D+00  6 1 22 9900012 13 2 21 2 0.21883853D+00 0.77021271D-03 0.31683547D+04 0.31683547D+04 0.31683547D+04 0.12647877D+01  1  2  6  1  6  1        1 0.390476070880D-03 0.100000000000D+01
0.714933474754D-07 0.000000000000D+00 0.000000000000D+00 0.118517795868D-05 0.000000000000D+00  6 21 22 9900012 13 2 -1 2 0.33730346D+00 0.77021271D-03 0.49067145D+04 0.49067145D+04 0.49067145D+04 0.12427678D+01  1  2 12  3  6  1        1 0.334639381985D-05 0.100000000000D+01
-.708108992957D-07 0.000000000000D+00 -.164395029929D-07 0.118517795868D-05 0.000000000000D+00  6 21 22 9900012 13 2 -1 2 0.32695049D+00 0.77021271D-03 0.31683547D+04 0.31683547D+04 0.31683547D+04 0.12647877D+01  1  2  5  3  6  1        1 -.393247649783D-05 0.100000000000D+01
  </mgrwgt>
  </event>
  <event>
  6     66 0.10089070E-05 0.33374111E+02 0.78161638E-02 0.12589937E+00
        1 -1    0    0  501    0 0.00000000E+00 0.00000000E+00 0.15440317E+04 0.15440317E+04 0.00000000E+00 0.0000E+00 0.9000E+01
       22 -1    0    0    0    0 0.00000000E+00 0.00000000E+00 -.30180133E+01 0.30180133E+01 0.00000000E+00 0.0000E+00 0.9000E+01
      -24  2    1    2    0    0 -.25141245E+00 -.37605442E+02 0.74719372E+03 0.75233947E+03 0.79385069E+02 0.0000E+00 0.0000E+00
  9900012  1    3    3    0    0 -.22446691E+02 -.27343995E+02 0.60121534E+03 0.60432726E+03 0.50000000E+02 0.0000E+00 0.9000E+01
       13  1    3    3    0    0 0.22195278E+02 -.10261447E+02 0.14597838E+03 0.14801222E+03 0.00000000E+00 0.0000E+00 0.9000E+01
        2  1    1    2  501    0 0.25141245E+00 0.37605442E+02 0.79381992E+03 0.79471019E+03 0.00000000E+00 0.0000E+00 0.9000E+01
#aMCatNLO 1  0  0  5  1 0.13201048D+02 0.00000000D+00  -5  6  0 0.00000000D+00 0.00000000D+00 0.00000000D+00 0.00000000D+00 0.00000000D+00
  <mgrwgt>
 0.3321804226D-03    4    2    0
 0.682635192967867D+02 0.000000000000000D+00 0.000000000000000D+00 0.682635192967867D+02
 0.682635192967867D+02 -.000000000000000D+00 -.000000000000000D+00 -.682635192967867D+02
 0.618429970915935D+02 -.224466905873104D+02 -.273439946496391D+02 -.854449106435807D+01
 0.295001601592868D+02 0.221952781369291D+02 -.102614474352563D+02 -.165024778255086D+02
 0.451838813426932D+02 0.251412450381327D+00 0.376054420848954D+02 0.250469688898666D+02
 0.000000000000000D+00 0.000000000000000D+00 -.000000000000000D+00 0.000000000000000D+00
 0.682635192967867D+02 0.000000000000000D+00 0.000000000000000D+00 0.682635192967867D+02
 0.682635192967867D+02 -.000000000000000D+00 -.000000000000000D+00 -.682635192967867D+02
 0.594182155733873D+02 -.224134850850008D+02 -.223772255333508D+02 -.523639243177236D+01
 0.279103597644228D+02 0.222109991173649D+02 -.790995522236763D+01 -.149362749294484D+02
 0.975585346247050D+01 -.777722878627645D+01 0.158156053432505D+01 -.567362806882650D+01
 0.394426097932928D+02 0.797971475391239D+01 0.287056202213934D+02 0.258462954300473D+02
0.148660501856D-05 0.000000000000D+00 0.000000000000D+00 0.188486347927D-06 0.000000000000D+00  6 1 22 9900012 13 2 21 0 0.23754333D+00 0.46430974D-03 0.38012603D+04 0.38012603D+04 0.38012603D+04 0.12554746D+01  1  2  2  2  6  5        2 0.340428922541D-03 0.100000000000D+01
0.375001433722D-08 0.000000000000D+00 -.285447735169D-08 0.188486347927D-06 0.000000000000D+00  6 1 22 9900012 13 2 21 2 0.23754333D+00 0.46430974D-03 0.38012603D+04 0.38012603D+04 0.38012603D+04 0.12554746D+01  1  2  3  2  6  5        2 0.135356663603D-05 0.100000000000D+01
-.187349839647D-06 0.000000000000D+00 0.000000000000D+00 0.188486347927D-06 0.000000000000D+00  6 1 22 9900012 13 2 21 2 0.23754333D+00 0.46430974D-03 0.38012603D+04 0.38012603D+04 0.38012603D+04 0.12554746D+01  1  2 15  2  6  5        2 -.676238727129D-04 0.100000000000D+01
0.160718334504D-06 0.000000000000D+00 0.000000000000D+00 0.188486347927D-06 0.000000000000D+00  6 1 22 9900012 13 2 21 2 0.23754333D+00 0.46430974D-03 0.36297605D+04 0.36297605D+04 0.36297605D+04 0.12578149D+01  1  2 12  2  6  5        2 0.580218061171D-04 0.100000000000D+01
  </mgrwgt>
  </event>
  <event>
  6     66 0.10089070E-05 0.25085797E+02 0.78161638E-02 0.12829136E+00
        3 -1    0    0  501    0 0.00000000E+00 0.00000000E+00 0.70087789E+02 0.70087789E+02 0.00000000E+00 0.0000E+00 0.9000E+01
       22 -1    0    0    0    0 0.00000000E+00 0.00000000E+00 -.52682322E+02 0.52682322E+02 0.00000000E+00 0.0000E+00 0.9000E+01
      -24  2    1    2    0    0 -.24000056E+02 -.73003087E+01 -.11326605E+02 0.84627888E+02 0.80026810E+02 0.0000E+00 0.0000E+00
  9900012  1    3    3    0    0 0.34735993E+01 0.81466155E+01 -.14870417E+02 0.52910893E+02 0.50000000E+02 0.0000E+00 0.9000E+01
       13  1    3    3    0    0 -.27473655E+02 -.15446924E+02 0.35438125E+01 0.31716995E+02 0.00000000E+00 0.0000E+00 0.9000E+01
        4  1    1    2  501    0 0.24000056E+02 0.73003087E+01 0.28732073E+02 0.38142223E+02 0.00000000E+00 0.0000E+00 0.9000E+01
#aMCatNLO 1  0  0  1  5 0.87630104D+02 0.00000000D+00  -5  6  0 0.00000000D+00 0.00000000D+00 0.00000000D+00 0.00000000D+00 0.00000000D+00
  <mgrwgt>
 0.2640561935D-05    1    2    0
 0.607650184855034D+02 0.000000000000000D+00 0.000000000000000D+00 0.607650184855034D+02
 0.607650184855034D+02 0.000000000000000D+00 0.000000000000000D+00 -.607650184855034D+02
 0.555805206523253D+02 0.347359927791701D+01 0.814661554557212D+01 -.226000229909762D+02
 0.315330879533782D+02 -.274736551160325D+02 -.154469242532735D+02 -.962518339781088D+00
 0.344164283653032D+02 0.240000558381155D+02 0.730030870770143D+01 0.235625413307573D+02
 0.000000000000000D+00 0.000000000000000D+00 0.000000000000000D+00 0.000000000000000D+00
 0.913766870331543D+02 0.000000000000000D+00 0.000000000000000D+00 0.913766870331543D+02
 0.632709607006536D+02 0.000000000000000D+00 0.000000000000000D+00 -.632709607006536D+02
 0.550960117991693D+02 -.246168560325830D+01 0.433007863349688D+01 -.226000229909762D+02
 0.358188855842477D+02 -.310855603808671D+02 -.177694698500117D+02 -.962518339781088D+00
 0.316072151039505D+02 0.204593853436282D+02 0.502356885338284D+01 0.235625413307573D+02
 0.321255352464405D+02 0.130878606404972D+02 0.841582236313195D+01 0.281057263325007D+02
0.721843245840D-08 0.000000000000D+00 0.000000000000D+00 0.325842926783D-06 0.000000000000D+00  6 3 22 9900012 13 4 21 2 0.10782737D-01 0.81049726D-02 0.28827485D+04 0.28827485D+04 0.28827485D+04 0.12697073D+01  1  2 14  1  6  1        3 0.264056193500D-05 0.100000000000D+01
  </mgrwgt>
  </event>
  <event>
  6     66 0.10089070E-05 0.38382892E+02 0.78161638E-02 0.11676902E+00
        1 -1    0    0  501    0 0.00000000E+00 0.00000000E+00 0.75982982E+02 0.75982982E+02 0.00000000E+00 0.0000E+00 0.9000E+01
       22 -1    0    0    0    0 0.00000000E+00 0.00000000E+00 -.20456501E+03 0.20456501E+03 0.00000000E+00 0.0000E+00 0.9000E+01
      -24  2    1    2    0    0 0.43138602E+02 -.28021441E+02 -.18251167E+03 0.20601916E+03 0.80543443E+02 0.0000E+00 0.0000E+00
  9900012  1    3    3    0    0 0.11337546E+02 -.26488334E+02 -.79753972E+02 0.98442205E+02 0.50000000E+02 0.0000E+00 0.9000E+01
       13  1    3    3    0    0 0.31801057E+02 -.15331075E+01 -.10275769E+03 0.10757696E+03 0.00000000E+00 0.0000E+00 0.9000E+01
        2  1    1    2  501    0 -.43138602E+02 0.28021441E+02 0.53929640E+02 0.74528829E+02 0.00000000E+00 0.0000E+00 0.9000E+01
#aMCatNLO 1  0  0  1  5 0.47117558D+02 0.00000000D+00  -5  6  0 0.00000000D+00 0.00000000D+00 0.00000000D+00 0.00000000D+00 0.00000000D+00
  <mgrwgt>
 0.1215048400D-03    9    2    0
 0.124673410197423D+03 0.000000000000000D+00 0.000000000000000D+00 0.124673410197423D+03
 0.124673410197423D+03 0.000000000000000D+00 0.000000000000000D+00 -.124673410197423D+03
 0.696332740522629D+02 0.113375458278267D+02 -.264883336112396D+02 -.389694892491440D+02
 0.680486159683301D+02 0.318010565976909D+02 -.153310752690995D+01 -.601411382980624D+02
 0.111664930374253D+03 -.431386024255176D+02 0.280214411381496D+02 0.991106275472064D+02
 0.000000000000000D+00 0.000000000000000D+00 -.000000000000000D+00 0.000000000000000D+00
 0.198256151828874D+03 0.000000000000000D+00 0.000000000000000D+00 0.198256151828874D+03
 0.133399622386641D+03 0.000000000000000D+00 0.000000000000000D+00 -.133399622386641D+03
 0.659338654966638D+02 0.107417336907250D+02 -.146037215911064D+02 -.389694892491440D+02
 0.685527465941882D+02 0.312006990919547D+02 0.104421705594966D+02 -.601411382980624D+02
 0.118732286928038D+03 -.441511889481803D+02 0.482194149780257D+02 0.991106275472064D+02
 0.784368751966245D+02 0.220875616550064D+01 -.440578639464160D+02 0.648565294422336D+02
0.168466386528D-05 0.000000000000D+00 0.000000000000D+00 0.300923098374D-05 0.000000000000D+00  6 1 22 9900012 13 2 21 0 0.11689690D-01 0.31471540D-01 0.49692826D+04 0.49692826D+04 0.49692826D+04 0.12421471D+01  1  2  2  1  6  1        1 0.787114106093D-04 0.100000000000D+01
0.362988160544D-07 0.000000000000D+00 -.323477641243D-08 0.300923098374D-05 0.000000000000D+00  6 1 22 9900012 13 2 21 2 0.11689690D-01 0.31471540D-01 0.49692826D+04 0.49692826D+04 0.49692826D+04 0.12421471D+01  1  2  3  1  6  1        1 0.261675424534D-05 0.100000000000D+01
-.254316321058D-06 0.000000000000D+00 0.000000000000D+00 0.300923098374D-05 0.000000000000D+00  6 1 22 9900012 13 2 21 2 0.11689690D-01 0.31471540D-01 0.49692826D+04 0.49692826D+04 0.49692826D+04 0.12421471D+01  1  2 15  1  6  1        1 -.183334715874D-04 0.100000000000D+01
0.650274276403D-06 0.000000000000D+00 0.000000000000D+00 0.300923098374D-05 0.000000000000D+00  6 1 22 9900012 13 2 21 2 0.19890082D-01 0.31471540D-01 0.95628049D+04 0.95628049D+04 0.95628049D+04 0.12113475D+01  1  2 12  1  6  1        1 0.239074283569D-04 0.100000000000D+01
-.315869661147D-06 0.000000000000D+00 0.000000000000D+00 0.300923098374D-05 0.000000000000D+00  6 1 22 9900012 13 2 21 2 0.11689690D-01 0.31471540D-01 0.49692826D+04 0.49692826D+04 0.49692826D+04 0.12421471D+01  1  2  4  1  6  1        1 -.227708054043D-04 0.100000000000D+01
-.189451027810D-05 0.000000000000D+00 -.563363148605D-06 0.300923098374D-05 0.000000000000D+00  6 1 22 9900012 13 2 21 2 0.19741398D-01 0.31471540D-01 0.49692826D+04 0.49692826D+04 0.49692826D+04 0.12421471D+01  1  2  5  1  6  1        1 -.704365652381D-04 0.100000000000D+01
0.198086435309D-05 0.000000000000D+00 0.493977123806D-06 0.300923098374D-05 0.000000000000D+00  6 1 22 9900012 13 2 21 2 0.11689690D-01 0.31471540D-01 0.49692826D+04 0.49692826D+04 0.49692826D+04 0.12421471D+01  1  2  6  1  6  1        1 0.142799015748D-03 0.100000000000D+01
0.385128636614D-07 0.000000000000D+00 0.000000000000D+00 0.300923098374D-05 0.000000000000D+00  6 21 22 9900012 13 2 -1 2 0.19890082D-01 0.31471540D-01 0.95628049D+04 0.95628049D+04 0.95628049D+04 0.12113475D+01  1  2 12  3  6  1        1 0.120921552815D-04 0.100000000000D+01
-.841585529687D-07 0.000000000000D+00 -.329812271803D-07 0.300923098374D-05 0.000000000000D+00  6 21 22 9900012 13 2 -1 2 0.19741398D-01 0.31471540D-01 0.49692826D+04 0.49692826D+04 0.49692826D+04 0.12421471D+01  1  2  5  3  6  1        1 -.270810819651D-04 0.100000000000D+01
  </mgrwgt>
  </event>
  <event>
  6     66 0.10089070E-05 0.58455222E+02 0.78161638E-02 0.11205971E+00
        1 -1    0    0  501    0 0.00000000E+00 0.00000000E+00 0.12301897E+04 0.12301897E+04 0.00000000E+00 0.0000E+00 0.9000E+01
       22 -1    0    0    0    0 0.00000000E+00 0.00000000E+00 -.15235303E+03 0.15235303E+03 0.00000000E+00 0.0000E+00 0.9000E+01
      -24  2    1    2    0    0 -.50727457E+02 -.95598382E+02 -.12030615E+03 0.17952215E+03 0.77732285E+02 0.0000E+00 0.0000E+00
  9900012  1    3    3    0    0 -.15615765E+02 -.41463522E+02 -.46004371E+02 0.81113981E+02 0.50000000E+02 0.0000E+00 0.9000E+01
       13  1    3    3    0    0 -.35111692E+02 -.54134860E+02 -.74301775E+02 0.98408169E+02 0.00000000E+00 0.0000E+00 0.9000E+01
        2  1    1    2  501    0 0.50727457E+02 0.95598382E+02 0.11981428E+04 0.12030206E+04 0.00000000E+00 0.0000E+00 0.9000E+01
#aMCatNLO 1  0  0  1  5 0.20377573D+02 0.00000000D+00  -5  6  0 0.00000000D+00 0.00000000D+00 0.00000000D+00 0.00000000D+00 0.00000000D+00
  <mgrwgt>
 0.8866261571D-03    9    2    0
 0.432923936777976D+03 0.000000000000000D+00 0.000000000000000D+00 0.432923936777976D+03
 0.432923936777976D+03 0.000000000000000D+00 0.000000000000000D+00 -.432923936777976D+03
 0.186786558753276D+03 -.156157652490746D+02 -.414635215920488D+02 -.174430911204873D+03
 0.249626621506428D+03 -.351116916725432D+02 -.541348604087727D+02 -.241143186014302D+03
 0.429434693296248D+03 0.507274569216178D+02 0.955983820008215D+02 0.415574097219176D+03
 0.000000000000000D+00 0.000000000000000D+00 -.000000000000000D+00 0.000000000000000D+00
 0.461120487501129D+03 0.000000000000000D+00 0.000000000000000D+00 0.461120487501129D+03
 0.436319371465171D+03 0.000000000000000D+00 0.000000000000000D+00 -.436319371465171D+03
 0.187051997456664D+03 -.197272232921712D+02 -.409040784023581D+02 -.174430911204873D+03
 0.250298498948975D+03 -.406098435439840D+02 -.533867307700603D+02 -.241143186014302D+03
 0.428710738626133D+03 0.412896156941268D+02 0.968825823853950D+02 0.415574097219176D+03
 0.313786239345281D+02 0.190474511420284D+02 -.259177321297659D+01 0.248011160359586D+02
0.552005793054D-04 0.000000000000D+00 0.000000000000D+00 0.339948599503D-04 0.000000000000D+00  6 1 22 9900012 13 2 21 0 0.18925996D+00 0.23438928D-01 0.14346563D+05 0.14346563D+05 0.14346563D+05 0.11934106D+01  1  2  2  1  6  1        1 0.983905787881D-04 0.100000000000D+01
0.761195680604D-06 0.000000000000D+00 -.105992379589D-06 0.339948599503D-04 0.000000000000D+00  6 1 22 9900012 13 2 21 2 0.18925996D+00 0.23438928D-01 0.14346563D+05 0.14346563D+05 0.14346563D+05 0.11934106D+01  1  2  3  1  6  1        1 0.193235080162D-05 0.100000000000D+01
-.889492842767D-05 0.000000000000D+00 0.000000000000D+00 0.339948599503D-04 0.000000000000D+00  6 1 22 9900012 13 2 21 2 0.18925996D+00 0.23438928D-01 0.14346563D+05 0.14346563D+05 0.14346563D+05 0.11934106D+01  1  2 15  1  6  1        1 -.225804251331D-04 0.100000000000D+01
0.313309795636D-03 0.000000000000D+00 0.000000000000D+00 0.339948599503D-04 0.000000000000D+00  6 1 22 9900012 13 2 21 2 0.20316760D+00 0.23438928D-01 0.16790821D+05 0.16790821D+05 0.16790821D+05 0.11866692D+01  1  2 12  1  6  1        1 0.684531247053D-03 0.100000000000D+01
-.236085270871D-04 0.000000000000D+00 0.000000000000D+00 0.339948599503D-04 0.000000000000D+00  6 1 22 9900012 13 2 21 2 0.18925996D+00 0.23438928D-01 0.14346563D+05 0.14346563D+05 0.14346563D+05 0.11934106D+01  1  2  4  1  6  1        1 -.599319694059D-04 0.100000000000D+01
-.563705496480D-03 0.000000000000D+00 -.842225691794D-04 0.339948599503D-04 0.000000000000D+00  6 1 22 9900012 13 2 21 2 0.20229637D+00 0.23438928D-01 0.14346563D+05 0.14346563D+05 0.14346563D+05 0.11934106D+01  1  2  5  1  6  1        1 -.125372327826D-02 0.100000000000D+01
0.568241100627D-03 0.000000000000D+00 0.840360579655D-04 0.339948599503D-04 0.000000000000D+00  6 1 22 9900012 13 2 21 2 0.18925996D+00 0.23438928D-01 0.14346563D+05 0.14346563D+05 0.14346563D+05 0.11934106D+01  1  2  6  1  6  1        1 0.144252151488D-02 0.100000000000D+01
0.455471319049D-05 0.000000000000D+00 0.000000000000D+00 0.339948599503D-04 0.000000000000D+00  6 21 22 9900012 13 2 -1 2 0.20316760D+00 0.23438928D-01 0.16790821D+05 0.16790821D+05 0.16790821D+05 0.11866692D+01  1  2 12  3  6  1        1 0.108913567404D-04 0.100000000000D+01
-.625956988083D-05 0.000000000000D+00 -.954472089342D-06 0.339948599503D-04 0.000000000000D+00  6 21 22 9900012 13 2 -1 2 0.20229637D+00 0.23438928D-01 0.14346563D+05 0.14346563D+05 0.14346563D+05 0.11934106D+01  1  2  5  3  6  1        1 -.154052183605D-04 0.100000000000D+01
  </mgrwgt>
  </event>
  <event>
  6     66 0.10089070E-05 0.43256667E+02 0.78161638E-02 0.11869060E+00
        1 -1    0    0  501    0 0.00000000E+00 0.00000000E+00 0.10540702E+04 0.10540702E+04 0.00000000E+00 0.0000E+00 0.9000E+01
       22 -1    0    0    0    0 0.00000000E+00 0.00000000E+00 -.11895410E+02 0.11895410E+02 0.00000000E+00 0.0000E+00 0.9000E+01
      -24  2    1    2    0    0 0.29919658E+02 0.65649443E+02 0.28390256E+03 0.30426894E+03 0.82303651E+02 0.0000E+00 0.0000E+00
  9900012  1    3    3    0    0 0.13680928E+02 0.34407482E+02 0.10595975E+03 0.12287600E+03 0.50000000E+02 0.0000E+00 0.9000E+01
       13  1    3    3    0    0 0.16238730E+02 0.31241961E+02 0.17794281E+03 0.18139294E+03 0.00000000E+00 0.0000E+00 0.9000E+01
        2  1    1    2  501    0 -.29919658E+02 -.65649443E+02 0.75827221E+03 0.76169664E+03 0.00000000E+00 0.0000E+00 0.9000E+01
#aMCatNLO 1  0  0  5  1 0.12162289D+02 0.00000000D+00  -5  6  0 0.00000000D+00 0.00000000D+00 0.00000000D+00 0.00000000D+00 0.00000000D+00
  <mgrwgt>
 0.2755196206D-03    5    2    0
 0.111975874091175D+03 0.000000000000000D+00 0.000000000000000D+00 0.111975874091175D+03
 0.111975874091175D+03 -.000000000000000D+00 -.000000000000000D+00 -.111975874091175D+03
 0.917742738122554D+02 0.136809278198263D+02 0.344074824749463D+02 -.674646181156596D+02
 0.353251503028932D+02 0.162387303486828D+02 0.312419605636487D+02 0.284776767384326D+01
 0.968523240672016D+02 -.299196581685091D+02 -.656494430385950D+02 0.646168504418164D+02
 0.000000000000000D+00 0.000000000000000D+00 0.000000000000000D+00 0.000000000000000D+00
 0.111975874091175D+03 0.000000000000000D+00 0.000000000000000D+00 0.111975874091175D+03
 0.111975874091175D+03 -.000000000000000D+00 -.000000000000000D+00 -.111975874091175D+03
 0.884058428676635D+02 0.123493871425232D+02 0.314858279775635D+02 -.645889179884086D+02
 0.342026419072863D+02 0.157249162540044D+02 0.301145543295589D+02 0.395744106395146D+01
 0.932433399247268D+02 -.322628872865252D+02 -.669877177925465D+02 0.562678612460191D+02
 0.809992348267363D+01 0.418858388999756D+01 0.538733548542419D+01 0.436361567843801D+01
0.145513679894D-05 0.000000000000D+00 0.000000000000D+00 0.200151795144D-06 0.000000000000D+00  6 1 22 9900012 13 2 21 0 0.16216464D+00 0.18300630D-02 0.71888192D+04 0.71888192D+04 0.71888192D+04 0.12244833D+01  1  2  2  2  6  5        2 0.120247795213D-03 0.100000000000D+01
-.132298805590D-07 0.000000000000D+00 -.279405422713D-08 0.200151795144D-06 0.000000000000D+00  6 1 22 9900012 13 2 21 2 0.16216464D+00 0.18300630D-02 0.71888192D+04 0.71888192D+04 0.71888192D+04 0.12244833D+01  1  2  3  2  6  5        2 -.163921137505D-05 0.100000000000D+01
-.160603110658D-06 0.000000000000D+00 0.000000000000D+00 0.200151795144D-06 0.000000000000D+00  6 1 22 9900012 13 2 21 2 0.16216464D+00 0.18300630D-02 0.71888192D+04 0.71888192D+04 0.71888192D+04 0.12244833D+01  1  2 15  2  6  5        2 -.198990795634D-04 0.100000000000D+01
0.168901917593D-05 0.000000000000D+00 0.000000000000D+00 0.200151795144D-06 0.000000000000D+00  6 1 22 9900012 13 2 21 2 0.16216464D+00 0.18300630D-02 0.77012552D+04 0.77012552D+04 0.77012552D+04 0.12212739D+01  1  2 12  2  6  5        2 0.209093837975D-03 0.100000000000D+01
-.260558087777D-06 0.000000000000D+00 0.000000000000D+00 0.200151795144D-06 0.000000000000D+00  6 1 22 9900012 13 2 21 2 0.16216464D+00 0.18300630D-02 0.71888192D+04 0.71888192D+04 0.71888192D+04 0.12244833D+01  1  2  4  2  6  5        2 -.322837216436D-04 0.100000000000D+01
  </mgrwgt>
  </event>
  <event>
  6     66 0.10089070E-05 0.11099406E+03 0.78161638E-02 0.11234913E+00
        1 -1    0    0  501    0 0.00000000E+00 0.00000000E+00 0.22987044E+04 0.22987044E+04 0.00000000E+00 0.0000E+00 0.9000E+01
       22 -1    0    0    0    0 0.00000000E+00 0.00000000E+00 -.11910124E+03 0.11910124E+03 0.00000000E+00 0.0000E+00 0.9000E+01
      -24  2    1    2    0    0 -.10990660E+03 0.15499078E+02 -.76027154E+02 0.15944610E+03 0.85575978E+02 0.0000E+00 0.0000E+00
  9900012  1    3    3    0    0 -.30938351E+02 0.11664414E+02 -.22781647E+02 0.64126777E+02 0.50000000E+02 0.0000E+00 0.9000E+01
       13  1    3    3    0    0 -.78968248E+02 0.38346641E+01 -.53245507E+02 0.95319320E+02 0.00000000E+00 0.0000E+00 0.9000E+01
        2  1    1    2  501    0 0.10990660E+03 -.15499078E+02 0.22556303E+04 0.22583595E+04 0.00000000E+00 0.0000E+00 0.9000E+01
#aMCatNLO 1  0  0  5  1 0.15036740D+02 0.00000000D+00  -5  6  0 0.00000000D+00 0.00000000D+00 0.00000000D+00 0.00000000D+00 0.00000000D+00
  <mgrwgt>
 0.1692446428D-02    7    2    0
 0.523238504892350D+03 0.000000000000000D+00 0.000000000000000D+00 0.523238504892350D+03
 0.523238504892350D+03 -.000000000000000D+00 -.000000000000000D+00 -.523238504892350D+03
 0.195609677072449D+03 -.309383509098726D+02 0.116644135842498D+02 -.186198565147803D+03
 0.331127828711254D+03 -.789682476344476D+02 0.383466411046192D+01 -.321550851598521D+03
 0.519739504000996D+03 0.109906598544320D+03 -.154990776947118D+02 0.507749416746324D+03
 0.000000000000000D+00 0.000000000000000D+00 0.000000000000000D+00 0.000000000000000D+00
 0.523238504892350D+03 0.000000000000000D+00 0.000000000000000D+00 0.523238504892350D+03
 0.523238504892350D+03 -.000000000000000D+00 -.000000000000000D+00 -.523238504892350D+03
 0.195255179984271D+03 -.308606755122665D+02 0.116534597649304D+02 -.185839718287356D+03
 0.330506390332863D+03 -.788367630558107D+02 0.381612209636139D+01 -.320943415657474D+03
 0.454707645126539D+03 0.109208877749591D+03 -.201056584723709D+02 0.440940161535088D+03
 0.660077943410263D+02 0.488560818485922D+00 0.463607661107909D+01 0.658429724097421D+02
0.831185477662D-04 0.000000000000D+00 0.000000000000D+00 0.147264903629D-04 0.000000000000D+00  6 1 22 9900012 13 2 21 0 0.35364683D+00 0.18323267D-01 0.15624875D+05 0.15624875D+05 0.15624875D+05 0.11897377D+01  1  2  2  2  6  5        2 0.425443218980D-04 0.100000000000D+01
0.134377762316D-05 0.000000000000D+00 -.159598554519D-06 0.147264903629D-04 0.000000000000D+00  6 1 22 9900012 13 2 21 2 0.35364683D+00 0.18323267D-01 0.15624875D+05 0.15624875D+05 0.15624875D+05 0.11897377D+01  1  2  3  2  6  5        2 0.973584194241D-06 0.100000000000D+01
-.120146321574D-04 0.000000000000D+00 0.000000000000D+00 0.147264903629D-04 0.000000000000D+00  6 1 22 9900012 13 2 21 2 0.35364683D+00 0.18323267D-01 0.15624875D+05 0.15624875D+05 0.15624875D+05 0.11897377D+01  1  2 15  2  6  5        2 -.870475573225D-05 0.100000000000D+01
0.259579855969D-02 0.000000000000D+00 0.000000000000D+00 0.147264903629D-04 0.000000000000D+00  6 1 22 9900012 13 2 21 2 0.35364683D+00 0.18323267D-01 0.16197205D+05 0.16197205D+05 0.16197205D+05 0.11882007D+01  1  2 12  2  6  5        2 0.187529126307D-02 0.100000000000D+01
-.650184810347D-03 0.000000000000D+00 0.000000000000D+00 0.147264903629D-04 0.000000000000D+00  6 1 22 9900012 13 2 21 2 0.35364683D+00 0.18323267D-01 0.15624875D+05 0.15624875D+05 0.15624875D+05 0.11897377D+01  1  2  4  2  6  5        2 -.471067268704D-03 0.100000000000D+01
-.259099457477D-02 0.000000000000D+00 0.000000000000D+00 0.147264903629D-04 0.000000000000D+00  6 1 22 9900012 13 2 21 2 0.35364683D+00 0.18323267D-01 0.15624875D+05 0.15624875D+05 0.15624875D+05 0.11897377D+01  1  2  5  2  6  5        2 -.187720893835D-02 0.100000000000D+01
0.294075962475D-02 0.000000000000D+00 -.000000000000D+00 0.147264903629D-04 0.000000000000D+00  6 1 22 9900012 13 2 21 2 0.35364683D+00 0.18323267D-01 0.15624875D+05 0.15624875D+05 0.15624875D+05 0.11897377D+01  1  2  6  2  6  5        2 0.213061822162D-02 0.100000000000D+01
  </mgrwgt>
  </event>
  <event>
  6     66 0.10089070E-05 0.13261322E+03 0.78161638E-02 0.10357864E+00
        1 -1    0    0  501    0 0.00000000E+00 0.00000000E+00 0.20251710E+04 0.20251710E+04 0.00000000E+00 0.0000E+00 0.9000E+01
       22 -1    0    0    0    0 0.00000000E+00 0.00000000E+00 -.19672984E+02 0.19672984E+02 0.00000000E+00 0.0000E+00 0.9000E+01
      -24  2    1    2    0    0 0.12968990E+03 0.27691060E+02 0.33577736E+03 0.36986538E+03 0.80421987E+02 0.0000E+00 0.0000E+00
  9900012  1    3    3    0    0 0.56095439E+02 0.88052836E+01 0.12872867E+03 0.14931611E+03 0.50000000E+02 0.0000E+00 0.9000E+01
       13  1    3    3    0    0 0.73594463E+02 0.18885777E+02 0.20704869E+03 0.22054926E+03 0.00000000E+00 0.0000E+00 0.9000E+01
        2  1    1    2  501    0 -.12968990E+03 -.27691060E+02 0.16697206E+04 0.16749786E+04 0.00000000E+00 0.0000E+00 0.9000E+01
#aMCatNLO 1  0  0  1  1 0.24050939D+02 0.00000000D+00  -5  6  0 0.00000000D+00 0.00000000D+00 0.00000000D+00 0.00000000D+00 0.00000000D+00
  <mgrwgt>
 0.1585993319D-03    6    2    0
 0.199602495449188D+03 0.000000000000000D+00 0.000000000000000D+00 0.199602495449188D+03
 0.199602495449188D+03 0.000000000000000D+00 0.000000000000000D+00 -.199602495449188D+03
 0.118142469602093D+03 0.560954391027952D+02 0.880528355468650D+01 -.907381497335479D+02
 0.895607462560340D+02 0.735944626798767D+02 0.188857768525431D+02 -.474163449189612D+02
 0.191501775040249D+03 -.129689901782672D+03 -.276910604072296D+02 0.138154494652509D+03
 0.000000000000000D+00 -.000000000000000D+00 0.000000000000000D+00 0.000000000000000D+00
 0.312610264804715D+03 0.000000000000000D+00 0.000000000000000D+00 0.312610264804715D+03
 0.261744506496587D+03 0.000000000000000D+00 0.000000000000000D+00 -.261744506496587D+03
 0.128315635762291D+03 0.687218146890729D+02 -.317616553386940D+02 -.907381497335479D+02
 0.964108958524500D+02 0.831220365374572D+02 -.117251062026616D+02 -.474163449189612D+02
 0.198932091089713D+03 -.109687457034220D+03 -.919563714051502D+02 0.138154494652509D+03
 0.150696148596848D+03 -.421563941923105D+02 0.135443132946506D+03 0.508657583081283D+02
0.125570238506D-04 0.000000000000D+00 0.000000000000D+00 0.263402386667D-05 0.000000000000D+00  6 1 22 9900012 13 2 21 0 0.31156477D+00 0.30266129D-02 0.20199647D+05 0.20199647D+05 0.20199647D+05 0.11789022D+01  1  2  2  1  6  1        1 0.124921122953D-03 0.100000000000D+01
-.834883102105D-07 0.000000000000D+00 -.241111389633D-07 0.263402386667D-05 0.000000000000D+00  6 1 22 9900012 13 2 21 2 0.31156477D+00 0.30266129D-02 0.20199647D+05 0.20199647D+05 0.20199647D+05 0.11789022D+01  1  2  3  1  6  1        1 -.115433101237D-05 0.100000000000D+01
-.160190010375D-05 0.000000000000D+00 0.000000000000D+00 0.263402386667D-05 0.000000000000D+00  6 1 22 9900012 13 2 21 2 0.31156477D+00 0.30266129D-02 0.20199647D+05 0.20199647D+05 0.20199647D+05 0.11789022D+01  1  2 15  1  6  1        1 -.221482859554D-04 0.100000000000D+01
-.315643631356D-05 0.000000000000D+00 -.290403581338D-05 0.263402386667D-05 0.000000000000D+00  6 1 22 9900012 13 2 21 2 0.53015268D+00 0.30266129D-02 0.20199647D+05 0.20199647D+05 0.20199647D+05 0.11789022D+01  1  2  5  1  6  1        1 -.420190470898D-05 0.100000000000D+01
0.442678299491D-05 0.000000000000D+00 0.253708487999D-05 0.263402386667D-05 0.000000000000D+00  6 1 22 9900012 13 2 21 2 0.31156477D+00 0.30266129D-02 0.20199647D+05 0.20199647D+05 0.20199647D+05 0.11789022D+01  1  2  6  1  6  1        1 0.612058488568D-04 0.100000000000D+01
-.469489817751D-07 0.000000000000D+00 -.172004768942D-06 0.263402386667D-05 0.000000000000D+00  6 21 22 9900012 13 2 -1 2 0.53015268D+00 0.30266129D-02 0.20199647D+05 0.20199647D+05 0.20199647D+05 0.11789022D+01  1  2  5  3  6  1        1 -.231182699024D-07 0.100000000000D+01
  </mgrwgt>
  </event>
  <event>
  6     66 -.10089070E-05 0.45411442E+02 0.78161638E-02 0.11715263E+00
        3 -1    0    0  501    0 0.00000000E+00 0.00000000E+00 0.25169463E+02 0.25169463E+02 0.00000000E+00 0.0000E+00 0.9000E+01
       22 -1    0    0    0    0 0.00000000E+00 0.00000000E+00 -.39655328E+03 0.39655328E+03 0.00000000E+00 0.0000E+00 0.9000E+01
      -24  2    1    2    0    0 0.20545011E+02 0.50590685E+02 -.34885516E+03 0.36265452E+03 0.82685330E+02 0.0000E+00 0.0000E+00
  9900012  1    3    3    0    0 -.21504658E+01 0.39230339E+02 -.30847237E+03 0.31495848E+03 0.50000000E+02 0.0000E+00 0.9000E+01
       13  1    3    3    0    0 0.22695477E+02 0.11360346E+02 -.40382791E+02 0.47696036E+02 0.00000000E+00 0.0000E+00 0.9000E+01
        4  1    1    2  501    0 -.20545011E+02 -.50590685E+02 -.22528662E+02 0.59068227E+02 0.00000000E+00 0.0000E+00 0.9000E+01
#aMCatNLO 1  0  0  1  5 0.41871400D+02 0.00000000D+00  -5  6  0 0.00000000D+00 0.00000000D+00 0.00000000D+00 0.00000000D+00 0.00000000D+00
  <mgrwgt>
 -.6636406654D-04    7    2    0
 0.999051209589519D+02 0.000000000000000D+00 0.000000000000000D+00 0.999051209589519D+02
 0.999051209589519D+02 0.000000000000000D+00 0.000000000000000D+00 -.999051209589519D+02
 0.914042725970739D+02 -.215046582593107D+01 0.392303391649060D+02 -.656589448189517D+02
 0.256092400923107D+02 0.226954768715015D+02 0.113603455645063D+02 0.341921867328719D+01
 0.827967292285192D+02 -.205450110455704D+02 -.505906847294123D+02 0.622397261456645D+02
 0.000000000000000D+00 0.000000000000000D+00 -.000000000000000D+00 0.000000000000000D+00
 0.865691686974002D+03 0.000000000000000D+00 0.000000000000000D+00 0.865691686974002D+03
 0.102632089793131D+03 0.000000000000000D+00 0.000000000000000D+00 -.102632089793131D+03
 0.993435666647644D+02 -.164501527339724D+02 0.527962089355601D+02 -.656589448189517D+02
 0.243558473968892D+02 0.189497720174209D+02 0.149138320552623D+02 0.341921867328719D+01
 0.804240052236959D+02 -.327810888360159D+02 -.389825258322108D+02 0.622397261456645D+02
 0.764200357481783D+03 0.302814695525674D+02 -.287275151586116D+02 0.763059597180872D+03
0.242819384492D-06 0.000000000000D+00 0.000000000000D+00 0.162145939106D-06 0.000000000000D+00  6 3 22 9900012 13 4 21 0 0.38722251D-02 0.61008198D-01 0.51532914D+04 0.51532914D+04 0.51532914D+04 0.12403715D+01  1  2  2  1  6  1        3 0.134112737278D-04 0.100000000000D+01
0.625765715941D-09 0.000000000000D+00 -.466245186132D-09 0.162145939106D-06 0.000000000000D+00  6 3 22 9900012 13 4 21 2 0.38722251D-02 0.61008198D-01 0.51532914D+04 0.51532914D+04 0.51532914D+04 0.12403715D+01  1  2  3  1  6  1        3 0.531743295457D-07 0.100000000000D+01
-.337481182770D-07 0.000000000000D+00 0.000000000000D+00 0.162145939106D-06 0.000000000000D+00  6 3 22 9900012 13 4 21 2 0.38722251D-02 0.61008198D-01 0.51532914D+04 0.51532914D+04 0.51532914D+04 0.12403715D+01  1  2 15  1  6  1        3 -.286774030135D-05 0.100000000000D+01
0.557002098310D-05 0.000000000000D+00 0.000000000000D+00 0.162145939106D-06 0.000000000000D+00  6 3 22 9900012 13 4 21 2 0.34469224D-01 0.61008198D-01 0.91528190D+04 0.91528190D+04 0.91528190D+04 0.12133356D+01  1  2 12  1  6  1        3 0.133594303526D-04 0.100000000000D+01
-.111141959835D-04 0.000000000000D+00 -.146616542164D-06 0.162145939106D-06 0.000000000000D+00  6 3 22 9900012 13 4 21 2 0.33923905D-01 0.61008198D-01 0.51532914D+04 0.51532914D+04 0.51532914D+04 0.12403715D+01  1  2  5  1  6  1        3 -.276137715431D-04 0.100000000000D+01
0.146583229654D-05 0.000000000000D+00 0.000000000000D+00 0.162145939106D-06 0.000000000000D+00  6 21 22 9900012 13 4 -3 2 0.34469224D-01 0.61008198D-01 0.91528190D+04 0.91528190D+04 0.91528190D+04 0.12133356D+01  1  2 12  3  6  1        3 0.564386786647D-04 0.100000000000D+01
-.292754165535D-05 0.000000000000D+00 -.383559260732D-07 0.162145939106D-06 0.000000000000D+00  6 21 22 9900012 13 4 -3 2 0.33923905D-01 0.61008198D-01 0.51532914D+04 0.51532914D+04 0.51532914D+04 0.12403715D+01  1  2  5  3  6  1        3 -.119145111766D-03 0.100000000000D+01
  </mgrwgt>
  </event>
  <event>
  6     66 0.10089070E-05 0.24656561E+02 0.78161638E-02 0.12819072E+00
        1 -1    0    0  501    0 0.00000000E+00 0.00000000E+00 0.15167925E+03 0.15167925E+03 0.00000000E+00 0.0000E+00 0.9000E+01
       22 -1    0    0    0    0 0.00000000E+00 0.00000000E+00 -.45436373E+02 0.45436373E+02 0.00000000E+00 0.0000E+00 0.9000E+01
      -24  2    1    2    0    0 -.35121879E+01 0.24405133E+02 -.38837487E+01 0.84262535E+02 0.80480714E+02 0.0000E+00 0.0000E+00
  9900012  1    3    3    0    0 -.67100401E+01 0.57936760E+01 -.24434627E+02 0.56352838E+02 0.50000000E+02 0.0000E+00 0.9000E+01
       13  1    3    3    0    0 0.31978522E+01 0.18611457E+02 0.20550878E+02 0.27909697E+02 0.00000000E+00 0.0000E+00 0.9000E+01
        2  1    1    2  501    0 0.35121879E+01 -.24405133E+02 0.11012663E+03 0.11285309E+03 0.00000000E+00 0.0000E+00 0.9000E+01
#aMCatNLO 1  0  0  5  5 0.16678806D+02 0.00000000D+00  -5  6  0 0.00000000D+00 0.00000000D+00 0.00000000D+00 0.00000000D+00 0.00000000D+00
  <mgrwgt>
 0.1366073894D-03    6    2    0
 0.830165956932896D+02 0.000000000000000D+00 0.000000000000000D+00 0.830165956932896D+02
 0.830165956932896D+02 -.000000000000000D+00 -.000000000000000D+00 -.830165956932896D+02
 0.825378943387331D+02 -.671004009124147D+01 0.579367596990458D+01 -.650685229784844D+02
 0.199842750798552D+02 0.319785215699220D+01 0.186114573130747D+02 0.653900976700135D+01
 0.635110219679910D+02 0.351218793424927D+01 -.244051332829793D+02 0.585295132114830D+02
 0.000000000000000D+00 0.000000000000000D+00 -.000000000000000D+00 0.000000000000000D+00
 0.830165956932896D+02 0.000000000000000D+00 0.000000000000000D+00 0.830165956932896D+02
 0.830165956932896D+02 -.000000000000000D+00 -.000000000000000D+00 -.830165956932896D+02
 0.784839953543963D+02 -.640839089742038D+01 0.369760681935651D+01 -.600416335279462D+02
 0.199658385692939D+02 0.327269241379389D+01 0.180914149701333D+02 0.778619923442987D+01
 0.480142640191654D+02 0.177030853324236D+02 -.128235685005174D+02 0.427495778918060D+02
 0.195690934437238D+02 -.145673868487971D+02 -.896545328897246D+01 0.950585640171043D+01
0.767733867805D-06 0.000000000000D+00 0.000000000000D+00 0.129091109228D-05 0.000000000000D+00  6 1 22 9900012 13 2 21 0 0.23335270D-01 0.69902113D-02 0.22240930D+04 0.22240930D+04 0.22240930D+04 0.12835202D+01  1  2  2  2  6  5        2 0.123556129783D-03 0.100000000000D+01
0.366331674567D-07 0.000000000000D+00 -.147415010067D-08 0.129091109228D-05 0.000000000000D+00  6 1 22 9900012 13 2 21 2 0.23335270D-01 0.69902113D-02 0.22240930D+04 0.22240930D+04 0.22240930D+04 0.12835202D+01  1  2  3  2  6  5        2 0.971255465660D-05 0.100000000000D+01
-.923913792496D-07 0.000000000000D+00 0.000000000000D+00 0.129091109228D-05 0.000000000000D+00  6 1 22 9900012 13 2 21 2 0.23335270D-01 0.69902113D-02 0.22240930D+04 0.22240930D+04 0.22240930D+04 0.12835202D+01  1  2 15  2  6  5        2 -.244957338680D-04 0.100000000000D+01
-.330056740491D-07 0.000000000000D+00 0.000000000000D+00 0.129091109228D-05 0.000000000000D+00  6 1 22 9900012 13 2 21 2 0.23335270D-01 0.69902113D-02 0.22240930D+04 0.22240930D+04 0.22240930D+04 0.12835202D+01  1  2  4  2  6  5        2 -.875079703546D-05 0.100000000000D+01
-.391412757101D-06 0.000000000000D+00 0.000000000000D+00 0.129091109228D-05 0.000000000000D+00  6 1 22 9900012 13 2 21 2 0.23335270D-01 0.69902113D-02 0.22240930D+04 0.22240930D+04 0.22240930D+04 0.12835202D+01  1  2  5  2  6  5        2 -.103775296011D-03 0.100000000000D+01
0.529402515713D-06 0.000000000000D+00 -.000000000000D+00 0.129091109228D-05 0.000000000000D+00  6 1 22 9900012 13 2 21 2 0.23335270D-01 0.69902113D-02 0.22240930D+04 0.22240930D+04 0.22240930D+04 0.12835202D+01  1  2  6  2  6  5        2 0.140360531894D-03 0.100000000000D+01
  </mgrwgt>
  </event>
  <event>
  6     66 0.10089070E-05 0.87295352E+02 0.78161638E-02 0.10314909E+00
        1 -1    0    0  501    0 0.00000000E+00 0.00000000E+00 0.72336438E+03 0.72336438E+03 0.00000000E+00 0.0000E+00 0.9000E+01
       22 -1    0    0    0    0 0.00000000E+00 0.00000000E+00 -.58829258E+02 0.58829258E+02 0.00000000E+00 0.0000E+00 0.9000E+01
      -24  2    1    2    0    0 0.15051143E+03 -.61830651E+02 0.12951076E+03 0.22297294E+03 0.80418761E+02 0.0000E+00 0.0000E+00
  9900012  1    3    3    0    0 0.66313915E+02 -.12688383E+02 0.59848660E+02 0.10315228E+03 0.50000000E+02 0.0000E+00 0.9000E+01
       13  1    3    3    0    0 0.84197510E+02 -.49142268E+02 0.69662099E+02 0.11982066E+03 0.00000000E+00 0.0000E+00 0.9000E+01
        2  1    1    2  501    0 -.15051143E+03 0.61830651E+02 0.53502436E+03 0.55922069E+03 0.00000000E+00 0.0000E+00 0.9000E+01
#aMCatNLO 1  0  0  1  5 0.12860105D+03 0.00000000D+00  -5  6  0 0.00000000D+00 0.00000000D+00 0.00000000D+00 0.00000000D+00 0.00000000D+00
  <mgrwgt>
 0.7694333775D-04    9    2    0
 0.206288607676664D+03 0.000000000000000D+00 0.000000000000000D+00 0.206288607676664D+03
 0.206288607676664D+03 0.000000000000000D+00 0.000000000000000D+00 -.206288607676664D+03
 0.991657263101124D+02 0.663139153737225D+02 -.126883834704572D+02 -.526812189240674D+02
 0.114960416927969D+03 0.841975102318274D+02 -.491422678110283D+02 -.609238397132268D+02
 0.198451072115246D+03 -.150511425605550D+03 0.618306512814855D+02 0.113605058637294D+03
 0.000000000000000D+00 0.000000000000000D+00 0.000000000000000D+00 0.000000000000000D+00
 0.338955831797779D+03 0.000000000000000D+00 0.000000000000000D+00 0.338955831797779D+03
 0.239547158039588D+03 0.000000000000000D+00 0.000000000000000D+00 -.239547158039588D+03
 0.870870713285460D+02 0.428847456151637D+02 -.216736189590121D+02 -.526812189240674D+02
 0.102465577071142D+03 0.568469920763286D+02 -.596313653289367D+02 -.609238397132268D+02
 0.238278834027287D+03 -.205448689578916D+03 0.407618614359866D+02 0.113605058637294D+03
 0.150671507410391D+03 0.105716951887423D+03 0.405431228519622D+02 0.994086737581911D+02
0.346686227561D-05 0.000000000000D+00 0.000000000000D+00 0.163783656366D-05 0.000000000000D+00  6 1 22 9900012 13 2 21 0 0.11128683D+00 0.90506551D-02 0.29622049D+05 0.29622049D+05 0.29622049D+05 0.11632930D+01  1  2  2  1  6  1        1 0.622934940295D-04 0.100000000000D+01
-.541215085772D-07 0.000000000000D+00 -.665683199206D-08 0.163783656366D-05 0.000000000000D+00  6 1 22 9900012 13 2 21 2 0.11128683D+00 0.90506551D-02 0.29622049D+05 0.29622049D+05 0.29622049D+05 0.11632930D+01  1  2  3  1  6  1        1 -.131599502799D-05 0.100000000000D+01
-.485165887892D-06 0.000000000000D+00 0.000000000000D+00 0.163783656366D-05 0.000000000000D+00  6 1 22 9900012 13 2 21 2 0.11128683D+00 0.90506551D-02 0.29622049D+05 0.29622049D+05 0.29622049D+05 0.11632930D+01  1  2 15  1  6  1        1 -.117970823985D-04 0.100000000000D+01
0.303532888861D-06 0.000000000000D+00 0.000000000000D+00 0.163783656366D-05 0.000000000000D+00  6 1 22 9900012 13 2 21 2 0.21233784D+00 0.90506551D-02 0.56266206D+05 0.56266206D+05 0.56266206D+05 0.11385120D+01  1  2 12  1  6  1        1 0.230624356074D-05 0.100000000000D+01
-.545848322211D-06 0.000000000000D+00 0.000000000000D+00 0.163783656366D-05 0.000000000000D+00  6 1 22 9900012 13 2 21 2 0.11128683D+00 0.90506551D-02 0.29622049D+05 0.29622049D+05 0.29622049D+05 0.11632930D+01  1  2  4  1  6  1        1 -.132726100390D-04 0.100000000000D+01
-.207309747836D-05 0.000000000000D+00 -.994188026125D-06 0.163783656366D-05 0.000000000000D+00  6 1 22 9900012 13 2 21 2 0.19862446D+00 0.90506551D-02 0.29622049D+05 0.29622049D+05 0.29622049D+05 0.11632930D+01  1  2  5  1  6  1        1 -.186115602855D-04 0.100000000000D+01
0.238399257352D-05 0.000000000000D+00 0.847890752882D-06 0.163783656366D-05 0.000000000000D+00  6 1 22 9900012 13 2 21 2 0.11128683D+00 0.90506551D-02 0.29622049D+05 0.29622049D+05 0.29622049D+05 0.11632930D+01  1  2  6  1  6  1        1 0.579681249840D-04 0.100000000000D+01
0.212973682652D-07 0.000000000000D+00 0.000000000000D+00 0.163783656366D-05 0.000000000000D+00  6 21 22 9900012 13 2 -1 2 0.21233784D+00 0.90506551D-02 0.56266206D+05 0.56266206D+05 0.56266206D+05 0.11385120D+01  1  2 12  3  6  1        1 0.160884666517D-06 0.100000000000D+01
-.798109535943D-07 0.000000000000D+00 -.632903225255D-07 0.163783656366D-05 0.000000000000D+00  6 21 22 9900012 13 2 -1 2 0.19862446D+00 0.90506551D-02 0.29622049D+05 0.29622049D+05 0.29622049D+05 0.11632930D+01  1  2  5  3  6  1        1 -.788161738036D-06 0.100000000000D+01
  </mgrwgt>
  </event>
  <event>
  6     66 0.10089070E-05 0.12306387E+03 0.78161638E-02 0.82564919E-01
        3 -1    0    0  501    0 0.00000000E+00 0.00000000E+00 0.15552271E+03 0.15552271E+03 0.00000000E+00 0.0000E+00 0.9000E+01
       22 -1    0    0    0    0 0.00000000E+00 0.00000000E+00 -.37465755E+03 0.37465755E+03 0.00000000E+00 0.0000E+00 0.9000E+01
      -24  2    1    2    0    0 0.33121829E+02 0.11852283E+03 -.33215973E+03 0.36308944E+03 0.79744183E+02 0.0000E+00 0.0000E+00
  9900012  1    3    3    0    0 0.20210058E+02 0.51724442E+02 -.13200491E+03 0.15168771E+03 0.50000000E+02 0.0000E+00 0.9000E+01
       13  1    3    3    0    0 0.12911771E+02 0.66798386E+02 -.20015482E+03 0.21140173E+03 0.00000000E+00 0.0000E+00 0.9000E+01
        4  1    1    2  501    0 -.33121829E+02 -.11852283E+03 0.11302489E+03 0.16709082E+03 0.00000000E+00 0.0000E+00 0.9000E+01
#aMCatNLO 1  0  0  1  5 0.68974918D+01 0.00000000D+00  -5  6  0 0.00000000D+00 0.00000000D+00 0.00000000D+00 0.00000000D+00 0.00000000D+00
  <mgrwgt>
 0.7083463367D-04    3    2    0
 0.241387153403505D+03 0.000000000000000D+00 0.000000000000000D+00 0.241387153403505D+03
 0.241387153403505D+03 0.000000000000000D+00 0.000000000000000D+00 -.241387153403505D+03
 0.106664654962801D+03 0.202100576969056D+02 0.517244420749516D+02 -.761149412287510D+02
 0.141308531080142D+03 0.129117708116796D+02 0.667983864165612D+02 -.123852180855558D+03
 0.234801120764066D+03 -.331218285085851D+02 -.118522828491513D+03 0.199967122084309D+03
 0.000000000000000D+00 0.000000000000000D+00 0.000000000000000D+00 -.000000000000000D+00
 0.137373547209507D+04 0.000000000000000D+00 0.000000000000000D+00 0.137373547209507D+04
 0.199187883965113D+04 0.000000000000000D+00 0.000000000000000D+00 -.199187883965113D+04
 0.245029676913416D+03 -.224021807928657D+03 -.395004792681399D+02 -.761149412287510D+02
 0.369341623425253D+03 -.341705942961227D+03 -.656576015149926D+02 -.123852180855558D+03
 0.104629573819829D+04 -.922771298382746D+03 -.450822640001854D+03 0.199967122084309D+03
 0.170494727320925D+04 0.148849904927263D+04 0.555980720784986D+03 -.618143367556061D+03
0.247300483973D-04 0.000000000000D+00 0.000000000000D+00 0.111343298554D-04 0.000000000000D+00  6 3 22 9900012 13 4 21 0 0.23926571D-01 0.57639623D-01 0.17665595D+05 0.17665595D+05 0.17665595D+05 0.11845191D+01  1  2  2  1  6  1        3 0.900478248529D-04 0.100000000000D+01
0.646808156179D-07 0.000000000000D+00 -.474849487085D-07 0.111343298554D-04 0.000000000000D+00  6 3 22 9900012 13 4 21 2 0.23926571D-01 0.57639623D-01 0.17665595D+05 0.17665595D+05 0.17665595D+05 0.11845191D+01  1  2  3  1  6  1        3 0.330451602382D-06 0.100000000000D+01
-.382536730455D-05 0.000000000000D+00 0.000000000000D+00 0.111343298554D-04 0.000000000000D+00  6 3 22 9900012 13 4 21 2 0.23926571D-01 0.57639623D-01 0.17665595D+05 0.17665595D+05 0.17665595D+05 0.11845191D+01  1  2 15  1  6  1        3 -.195436427851D-04 0.100000000000D+01
  </mgrwgt>
  </event>
  <event>
  7     66 -.10089070E-05 0.70252061E+02 0.78161638E-02 0.11321862E+00
        1 -1    0    0  502    0 0.00000000E+00 0.00000000E+00 0.41025755E+03 0.41025755E+03 0.00000000E+00 0.0000E+00 0.9000E+01
       22 -1    0    0    0    0 0.00000000E+00 0.00000000E+00 -.83202155E+02 0.83202155E+02 0.00000000E+00 0.0000E+00 0.9000E+01
      -24  2    1    2    0    0 0.23193937E+02 -.88823515E+02 -.20745059E+02 0.12307772E+03 0.79310739E+02 0.0000E+00 0.0000E+00
  9900012  1    3    3    0    0 0.34572566E+02 -.50579015E+02 -.22823910E+01 0.79111999E+02 0.50000000E+02 0.0000E+00 0.9000E+01
       13  1    3    3    0    0 -.11378629E+02 -.38244500E+02 -.18462668E+02 0.43965726E+02 0.00000000E+00 0.0000E+00 0.9000E+01
        2  1    1    2  501    0 -.52449732E+02 0.70164779E+02 0.29023344E+03 0.30316583E+03 0.00000000E+00 0.0000E+00 0.9000E+01
       21  1    1    2  502  501 0.29255795E+02 0.18658736E+02 0.57567015E+02 0.67216152E+02 0.00000000E+00 0.0000E+00 0.9000E+01
#aMCatNLO 2  0  0  1  5 0.40781628D+02 0.00000000D+00  -5  6  0 0.00000000D+00 0.00000000D+00 0.00000000D+00 0.00000000D+00 0.00000000D+00
  <mgrwgt>
 -.4446790120D-04    2    2    0
 0.164206828162505D+03 0.000000000000000D+00 0.000000000000000D+00 0.164206828162505D+03
 0.164206828162505D+03 0.000000000000000D+00 0.000000000000000D+00 -.164206828162505D+03
 0.104757412309940D+03 0.438438176218628D+02 -.446660041220825D+02 -.675039492621108D+02
 0.690260477013927D+02 -.512292527699184D+01 -.342547424772361D+02 -.597073154286771D+02
 0.154630196313678D+03 -.387208923448710D+02 0.789207465993185D+02 0.127211264690788D+03
 0.000000000000000D+00 0.000000000000000D+00 0.000000000000000D+00 0.000000000000000D+00
 0.194736138744983D+03 0.000000000000000D+00 0.000000000000000D+00 0.194736138744983D+03
 0.175284939922339D+03 0.000000000000000D+00 0.000000000000000D+00 -.175284939922339D+03
 0.103972507181820D+03 0.345725658297088D+02 -.505790151707457D+02 -.675039492621108D+02
 0.718128014194161D+02 -.113786285106040D+02 -.382444995420599D+02 -.597073154286771D+02
 0.154456390146662D+03 -.524497318693088D+02 0.701647790543507D+02 0.127211264690788D+03
 0.397793799194237D+02 0.292557945502040D+02 0.186587356584550D+02 0.194511988226434D+02
-.164382899474D-05 0.000000000000D+00 0.000000000000D+00 0.283737374002D-05 0.000000000000D+00  6 1 22 9900012 13 2 21 2 0.67374665D-01 0.11991343D-01 0.14554200D+05 0.14554200D+05 0.14554200D+05 0.11927897D+01  1  2 13  1  6  1        1 -.543850830203D-04 0.100000000000D+01
0.302453707797D-06 0.000000000000D+00 0.000000000000D+00 0.283737374002D-05 0.394580957762D-08  6 1 22 9900012 13 2 21 2 0.63116546D-01 0.12800332D-01 0.14554200D+05 0.14554200D+05 0.14554200D+05 0.11927897D+01  1  2  1  1  6  1        1 0.991718181603D-05 0.100000000000D+01
  </mgrwgt>
  </event>
  <event>
  7     66 -.10089070E-05 0.34865560E+02 0.78161638E-02 0.12422557E+00
        3 -1    0    0  501    0 0.00000000E+00 0.00000000E+00 0.23059334E+03 0.23059334E+03 0.00000000E+00 0.0000E+00 0.9000E+01
       22 -1    0    0    0    0 0.00000000E+00 0.00000000E+00 -.43385238E+02 0.43385238E+02 0.00000000E+00 0.0000E+00 0.9000E+01
      -24  2    1    2    0    0 -.71442660E+01 0.30522086E+02 0.11641418E+02 0.86921139E+02 0.80231686E+02 0.0000E+00 0.0000E+00
  9900012  1    3    3    0    0 0.79897386E+01 -.73015775E+00 0.11711327E+01 0.50653140E+02 0.50000000E+02 0.0000E+00 0.9000E+01
       13  1    3    3    0    0 -.15134005E+02 0.31252244E+02 0.10470286E+02 0.36267998E+02 0.00000000E+00 0.0000E+00 0.9000E+01
        4  1    1    2  502    0 0.77457070E+01 -.37657644E+02 0.17573828E+03 0.17989452E+03 0.00000000E+00 0.0000E+00 0.9000E+01
       21  1    1    2  501  502 -.60144093E+00 0.71355583E+01 -.17160351E+00 0.71629163E+01 0.00000000E+00 0.0000E+00 0.9000E+01
#aMCatNLO 2  0  0  5  1 0.17550448D+02 0.00000000D+00  -5  6  0 0.00000000D+00 0.00000000D+00 0.00000000D+00 0.00000000D+00 0.00000000D+00
  <mgrwgt>
 -.1496446623D-04    5    2    0
 0.100021732218731D+03 0.000000000000000D+00 0.000000000000000D+00 0.100021732218731D+03
 0.100021732218731D+03 -.000000000000000D+00 -.000000000000000D+00 -.100021732218731D+03
 0.727336045141225D+02 0.728313072799414D+01 0.228864717813867D+01 -.522675360669482D+02
 0.433774397564648D+02 -.155511758708814D+02 0.330345033312699D+02 -.234197523154060D+02
 0.839324201668747D+02 0.826804514288721D+01 -.353231505094085D+02 0.756872883823542D+02
 0.000000000000000D+00 0.000000000000000D+00 0.000000000000000D+00 0.000000000000000D+00
 0.100021732218731D+03 0.000000000000000D+00 0.000000000000000D+00 0.100021732218731D+03
 0.100021732218731D+03 -.000000000000000D+00 -.000000000000000D+00 -.100021732218731D+03
 0.682783099029873D+02 0.798973857761003D+01 -.730157749962563D+00 -.457991108028311D+02
 0.398739959369936D+02 -.151340046113041D+02 0.312522436875953D+02 -.196008857172213D+02
 0.819202695703199D+02 0.774570696217198D+01 -.376576441906214D+02 0.723383468441366D+02
 0.997088902716121D+01 -.601440928477931D+00 0.713555825298871D+01 -.693835032408425D+01
-.242483174747D-06 0.000000000000D+00 0.000000000000D+00 0.194377123774D-05 0.000000000000D+00  6 3 22 9900012 13 4 21 2 0.35475898D-01 0.66746521D-02 0.42883002D+04 0.42883002D+04 0.42883002D+04 0.12494257D+01  1  2 13  2  6  5        4 -.153900847665D-04 0.100000000000D+01
-.731829064209D-13 0.000000000000D+00 0.000000000000D+00 0.194377123774D-05 0.000000000000D+00  6 3 22 9900012 13 4 21 2 0.35475898D-01 0.66746521D-02 0.38049921D+04 0.38049921D+04 0.38049921D+04 0.12554250D+01  1  2  8  2  6  5        4 -.463366673261D-11 0.100000000000D+01
-.106015050780D-11 0.000000000000D+00 0.000000000000D+00 0.194377123774D-05 0.000000000000D+00  6 3 22 9900012 13 4 21 2 0.35475898D-01 0.66746521D-02 0.38049921D+04 0.38049921D+04 0.38049921D+04 0.12554250D+01  1  2  9  2  6  5        4 -.671247478381D-10 0.100000000000D+01
0.119351415438D-11 0.000000000000D+00 0.000000000000D+00 0.194377123774D-05 0.000000000000D+00  6 3 22 9900012 13 4 21 2 0.35475898D-01 0.66746521D-02 0.38049921D+04 0.38049921D+04 0.38049921D+04 0.12554250D+01  1  2 10  2  6  5        4 0.755688329761D-10 0.100000000000D+01
0.670590260018D-08 0.000000000000D+00 0.000000000000D+00 0.194377123774D-05 0.197364756139D-08  6 3 22 9900012 13 4 21 2 0.35475898D-01 0.66746521D-02 0.42883002D+04 0.42883002D+04 0.42883002D+04 0.12494257D+01  1  2  1  2  6  5        4 0.425614723828D-06 0.100000000000D+01
  </mgrwgt>
  </event>
  <event>
  6     66 0.10089070E-05 0.24509292E+02 0.78161638E-02 0.12696275E+00
        3 -1    0    0  501    0 0.00000000E+00 0.00000000E+00 0.44434073E+01 0.44434073E+01 0.00000000E+00 0.0000E+00 0.9000E+01
       22 -1    0    0    0    0 -.00000000E+00 -.00000000E+00 -.87141519E+03 0.87141519E+03 0.00000000E+00 0.0000E+00 0.9000E+01
      -24  2    1    2    0    0 -.22200542E+02 0.23929136E+02 -.71368869E+03 0.71913855E+03 0.82117209E+02 0.0000E+00 0.0000E+00
  9900012  1    3    3    0    0 -.24454122E+02 -.15565797E+01 -.60138811E+03 0.60396034E+03 0.50000000E+02 0.0000E+00 0.9000E+01
       13  1    3    3    0    0 0.22535804E+01 0.25485716E+02 -.11230058E+03 0.11517821E+03 0.00000000E+00 0.0000E+00 0.9000E+01
        4  1    1    2  501    0 0.22200542E+02 -.23929136E+02 -.15328309E+03 0.15672004E+03 0.00000000E+00 0.0000E+00 0.9000E+01
#aMCatNLO 1  0  0  5  1 0.54035577D+01 0.00000000D+00  -5  6  0 0.00000000D+00 0.00000000D+00 0.00000000D+00 0.00000000D+00 0.00000000D+00
  <mgrwgt>
 0.7729493481D-04    6    2    0
 0.622258192801471D+02 0.000000000000000D+00 0.000000000000000D+00 0.622258192801471D+02
 0.622258192801471D+02 -.000000000000000D+00 -.000000000000000D+00 -.622258192801471D+02
 0.610464419979469D+02 -.244541222201806D+02 -.155657970746860D+01 -.250248086239129D+02
 0.282711699648908D+02 0.225358042525878D+01 0.254857155984134D+02 0.120274156362630D+02
 0.351340265974565D+02 0.222005417949219D+02 -.239291358909448D+02 0.129973929876498D+02
 0.000000000000000D+00 0.000000000000000D+00 0.000000000000000D+00 0.000000000000000D+00
 0.622258192801471D+02 0.000000000000000D+00 0.000000000000000D+00 0.622258192801471D+02
 0.622258192801471D+02 -.000000000000000D+00 -.000000000000000D+00 -.622258192801471D+02
 0.601181470737778D+02 -.228672662528129D+02 -.326699256285150D+01 -.240957776654255D+02
 0.278192001205970D+02 0.298817903334991D+01 0.246939191602592D+02 0.124574892302203D+02
 0.330897815318981D+02 0.203564227628870D+02 -.242141951866633D+02 0.970682469139792D+01
 0.342450983402134D+01 -.477335543424033D+00 0.278726858925565D+01 0.193146374380721D+01
0.479932727937D-06 0.000000000000D+00 0.000000000000D+00 0.565182580437D-07 0.000000000000D+00  6 3 22 9900012 13 4 21 0 0.68360112D-03 0.13406388D+00 0.32437660D+04 0.32437660D+04 0.32437660D+04 0.12635724D+01  1  2  2  2  6  5        4 0.670188515040D-04 0.100000000000D+01
-.301411629220D-08 0.000000000000D+00 -.921534022233D-09 0.565182580437D-07 0.000000000000D+00  6 3 22 9900012 13 4 21 2 0.68360112D-03 0.13406388D+00 0.32437660D+04 0.32437660D+04 0.32437660D+04 0.12635724D+01  1  2  3  2  6  5        4 -.672011781574D-06 0.100000000000D+01
-.512176785087D-07 0.000000000000D+00 0.000000000000D+00 0.565182580437D-07 0.000000000000D+00  6 3 22 9900012 13 4 21 2 0.68360112D-03 0.13406388D+00 0.32437660D+04 0.32437660D+04 0.32437660D+04 0.12635724D+01  1  2 15  2  6  5        4 -.114192287377D-04 0.100000000000D+01
0.159699339718D-06 0.000000000000D+00 0.000000000000D+00 0.565182580437D-07 0.000000000000D+00  6 3 22 9900012 13 4 21 2 0.68360112D-03 0.13406388D+00 0.32726361D+04 0.32726361D+04 0.32726361D+04 0.12631156D+01  1  2 12  2  6  5        4 0.356252668607D-04 0.100000000000D+01
-.149552889249D-06 0.000000000000D+00 0.000000000000D+00 0.565182580437D-07 0.000000000000D+00  6 3 22 9900012 13 4 21 2 0.68360112D-03 0.13406388D+00 0.32437660D+04 0.32437660D+04 0.32437660D+04 0.12635724D+01  1  2  4  2  6  5        4 -.333435388022D-04 0.100000000000D+01
0.900388029156D-07 0.000000000000D+00 0.000000000000D+00 0.565182580437D-07 0.201254630446D-07  6 3 22 9900012 13 4 21 2 0.68360112D-03 0.13406388D+00 0.32726361D+04 0.32726361D+04 0.32726361D+04 0.12631156D+01  1  2 11  2  6  5        4 0.200855957661D-04 0.100000000000D+01
  </mgrwgt>
  </event>
  <event>
  6     66 0.10089070E-05 0.77140457E+02 0.78161638E-02 0.11455558E+00
        1 -1    0    0  501    0 0.00000000E+00 0.00000000E+00 0.48958816E+03 0.48958816E+03 0.00000000E+00 0.0000E+00 0.9000E+01
       22 -1    0    0    0    0 0.00000000E+00 0.00000000E+00 -.13568369E+03 0.13568369E+03 0.00000000E+00 0.0000E+00 0.9000E+01
      -24  2    1    2    0    0 -.79526210E+02 -.20995654E+02 -.10426414E+03 0.15977886E+03 0.88842773E+02 0.0000E+00 0.0000E+00
  9900012  1    3    3    0    0 -.24878692E+02 0.11239160E+02 -.41052885E+02 0.70218284E+02 0.50000000E+02 0.0000E+00 0.9000E+01
       13  1    3    3    0    0 -.54647518E+02 -.32234814E+02 -.63211257E+02 0.89560579E+02 0.00000000E+00 0.0000E+00 0.9000E+01
        2  1    1    2  501    0 0.79526210E+02 0.20995654E+02 0.45816862E+03 0.46549298E+03 0.00000000E+00 0.0000E+00 0.9000E+01
#aMCatNLO 1  0  0  5  1 0.21954502D+02 0.00000000D+00  -5  6  0 0.00000000D+00 0.00000000D+00 0.00000000D+00 0.00000000D+00 0.00000000D+00
  <mgrwgt>
 0.3404836749D-03    7    2    0
 0.257738484030525D+03 0.000000000000000D+00 0.000000000000000D+00 0.257738484030525D+03
 0.257738484030525D+03 -.000000000000000D+00 -.000000000000000D+00 -.257738484030525D+03
 0.113359702781334D+03 -.248786921139710D+02 0.112391597851976D+02 -.980058885000965D+02
 0.152034834642359D+03 -.546475178036042D+02 -.322348135102221D+02 -.138163513782023D+03
 0.250082430637358D+03 0.795262099175752D+02 0.209956537250245D+02 0.236169402282120D+03
 0.000000000000000D+00 0.000000000000000D+00 0.000000000000000D+00 0.000000000000000D+00
 0.257738484030525D+03 0.000000000000000D+00 0.000000000000000D+00 0.257738484030525D+03
 0.257738484030525D+03 -.000000000000000D+00 -.000000000000000D+00 -.257738484030525D+03
 0.111755860793259D+03 -.242965067568799D+02 0.113928620950894D+02 -.962769695946927D+02
 0.149605882096460D+03 -.538674259894297D+02 -.320288620682873D+02 -.135846871034057D+03
 0.220102797025586D+03 0.896272594683668D+02 0.185771217615369D+02 0.200167645152090D+03
 0.340124281457464D+02 -.114633267220572D+02 0.205887821166109D+01 0.319561954766596D+02
0.637968066725D-05 0.000000000000D+00 0.000000000000D+00 0.597198758416D-06 0.000000000000D+00  6 1 22 9900012 13 2 21 0 0.75321256D-01 0.20874413D-01 0.10268237D+05 0.10268237D+05 0.10268237D+05 0.12081403D+01  1  2  2  2  6  5        2 0.558891925412D-04 0.100000000000D+01
0.138902039389D-06 0.000000000000D+00 -.122498267854D-07 0.597198758416D-06 0.000000000000D+00  6 1 22 9900012 13 2 21 2 0.75321256D-01 0.20874413D-01 0.10268237D+05 0.10268237D+05 0.10268237D+05 0.12081403D+01  1  2  3  2  6  5        2 0.177611978806D-05 0.100000000000D+01
-.934576124665D-06 0.000000000000D+00 0.000000000000D+00 0.597198758416D-06 0.000000000000D+00  6 1 22 9900012 13 2 21 2 0.75321256D-01 0.20874413D-01 0.10268237D+05 0.10268237D+05 0.10268237D+05 0.12081403D+01  1  2 15  2  6  5        2 -.119502863728D-04 0.100000000000D+01
0.225244513684D-04 0.000000000000D+00 0.000000000000D+00 0.597198758416D-06 0.000000000000D+00  6 1 22 9900012 13 2 21 2 0.75321256D-01 0.20874413D-01 0.12387161D+05 0.12387161D+05 0.12387161D+05 0.11998116D+01  1  2 12  2  6  5        2 0.286529981513D-03 0.100000000000D+01
-.262952092644D-05 0.000000000000D+00 0.000000000000D+00 0.597198758416D-06 0.000000000000D+00  6 1 22 9900012 13 2 21 2 0.75321256D-01 0.20874413D-01 0.10268237D+05 0.10268237D+05 0.10268237D+05 0.12081403D+01  1  2  4  2  6  5        2 -.336232943094D-04 0.100000000000D+01
-.225539295624D-04 0.000000000000D+00 0.000000000000D+00 0.597198758416D-06 0.000000000000D+00  6 1 22 9900012 13 2 21 2 0.75321256D-01 0.20874413D-01 0.10268237D+05 0.10268237D+05 0.10268237D+05 0.12081403D+01  1  2  5  2  6  5        2 -.288393754118D-03 0.100000000000D+01
0.258277582179D-04 0.000000000000D+00 -.000000000000D+00 0.597198758416D-06 0.000000000000D+00  6 1 22 9900012 13 2 21 2 0.75321256D-01 0.20874413D-01 0.10268237D+05 0.10268237D+05 0.10268237D+05 0.12081403D+01  1  2  6  2  6  5        2 0.330255715852D-03 0.100000000000D+01
  </mgrwgt>
  </event>
  <event>
  6     66 0.10089070E-05 0.62409308E+02 0.78161638E-02 0.11746880E+00
        1 -1    0    0  501    0 0.00000000E+00 0.00000000E+00 0.14328752E+04 0.14328752E+04 0.00000000E+00 0.0000E+00 0.9000E+01
       22 -1    0    0    0    0 0.00000000E+00 0.00000000E+00 -.62809756E+01 0.62809756E+01 0.00000000E+00 0.0000E+00 0.9000E+01
      -24  2    1    2    0    0 -.34557345E+01 -.75428659E+02 0.70180145E+03 0.71044087E+03 0.80619697E+02 0.0000E+00 0.0000E+00
  9900012  1    3    3    0    0 -.12283210E+02 -.33703093E+02 0.52375324E+03 0.52735589E+03 0.50000000E+02 0.0000E+00 0.9000E+01
       13  1    3    3    0    0 0.88274751E+01 -.41725566E+02 0.17804821E+03 0.18308498E+03 0.00000000E+00 0.0000E+00 0.9000E+01
        2  1    1    2  501    0 0.34557345E+01 0.75428659E+02 0.72479274E+03 0.72871526E+03 0.00000000E+00 0.0000E+00 0.9000E+01
#aMCatNLO 1  0  0  1  5 0.83490595D+01 0.00000000D+00  -5  6  0 0.00000000D+00 0.00000000D+00 0.00000000D+00 0.00000000D+00 0.00000000D+00
  <mgrwgt>
 0.2599637357D-03   11    2    0
 0.948675599924253D+02 0.000000000000000D+00 0.000000000000000D+00 0.948675599924253D+02
 0.948675599924253D+02 0.000000000000000D+00 0.000000000000000D+00 -.948675599924253D+02
 0.620029383202846D+02 -.122832095612016D+02 -.337030926521372D+02 0.758871984632971D+01
 0.499925408165668D+02 0.882747505668960D+01 -.417255660637610D+02 -.260826946092296D+02
 0.777396408479992D+02 0.345573450451198D+01 0.754286587158982D+02 0.184939747628999D+02
 0.000000000000000D+00 0.000000000000000D+00 -.000000000000000D+00 0.000000000000000D+00
 0.145683184556172D+03 0.000000000000000D+00 0.000000000000000D+00 0.145683184556172D+03
 0.952985010735102D+02 0.000000000000000D+00 0.000000000000000D+00 -.952985010735102D+02
 0.606797381239576D+02 -.126701450044875D+02 -.310468899481294D+02 0.758871984632971D+01
 0.481770524982600D+02 0.851785273504315D+01 -.396000961378363D+02 -.260826946092296D+02
 0.810600737979271D+02 0.295488760614718D+01 0.788668314364769D+02 0.184939747628999D+02
 0.510648212095375D+02 0.119740466329713D+01 -.821984535051111D+01 0.503846834826619D+02
0.460802631990D-06 0.000000000000D+00 0.000000000000D+00 0.259744205010D-06 0.000000000000D+00  6 1 22 9900012 13 2 21 0 0.22044233D+00 0.96630394D-03 0.80724546D+04 0.80724546D+04 0.80724546D+04 0.12190938D+01  1  2  2  1  6  1        1 0.498787539139D-04 0.100000000000D+01
-.141459669971D-07 0.000000000000D+00 -.884801719481D-09 0.259744205010D-06 0.000000000000D+00  6 1 22 9900012 13 2 21 2 0.22044233D+00 0.96630394D-03 0.80724546D+04 0.80724546D+04 0.80724546D+04 0.12190938D+01  1  2  3  1  6  1        1 -.227566094175D-05 0.100000000000D+01
-.521724588033D-07 0.000000000000D+00 0.000000000000D+00 0.259744205010D-06 0.000000000000D+00  6 1 22 9900012 13 2 21 2 0.22044233D+00 0.96630394D-03 0.80724546D+04 0.80724546D+04 0.80724546D+04 0.12190938D+01  1  2 15  1  6  1        1 -.839298061120D-05 0.100000000000D+01
0.670004860896D-05 0.000000000000D+00 0.000000000000D+00 0.259744205010D-06 0.000000000000D+00  6 1 22 9900012 13 2 21 2 0.34005959D+00 0.96630394D-03 0.88301661D+04 0.88301661D+04 0.88301661D+04 0.12149718D+01  1  2 12  1  6  1        1 0.338402090006D-03 0.100000000000D+01
-.485461022556D-05 0.000000000000D+00 0.000000000000D+00 0.259744205010D-06 0.000000000000D+00  6 1 22 9900012 13 2 21 2 0.22044233D+00 0.96630394D-03 0.80724546D+04 0.80724546D+04 0.80724546D+04 0.12190938D+01  1  2  4  1  6  1        1 -.780960883054D-03 0.100000000000D+01
-.681072172802D-05 0.000000000000D+00 -.136022510024D-06 0.259744205010D-06 0.000000000000D+00  6 1 22 9900012 13 2 21 2 0.33892912D+00 0.96630394D-03 0.80724546D+04 0.80724546D+04 0.80724546D+04 0.12190938D+01  1  2  5  1  6  1        1 -.348895757954D-03 0.100000000000D+01
0.628996020768D-05 0.000000000000D+00 0.124340474524D-06 0.259744205010D-06 0.000000000000D+00  6 1 22 9900012 13 2 21 2 0.22044233D+00 0.96630394D-03 0.80724546D+04 0.80724546D+04 0.80724546D+04 0.12190938D+01  1  2  6  1  6  1        1 0.101186555664D-02 0.100000000000D+01
0.102049717101D-07 0.000000000000D+00 0.000000000000D+00 0.259744205010D-06 0.251104786597D-07  6 1 22 9900012 13 2 21 2 0.33852184D+00 0.97069343D-03 0.88301661D+04 0.88301661D+04 0.88301661D+04 0.12149718D+01  1  2 11  1  6  1        1 0.520134895813D-06 0.100000000000D+01
0.338495993967D-06 0.000000000000D+00 0.000000000000D+00 0.259744205010D-06 0.000000000000D+00  6 21 22 9900012 13 2 -1 2 0.34005959D+00 0.96630394D-03 0.88301661D+04 0.88301661D+04 0.88301661D+04 0.12149718D+01  1  2 12  3  6  1        1 0.107533365107D-04 0.100000000000D+01
-.336996088780D-06 0.000000000000D+00 -.683251670292D-08 0.259744205010D-06 0.000000000000D+00  6 21 22 9900012 13 2 -1 2 0.33892912D+00 0.96630394D-03 0.80724546D+04 0.80724546D+04 0.80724546D+04 0.12190938D+01  1  2  5  3  6  1        1 -.109497927350D-04 0.100000000000D+01
0.587892694489D-09 0.000000000000D+00 0.000000000000D+00 0.259744205010D-06 0.144226598391D-08  6 21 22 9900012 13 2 -1 2 0.33852184D+00 0.97069343D-03 0.88301661D+04 0.88301661D+04 0.88301661D+04 0.12149718D+01  1  2 11  3  6  1        1 0.189390478470D-07 0.100000000000D+01
  </mgrwgt>
  </event>
  <event>
  6     66 0.10089070E-05 0.16130688E+02 0.78161638E-02 0.12886791E+00
        1 -1    0    0  501    0 0.00000000E+00 0.00000000E+00 0.78967607E+03 0.78967607E+03 0.00000000E+00 0.0000E+00 0.9000E+01
       22 -1    0    0    0    0 0.00000000E+00 0.00000000E+00 -.16238145E+02 0.16238145E+02 0.00000000E+00 0.0000E+00 0.9000E+01
      -24  2    1    2    0    0 0.54436753E+01 0.17256223E+02 0.86121405E+02 0.11835956E+03 0.79149715E+02 0.0000E+00 0.0000E+00
  9900012  1    3    3    0    0 -.57071428E+01 0.34063030E+02 0.60481180E+02 0.85737008E+02 0.50000000E+02 0.0000E+00 0.9000E+01
       13  1    3    3    0    0 0.11150818E+02 -.16806807E+02 0.25640226E+02 0.32622549E+02 0.00000000E+00 0.0000E+00 0.9000E+01
        2  1    1    2  501    0 -.54436753E+01 -.17256223E+02 0.68731652E+03 0.68755466E+03 0.00000000E+00 0.0000E+00 0.9000E+01
#aMCatNLO 1  0  0  1  5 0.54687788D+01 0.00000000D+00  -5  6  0 0.00000000D+00 0.00000000D+00 0.00000000D+00 0.00000000D+00 0.00000000D+00
  <mgrwgt>
 0.1464202311D-03   11    2    0
 0.113238132757751D+03 0.000000000000000D+00 0.000000000000000D+00 0.113238132757751D+03
 0.113238132757751D+03 0.000000000000000D+00 0.000000000000000D+00 -.113238132757751D+03
 0.985455824436486D+02 -.570714279831644D+01 0.340630295266157D+02 -.775781564598340D+02
 0.285233094155992D+02 0.111508181159956D+02 -.168068066953417D+02 -.201685320255940D+02
 0.994073736562544D+02 -.544367531767920D+01 -.172562228312740D+02 0.977466884854280D+02
 0.000000000000000D+00 -.000000000000000D+00 0.000000000000000D+00 0.000000000000000D+00
 0.116982237891818D+03 0.000000000000000D+00 0.000000000000000D+00 0.116982237891818D+03
 0.114702493851175D+03 0.000000000000000D+00 0.000000000000000D+00 -.114702493851175D+03
 0.979407754378277D+02 -.449351411444314D+01 0.324628012432664D+02 -.775781564598340D+02
 0.289408194636487D+02 0.115057542848655D+02 -.172748072491820D+02 -.201685320255940D+02
 0.996419997741891D+02 -.421421576788229D+01 -.188773248791754D+02 0.977466884854280D+02
 0.516113706732749D+01 -.279802440254010D+01 0.368933088509112D+01 0.227974404064242D+01
0.455265764459D-06 0.000000000000D+00 0.000000000000D+00 0.316345164511D-05 0.000000000000D+00  6 1 22 9900012 13 2 21 0 0.12148863D+00 0.24981762D-02 0.24518805D+04 0.24518805D+04 0.24518805D+04 0.12782750D+01  1  2  2  1  6  1        1 0.365463596446D-04 0.100000000000D+01
0.631205140256D-07 0.000000000000D+00 -.874170204876D-09 0.316345164511D-05 0.000000000000D+00  6 1 22 9900012 13 2 21 2 0.12148863D+00 0.24981762D-02 0.24518805D+04 0.24518805D+04 0.24518805D+04 0.12782750D+01  1  2  3  1  6  1        1 0.827938886687D-05 0.100000000000D+01
-.578288242577D-07 0.000000000000D+00 0.000000000000D+00 0.316345164511D-05 0.000000000000D+00  6 1 22 9900012 13 2 21 2 0.12148863D+00 0.24981762D-02 0.24518805D+04 0.24518805D+04 0.24518805D+04 0.12782750D+01  1  2 15  1  6  1        1 -.758528873117D-05 0.100000000000D+01
0.486860691960D-06 0.000000000000D+00 0.000000000000D+00 0.316345164511D-05 0.000000000000D+00  6 1 22 9900012 13 2 21 2 0.12712852D+00 0.24981762D-02 0.27306505D+04 0.27306505D+04 0.27306505D+04 0.12725572D+01  1  2 12  1  6  1        1 0.596168875047D-04 0.100000000000D+01
-.173444883099D-07 0.000000000000D+00 0.000000000000D+00 0.316345164511D-05 0.000000000000D+00  6 1 22 9900012 13 2 21 2 0.12148863D+00 0.24981762D-02 0.24518805D+04 0.24518805D+04 0.24518805D+04 0.12782750D+01  1  2  4  1  6  1        1 -.227504109609D-05 0.100000000000D+01
-.695185492659D-05 0.000000000000D+00 -.119957047196D-05 0.316345164511D-05 0.000000000000D+00  6 1 22 9900012 13 2 21 2 0.12660076D+00 0.24981762D-02 0.24518805D+04 0.24518805D+04 0.24518805D+04 0.12782750D+01  1  2  5  1  6  1        1 -.857728019352D-03 0.100000000000D+01
0.699637295985D-05 0.000000000000D+00 0.119855221064D-05 0.316345164511D-05 0.000000000000D+00  6 1 22 9900012 13 2 21 2 0.12148863D+00 0.24981762D-02 0.24518805D+04 0.24518805D+04 0.24518805D+04 0.12782750D+01  1  2  6  1  6  1        1 0.917699947260D-03 0.100000000000D+01
0.995170601712D-08 0.000000000000D+00 0.000000000000D+00 0.316345164511D-05 0.204648505174D-07  6 1 22 9900012 13 2 21 2 0.12550553D+00 0.25304818D-02 0.27306505D+04 0.27306505D+04 0.27306505D+04 0.12725572D+01  1  2 11  1  6  1        1 0.122122991312D-05 0.100000000000D+01
0.996809203639D-08 0.000000000000D+00 0.000000000000D+00 0.316345164511D-05 0.000000000000D+00  6 21 22 9900012 13 2 -1 2 0.12712852D+00 0.24981762D-02 0.27306505D+04 0.27306505D+04 0.27306505D+04 0.12725572D+01  1  2 12  3  6  1        1 0.241994857590D-05 0.100000000000D+01
-.498298337597D-07 0.000000000000D+00 -.872351765321D-08 0.316345164511D-05 0.000000000000D+00  6 21 22 9900012 13 2 -1 2 0.12660076D+00 0.24981762D-02 0.24518805D+04 0.24518805D+04 0.24518805D+04 0.12782750D+01  1  2  5  3  6  1        1 -.122926879356D-04 0.100000000000D+01
0.209780582777D-08 0.000000000000D+00 0.000000000000D+00 0.316345164511D-05 0.636564652986D-08  6 21 22 9900012 13 2 -1 2 0.12550553D+00 0.25304818D-02 0.27306505D+04 0.27306505D+04 0.27306505D+04 0.12725572D+01  1  2 11  3  6  1        1 0.517506449796D-06 0.100000000000D+01
  </mgrwgt>
  </event>
  <event>
  6     66 0.10089070E-05 0.62612500E+02 0.78161638E-02 0.12104789E+00
        1 -1    0    0  501    0 0.00000000E+00 0.00000000E+00 0.32677028E+03 0.32677028E+03 0.00000000E+00 0.0000E+00 0.9000E+01
       22 -1    0    0    0    0 0.00000000E+00 0.00000000E+00 -.96394972E+02 0.96394972E+02 0.00000000E+00 0.0000E+00 0.9000E+01
      -24  2    1    2    0    0 0.55898067E+01 0.62362483E+02 -.65960059E+02 0.12028743E+03 0.78727450E+02 0.0000E+00 0.0000E+00
  9900012  1    3    3    0    0 0.14157480E+02 0.33816222E+02 -.65903133E+02 0.90483115E+02 0.50000000E+02 0.0000E+00 0.9000E+01
       13  1    3    3    0    0 -.85676731E+01 0.28546260E+02 -.56926026E-01 0.29804316E+02 0.00000000E+00 0.0000E+00 0.9000E+01
        2  1    1    2  501    0 -.55898067E+01 -.62362483E+02 0.29633536E+03 0.30287782E+03 0.00000000E+00 0.0000E+00 0.9000E+01
#aMCatNLO 1  0  0  1  5 0.48630828D+01 0.00000000D+00  -5  6  0 0.00000000D+00 0.00000000D+00 0.00000000D+00 0.00000000D+00 0.00000000D+00
  <mgrwgt>
 0.2362811910D-03    3    2    0
 0.177479609024832D+03 0.000000000000000D+00 0.000000000000000D+00 0.177479609024832D+03
 0.177479609024832D+03 0.000000000000000D+00 0.000000000000000D+00 -.177479609024832D+03
 0.150641992502095D+03 0.141574797264160D+02 0.338162224132290D+02 -.137291801556016D+03
 0.355682129893003D+02 -.856767306804513D+01 0.285462604030197D+02 -.194114340133416D+02
 0.168749012558268D+03 -.558980665837083D+01 -.623624828162487D+02 0.156703235569358D+03
 0.000000000000000D+00 -.000000000000000D+00 0.000000000000000D+00 -.000000000000000D+00
 0.315035962988523D+03 0.000000000000000D+00 0.000000000000000D+00 0.315035962988523D+03
 0.646658756845372D+03 0.000000000000000D+00 0.000000000000000D+00 -.646658756845372D+03
 0.176204634538662D+03 0.203004567732483D+02 -.963686977872198D+02 -.137291801556016D+03
 0.215948463722226D+02 -.749331178500591D+01 0.577788005052673D+01 -.194114340133416D+02
 0.291378157181955D+03 0.305813524615319D+01 -.245633821477546D+03 0.156703235569358D+03
 0.472517081741055D+03 -.158652802343955D+02 0.336224639214239D+03 -.331622793856849D+03
0.121646393262D-04 0.000000000000D+00 0.000000000000D+00 0.566767639746D-05 0.000000000000D+00  6 1 22 9900012 13 2 21 0 0.50272350D-01 0.14829996D-01 0.59611161D+04 0.59611161D+04 0.59611161D+04 0.12333421D+01  1  2  2  1  6  1        1 0.287162247891D-03 0.100000000000D+01
0.221492556985D-06 0.000000000000D+00 -.233577090179D-07 0.566767639746D-05 0.000000000000D+00  6 1 22 9900012 13 2 21 2 0.50272350D-01 0.14829996D-01 0.59611161D+04 0.59611161D+04 0.59611161D+04 0.12333421D+01  1  2  3  1  6  1        1 0.795342753937D-05 0.100000000000D+01
-.163846345843D-05 0.000000000000D+00 0.000000000000D+00 0.566767639746D-05 0.000000000000D+00  6 1 22 9900012 13 2 21 2 0.50272350D-01 0.14829996D-01 0.59611161D+04 0.59611161D+04 0.59611161D+04 0.12333421D+01  1  2 15  1  6  1        1 -.588344844174D-04 0.100000000000D+01
  </mgrwgt>
  </event>
  <event>
  5     66 0.10089070E-05 0.37814382E+02 0.78161638E-02 0.12053324E+00
        1 -1    0    0  501    0 0.00000000E+00 0.00000000E+00 0.33217233E+03 0.33217233E+03 0.00000000E+00 0.0000E+00 0.9000E+01
       22 -1    0    0    0    0 -.00000000E+00 -.00000000E+00 -.10371653E+04 0.10371653E+04 0.00000000E+00 0.0000E+00 0.9000E+01
  9900012  1    1    2    0    0 0.14074616E+02 -.26834753E+02 -.18658427E+03 0.19552976E+03 0.50000000E+02 0.0000E+00 0.9000E+01
       13  1    1    2    0    0 -.13725151E+02 -.10978015E+02 -.84492575E+03 0.84510852E+03 0.00000000E+00 0.0000E+00 0.9000E+01
        2  1    1    2  501    0 -.34946427E+00 0.37812768E+02 0.32651701E+03 0.32869939E+03 0.00000000E+00 0.0000E+00 0.9000E+01
#aMCatNLO 1  0  0  5  5 0.44033691D+02 0.00000000D+00  -5  6  0 0.00000000D+00 0.00000000D+00 0.00000000D+00 0.00000000D+00 0.00000000D+00
  <mgrwgt>
 0.5546556447D-02    6    2    0
 0.586956241859800D+03 0.000000000000000D+00 0.000000000000000D+00 0.586956241859800D+03
 0.586956241859800D+03 -.000000000000000D+00 -.000000000000000D+00 -.586956241859800D+03
 0.116027104661813D+03 0.140746157070675D+02 -.268347526481079D+02 -.100220208836424D+03
 0.478376540756560D+03 -.137251514333539D+02 -.109780150145701D+02 -.478053572469325D+03
 0.579508838301228D+03 -.349464273713602D+00 0.378127676626781D+02 0.578273781305749D+03
 0.000000000000000D+00 -.000000000000000D+00 0.000000000000000D+00 0.000000000000000D+00
 0.586956241859800D+03 0.000000000000000D+00 0.000000000000000D+00 0.586956241859800D+03
 0.586956241859800D+03 -.000000000000000D+00 -.000000000000000D+00 -.586956241859800D+03
 0.115351868988166D+03 0.140741510459897D+02 -.267844753445410D+02 -.994513138772704D+02
 0.475205162823677D+03 -.137270664401288D+02 -.107708072634489D+02 -.474884727204528D+03
 0.401284983689135D+03 0.289596604874735D+02 -.672974206782280D+01 0.400182067027672D+03
 0.182070468218623D+03 -.293067450933344D+02 0.442850246758128D+02 0.174153974054127D+03
0.361247081203D-02 0.000000000000D+00 0.000000000000D+00 0.125092284630D-04 0.000000000000D+00  6 1 22 9900012 13 2 21 0 0.51103436D-01 0.15956390D+00 0.32407517D+04 0.32407517D+04 0.32407517D+04 0.12636204D+01  1  2  2  2  6  5        2 0.139677064643D-02 0.100000000000D+01
0.181674527528D-03 0.000000000000D+00 -.693641955180D-05 0.125092284630D-04 0.000000000000D+00  6 1 22 9900012 13 2 21 2 0.51103436D-01 0.15956390D+00 0.32407517D+04 0.32407517D+04 0.32407517D+04 0.12636204D+01  1  2  3  2  6  5        2 0.112162589928D-03 0.100000000000D+01
-.539975560909D-03 0.000000000000D+00 0.000000000000D+00 0.125092284630D-04 0.000000000000D+00  6 1 22 9900012 13 2 21 2 0.51103436D-01 0.15956390D+00 0.32407517D+04 0.32407517D+04 0.32407517D+04 0.12636204D+01  1  2 15  2  6  5        2 -.333371211878D-03 0.100000000000D+01
-.452939509960D-03 0.000000000000D+00 0.000000000000D+00 0.125092284630D-04 0.000000000000D+00  6 1 22 9900012 13 2 21 2 0.51103436D-01 0.15956390D+00 0.32407517D+04 0.32407517D+04 0.32407517D+04 0.12636204D+01  1  2  4  2  6  5        2 -.279636717426D-03 0.100000000000D+01
-.209116168765D-01 0.000000000000D+00 0.000000000000D+00 0.125092284630D-04 0.000000000000D+00  6 1 22 9900012 13 2 21 2 0.51103436D-01 0.15956390D+00 0.32407517D+04 0.32407517D+04 0.32407517D+04 0.12636204D+01  1  2  5  2  6  5        2 -.129104566301D-01 0.100000000000D+01
0.284444423545D-01 0.000000000000D+00 -.000000000000D+00 0.125092284630D-04 0.000000000000D+00  6 1 22 9900012 13 2 21 2 0.51103436D-01 0.15956390D+00 0.32407517D+04 0.32407517D+04 0.32407517D+04 0.12636204D+01  1  2  6  2  6  5        2 0.175610877702D-01 0.100000000000D+01
  </mgrwgt>
  </event>
  <event>
  6     66 0.10089070E-05 0.28435061E+02 0.78161638E-02 0.12682244E+00
        3 -1    0    0  501    0 0.00000000E+00 0.00000000E+00 0.98802997E+01 0.98802997E+01 0.00000000E+00 0.0000E+00 0.9000E+01
       22 -1    0    0    0    0 0.00000000E+00 0.00000000E+00 -.38116394E+03 0.38116394E+03 0.00000000E+00 0.0000E+00 0.9000E+01
      -24  2    1    2    0    0 0.26053820E+02 0.11390835E+02 -.33213894E+03 0.34266180E+03 0.79323910E+02 0.0000E+00 0.0000E+00
  9900012  1    3    3    0    0 0.11116951E+02 -.91087742E+01 -.15001020E+03 0.15877536E+03 0.50000000E+02 0.0000E+00 0.9000E+01
       13  1    3    3    0    0 0.14936869E+02 0.20499609E+02 -.18212874E+03 0.18388644E+03 0.00000000E+00 0.0000E+00 0.9000E+01
        4  1    1    2  501    0 -.26053820E+02 -.11390835E+02 -.39144701E+02 0.48382438E+02 0.00000000E+00 0.0000E+00 0.9000E+01
#aMCatNLO 1  0  0  1  5 0.67274408D+02 0.00000000D+00  -5  6  0 0.00000000D+00 0.00000000D+00 0.00000000D+00 0.00000000D+00 0.00000000D+00
  <mgrwgt>
 0.7684550303D-04    4    2    0
 0.613678577603555D+02 0.000000000000000D+00 0.000000000000000D+00 0.613678577603555D+02
 0.613678577603555D+02 0.000000000000000D+00 0.000000000000000D+00 -.613678577603555D+02
 0.520782288567807D+02 0.111169510213583D+02 -.910877418560612D+01 0.236337760071981D+01
 0.349230915783637D+02 0.149368694467760D+02 0.204996091452968D+02 -.240057968293246D+02
 0.357343950855666D+02 -.260538204681343D+02 -.113908349596906D+02 0.216424192286048D+02
 0.000000000000000D+00 0.000000000000000D+00 -.000000000000000D+00 -.000000000000000D+00
 0.619589606935668D+02 0.000000000000000D+00 0.000000000000000D+00 0.619589606935668D+02
 0.104927442347403D+03 0.000000000000000D+00 0.000000000000000D+00 -.104927442347403D+03
 0.512024113990134D+02 0.869178419010751D+01 -.636822322024217D+01 0.236337760071981D+01
 0.353978167782388D+02 0.132856409680651D+02 0.223655738876207D+02 -.240057968293246D+02
 0.364440588957206D+02 -.277486665892742D+02 -.947558025903248D+01 0.216424192286048D+02
 0.438421159679965D+02 0.577124143110163D+01 -.652177040834607D+01 -.429684816538357D+02
0.456120228449D-06 0.000000000000D+00 0.000000000000D+00 0.146952933031D-06 0.000000000000D+00  6 3 22 9900012 13 4 21 0 0.15200461D-02 0.58640606D-01 0.27996725D+04 0.27996725D+04 0.27996725D+04 0.12712425D+01  1  2  2  1  6  1        3 0.962727019589D-04 0.100000000000D+01
0.474519922697D-08 0.000000000000D+00 -.875810888230D-09 0.146952933031D-06 0.000000000000D+00  6 3 22 9900012 13 4 21 2 0.15200461D-02 0.58640606D-01 0.27996725D+04 0.27996725D+04 0.27996725D+04 0.12712425D+01  1  2  3  1  6  1        3 0.161858340245D-05 0.100000000000D+01
-.578474443624D-07 0.000000000000D+00 0.000000000000D+00 0.146952933031D-06 0.000000000000D+00  6 3 22 9900012 13 4 21 2 0.15200461D-02 0.58640606D-01 0.27996725D+04 0.27996725D+04 0.27996725D+04 0.12712425D+01  1  2 15  1  6  1        3 -.197317138524D-04 0.100000000000D+01
-.385245314639D-08 0.000000000000D+00 0.000000000000D+00 0.146952933031D-06 0.000000000000D+00  6 3 22 9900012 13 4 21 2 0.15200461D-02 0.58640606D-01 0.27996725D+04 0.27996725D+04 0.27996725D+04 0.12712425D+01  1  2  4  1  6  1        3 -.131406847705D-05 0.100000000000D+01
  </mgrwgt>
  </event>
  <event>
  7     66 -.10089070E-05 0.19283369E+02 0.78161638E-02 0.12711865E+00
        1 -1    0    0  502    0 0.00000000E+00 0.00000000E+00 0.40663045E+03 0.40663045E+03 0.00000000E+00 0.0000E+00 0.9000E+01
       22 -1    0    0    0    0 0.00000000E+00 0.00000000E+00 -.96516948E+01 0.96516948E+01 0.00000000E+00 0.0000E+00 0.9000E+01
      -24  2    1    2    0    0 0.16295945E+02 0.16201675E+02 0.20914642E+03 0.22583382E+03 0.82040453E+02 0.0000E+00 0.0000E+00
  9900012  1    3    3    0    0 0.91034636E+00 0.34473310E+02 0.16128253E+03 0.17234063E+03 0.50000000E+02 0.0000E+00 0.9000E+01
       13  1    3    3    0    0 0.15385599E+02 -.18271635E+02 0.47863893E+02 0.53493191E+02 0.00000000E+00 0.0000E+00 0.9000E+01
        2  1    1    2  501    0 -.10890618E+02 -.19688042E+02 0.17017539E+03 0.17165630E+03 0.00000000E+00 0.0000E+00 0.9000E+01
       21  1    1    2  502  501 -.54053267E+01 0.34863673E+01 0.17656949E+02 0.18792024E+02 0.00000000E+00 0.0000E+00 0.9000E+01
#aMCatNLO 2  0  0  1  5 0.97802352D+01 0.00000000D+00  -5  6  0 0.00000000D+00 0.00000000D+00 0.00000000D+00 0.00000000D+00 0.00000000D+00
  <mgrwgt>
 -.3872599141D-04    2    2    0
 0.593127123208965D+02 0.000000000000000D+00 0.000000000000000D+00 0.593127123208965D+02
 0.593127123208965D+02 0.000000000000000D+00 0.000000000000000D+00 -.593127123208965D+02
 0.627267103929753D+02 -.192159871538031D+01 0.362998782270161D+02 -.106426733392062D+02
 0.249552828701979D+02 0.142220005770569D+02 -.175211288652703D+02 -.106541487695815D+02
 0.309434313786199D+02 -.123004018616766D+02 -.187787493617458D+02 0.212968221087878D+02
 0.000000000000000D+00 -.000000000000000D+00 0.000000000000000D+00 -.000000000000000D+00
 0.621869530259218D+02 0.000000000000000D+00 0.000000000000000D+00 0.621869530259218D+02
 0.631108751517484D+02 0.000000000000000D+00 0.000000000000000D+00 -.631108751517484D+02
 0.616644491946243D+02 0.910346358508668D+00 0.344733095042948D+02 -.106426733392062D+02
 0.261549262996866D+02 0.153855985816414D+02 -.182716348480987D+02 -.106541487695815D+02
 0.309803033124828D+02 -.108906182725801D+02 -.196880419300911D+02 0.212968221087878D+02
 0.649814937087640D+01 -.540532666756997D+01 0.348636727389503D+01 -.923922125826621D+00
-.655774158324D-07 0.000000000000D+00 0.000000000000D+00 0.383662305668D-07 0.000000000000D+00  6 1 22 9900012 13 2 21 2 0.66564544D-01 0.13955127D-02 0.32238125D+04 0.32238125D+04 0.32238125D+04 0.12638908D+01  1  2 13  1  6  1        1 -.419827622542D-04 0.100000000000D+01
0.510453874476D-08 0.000000000000D+00 0.000000000000D+00 0.383662305668D-07 0.102450539052D-08  6 1 22 9900012 13 2 21 2 0.62558532D-01 0.14848761D-02 0.32238125D+04 0.32238125D+04 0.32238125D+04 0.12638908D+01  1  2  1  1  6  1        1 0.325677084567D-05 0.100000000000D+01
  </mgrwgt>
  </event>
  <event>
  6     66 0.10089070E-05 0.75035457E+02 0.78161638E-02 0.10974043E+00
        1 -1    0    0  501    0 0.00000000E+00 0.00000000E+00 0.72071112E+02 0.72071112E+02 0.00000000E+00 0.0000E+00 0.9000E+01
       22 -1    0    0    0    0 0.00000000E+00 0.00000000E+00 -.28159368E+03 0.28159368E+03 0.00000000E+00 0.0000E+00 0.9000E+01
      -24  2    1    2    0    0 -.27797094E+02 -.12813725E+03 -.12416319E+03 0.19721015E+03 0.79268593E+02 0.0000E+00 0.0000E+00
  9900012  1    3    3    0    0 -.82223459E+01 -.98969590E+02 -.11691397E+03 0.16134269E+03 0.50000000E+02 0.0000E+00 0.9000E+01
       13  1    3    3    0    0 -.19574748E+02 -.29167661E+02 -.72492198E+01 0.35867456E+02 0.00000000E+00 0.0000E+00 0.9000E+01
        2  1    1    2  501    0 0.27797094E+02 0.12813725E+03 -.85359379E+02 0.15645465E+03 0.00000000E+00 0.0000E+00 0.9000E+01
#aMCatNLO 1  0  0  1  5 0.24709897D+02 0.00000000D+00  -5  6  0 0.00000000D+00 0.00000000D+00 0.00000000D+00 0.00000000D+00 0.00000000D+00
  <mgrwgt>
 0.2428838476D-04    9    2    0
 0.142459713344470D+03 0.000000000000000D+00 0.000000000000000D+00 0.142459713344470D+03
 0.142459713344470D+03 0.000000000000000D+00 0.000000000000000D+00 -.142459713344470D+03
 0.114295868987975D+03 -.822234594901946D+01 -.989695901605008D+02 -.264756287606832D+02
 0.391906633665976D+02 -.195747476295094D+02 -.291676613203819D+02 0.173777122618165D+02
 0.131432894334367D+03 0.277970935785288D+02 0.128137251480883D+03 0.909791649886672D+01
 0.000000000000000D+00 0.000000000000000D+00 -.000000000000000D+00 0.000000000000000D+00
 0.166085382640819D+03 0.000000000000000D+00 0.000000000000000D+00 0.166085382640819D+03
 0.148134929825200D+03 0.000000000000000D+00 0.000000000000000D+00 -.148134929825200D+03
 0.113056531966742D+03 -.166471057490860D+02 -.964556601358994D+02 -.264756287606832D+02
 0.401149416919683D+02 -.225134923738432D+02 -.282907462720310D+02 0.173777122618165D+02
 0.132601372000548D+03 0.180130523125581D+02 0.131056788142363D+03 0.909791649886672D+01
 0.284474668067609D+02 0.211475458103711D+02 -.631038173443305D+01 0.179504528156186D+02
0.430742899824D-06 0.000000000000D+00 0.000000000000D+00 0.206283498427D-06 0.000000000000D+00  6 1 22 9900012 13 2 21 0 0.11087863D-01 0.43322105D-01 0.19242135D+05 0.19242135D+05 0.19242135D+05 0.11809275D+01  1  2  2  1  6  1        1 0.144723508469D-04 0.100000000000D+01
-.182765262572D-07 0.000000000000D+00 -.827083076267D-09 0.206283498427D-06 0.000000000000D+00  6 1 22 9900012 13 2 21 2 0.11087863D-01 0.43322105D-01 0.19242135D+05 0.19242135D+05 0.19242135D+05 0.11809275D+01  1  2  3  1  6  1        1 -.856369309795D-06 0.100000000000D+01
-.509054450804D-07 0.000000000000D+00 0.000000000000D+00 0.206283498427D-06 0.000000000000D+00  6 1 22 9900012 13 2 21 2 0.11087863D-01 0.43322105D-01 0.19242135D+05 0.19242135D+05 0.19242135D+05 0.11809275D+01  1  2 15  1  6  1        1 -.238523777740D-05 0.100000000000D+01
0.742165233210D-06 0.000000000000D+00 0.000000000000D+00 0.206283498427D-06 0.000000000000D+00  6 1 22 9900012 13 2 21 2 0.13441651D-01 0.43322105D-01 0.22563976D+05 0.22563976D+05 0.22563976D+05 0.11743248D+01  1  2 12  1  6  1        1 0.270395998796D-04 0.100000000000D+01
-.523348998345D-06 0.000000000000D+00 0.000000000000D+00 0.206283498427D-06 0.000000000000D+00  6 1 22 9900012 13 2 21 2 0.11087863D-01 0.43322105D-01 0.19242135D+05 0.19242135D+05 0.19242135D+05 0.11809275D+01  1  2  4  1  6  1        1 -.245221665314D-04 0.100000000000D+01
-.152143545449D-05 0.000000000000D+00 -.302912326933D-06 0.206283498427D-06 0.000000000000D+00  6 1 22 9900012 13 2 21 2 0.13411446D-01 0.43322105D-01 0.19242135D+05 0.19242135D+05 0.19242135D+05 0.11809275D+01  1  2  5  1  6  1        1 -.555927395214D-04 0.100000000000D+01
0.155621673463D-05 0.000000000000D+00 0.297511422071D-06 0.206283498427D-06 0.000000000000D+00  6 1 22 9900012 13 2 21 2 0.11087863D-01 0.43322105D-01 0.19242135D+05 0.19242135D+05 0.19242135D+05 0.11809275D+01  1  2  6  1  6  1        1 0.729184655867D-04 0.100000000000D+01
0.206232477102D-07 0.000000000000D+00 0.000000000000D+00 0.206283498427D-06 0.000000000000D+00  6 21 22 9900012 13 2 -1 2 0.13441651D-01 0.43322105D-01 0.22563976D+05 0.22563976D+05 0.22563976D+05 0.11743248D+01  1  2 12  3  6  1        1 0.764938081681D-05 0.100000000000D+01
-.386947983067D-07 0.000000000000D+00 -.834113584824D-08 0.206283498427D-06 0.000000000000D+00  6 21 22 9900012 13 2 -1 2 0.13411446D-01 0.43322105D-01 0.19242135D+05 0.19242135D+05 0.19242135D+05 0.11809275D+01  1  2  5  3  6  1        1 -.144348992275D-04 0.100000000000D+01
  </mgrwgt>
  </event>
  <event>
  6     66 0.10089070E-05 0.98093031E+02 0.78161638E-02 0.10180003E+00
        1 -1    0    0  501    0 0.00000000E+00 0.00000000E+00 0.14167041E+03 0.14167041E+03 0.00000000E+00 0.0000E+00 0.9000E+01
       22 -1    0    0    0    0 0.00000000E+00 0.00000000E+00 -.95993780E+03 0.95993780E+03 0.00000000E+00 0.0000E+00 0.9000E+01
      -24  2    1    2    0    0 -.21726371E+03 0.10172298E+03 -.82321749E+03 0.86165907E+03 0.84960220E+02 0.0000E+00 0.0000E+00
  9900012  1    3    3    0    0 -.14791526E+03 0.62243344E+02 -.45917714E+03 0.48897526E+03 0.50000000E+02 0.0000E+00 0.9000E+01
       13  1    3    3    0    0 -.69348449E+02 0.39479631E+02 -.36404035E+03 0.37268381E+03 0.00000000E+00 0.0000E+00 0.9000E+01
        2  1    1    2  501    0 0.21726371E+03 -.10172298E+03 0.49500972E+01 0.23994913E+03 0.00000000E+00 0.0000E+00 0.9000E+01
#aMCatNLO 1  0  0  1  5 0.40577549D+02 0.00000000D+00  -5  6  0 0.00000000D+00 0.00000000D+00 0.00000000D+00 0.00000000D+00 0.00000000D+00
  <mgrwgt>
 0.2324422099D-04    9    2    0
 0.368774697818569D+03 0.000000000000000D+00 0.000000000000000D+00 0.368774697818569D+03
 0.368774697818569D+03 0.000000000000000D+00 0.000000000000000D+00 -.368774697818569D+03
 0.220906528416202D+03 -.147915260223535D+03 0.622433442862322D+02 -.143340629906414D+03
 0.152761562993913D+03 -.693484485876941D+02 0.394796308872743D+02 -.130262222274257D+03
 0.363881304227022D+03 0.217263708811230D+03 -.101722975173506D+03 0.273602852180671D+03
 0.000000000000000D+00 -.000000000000000D+00 -.000000000000000D+00 0.000000000000000D+00
 0.405553860861080D+03 0.000000000000000D+00 0.000000000000000D+00 0.405553860861080D+03
 0.378174972248225D+03 0.000000000000000D+00 0.000000000000000D+00 -.378174972248225D+03
 0.214361083039061D+03 -.137353456968659D+03 0.635465624441659D+02 -.143340629906414D+03
 0.149813347376940D+03 -.620064442917294D+02 0.403855588886987D+02 -.130262222274257D+03
 0.374257245446864D+03 0.235174699501371D+03 -.995129426884574D+02 0.273602852180671D+03
 0.452971572464393D+02 -.358147982409830D+02 -.441917864440724D+01 0.273788886128554D+02
0.418531122835D-05 0.000000000000D+00 0.000000000000D+00 0.223863767373D-06 0.000000000000D+00  6 1 22 9900012 13 2 21 0 0.21795447D-01 0.14768274D+00 0.59483216D+05 0.59483216D+05 0.59483216D+05 0.11364408D+01  1  2  2  1  6  1        1 0.631099077069D-05 0.100000000000D+01
-.307282262483D-07 0.000000000000D+00 -.803634856732D-08 0.223863767373D-06 0.000000000000D+00  6 1 22 9900012 13 2 21 2 0.21795447D-01 0.14768274D+00 0.59483216D+05 0.59483216D+05 0.59483216D+05 0.11364408D+01  1  2  3  1  6  1        1 -.598412891861D-07 0.100000000000D+01
-.621378574152D-06 0.000000000000D+00 0.000000000000D+00 0.223863767373D-06 0.000000000000D+00  6 1 22 9900012 13 2 21 2 0.21795447D-01 0.14768274D+00 0.59483216D+05 0.59483216D+05 0.59483216D+05 0.11364408D+01  1  2 15  1  6  1        1 -.121009571621D-05 0.100000000000D+01
0.106355113531D-04 0.000000000000D+00 0.000000000000D+00 0.223863767373D-06 0.000000000000D+00  6 1 22 9900012 13 2 21 2 0.24580170D-01 0.14768274D+00 0.68862729D+05 0.68862729D+05 0.68862729D+05 0.11310424D+01  1  2 12  1  6  1        1 0.176694774591D-04 0.100000000000D+01
-.204308891365D-05 0.000000000000D+00 0.000000000000D+00 0.223863767373D-06 0.000000000000D+00  6 1 22 9900012 13 2 21 2 0.21795447D-01 0.14768274D+00 0.59483216D+05 0.59483216D+05 0.59483216D+05 0.11364408D+01  1  2  4  1  6  1        1 -.397878724033D-05 0.100000000000D+01
-.229739644647D-04 0.000000000000D+00 -.447511237618D-05 0.223863767373D-06 0.000000000000D+00  6 1 22 9900012 13 2 21 2 0.24530012D-01 0.14768274D+00 0.59483216D+05 0.59483216D+05 0.59483216D+05 0.11364408D+01  1  2  5  1  6  1        1 -.384100835428D-04 0.100000000000D+01
0.233705469244D-04 0.000000000000D+00 0.444403386215D-05 0.223863767373D-06 0.000000000000D+00  6 1 22 9900012 13 2 21 2 0.21795447D-01 0.14768274D+00 0.59483216D+05 0.59483216D+05 0.59483216D+05 0.11364408D+01  1  2  6  1  6  1        1 0.455126711721D-04 0.100000000000D+01
0.202133373894D-06 0.000000000000D+00 0.000000000000D+00 0.223863767373D-06 0.000000000000D+00  6 21 22 9900012 13 2 -1 2 0.24580170D-01 0.14768274D+00 0.68862729D+05 0.68862729D+05 0.68862729D+05 0.11310424D+01  1  2 12  3  6  1        1 0.246661338134D-05 0.100000000000D+01
-.410251958511D-06 0.000000000000D+00 -.838340188845D-07 0.223863767373D-06 0.000000000000D+00  6 21 22 9900012 13 2 -1 2 0.24530012D-01 0.14768274D+00 0.59483216D+05 0.59483216D+05 0.59483216D+05 0.11364408D+01  1  2  5  3  6  1        1 -.505672400381D-05 0.100000000000D+01
  </mgrwgt>
  </event>
  <event>
  6     66 0.10089070E-05 0.40577919E+02 0.78161638E-02 0.11194482E+00
        1 -1    0    0  501    0 0.00000000E+00 0.00000000E+00 0.30407569E+03 0.30407569E+03 0.00000000E+00 0.0000E+00 0.9000E+01
       22 -1    0    0    0    0 0.00000000E+00 0.00000000E+00 -.42204497E+02 0.42204497E+02 0.00000000E+00 0.0000E+00 0.9000E+01
      -24  2    1    2    0    0 -.79229979E+02 -.44811735E+02 0.87362636E+02 0.14945865E+03 0.80126004E+02 0.0000E+00 0.0000E+00
  9900012  1    3    3    0    0 -.62334113E+02 -.58873692E+02 0.70241469E+02 0.12159571E+03 0.50000000E+02 0.0000E+00 0.9000E+01
       13  1    3    3    0    0 -.16895867E+02 0.14061957E+02 0.17121168E+02 0.27862938E+02 0.00000000E+00 0.0000E+00 0.9000E+01
        2  1    1    2  501    0 0.79229979E+02 0.44811735E+02 0.17450856E+03 0.19682154E+03 0.00000000E+00 0.0000E+00 0.9000E+01
#aMCatNLO 1  0  0  1  5 0.54583477D+02 0.00000000D+00  -5  6  0 0.00000000D+00 0.00000000D+00 0.00000000D+00 0.00000000D+00 0.00000000D+00
  <mgrwgt>
 0.7437307223D-04    9    2    0
 0.113284427821138D+03 0.000000000000000D+00 0.000000000000000D+00 0.113284427821138D+03
 0.113284427821138D+03 0.000000000000000D+00 0.000000000000000D+00 -.113284427821138D+03
 0.104656787728085D+03 -.623341126032262D+02 -.588736918366182D+02 -.331871968243270D+02
 0.227959082104552D+02 -.168958665903847D+02 0.140619568682778D+02 -.603692739182066D+01
 0.991161597037364D+02 0.792299791936109D+02 0.448117349683404D+02 0.392241242161477D+02
 0.000000000000000D+00 0.000000000000000D+00 0.000000000000000D+00 0.000000000000000D+00
 0.151314157311926D+03 0.000000000000000D+00 0.000000000000000D+00 0.151314157311926D+03
 0.129727061055247D+03 0.000000000000000D+00 0.000000000000000D+00 -.129727061055247D+03
 0.121882344000399D+03 -.838054566082333D+02 -.650427643067284D+02 -.331871968243270D+02
 0.257044742559604D+02 -.214927253686683D+02 0.127412032661055D+02 -.603692739182066D+01
 0.834319817580794D+02 0.619280944689043D+02 0.398406171514345D+02 0.392241242161477D+02
 0.500224183527341D+02 0.433700875079972D+02 0.124609438891884D+02 0.215870962566787D+02
0.532040061912D-06 0.000000000000D+00 0.000000000000D+00 0.396768219277D-06 0.000000000000D+00  6 1 22 9900012 13 2 21 0 0.46780875D-01 0.64929995D-02 0.11263803D+05 0.11263803D+05 0.11263803D+05 0.12040100D+01  1  2  2  1  6  1        1 0.462703863998D-04 0.100000000000D+01
-.116706116079D-07 0.000000000000D+00 -.102158696355D-08 0.396768219277D-06 0.000000000000D+00  6 1 22 9900012 13 2 21 2 0.46780875D-01 0.64929995D-02 0.11263803D+05 0.11263803D+05 0.11263803D+05 0.12040100D+01  1  2  3  1  6  1        1 -.147133842928D-05 0.100000000000D+01
-.622748843159D-07 0.000000000000D+00 0.000000000000D+00 0.396768219277D-06 0.000000000000D+00  6 1 22 9900012 13 2 21 2 0.46780875D-01 0.64929995D-02 0.11263803D+05 0.11263803D+05 0.11263803D+05 0.12040100D+01  1  2 15  1  6  1        1 -.785112499256D-05 0.100000000000D+01
0.184727643782D-06 0.000000000000D+00 0.000000000000D+00 0.396768219277D-06 0.000000000000D+00  6 1 22 9900012 13 2 21 2 0.71554682D-01 0.64929995D-02 0.17033383D+05 0.17033383D+05 0.17033383D+05 0.11860607D+01  1  2 12  1  6  1        1 0.134474695712D-04 0.100000000000D+01
-.441558215573D-07 0.000000000000D+00 0.000000000000D+00 0.396768219277D-06 0.000000000000D+00  6 1 22 9900012 13 2 21 2 0.46780875D-01 0.64929995D-02 0.11263803D+05 0.11263803D+05 0.11263803D+05 0.12040100D+01  1  2  4  1  6  1        1 -.556681683160D-05 0.100000000000D+01
-.497722612845D-06 0.000000000000D+00 -.200301390182D-06 0.396768219277D-06 0.000000000000D+00  6 1 22 9900012 13 2 21 2 0.69987229D-01 0.64929995D-02 0.11263803D+05 0.11263803D+05 0.11263803D+05 0.12040100D+01  1  2  5  1  6  1        1 -.374493321058D-04 0.100000000000D+01
0.548521331986D-06 0.000000000000D+00 0.185079940360D-06 0.396768219277D-06 0.000000000000D+00  6 1 22 9900012 13 2 21 2 0.46780875D-01 0.64929995D-02 0.11263803D+05 0.11263803D+05 0.11263803D+05 0.12040100D+01  1  2  6  1  6  1        1 0.691532322511D-04 0.100000000000D+01
0.919572756264D-08 0.000000000000D+00 0.000000000000D+00 0.396768219277D-06 0.000000000000D+00  6 21 22 9900012 13 2 -1 2 0.71554682D-01 0.64929995D-02 0.17033383D+05 0.17033383D+05 0.17033383D+05 0.11860607D+01  1  2 12  3  6  1        1 0.224112814802D-05 0.100000000000D+01
-.169124126178D-07 0.000000000000D+00 -.958394600373D-08 0.396768219277D-06 0.000000000000D+00  6 21 22 9900012 13 2 -1 2 0.69987229D-01 0.64929995D-02 0.11263803D+05 0.11263803D+05 0.11263803D+05 0.12040100D+01  1  2  5  3  6  1        1 -.440053177611D-05 0.100000000000D+01
  </mgrwgt>
  </event>
  <event>
  6     66 0.10089070E-05 0.35812721E+02 0.78161638E-02 0.12109851E+00
        3 -1    0    0  501    0 0.00000000E+00 0.00000000E+00 0.60121493E+03 0.60121493E+03 0.00000000E+00 0.0000E+00 0.9000E+01
       22 -1    0    0    0    0 0.00000000E+00 0.00000000E+00 -.55116697E+02 0.55116697E+02 0.00000000E+00 0.0000E+00 0.9000E+01
      -24  2    1    2    0    0 -.33121101E+02 -.13621442E+02 -.19608760E+02 0.89492185E+02 0.79635398E+02 0.0000E+00 0.0000E+00
  9900012  1    3    3    0    0 -.16469124E+02 0.84206437E+01 0.35700751E+01 0.53431121E+02 0.50000000E+02 0.0000E+00 0.9000E+01
       13  1    3    3    0    0 -.16651977E+02 -.22042086E+02 -.23178835E+02 0.36061063E+02 0.00000000E+00 0.0000E+00 0.9000E+01
        4  1    1    2  501    0 0.33121101E+02 0.13621442E+02 0.56570699E+03 0.56683944E+03 0.00000000E+00 0.0000E+00 0.9000E+01
#aMCatNLO 1  0  0  5  1 0.25927487D+02 0.00000000D+00  -5  6  0 0.00000000D+00 0.00000000D+00 0.00000000D+00 0.00000000D+00 0.00000000D+00
  <mgrwgt>
 0.1452422508D-04    6    2    0
 0.182035658026173D+03 0.000000000000000D+00 0.000000000000000D+00 0.182035658026173D+03
 0.182035658026173D+03 -.000000000000000D+00 -.000000000000000D+00 -.182035658026173D+03
 0.909682289274596D+02 -.164691239793607D+02 0.842064372099952D+01 -.737094253733886D+02
 0.997769818057312D+02 -.166519767500057D+02 -.220420860573797D+02 -.958765049989701D+02
 0.173326105319155D+03 0.331211007293664D+02 0.136214423363802D+02 0.169585930372359D+03
 0.000000000000000D+00 0.000000000000000D+00 0.000000000000000D+00 0.000000000000000D+00
 0.182035658026173D+03 0.000000000000000D+00 0.000000000000000D+00 0.182035658026173D+03
 0.182035658026173D+03 -.000000000000000D+00 -.000000000000000D+00 -.182035658026173D+03
 0.876598555060642D+02 -.156910370523500D+02 0.874064112372987D+01 -.697254818291849D+02
 0.953776747273812D+02 -.158019016485723D+02 -.216924826709952D+02 -.915239691898224D+02
 0.155845010997501D+03 0.472870164178468D+02 0.256261084444480D+02 0.146269983582083D+03
 0.251887748213989D+02 -.157940777169244D+02 -.126742668971826D+02 0.149794674369241D+02
0.308771206263D-05 0.000000000000D+00 0.000000000000D+00 0.273355397383D-04 0.000000000000D+00  6 3 22 9900012 13 4 21 0 0.92494604D-01 0.84794918D-02 0.34076092D+04 0.34076092D+04 0.34076092D+04 0.12610387D+01  1  2  2  2  6  5        4 0.129849172661D-04 0.100000000000D+01
0.179674408969D-06 0.000000000000D+00 -.592881366688D-08 0.273355397383D-04 0.000000000000D+00  6 3 22 9900012 13 4 21 2 0.92494604D-01 0.84794918D-02 0.34076092D+04 0.34076092D+04 0.34076092D+04 0.12610387D+01  1  2  3  2  6  5        4 0.120155993041D-05 0.100000000000D+01
-.486560163105D-06 0.000000000000D+00 0.000000000000D+00 0.273355397383D-04 0.000000000000D+00  6 3 22 9900012 13 4 21 2 0.92494604D-01 0.84794918D-02 0.34076092D+04 0.34076092D+04 0.34076092D+04 0.12610387D+01  1  2 15  2  6  5        4 -.325383675436D-05 0.100000000000D+01
-.753679302187D-07 0.000000000000D+00 0.000000000000D+00 0.273355397383D-04 0.000000000000D+00  6 3 22 9900012 13 4 21 2 0.92494604D-01 0.84794918D-02 0.34076092D+04 0.34076092D+04 0.34076092D+04 0.12610387D+01  1  2  4  2  6  5        4 -.504017714645D-06 0.100000000000D+01
-.393198111516D-05 0.000000000000D+00 0.000000000000D+00 0.273355397383D-04 0.000000000000D+00  6 3 22 9900012 13 4 21 2 0.92494604D-01 0.84794918D-02 0.34076092D+04 0.34076092D+04 0.34076092D+04 0.12610387D+01  1  2  5  2  6  5        4 -.262948462289D-04 0.100000000000D+01
0.454441409854D-05 0.000000000000D+00 -.000000000000D+00 0.273355397383D-04 0.000000000000D+00  6 3 22 9900012 13 4 21 2 0.92494604D-01 0.84794918D-02 0.34076092D+04 0.34076092D+04 0.34076092D+04 0.12610387D+01  1  2  6  2  6  5        4 0.303904485860D-04 0.100000000000D+01
  </mgrwgt>
  </event>
  <event>
  6     66 0.10089070E-05 0.12416902E+03 0.78161638E-02 0.10580893E+00
        1 -1    0    0  501    0 0.00000000E+00 0.00000000E+00 0.14923031E+03 0.14923031E+03 0.00000000E+00 0.0000E+00 0.9000E+01
       22 -1    0    0    0    0 -.00000000E+00 -.00000000E+00 -.48683610E+03 0.48683610E+03 0.00000000E+00 0.0000E+00 0.9000E+01
      -24  2    1    2    0    0 -.10375036E+03 0.68218817E+02 -.44679635E+03 0.47071671E+03 0.80804038E+02 0.0000E+00 0.0000E+00
  9900012  1    3    3    0    0 -.43402107E+02 0.19626287E+02 -.17630238E+03 0.18934483E+03 0.50000000E+02 0.0000E+00 0.9000E+01
       13  1    3    3    0    0 -.60348255E+02 0.48592530E+02 -.27049397E+03 0.28137188E+03 0.00000000E+00 0.0000E+00 0.9000E+01
        2  1    1    2  501    0 0.10375036E+03 -.68218817E+02 0.10919056E+03 0.16534970E+03 0.00000000E+00 0.0000E+00 0.9000E+01
#aMCatNLO 1  0  0  5  1 0.12151202D+03 0.00000000D+00  -5  6  0 0.00000000D+00 0.00000000D+00 0.00000000D+00 0.00000000D+00 0.00000000D+00
  <mgrwgt>
 0.1354054331D-03    4    2    0
 0.269537939400344D+03 0.000000000000000D+00 0.000000000000000D+00 0.269537939400344D+03
 0.269537939400344D+03 -.000000000000000D+00 -.000000000000000D+00 -.269537939400344D+03
 0.112999266312168D+03 -.434021066984128D+02 0.196262866249044D+02 -.894421611687970D+02
 0.162594678231468D+03 -.603482549973430D+02 0.485925300654508D+02 -.142947135437575D+03
 0.263481934257051D+03 0.103750361695756D+03 -.682188166903552D+02 0.232389296606372D+03
 0.000000000000000D+00 -.000000000000000D+00 0.000000000000000D+00 0.000000000000000D+00
 0.269537939400344D+03 0.000000000000000D+00 0.000000000000000D+00 0.269537939400344D+03
 0.269537939400344D+03 -.000000000000000D+00 -.000000000000000D+00 -.269537939400344D+03
 0.903312436697173D+02 -.330853195463525D+02 0.128427053432923D+02 -.663337028432679D+02
 0.125520319665617D+03 -.457295875436229D+02 0.389803400067111D+02 -.110202942633171D+03
 0.208191872703719D+03 0.170151079090586D+03 -.114789420710957D+02 0.119418172960061D+03
 0.115032442761634D+03 -.913361720006110D+02 -.403441032789077D+02 0.571184725163782D+02
0.343804709865D-04 0.000000000000D+00 0.000000000000D+00 0.115569060026D-04 0.000000000000D+00  6 1 22 9900012 13 2 21 0 0.22958509D-01 0.74897862D-01 0.18320496D+05 0.18320496D+05 0.18320496D+05 0.11829855D+01  1  2  2  2  6  5        2 0.176283842851D-03 0.100000000000D+01
0.200164117247D-06 0.000000000000D+00 -.660150305871D-07 0.115569060026D-04 0.000000000000D+00  6 1 22 9900012 13 2 21 2 0.22958509D-01 0.74897862D-01 0.18320496D+05 0.18320496D+05 0.18320496D+05 0.11829855D+01  1  2  3  2  6  5        2 0.143630196972D-05 0.100000000000D+01
-.547601848949D-05 0.000000000000D+00 0.000000000000D+00 0.115569060026D-04 0.000000000000D+00  6 1 22 9900012 13 2 21 2 0.22958509D-01 0.74897862D-01 0.18320496D+05 0.18320496D+05 0.18320496D+05 0.11829855D+01  1  2 15  2  6  5        2 -.392938367320D-04 0.100000000000D+01
-.420991401299D-06 0.000000000000D+00 0.000000000000D+00 0.115569060026D-04 0.000000000000D+00  6 1 22 9900012 13 2 21 2 0.22958509D-01 0.74897862D-01 0.18320496D+05 0.18320496D+05 0.18320496D+05 0.11829855D+01  1  2  4  2  6  5        2 -.302087500617D-05 0.100000000000D+01
  </mgrwgt>
  </event>
  <event>
  6     66 0.10089070E-05 0.45174057E+02 0.78161638E-02 0.11380331E+00
        1 -1    0    0  501    0 0.00000000E+00 0.00000000E+00 0.56567260E+02 0.56567260E+02 0.00000000E+00 0.0000E+00 0.9000E+01
       22 -1    0    0    0    0 -.00000000E+00 -.00000000E+00 -.24550314E+03 0.24550314E+03 0.00000000E+00 0.0000E+00 0.9000E+01
      -24  2    1    2    0    0 -.91688805E+01 -.10397031E+03 -.12197048E+03 0.17806130E+03 0.77039825E+02 0.0000E+00 0.0000E+00
  9900012  1    3    3    0    0 0.14672749E+02 -.60981168E+02 -.81950426E+02 0.11467286E+03 0.50000000E+02 0.0000E+00 0.9000E+01
       13  1    3    3    0    0 -.23841629E+02 -.42989138E+02 -.40020053E+02 0.63388437E+02 0.00000000E+00 0.0000E+00 0.9000E+01
        2  1    1    2  501    0 0.91688805E+01 0.10397031E+03 -.66965405E+02 0.12400911E+03 0.00000000E+00 0.0000E+00 0.9000E+01
#aMCatNLO 1  0  0  5  1 0.27946646D+02 0.00000000D+00  -5  6  0 0.00000000D+00 0.00000000D+00 0.00000000D+00 0.00000000D+00 0.00000000D+00
  <mgrwgt>
 0.6283956790D-04    5    2    0
 0.117844983269489D+03 0.000000000000000D+00 0.000000000000000D+00 0.117844983269489D+03
 0.117844983269489D+03 -.000000000000000D+00 -.000000000000000D+00 -.117844983269489D+03
 0.812758435034932D+02 0.146727489072928D+02 -.609811683420775D+02 -.131061162951908D+02
 0.491601183408077D+02 -.238416293669036D+02 -.429891383291543D+02 -.477420286807071D+00
 0.105254004694677D+03 0.916888045961082D+01 0.103970306671232D+03 0.135835365819979D+02
 0.000000000000000D+00 0.000000000000000D+00 0.000000000000000D+00 -.000000000000000D+00
 0.117844983269489D+03 0.000000000000000D+00 0.000000000000000D+00 0.117844983269489D+03
 0.117844983269489D+03 -.000000000000000D+00 -.000000000000000D+00 -.117844983269489D+03
 0.743225805610538D+02 0.155172080081880D+02 -.514054440125763D+02 -.118550648566276D+02
 0.439638979779196D+02 -.233362294982029D+02 -.372581682754076D+02 0.271320809259573D+00
 0.982767074280599D+02 0.257765455560341D+02 0.934602944375034D+02 0.160951634273576D+02
 0.191267805719447D+02 -.179575240660192D+02 -.479668214951951D+01 -.451141937998956D+01
0.895048280098D-06 0.000000000000D+00 0.000000000000D+00 0.396369323757D-07 0.000000000000D+00  6 1 22 9900012 13 2 21 0 0.87026554D-02 0.37769714D-01 0.13659039D+05 0.13659039D+05 0.13659039D+05 0.11955402D+01  1  2  2  2  6  5        2 0.502772788159D-04 0.100000000000D+01
-.331686860867D-07 0.000000000000D+00 -.171861053360D-08 0.396369323757D-07 0.000000000000D+00  6 1 22 9900012 13 2 21 2 0.87026554D-02 0.37769714D-01 0.13659039D+05 0.13659039D+05 0.13659039D+05 0.11955402D+01  1  2  3  2  6  5        2 -.266306597971D-05 0.100000000000D+01
-.112952376019D-06 0.000000000000D+00 0.000000000000D+00 0.396369323757D-07 0.000000000000D+00  6 1 22 9900012 13 2 21 2 0.87026554D-02 0.37769714D-01 0.13659039D+05 0.13659039D+05 0.13659039D+05 0.11955402D+01  1  2 15  2  6  5        2 -.906878340364D-05 0.100000000000D+01
0.464151828471D-06 0.000000000000D+00 0.000000000000D+00 0.396369323757D-07 0.000000000000D+00  6 1 22 9900012 13 2 21 2 0.87026554D-02 0.37769714D-01 0.13557219D+05 0.13557219D+05 0.13557219D+05 0.11958656D+01  1  2 12  2  6  5        2 0.372629645397D-04 0.100000000000D+01
-.161527699334D-06 0.000000000000D+00 0.000000000000D+00 0.396369323757D-07 0.000000000000D+00  6 1 22 9900012 13 2 21 2 0.87026554D-02 0.37769714D-01 0.13659039D+05 0.13659039D+05 0.13659039D+05 0.11955402D+01  1  2  4  2  6  5        2 -.129688260715D-04 0.100000000000D+01
  </mgrwgt>
  </event>
  <event>
  7     66 -.10089070E-05 0.19468057E+02 0.78161638E-02 0.12788429E+00
        1 -1    0    0  502    0 0.00000000E+00 0.00000000E+00 0.42661078E+01 0.42661078E+01 0.00000000E+00 0.0000E+00 0.9000E+01
       22 -1    0    0    0    0 0.00000000E+00 0.00000000E+00 -.82937904E+03 0.82937904E+03 0.00000000E+00 0.0000E+00 0.9000E+01
      -24  2    1    2    0    0 0.20152855E+02 -.97532966E+01 -.74165205E+03 0.74673368E+03 0.84036733E+02 0.0000E+00 0.0000E+00
  9900012  1    3    3    0    0 -.10193067E+02 -.18245370E+02 -.52736078E+03 0.53013789E+03 0.50000000E+02 0.0000E+00 0.9000E+01
       13  1    3    3    0    0 0.30345922E+02 0.84920734E+01 -.21429127E+03 0.21659580E+03 0.00000000E+00 0.0000E+00 0.9000E+01
        2  1    1    2  501    0 -.13633231E+02 0.10498649E+02 -.51984499E+02 0.54758330E+02 0.00000000E+00 0.0000E+00 0.9000E+01
       21  1    1    2  502  501 -.65196240E+01 -.74535268E+00 -.31476390E+02 0.32153137E+02 0.00000000E+00 0.0000E+00 0.9000E+01
#aMCatNLO 2  0  0  1  5 0.79929082D+01 0.00000000D+00  -5  6  0 0.00000000D+00 0.00000000D+00 0.00000000D+00 0.00000000D+00 0.00000000D+00
  <mgrwgt>
 -.5412406027D-04    2    2    0
 0.558735678057721D+02 0.000000000000000D+00 0.000000000000000D+00 0.558735678057721D+02
 0.558735678057721D+02 0.000000000000000D+00 0.000000000000000D+00 -.558735678057721D+02
 0.577066566432531D+02 -.135331923702739D+02 -.186272281095668D+02 -.173186979350538D+02
 0.297658085495279D+02 0.285591312804058D+02 0.828779938750343D+01 0.130067691153369D+01
 0.242746704187631D+02 -.150259389101318D+02 0.103394287220634D+02 0.160180210235201D+02
 0.000000000000000D+00 -.000000000000000D+00 -.000000000000000D+00 0.000000000000000D+00
 0.607916039513457D+02 0.000000000000000D+00 0.000000000000000D+00 0.607916039513457D+02
 0.582024516588878D+02 0.000000000000000D+00 0.000000000000000D+00 -.582024516588878D+02
 0.568922617030848D+02 -.101930671132636D+02 -.182453699976502D+02 -.173186979350538D+02
 0.315385808523815D+02 0.303459224854333D+02 0.849207337827936D+01 0.130067691153369D+01
 0.235087990583270D+02 -.136332314084287D+02 0.104986492949853D+02 0.160180210235201D+02
 0.705441399644021D+01 -.651962396374097D+01 -.745352675614482D+00 0.258915229245796D+01
-.203814644301D-06 0.000000000000D+00 0.000000000000D+00 0.153053608595D-07 0.000000000000D+00  6 1 22 9900012 13 2 21 2 0.68368073D-03 0.12249118D+00 0.29960946D+04 0.29960946D+04 0.29960946D+04 0.12676914D+01  1  2 13  1  6  1        1 -.590619670804D-04 0.100000000000D+01
0.175431150304D-07 0.000000000000D+00 0.000000000000D+00 0.153053608595D-07 0.297317114338D-08  6 1 22 9900012 13 2 21 2 0.65632427D-03 0.12759678D+00 0.29960946D+04 0.29960946D+04 0.29960946D+04 0.12676914D+01  1  2  1  1  6  1        1 0.493790680729D-05 0.100000000000D+01
  </mgrwgt>
  </event>
  <event>
  6     66 0.10089070E-05 0.12685553E+03 0.78161638E-02 0.10226836E+00
        3 -1    0    0  501    0 0.00000000E+00 0.00000000E+00 0.17905698E+03 0.17905698E+03 0.00000000E+00 0.0000E+00 0.9000E+01
       22 -1    0    0    0    0 0.00000000E+00 0.00000000E+00 -.12560890E+04 0.12560890E+04 0.00000000E+00 0.0000E+00 0.9000E+01
      -24  2    1    2    0    0 0.20859128E+03 0.14023564E+02 -.11807799E+04 0.12017565E+04 0.79187518E+02 0.0000E+00 0.0000E+00
  9900012  1    3    3    0    0 0.83173074E+02 -.22861883E+01 -.50697485E+03 0.51618454E+03 0.50000000E+02 0.0000E+00 0.9000E+01
       13  1    3    3    0    0 0.12541820E+03 0.16309752E+02 -.67380504E+03 0.68557200E+03 0.00000000E+00 0.0000E+00 0.9000E+01
        4  1    1    2  501    0 -.20859128E+03 -.14023564E+02 0.10374791E+03 0.23338940E+03 0.00000000E+00 0.0000E+00 0.9000E+01
#aMCatNLO 1  0  0  1  5 0.71955140D+02 0.00000000D+00  -5  6  0 0.00000000D+00 0.00000000D+00 0.00000000D+00 0.00000000D+00 0.00000000D+00
  <mgrwgt>
 0.3328583114D-04    9    2    0
 0.474248349939664D+03 0.000000000000000D+00 0.000000000000000D+00 0.474248349939664D+03
 0.474248349939664D+03 0.000000000000000D+00 0.000000000000000D+00 -.474248349939664D+03
 0.205348136456149D+03 0.831730737685350D+02 -.228618834180151D+01 -.180955437300936D+03
 0.272205793273796D+03 0.125418204358174D+03 0.163097519706002D+02 -.241039954982666D+03
 0.470942770149384D+03 -.208591278126709D+03 -.140235636287986D+02 0.421995392283601D+03
 0.000000000000000D+00 0.000000000000000D+00 -.000000000000000D+00 0.000000000000000D+00
 0.592616421993588D+03 0.000000000000000D+00 0.000000000000000D+00 0.592616421993588D+03
 0.485489472368607D+03 0.000000000000000D+00 0.000000000000000D+00 -.485489472368607D+03
 0.203210293669191D+03 0.769857479978456D+02 0.110791592442029D+02 -.180955437300936D+03
 0.270178989518235D+03 0.117204174009640D+03 0.340530185705600D+02 -.241039954982666D+03
 0.477575801284908D+03 -.222955914781526D+03 0.170057322178454D+02 0.421995392283601D+03
 0.127140809889861D+03 0.287659927740402D+02 -.621379100326082D+02 0.107126949624980D+03
0.344817131628D-04 0.000000000000D+00 0.000000000000D+00 0.217598986794D-04 0.000000000000D+00  6 3 22 9900012 13 4 21 0 0.27547228D-01 0.19324445D+00 0.46787520D+05 0.46787520D+05 0.46787520D+05 0.11454722D+01  1  2  2  1  6  1        3 0.901142910372D-05 0.100000000000D+01
0.113194039355D-06 0.000000000000D+00 -.662094288943D-07 0.217598986794D-04 0.000000000000D+00  6 3 22 9900012 13 4 21 2 0.27547228D-01 0.19324445D+00 0.46787520D+05 0.46787520D+05 0.46787520D+05 0.11454722D+01  1  2  3  1  6  1        3 0.388148151618D-07 0.100000000000D+01
-.520844636709D-05 0.000000000000D+00 0.000000000000D+00 0.217598986794D-04 0.000000000000D+00  6 3 22 9900012 13 4 21 2 0.27547228D-01 0.19324445D+00 0.46787520D+05 0.46787520D+05 0.46787520D+05 0.11454722D+01  1  2 15  1  6  1        3 -.178600290414D-05 0.100000000000D+01
0.923611595812D-04 0.000000000000D+00 0.000000000000D+00 0.217598986794D-04 0.000000000000D+00  6 3 22 9900012 13 4 21 2 0.35238689D-01 0.19324445D+00 0.64158763D+05 0.64158763D+05 0.64158763D+05 0.11336411D+01  1  2 12  1  6  1        3 0.198426356557D-04 0.100000000000D+01
-.207602307286D-04 0.000000000000D+00 0.000000000000D+00 0.217598986794D-04 0.000000000000D+00  6 3 22 9900012 13 4 21 2 0.27547228D-01 0.19324445D+00 0.46787520D+05 0.46787520D+05 0.46787520D+05 0.11454722D+01  1  2  4  1  6  1        3 -.711878932001D-05 0.100000000000D+01
-.114273672506D-03 0.000000000000D+00 -.195373642409D-04 0.217598986794D-04 0.000000000000D+00  6 3 22 9900012 13 4 21 2 0.35034679D-01 0.19324445D+00 0.46787520D+05 0.46787520D+05 0.46787520D+05 0.11454722D+01  1  2  5  1  6  1        3 -.250344375177D-04 0.100000000000D+01
0.116149124041D-03 0.000000000000D+00 0.189859298763D-04 0.217598986794D-04 0.000000000000D+00  6 3 22 9900012 13 4 21 2 0.27547228D-01 0.19324445D+00 0.46787520D+05 0.46787520D+05 0.46787520D+05 0.11454722D+01  1  2  6  1  6  1        3 0.398281288181D-04 0.100000000000D+01
0.309103533777D-05 0.000000000000D+00 0.000000000000D+00 0.217598986794D-04 0.000000000000D+00  6 21 22 9900012 13 4 -3 2 0.35238689D-01 0.19324445D+00 0.64158763D+05 0.64158763D+05 0.64158763D+05 0.11336411D+01  1  2 12  3  6  1        3 0.100332888395D-04 0.100000000000D+01
-.345031098777D-05 0.000000000000D+00 -.642396997398D-06 0.217598986794D-04 0.000000000000D+00  6 21 22 9900012 13 4 -3 2 0.35034679D-01 0.19324445D+00 0.46787520D+05 0.46787520D+05 0.46787520D+05 0.11454722D+01  1  2  5  3  6  1        3 -.115292363478D-04 0.100000000000D+01
  </mgrwgt>
  </event>
  <event>
  6     66 0.10089070E-05 0.26338489E+02 0.78161638E-02 0.12829071E+00
        1 -1    0    0  501    0 0.00000000E+00 0.00000000E+00 0.28966959E+03 0.28966959E+03 0.00000000E+00 0.0000E+00 0.9000E+01
       22 -1    0    0    0    0 0.00000000E+00 0.00000000E+00 -.11206866E+02 0.11206866E+02 0.00000000E+00 0.0000E+00 0.9000E+01
      -24  2    1    2    0    0 -.25281486E+02 -.73866383E+01 0.23942824E+03 0.25378711E+03 0.79926819E+02 0.0000E+00 0.0000E+00
  9900012  1    3    3    0    0 0.22958579E+01 -.19852036E+02 0.14925627E+03 0.15867202E+03 0.50000000E+02 0.0000E+00 0.9000E+01
       13  1    3    3    0    0 -.27577344E+02 0.12465397E+02 0.90171972E+02 0.95115092E+02 0.00000000E+00 0.0000E+00 0.9000E+01
        2  1    1    2  501    0 0.25281486E+02 0.73866383E+01 0.39034478E+02 0.47089346E+02 0.00000000E+00 0.0000E+00 0.9000E+01
#aMCatNLO 1  0  0  5  1 0.68555390D+01 0.00000000D+00  -5  6  0 0.00000000D+00 0.00000000D+00 0.00000000D+00 0.00000000D+00 0.00000000D+00
  <mgrwgt>
 0.2466480234D-03    8    2    0
 0.569762074031723D+02 0.000000000000000D+00 0.000000000000000D+00 0.569762074031723D+02
 0.569762074031723D+02 -.000000000000000D+00 -.000000000000000D+00 -.569762074031723D+02
 0.542188248724721D+02 0.229585791866969D+01 -.198520355255684D+02 0.634875518985038D+01
 0.307879265096918D+02 -.275773442821447D+02 0.124653971803503D+02 0.565688732841292D+01
 0.289456634241807D+02 0.252814863634750D+02 0.738663834521807D+01 -.120056425182633D+02
 0.000000000000000D+00 0.000000000000000D+00 0.000000000000000D+00 -.000000000000000D+00
 0.569762074031723D+02 0.000000000000000D+00 0.000000000000000D+00 0.569762074031723D+02
 0.569762074031723D+02 -.000000000000000D+00 -.000000000000000D+00 -.569762074031723D+02
 0.540354333724820D+02 0.417258530471140D+01 -.193037012119149D+02 0.545753709542682D+01
 0.298887925293107D+02 -.265254349885816D+02 0.127727396131414D+02 0.515735787992275D+01
 0.223388494671159D+02 0.206917551563024D+02 0.778190725304036D+01 -.321206842566839D+01
 0.768933943743604D+01 0.166109452756777D+01 -.125094565426687D+01 -.740282654968118D+01
0.398918184757D-06 0.000000000000D+00 0.000000000000D+00 0.171163850763D-06 0.000000000000D+00  6 1 22 9900012 13 2 21 0 0.44564552D-01 0.17241332D-02 0.30496958D+04 0.30496958D+04 0.30496958D+04 0.12667680D+01  1  2  2  2  6  5        2 0.198053979763D-03 0.100000000000D+01
-.119622286808D-07 0.000000000000D+00 -.765975433519D-09 0.171163850763D-06 0.000000000000D+00  6 1 22 9900012 13 2 21 2 0.44564552D-01 0.17241332D-02 0.30496958D+04 0.30496958D+04 0.30496958D+04 0.12667680D+01  1  2  3  2  6  5        2 -.953028738454D-05 0.100000000000D+01
-.413289439071D-07 0.000000000000D+00 0.000000000000D+00 0.171163850763D-06 0.000000000000D+00  6 1 22 9900012 13 2 21 2 0.44564552D-01 0.17241332D-02 0.30496958D+04 0.30496958D+04 0.30496958D+04 0.12667680D+01  1  2 15  2  6  5        2 -.329266998017D-04 0.100000000000D+01
0.246219329595D-06 0.000000000000D+00 0.000000000000D+00 0.171163850763D-06 0.000000000000D+00  6 1 22 9900012 13 2 21 2 0.44564552D-01 0.17241332D-02 0.28829254D+04 0.28829254D+04 0.28829254D+04 0.12697041D+01  1  2 12  2  6  5        2 0.195894883348D-03 0.100000000000D+01
-.213600367282D-06 0.000000000000D+00 0.000000000000D+00 0.171163850763D-06 0.000000000000D+00  6 1 22 9900012 13 2 21 2 0.44564552D-01 0.17241332D-02 0.30496958D+04 0.30496958D+04 0.30496958D+04 0.12667680D+01  1  2  4  2  6  5        2 -.170175051820D-03 0.100000000000D+01
-.246063246049D-06 0.000000000000D+00 0.000000000000D+00 0.171163850763D-06 0.000000000000D+00  6 1 22 9900012 13 2 21 2 0.44564552D-01 0.17241332D-02 0.30496958D+04 0.30496958D+04 0.30496958D+04 0.12667680D+01  1  2  5  2  6  5        2 -.196038172500D-03 0.100000000000D+01
0.319713424645D-06 0.000000000000D+00 -.000000000000D+00 0.171163850763D-06 0.000000000000D+00  6 1 22 9900012 13 2 21 2 0.44564552D-01 0.17241332D-02 0.30496958D+04 0.30496958D+04 0.30496958D+04 0.12667680D+01  1  2  6  2  6  5        2 0.254715145385D-03 0.100000000000D+01
0.836366496690D-08 0.000000000000D+00 0.000000000000D+00 0.171163850763D-06 0.104245696326D-07  6 1 22 9900012 13 2 21 2 0.44564552D-01 0.17241332D-02 0.28829254D+04 0.28829254D+04 0.28829254D+04 0.12697041D+01  1  2 11  2  6  5        2 0.665422644011D-05 0.100000000000D+01
  </mgrwgt>
  </event>
  <event>
  7     66 -.10089070E-05 0.50090626E+02 0.78161638E-02 0.12184465E+00
        1 -1    0    0  501    0 0.00000000E+00 0.00000000E+00 0.63464473E+03 0.63464473E+03 0.00000000E+00 0.0000E+00 0.9000E+01
       22 -1    0    0    0    0 0.00000000E+00 0.00000000E+00 -.15383723E+02 0.15383723E+02 0.00000000E+00 0.0000E+00 0.9000E+01
      -24  2    1    2    0    0 -.41697821E+02 -.21481796E+02 0.14747555E+03 0.17433470E+03 0.80270634E+02 0.0000E+00 0.0000E+00
  9900012  1    3    3    0    0 -.17118886E+02 -.30618108E+02 0.71906561E+02 0.94345526E+02 0.50000000E+02 0.0000E+00 0.9000E+01
       13  1    3    3    0    0 -.24578935E+02 0.91363112E+01 0.75568988E+02 0.79989175E+02 0.00000000E+00 0.0000E+00 0.9000E+01
        2  1    1    2  502    0 0.46534565E+02 0.26683486E+02 0.42508497E+03 0.42845619E+03 0.00000000E+00 0.0000E+00 0.9000E+01
       21  1    1    2  501  502 -.48367438E+01 -.52016898E+01 0.46700491E+02 0.47237565E+02 0.00000000E+00 0.0000E+00 0.9000E+01
#aMCatNLO 2  0  0  5  1 0.11869597D+02 0.00000000D+00  -5  6  0 0.00000000D+00 0.00000000D+00 0.00000000D+00 0.00000000D+00 0.00000000D+00
  <mgrwgt>
 -.6092154905D-04    3    2    0
 0.988088987831981D+02 0.000000000000000D+00 0.000000000000000D+00 0.988088987831981D+02
 0.988088987831981D+02 -.000000000000000D+00 -.000000000000000D+00 -.988088987831981D+02
 0.881855924298191D+02 -.193498187713988D+02 -.317674348044201D+02 -.623948179872264D+02
 0.269259237323253D+02 -.252646235935773D+02 0.878305946696420D+01 -.309225320981791D+01
 0.825062814042517D+02 0.446144423649761D+02 0.229843753374559D+02 0.654870711970443D+02
 0.000000000000000D+00 0.000000000000000D+00 -.000000000000000D+00 0.000000000000000D+00
 0.988088987831981D+02 0.000000000000000D+00 0.000000000000000D+00 0.988088987831981D+02
 0.988088987831981D+02 -.000000000000000D+00 -.000000000000000D+00 -.988088987831981D+02
 0.850042209888024D+02 -.171188862796170D+02 -.306181076577495D+02 -.591201556317061D+02
 0.263048787348748D+02 -.245789347274507D+02 0.913631122644693D+01 -.208576846598290D+01
 0.772712120140767D+02 0.465345648556772D+02 0.266834862514676D+02 0.556180370139481D+02
 0.903748582864224D+01 -.483674384860954D+01 -.520168982016506D+01 0.558788708374090D+01
-.362973149408D-06 0.000000000000D+00 0.000000000000D+00 0.129282671701D-05 0.000000000000D+00  6 1 22 9900012 13 2 21 2 0.97637651D-01 0.23667266D-02 0.54793383D+04 0.54793383D+04 0.54793383D+04 0.12373944D+01  1  2 13  2  6  5        2 -.695865390679D-04 0.100000000000D+01
-.402819422505D-09 0.000000000000D+00 0.000000000000D+00 0.129282671701D-05 0.000000000000D+00  6 1 22 9900012 13 2 21 2 0.97637651D-01 0.23667266D-02 0.48478594D+04 0.48478594D+04 0.48478594D+04 0.12433599D+01  1  2  8  2  6  5        2 -.772433578312D-07 0.100000000000D+01
0.456007156639D-07 0.000000000000D+00 0.000000000000D+00 0.129282671701D-05 0.307135479685D-07  6 1 22 9900012 13 2 21 2 0.97637651D-01 0.23667266D-02 0.54793383D+04 0.54793383D+04 0.54793383D+04 0.12373944D+01  1  2  1  2  6  5        2 0.874223337799D-05 0.100000000000D+01
  </mgrwgt>
  </event>
  <event>
  7     66 -.10089070E-05 0.18513830E+02 0.78161638E-02 0.12861718E+00
        1 -1    0    0  502    0 0.00000000E+00 0.00000000E+00 0.15617271E+04 0.15617271E+04 0.00000000E+00 0.0000E+00 0.9000E+01
       22 -1    0    0    0    0 0.00000000E+00 0.00000000E+00 -.48512076E+01 0.48512076E+01 0.00000000E+00 0.0000E+00 0.9000E+01
      -24  2    1    2    0    0 -.18392251E+02 0.52519857E+01 0.36326599E+03 0.37254871E+03 0.80402140E+02 0.0000E+00 0.0000E+00
  9900012  1    3    3    0    0 -.31922717E+02 -.55369967E+01 0.32677738E+03 0.33216438E+03 0.50000000E+02 0.0000E+00 0.9000E+01
       13  1    3    3    0    0 0.13530466E+02 0.10788982E+02 0.36488613E+02 0.40384336E+02 0.00000000E+00 0.0000E+00 0.9000E+01
        2  1    1    2  501    0 0.18296380E+02 -.12150344E+02 0.10714143E+04 0.10716394E+04 0.00000000E+00 0.0000E+00 0.9000E+01
       21  1    1    2  502  501 0.95870944E-01 0.68983585E+01 0.12219568E+03 0.12239028E+03 0.00000000E+00 0.0000E+00 0.9000E+01
#aMCatNLO 2  0  0  1  5 0.77322472D+01 0.00000000D+00  -5  6  0 0.00000000D+00 0.00000000D+00 0.00000000D+00 0.00000000D+00 0.00000000D+00
  <mgrwgt>
 -.1088647429D-03    3    2    0
 0.826500906433475D+02 0.000000000000000D+00 0.000000000000000D+00 0.826500906433475D+02
 0.826500906433475D+02 0.000000000000000D+00 0.000000000000000D+00 -.826500906433475D+02
 0.656110652125701D+02 -.318846250209355D+02 -.279607585453089D+01 -.279350053770922D+02
 0.365928581576668D+02 0.135515384524326D+02 0.123052123591089D+02 -.316855617358537D+02
 0.630962579164581D+02 0.183330865685029D+02 -.950913650457803D+01 0.596205671129459D+02
 0.000000000000000D+00 0.000000000000000D+00 0.000000000000000D+00 0.000000000000000D+00
 0.897500318209699D+02 0.000000000000000D+00 0.000000000000000D+00 0.897500318209699D+02
 0.844151514243330D+02 0.000000000000000D+00 0.000000000000000D+00 -.844151514243330D+02
 0.658033642117896D+02 -.319227173676815D+02 -.553699666194501D+01 -.279350053770922D+02
 0.361033306657907D+02 0.135304664252290D+02 0.107889823877220D+02 -.316855617358537D+02
 0.635373937904457D+02 0.182963799983670D+02 -.121503442654204D+02 0.596205671129459D+02
 0.872109457727703D+01 0.958709440854480D-01 0.689835853964333D+01 0.533488039663692D+01
-.613034605577D-06 0.000000000000D+00 0.000000000000D+00 0.808750333212D-06 0.000000000000D+00  6 1 22 9900012 13 2 21 2 0.24539679D+00 0.73073420D-03 0.27956199D+04 0.27956199D+04 0.27956199D+04 0.12713187D+01  1  2 13  1  6  1        1 -.113919321893D-03 0.100000000000D+01
-.860448202649D-11 0.000000000000D+00 0.000000000000D+00 0.808750333212D-06 0.000000000000D+00  6 1 22 9900012 13 2 21 2 0.22125879D+00 0.73073420D-03 0.24169154D+04 0.24169154D+04 0.24169154D+04 0.12790435D+01  1  2  8  1  6  1        1 -.201278263480D-08 0.100000000000D+01
0.266517097943D-07 0.000000000000D+00 0.000000000000D+00 0.808750333212D-06 0.985297454674D-08  6 1 22 9900012 13 2 21 2 0.24026571D+00 0.74633963D-03 0.27956199D+04 0.27956199D+04 0.27956199D+04 0.12713187D+01  1  2  1  1  6  1        1 0.505659174265D-05 0.100000000000D+01
  </mgrwgt>
  </event>
  <event>
  6     66 0.10089070E-05 0.25486028E+02 0.78161638E-02 0.12590428E+00
        3 -1    0    0  501    0 0.00000000E+00 0.00000000E+00 0.98593667E+02 0.98593667E+02 0.00000000E+00 0.0000E+00 0.9000E+01
       22 -1    0    0    0    0 0.00000000E+00 0.00000000E+00 -.41514334E+02 0.41514334E+02 0.00000000E+00 0.0000E+00 0.9000E+01
      -24  2    1    2    0    0 0.23507377E+02 0.98458538E+01 0.61537427E+01 0.83161067E+02 0.78919940E+02 0.0000E+00 0.0000E+00
  9900012  1    3    3    0    0 -.57354392E+01 0.34338297E+01 0.13729480E+02 0.52279873E+02 0.50000000E+02 0.0000E+00 0.9000E+01
       13  1    3    3    0    0 0.29242817E+02 0.64120241E+01 -.75757374E+01 0.30881194E+02 0.00000000E+00 0.0000E+00 0.9000E+01
        4  1    1    2  501    0 -.23507377E+02 -.98458538E+01 0.50925590E+02 0.56946934E+02 0.00000000E+00 0.0000E+00 0.9000E+01
#aMCatNLO 1  0  0  1  5 0.15713817D+02 0.00000000D+00  -5  6  0 0.00000000D+00 0.00000000D+00 0.00000000D+00 0.00000000D+00 0.00000000D+00
  <mgrwgt>
 0.5820895177D-04    9    2    0
 0.639769524927596D+02 0.000000000000000D+00 0.000000000000000D+00 0.639769524927596D+02
 0.639769524927596D+02 0.000000000000000D+00 0.000000000000000D+00 -.639769524927596D+02
 0.511212134154509D+02 -.573543917919642D+01 0.343382967378089D+01 -.828806444601357D+01
 0.371940227871314D+02 0.292428165463415D+02 0.641202409550545D+01 -.220712246720775D+02
 0.396386687829370D+02 -.235073773671451D+02 -.984585376928634D+01 0.303592891180911D+02
 0.000000000000000D+00 0.000000000000000D+00 0.000000000000000D+00 0.000000000000000D+00
 0.754814238426040D+02 0.000000000000000D+00 0.000000000000000D+00 0.754814238426040D+02
 0.682927614592190D+02 0.000000000000000D+00 0.000000000000000D+00 -.682927614592190D+02
 0.519025424669406D+02 -.109540550120919D+02 0.227828467566336D+01 -.828806444601357D+01
 0.342800099475660D+02 0.256223358554999D+02 0.561035014841938D+01 -.220712246720775D+02
 0.424620342883432D+02 -.276661466264288D+02 -.107667196022526D+02 0.303592891180911D+02
 0.151295985989732D+02 0.129978657830209D+02 0.287808477816986D+01 0.718866238338503D+01
0.125955211771D-06 0.000000000000D+00 0.000000000000D+00 0.164194894947D-06 0.000000000000D+00  6 3 22 9900012 13 4 21 0 0.15168256D-01 0.63868207D-02 0.28020324D+04 0.28020324D+04 0.28020324D+04 0.12711982D+01  1  2  2  1  6  1        3 0.227678435217D-04 0.100000000000D+01
0.435943010970D-08 0.000000000000D+00 -.241850588985D-09 0.164194894947D-06 0.000000000000D+00  6 3 22 9900012 13 4 21 2 0.15168256D-01 0.63868207D-02 0.28020324D+04 0.28020324D+04 0.28020324D+04 0.12711982D+01  1  2  3  1  6  1        3 0.127339166959D-05 0.100000000000D+01
-.163084894712D-07 0.000000000000D+00 0.000000000000D+00 0.164194894947D-06 0.000000000000D+00  6 3 22 9900012 13 4 21 2 0.15168256D-01 0.63868207D-02 0.28020324D+04 0.28020324D+04 0.28020324D+04 0.12711982D+01  1  2 15  1  6  1        3 -.476371775982D-05 0.100000000000D+01
0.131404507658D-06 0.000000000000D+00 0.000000000000D+00 0.164194894947D-06 0.000000000000D+00  6 3 22 9900012 13 4 21 2 0.19103077D-01 0.63868207D-02 0.36280105D+04 0.36280105D+04 0.36280105D+04 0.12578394D+01  1  2 12  1  6  1        3 0.263646395652D-04 0.100000000000D+01
-.151946338654D-07 0.000000000000D+00 0.000000000000D+00 0.164194894947D-06 0.000000000000D+00  6 3 22 9900012 13 4 21 2 0.15168256D-01 0.63868207D-02 0.28020324D+04 0.28020324D+04 0.28020324D+04 0.12711982D+01  1  2  4  1  6  1        3 -.443835999197D-05 0.100000000000D+01
-.275888745425D-06 0.000000000000D+00 -.758634709244D-07 0.164194894947D-06 0.000000000000D+00  6 3 22 9900012 13 4 21 2 0.19031036D-01 0.63868207D-02 0.28020324D+04 0.28020324D+04 0.28020324D+04 0.12711982D+01  1  2  5  1  6  1        3 -.551881761950D-04 0.100000000000D+01
0.287578496617D-06 0.000000000000D+00 0.739521976259D-07 0.164194894947D-06 0.000000000000D+00  6 3 22 9900012 13 4 21 2 0.15168256D-01 0.63868207D-02 0.28020324D+04 0.28020324D+04 0.28020324D+04 0.12711982D+01  1  2  6  1  6  1        3 0.840018196714D-04 0.100000000000D+01
0.418889135263D-08 0.000000000000D+00 0.000000000000D+00 0.164194894947D-06 0.000000000000D+00  6 21 22 9900012 13 4 -3 2 0.19103077D-01 0.63868207D-02 0.36280105D+04 0.36280105D+04 0.36280105D+04 0.12578394D+01  1  2 12  3  6  1        3 0.143461729036D-04 0.100000000000D+01
-.760435739233D-08 0.000000000000D+00 -.238865058753D-08 0.164194894947D-06 0.000000000000D+00  6 21 22 9900012 13 4 -3 2 0.19031036D-01 0.63868207D-02 0.28020324D+04 0.28020324D+04 0.28020324D+04 0.12711982D+01  1  2  5  3  6  1        3 -.261546616135D-04 0.100000000000D+01
  </mgrwgt>
  </event>
  <event>
  6     66 0.10089070E-05 0.71942887E+02 0.78161638E-02 0.11276576E+00
        1 -1    0    0  501    0 0.00000000E+00 0.00000000E+00 0.92461313E+02 0.92461313E+02 0.00000000E+00 0.0000E+00 0.9000E+01
       22 -1    0    0    0    0 -.00000000E+00 -.00000000E+00 -.43303244E+03 0.43303244E+03 0.00000000E+00 0.0000E+00 0.9000E+01
      -24  2    1    2    0    0 0.77291280E+02 0.76729760E+02 -.38459359E+03 0.40802301E+03 0.81909404E+02 0.0000E+00 0.0000E+00
  9900012  1    3    3    0    0 0.41701990E+02 0.76131670E+02 -.26765082E+03 0.28578322E+03 0.50000000E+02 0.0000E+00 0.9000E+01
       13  1    3    3    0    0 0.35589290E+02 0.59808995E+00 -.11694277E+03 0.12223979E+03 0.00000000E+00 0.0000E+00 0.9000E+01
        2  1    1    2  501    0 -.77291280E+02 -.76729760E+02 0.44022462E+02 0.11747074E+03 0.00000000E+00 0.0000E+00 0.9000E+01
#aMCatNLO 1  0  0  5  1 0.16399123D+02 0.00000000D+00  -5  6  0 0.00000000D+00 0.00000000D+00 0.00000000D+00 0.00000000D+00 0.00000000D+00
  <mgrwgt>
 0.1034590534D-03    7    2    0
 0.200096845563938D+03 0.000000000000000D+00 0.000000000000000D+00 0.200096845563938D+03
 0.200096845563938D+03 -.000000000000000D+00 -.000000000000000D+00 -.200096845563938D+03
 0.147486469148935D+03 0.417019895205501D+02 0.761316702446218D+02 -.108245884161070D+03
 0.609927555547321D+02 0.355892903599248D+02 0.598089953568773D+00 -.495293946080880D+02
 0.191714466424209D+03 -.772912798804749D+02 -.767297601981906D+02 0.157775278769158D+03
 0.000000000000000D+00 -.000000000000000D+00 0.000000000000000D+00 0.000000000000000D+00
 0.200096845563938D+03 0.000000000000000D+00 0.000000000000000D+00 0.200096845563938D+03
 0.200096845563938D+03 -.000000000000000D+00 -.000000000000000D+00 -.200096845563938D+03
 0.144652111073228D+03 0.404640448081022D+02 0.749027191770286D+02 -.105718858183375D+03
 0.598425842832561D+02 0.350772475139730D+02 0.897670891804282D-01 -.484841576436240D+02
 0.177504882352352D+03 -.583597746659615D+02 -.773742836848714D+02 0.148712273145540D+03
 0.181941134190398D+02 -.171815176561137D+02 0.238179741866234D+01 0.549074268145854D+01
0.187814881844D-05 0.000000000000D+00 0.000000000000D+00 0.107944444339D-05 0.000000000000D+00  6 1 22 9900012 13 2 21 0 0.14224817D-01 0.66620375D-01 0.14967032D+05 0.14967032D+05 0.14967032D+05 0.11915840D+01  1  2  2  2  6  5        2 0.216165812175D-04 0.100000000000D+01
0.640396980737D-08 0.000000000000D+00 -.360629299538D-08 0.107944444339D-05 0.000000000000D+00  6 1 22 9900012 13 2 21 2 0.14224817D-01 0.66620375D-01 0.14967032D+05 0.14967032D+05 0.14967032D+05 0.11915840D+01  1  2  3  2  6  5        2 0.104653950887D-06 0.100000000000D+01
-.255483290466D-06 0.000000000000D+00 0.000000000000D+00 0.107944444339D-05 0.000000000000D+00  6 1 22 9900012 13 2 21 2 0.14224817D-01 0.66620375D-01 0.14967032D+05 0.14967032D+05 0.14967032D+05 0.11915840D+01  1  2 15  2  6  5        2 -.417511895544D-05 0.100000000000D+01
0.564825413349D-05 0.000000000000D+00 0.000000000000D+00 0.107944444339D-05 0.000000000000D+00  6 1 22 9900012 13 2 21 2 0.14224817D-01 0.66620375D-01 0.15384626D+05 0.15384626D+05 0.15384626D+05 0.11904017D+01  1  2 12  2  6  5        2 0.922907848128D-04 0.100000000000D+01
-.944267059553D-06 0.000000000000D+00 0.000000000000D+00 0.107944444339D-05 0.000000000000D+00  6 1 22 9900012 13 2 21 2 0.14224817D-01 0.66620375D-01 0.14967032D+05 0.14967032D+05 0.14967032D+05 0.11915840D+01  1  2  4  2  6  5        2 -.154312530270D-04 0.100000000000D+01
-.557433765988D-05 0.000000000000D+00 0.000000000000D+00 0.107944444339D-05 0.000000000000D+00  6 1 22 9900012 13 2 21 2 0.14224817D-01 0.66620375D-01 0.14967032D+05 0.14967032D+05 0.14967032D+05 0.11915840D+01  1  2  5  2  6  5        2 -.910960665388D-04 0.100000000000D+01
0.612833236870D-05 0.000000000000D+00 -.000000000000D+00 0.107944444339D-05 0.000000000000D+00  6 1 22 9900012 13 2 21 2 0.14224817D-01 0.66620375D-01 0.14967032D+05 0.14967032D+05 0.14967032D+05 0.11915840D+01  1  2  6  2  6  5        2 0.100149471972D-03 0.100000000000D+01
  </mgrwgt>
  </event>
  <event>
  6     66 0.10089070E-05 0.47307143E+02 0.78161638E-02 0.12184120E+00
        3 -1    0    0  501    0 0.00000000E+00 0.00000000E+00 0.55232270E+02 0.55232270E+02 0.00000000E+00 0.0000E+00 0.9000E+01
       22 -1    0    0    0    0 -.00000000E+00 -.00000000E+00 -.34103112E+03 0.34103112E+03 0.00000000E+00 0.0000E+00 0.9000E+01
      -24  2    1    2    0    0 0.46032302E+02 -.33957587E+02 -.31647842E+03 0.33135325E+03 0.79776526E+02 0.0000E+00 0.0000E+00
  9900012  1    3    3    0    0 0.23478996E+02 -.38424693E+02 -.28196700E+03 0.28988465E+03 0.50000000E+02 0.0000E+00 0.9000E+01
       13  1    3    3    0    0 0.22553306E+02 0.44671066E+01 -.34511421E+02 0.41468601E+02 0.00000000E+00 0.0000E+00 0.9000E+01
        4  1    1    2  501    0 -.46032302E+02 0.33957587E+02 0.30679570E+02 0.64910142E+02 0.00000000E+00 0.0000E+00 0.9000E+01
#aMCatNLO 1  0  0  5  1 0.12831310D+02 0.00000000D+00  -5  6  0 0.00000000D+00 0.00000000D+00 0.00000000D+00 0.00000000D+00 0.00000000D+00
  <mgrwgt>
 0.2960124175D-04    5    2    0
 0.137244026849999D+03 0.000000000000000D+00 0.000000000000000D+00 0.137244026849999D+03
 0.137244026849999D+03 -.000000000000000D+00 -.000000000000000D+00 -.137244026849999D+03
 0.124904631047656D+03 0.234789962986190D+02 -.384246932255991D+02 -.105230444931488D+03
 0.239324214528401D+02 0.225533059103685D+02 0.446710662860301D+01 -.664485872523943D+01
 0.125651001199501D+03 -.460323022089875D+02 0.339575865969962D+02 0.111875303656728D+03
 0.000000000000000D+00 -.000000000000000D+00 0.000000000000000D+00 0.000000000000000D+00
 0.137244026849999D+03 0.000000000000000D+00 0.000000000000000D+00 0.137244026849999D+03
 0.137244026849999D+03 -.000000000000000D+00 -.000000000000000D+00 -.137244026849999D+03
 0.123684875351814D+03 0.229830964200075D+02 -.380588726547544D+02 -.104025227142225D+03
 0.237925713051246D+02 0.224581014970439D+02 0.453733800862847D+01 -.641347723574117D+01
 0.417218757559545D+02 -.313085063877594D+01 0.858896832887578D+01 0.407080128957254D+02
 0.852887312871041D+02 -.423103472782755D+02 0.249325663172501D+02 0.697306914822412D+02
0.158845095642D-05 0.000000000000D+00 0.000000000000D+00 0.527242863991D-05 0.000000000000D+00  6 3 22 9900012 13 4 21 0 0.84972723D-02 0.52466326D-01 0.54377332D+04 0.54377332D+04 0.54377332D+04 0.12377631D+01  1  2  2  2  6  5        4 0.344876065917D-04 0.100000000000D+01
0.268094845246D-07 0.000000000000D+00 -.305003496070D-08 0.527242863991D-05 0.000000000000D+00  6 3 22 9900012 13 4 21 2 0.84972723D-02 0.52466326D-01 0.54377332D+04 0.54377332D+04 0.54377332D+04 0.12377631D+01  1  2  3  2  6  5        4 0.891769756717D-06 0.100000000000D+01
-.241546623489D-06 0.000000000000D+00 0.000000000000D+00 0.527242863991D-05 0.000000000000D+00  6 3 22 9900012 13 4 21 2 0.84972723D-02 0.52466326D-01 0.54377332D+04 0.54377332D+04 0.54377332D+04 0.12377631D+01  1  2 15  2  6  5        4 -.803461825113D-05 0.100000000000D+01
0.194933054492D-05 0.000000000000D+00 0.000000000000D+00 0.527242863991D-05 0.000000000000D+00  6 3 22 9900012 13 4 21 2 0.84972723D-02 0.52466326D-01 0.54813210D+04 0.54813210D+04 0.54813210D+04 0.12373769D+01  1  2 12  2  6  5        4 0.648521674971D-04 0.100000000000D+01
-.188182880683D-05 0.000000000000D+00 0.000000000000D+00 0.527242863991D-05 0.000000000000D+00  6 3 22 9900012 13 4 21 2 0.84972723D-02 0.52466326D-01 0.54377332D+04 0.54377332D+04 0.54377332D+04 0.12377631D+01  1  2  5  2  6  5        4 -.625956838413D-04 0.100000000000D+01
  </mgrwgt>
  </event>
  <event>
  6     66 0.10089070E-05 0.58533637E+02 0.78161638E-02 0.11123847E+00
        3 -1    0    0  501    0 0.00000000E+00 0.00000000E+00 0.18155128E+02 0.18155128E+02 0.00000000E+00 0.0000E+00 0.9000E+01
       22 -1    0    0    0    0 0.00000000E+00 0.00000000E+00 -.11403986E+04 0.11403986E+04 0.00000000E+00 0.0000E+00 0.9000E+01
      -24  2    1    2    0    0 0.80652817E+02 0.33469332E+02 -.10078160E+04 0.10146137E+04 0.78248926E+02 0.0000E+00 0.0000E+00
  9900012  1    3    3    0    0 0.63329847E+02 0.38740738E+01 -.78933576E+03 0.79345864E+03 0.50000000E+02 0.0000E+00 0.9000E+01
       13  1    3    3    0    0 0.17322970E+02 0.29595258E+02 -.21848022E+03 0.22115508E+03 0.00000000E+00 0.0000E+00 0.9000E+01
        4  1    1    2  501    0 -.80652817E+02 -.33469332E+02 -.11442749E+03 0.14394000E+03 0.00000000E+00 0.0000E+00 0.9000E+01
#aMCatNLO 1  0  0  1  5 0.81063207D+02 0.00000000D+00  -5  6  0 0.00000000D+00 0.00000000D+00 0.00000000D+00 0.00000000D+00 0.00000000D+00
  <mgrwgt>
 0.6759013848D-04    9    2    0
 0.143889134752373D+03 0.000000000000000D+00 0.000000000000000D+00 0.143889134752373D+03
 0.143889134752373D+03 0.000000000000000D+00 0.000000000000000D+00 -.143889134752373D+03
 0.116192119727864D+03 0.633298472900317D+02 0.387407377388586D+01 -.835160504422351D+02
 0.383352304537687D+02 0.173229695062281D+02 0.295952577417358D+02 -.171354994275065D+02
 0.133250919323113D+03 -.806528167962598D+02 -.334693315156216D+02 0.100651549869742D+03
 0.000000000000000D+00 0.000000000000000D+00 0.000000000000000D+00 0.000000000000000D+00
 0.181981343811064D+03 0.000000000000000D+00 0.000000000000000D+00 0.181981343811064D+03
 0.173318902354087D+03 0.000000000000000D+00 0.000000000000000D+00 -.173318902354087D+03
 0.108578116217989D+03 0.464865229870257D+02 -.123806227853845D+02 -.835160504422351D+02
 0.322237537763478D+02 0.120355797018020D+02 0.244926476325077D+02 -.171354994275065D+02
 0.153286808085313D+03 -.102124733874058D+03 -.541908642942271D+02 0.100651549869742D+03
 0.612115680855007D+02 0.436026311852300D+02 0.420788394471039D+02 0.866244145697645D+01
0.490119092763D-05 0.000000000000D+00 0.000000000000D+00 0.637146140305D-06 0.000000000000D+00  6 3 22 9900012 13 4 21 0 0.27930967D-02 0.17544594D+00 0.10241002D+05 0.10241002D+05 0.10241002D+05 0.12082595D+01  1  2  2  1  6  1        3 0.585494592520D-04 0.100000000000D+01
-.171269452530D-08 0.000000000000D+00 -.941093183766D-08 0.637146140305D-06 0.000000000000D+00  6 3 22 9900012 13 4 21 2 0.27930967D-02 0.17544594D+00 0.10241002D+05 0.10241002D+05 0.10241002D+05 0.12082595D+01  1  2  3  1  6  1        3 -.298690632525D-07 0.100000000000D+01
-.741796296726D-06 0.000000000000D+00 0.000000000000D+00 0.637146140305D-06 0.000000000000D+00  6 3 22 9900012 13 4 21 2 0.27930967D-02 0.17544594D+00 0.10241002D+05 0.10241002D+05 0.10241002D+05 0.12082595D+01  1  2 15  1  6  1        3 -.129367848032D-04 0.100000000000D+01
0.155021837051D-06 0.000000000000D+00 0.000000000000D+00 0.637146140305D-06 0.000000000000D+00  6 3 22 9900012 13 4 21 2 0.42550314D-02 0.17544594D+00 0.18616205D+05 0.18616205D+05 0.18616205D+05 0.11823129D+01  1  2 12  1  6  1        3 0.146027871005D-05 0.100000000000D+01
-.205435071803D-06 0.000000000000D+00 0.000000000000D+00 0.637146140305D-06 0.000000000000D+00  6 3 22 9900012 13 4 21 2 0.27930967D-02 0.17544594D+00 0.10241002D+05 0.10241002D+05 0.10241002D+05 0.12082595D+01  1  2  4  1  6  1        3 -.358274815698D-05 0.100000000000D+01
-.241371658833D-05 0.000000000000D+00 -.184385178279D-05 0.637146140305D-06 0.000000000000D+00  6 3 22 9900012 13 4 21 2 0.43053783D-02 0.17544594D+00 0.10241002D+05 0.10241002D+05 0.10241002D+05 0.12082595D+01  1  2  5  1  6  1        3 -.221288184033D-04 0.100000000000D+01
0.307890990349D-05 0.000000000000D+00 0.168374343309D-05 0.637146140305D-06 0.000000000000D+00  6 3 22 9900012 13 4 21 2 0.27930967D-02 0.17544594D+00 0.10241002D+05 0.10241002D+05 0.10241002D+05 0.12082595D+01  1  2  6  1  6  1        3 0.536955967907D-04 0.100000000000D+01
0.766239651225D-08 0.000000000000D+00 0.000000000000D+00 0.637146140305D-06 0.000000000000D+00  6 21 22 9900012 13 4 -3 2 0.42550314D-02 0.17544594D+00 0.18616205D+05 0.18616205D+05 0.18616205D+05 0.11823129D+01  1  2 12  3  6  1        3 0.131969736198D-05 0.100000000000D+01
-.519579164400D-07 0.000000000000D+00 -.930299729646D-07 0.637146140305D-06 0.000000000000D+00  6 21 22 9900012 13 4 -3 2 0.43053783D-02 0.17544594D+00 0.10241002D+05 0.10241002D+05 0.10241002D+05 0.12082595D+01  1  2  5  3  6  1        3 -.875667320505D-05 0.100000000000D+01
  </mgrwgt>
  </event>
  <event>
  6     66 0.10089070E-05 0.10809906E+03 0.78161638E-02 0.11020442E+00
        1 -1    0    0  501    0 0.00000000E+00 0.00000000E+00 0.42308090E+02 0.42308090E+02 0.00000000E+00 0.0000E+00 0.9000E+01
       22 -1    0    0    0    0 -.00000000E+00 -.00000000E+00 -.88679634E+03 0.88679634E+03 0.00000000E+00 0.0000E+00 0.9000E+01
      -24  2    1    2    0    0 -.12790667E+03 0.41144725E+02 -.74663653E+03 0.76288781E+03 0.80490361E+02 0.0000E+00 0.0000E+00
  9900012  1    3    3    0    0 -.42875805E+02 0.13809762E+02 -.31631266E+03 0.32339255E+03 0.50000000E+02 0.0000E+00 0.9000E+01
       13  1    3    3    0    0 -.85030867E+02 0.27334963E+02 -.43032387E+03 0.43949526E+03 0.00000000E+00 0.0000E+00 0.9000E+01
        2  1    1    2  501    0 0.12790667E+03 -.41144725E+02 -.97851715E+02 0.16621662E+03 0.00000000E+00 0.0000E+00 0.9000E+01
#aMCatNLO 1  0  0  5  1 0.18832120D+02 0.00000000D+00  -5  6  0 0.00000000D+00 0.00000000D+00 0.00000000D+00 0.00000000D+00 0.00000000D+00
  <mgrwgt>
 0.3621553875D-04    5    2    0
 0.193697340345781D+03 0.000000000000000D+00 0.000000000000000D+00 0.193697340345781D+03
 0.193697340345781D+03 -.000000000000000D+00 -.000000000000000D+00 -.193697340345781D+03
 0.860701764813109D+02 -.428758048826335D+02 0.138097616011992D+02 -.536566036915158D+02
 0.115989047125464D+03 -.850308674173894D+02 0.273349629616580D+02 -.740000705351297D+02
 0.185335457084786D+03 0.127906672300023D+03 -.411447245628573D+02 0.127656674226646D+03
 0.000000000000000D+00 0.000000000000000D+00 0.000000000000000D+00 0.000000000000000D+00
 0.193697340345781D+03 0.000000000000000D+00 0.000000000000000D+00 0.193697340345781D+03
 0.193697340345781D+03 -.000000000000000D+00 -.000000000000000D+00 -.193697340345781D+03
 0.853432388825984D+02 -.422541208495985D+02 0.136097797093684D+02 -.530361347617097D+02
 0.114779137737269D+03 -.841939148629055D+02 0.270657339862873D+02 -.731647538337438D+02
 0.717407664961854D+02 0.506207132630099D+02 -.320446874747650D+02 0.394641479174322D+02
 0.115531537575508D+03 0.758273224494942D+02 -.863082622089063D+01 0.867367406780213D+02
0.491700045195D-05 0.000000000000D+00 0.000000000000D+00 0.264208136596D-05 0.000000000000D+00  6 1 22 9900012 13 2 21 0 0.65089370D-02 0.13643021D+00 0.21166789D+05 0.21166789D+05 0.21166789D+05 0.11769616D+01  1  2  2  2  6  5        2 0.409589558780D-04 0.100000000000D+01
-.377408635775D-07 0.000000000000D+00 -.944128820571D-08 0.264208136596D-05 0.000000000000D+00  6 1 22 9900012 13 2 21 2 0.65089370D-02 0.13643021D+00 0.21166789D+05 0.21166789D+05 0.21166789D+05 0.11769616D+01  1  2  3  2  6  5        2 -.435496914024D-06 0.100000000000D+01
-.608985845618D-06 0.000000000000D+00 0.000000000000D+00 0.264208136596D-05 0.000000000000D+00  6 1 22 9900012 13 2 21 2 0.65089370D-02 0.13643021D+00 0.21166789D+05 0.21166789D+05 0.21166789D+05 0.11769616D+01  1  2 15  2  6  5        2 -.702716979187D-05 0.100000000000D+01
0.784150840421D-05 0.000000000000D+00 0.000000000000D+00 0.264208136596D-05 0.000000000000D+00  6 1 22 9900012 13 2 21 2 0.65089370D-02 0.13643021D+00 0.21247151D+05 0.21247151D+05 0.21247151D+05 0.11768048D+01  1  2 12  2  6  5        2 0.904848146328D-04 0.100000000000D+01
-.760590514168D-05 0.000000000000D+00 0.000000000000D+00 0.264208136596D-05 0.000000000000D+00  6 1 22 9900012 13 2 21 2 0.65089370D-02 0.13643021D+00 0.21166789D+05 0.21166789D+05 0.21166789D+05 0.11769616D+01  1  2  5  2  6  5        2 -.877655650554D-04 0.100000000000D+01
  </mgrwgt>
  </event>
  <event>
  6     66 0.10089070E-05 0.37120397E+02 0.78161638E-02 0.12272518E+00
        3 -1    0    0  501    0 0.00000000E+00 0.00000000E+00 0.11896511E+03 0.11896511E+03 0.00000000E+00 0.0000E+00 0.9000E+01
       22 -1    0    0    0    0 -.00000000E+00 -.00000000E+00 -.28704126E+03 0.28704126E+03 0.00000000E+00 0.0000E+00 0.9000E+01
      -24  2    1    2    0    0 0.31186169E+01 -.42248803E+02 -.27601278E+03 0.29005378E+03 0.78443927E+02 0.0000E+00 0.0000E+00
  9900012  1    3    3    0    0 0.92528684E+01 -.70296579E+01 -.13097376E+03 0.14067394E+03 0.50000000E+02 0.0000E+00 0.9000E+01
       13  1    3    3    0    0 -.61342515E+01 -.35219146E+02 -.14503902E+03 0.14937983E+03 0.00000000E+00 0.0000E+00 0.9000E+01
        4  1    1    2  501    0 -.31186169E+01 0.42248803E+02 0.10793663E+03 0.11595259E+03 0.00000000E+00 0.0000E+00 0.9000E+01
#aMCatNLO 1  0  0  5  1 0.15985159D+02 0.00000000D+00  -5  6  0 0.00000000D+00 0.00000000D+00 0.00000000D+00 0.00000000D+00 0.00000000D+00
  <mgrwgt>
 0.3657125851D-04    5    2    0
 0.184791488869602D+03 0.000000000000000D+00 0.000000000000000D+00 0.184791488869602D+03
 0.184791488869602D+03 -.000000000000000D+00 -.000000000000000D+00 -.184791488869602D+03
 0.949744781121353D+02 0.925286840394595D+01 -.702965792178177D+01 -.799069448075351D+02
 0.981418660355046D+02 -.613425151200841D+01 -.352191455021413D+02 -.913991718639581D+02
 0.176466633591564D+03 -.311861689193754D+01 0.422488034239231D+02 0.171306116671493D+03
 0.000000000000000D+00 0.000000000000000D+00 0.000000000000000D+00 0.000000000000000D+00
 0.184791488869602D+03 0.000000000000000D+00 0.000000000000000D+00 0.184791488869602D+03
 0.184791488869602D+03 -.000000000000000D+00 -.000000000000000D+00 -.184791488869602D+03
 0.942247065252191D+02 0.923699505140123D+01 -.681461703199683D+01 -.790350190541590D+02
 0.972248118366610D+02 -.615064230227159D+01 -.349970947341928D+02 -.904988231752744D+02
 0.522989582680779D+02 -.160171378793508D+02 0.708551259689951D+01 0.492790811736501D+02
 0.125834501109245D+03 0.129307851302212D+02 0.347261991692901D+02 0.120254761055783D+03
0.509193719930D-05 0.000000000000D+00 0.000000000000D+00 0.889800275773D-05 0.000000000000D+00  6 3 22 9900012 13 4 21 0 0.18302324D-01 0.44160194D-01 0.41890457D+04 0.41890457D+04 0.41890457D+04 0.12505938D+01  1  2  2  2  6  5        4 0.411506499428D-04 0.100000000000D+01
0.249148805277D-06 0.000000000000D+00 -.977718979159D-08 0.889800275773D-05 0.000000000000D+00  6 3 22 9900012 13 4 21 2 0.18302324D-01 0.44160194D-01 0.41890457D+04 0.41890457D+04 0.41890457D+04 0.12505938D+01  1  2  3  2  6  5        4 0.314908941299D-05 0.100000000000D+01
-.755253956853D-06 0.000000000000D+00 0.000000000000D+00 0.889800275773D-05 0.000000000000D+00  6 3 22 9900012 13 4 21 2 0.18302324D-01 0.44160194D-01 0.41890457D+04 0.41890457D+04 0.41890457D+04 0.12505938D+01  1  2 15  2  6  5        4 -.954595081039D-05 0.100000000000D+01
0.644578739656D-05 0.000000000000D+00 0.000000000000D+00 0.889800275773D-05 0.000000000000D+00  6 3 22 9900012 13 4 21 2 0.18302324D-01 0.44160194D-01 0.49987786D+04 0.49987786D+04 0.49987786D+04 0.12418575D+01  1  2 12  2  6  5        4 0.815957063438D-04 0.100000000000D+01
-.631187294962D-05 0.000000000000D+00 0.000000000000D+00 0.889800275773D-05 0.000000000000D+00  6 3 22 9900012 13 4 21 2 0.18302324D-01 0.44160194D-01 0.41890457D+04 0.41890457D+04 0.41890457D+04 0.12505938D+01  1  2  5  2  6  5        4 -.797782363823D-04 0.100000000000D+01
  </mgrwgt>
  </event>
</LesHouchesEvents>
