<LesHouchesEvents version="3.0">
  <!--
  <scalesfunctionalform>
    muR  H_T/2 := sum_i mT(i)/2, i=final state
    muF1 H_T/2 := sum_i mT(i)/2, i=final state
    muF2 H_T/2 := sum_i mT(i)/2, i=final state
    QES  H_T/2 := sum_i mT(i)/2, i=final state
  </scalesfunctionalform>
PYTHIA8   
  -->
  <header>
        4
  </header>
  <init>
   2212   2212 0.65000000D+04 0.65000000D+04 -1 -1  82200  82200 -4   1
 0.16581165D-05 0.42919364D-07 0.78930873D-06     66
  </init>
  <event>
  5     66 0.78930873E-06 0.27234467E+02 0.78161638E-02 0.11458203E+00
       -4 -1    0    0    0  501 0.00000000E+00 0.00000000E+00 0.20869234E+03 0.20869234E+03 0.00000000E+00 0.0000E+00 0.9000E+01
       22 -1    0    0    0    0 0.00000000E+00 0.00000000E+00 -.43166681E+02 0.43166681E+02 0.00000000E+00 0.0000E+00 0.9000E+01
  9900012  1    1    2    0    0 0.13386527E+02 -.72693205E+01 0.19179053E+03 0.19878543E+03 0.50000000E+02 0.0000E+00 0.9000E+01
       13  1    1    2    0    0 -.24789857E+01 -.17685474E+02 -.50714939E+01 0.18564520E+02 0.00000000E+00 0.0000E+00 0.9000E+01
       -3  1    1    2    0  501 -.10907541E+02 0.24954794E+02 -.21193379E+02 0.34509064E+02 0.00000000E+00 0.0000E+00 0.9000E+01
#aMCatNLO 1  0  0  1  1 0.11722610D+03 0.00000000D+00  -5  6  0 0.00000000D+00 0.00000000D+00 0.00000000D+00 0.00000000D+00 0.00000000D+00
  <mgrwgt>
 0.1121219024D-04    3    2    0
 0.949134112020813D+02 0.000000000000000D+00 0.000000000000000D+00 0.949134112020813D+02
 0.949134112020813D+02 0.000000000000000D+00 0.000000000000000D+00 -.949134112020813D+02
 0.965071804657912D+02 0.133865267903640D+02 -.726932053231678D+01 0.811270223843208D+02
 0.290533449698478D+02 -.247898571495196D+01 -.176854737951147D+02 -.229167078875732D+02
 0.642662969685237D+02 -.109075410754121D+02 0.249547943274314D+02 -.582103144967476D+02
 0.000000000000000D+00 0.000000000000000D+00 0.000000000000000D+00 -.000000000000000D+00
 0.133210195885958D+03 0.000000000000000D+00 0.000000000000000D+00 0.133210195885958D+03
 0.178145240152738D+03 0.000000000000000D+00 0.000000000000000D+00 -.178145240152738D+03
 0.103059336855743D+03 -.259360327366972D+02 -.294441056593730D+02 0.811270223843208D+02
 0.373588908787132D+02 -.155648436661268D+02 -.250648532597395D+02 -.229167078875732D+02
 0.698836599052621D+02 -.373404303973371D+02 0.100487544345407D+02 -.582103144967476D+02
 0.101053548398978D+03 0.788413068001611D+02 0.444602044845719D+02 -.449350442667802D+02
0.447165239319D-06 0.000000000000D+00 0.000000000000D+00 0.183947153703D-08 0.000000000000D+00  6 -4 22 9900012 13 -3 21 0 0.32106513D-01 0.66410279D-02 0.23698289D+04 0.23698289D+04 0.23698289D+04 0.12800985D+01  1  2  2  1  6  1       -4 0.146090346270D-04 0.100000000000D+01
-.220288114306D-07 0.000000000000D+00 -.858616130148D-09 0.183947153703D-08 0.000000000000D+00  6 -4 22 9900012 13 -3 21 2 0.32106513D-01 0.66410279D-02 0.23698289D+04 0.23698289D+04 0.23698289D+04 0.12800985D+01  1  2  3  1  6  1       -4 -.117931910111D-05 0.100000000000D+01
-.414217376390D-07 0.000000000000D+00 0.000000000000D+00 0.183947153703D-08 0.000000000000D+00  6 -4 22 9900012 13 -3 21 2 0.32106513D-01 0.66410279D-02 0.23698289D+04 0.23698289D+04 0.23698289D+04 0.12800985D+01  1  2 15  1  6  1       -4 -.221752528740D-05 0.100000000000D+01
  </mgrwgt>
  </event>
  <event>
  5     66 0.78930873E-06 0.71184763E+02 0.78161638E-02 0.11655140E+00
       -2 -1    0    0    0  501 0.00000000E+00 0.00000000E+00 0.18954249E+03 0.18954249E+03 0.00000000E+00 0.0000E+00 0.9000E+01
       22 -1    0    0    0    0 -.00000000E+00 -.00000000E+00 -.26950050E+03 0.26950050E+03 0.00000000E+00 0.0000E+00 0.9000E+01
  9900012  1    1    2    0    0 -.16789068E+02 -.60167287E+01 -.13946300E+03 0.14922467E+03 0.50000000E+02 0.0000E+00 0.9000E+01
       13  1    1    2    0    0 -.32199436E+02 -.49884592E+02 -.10985039E+03 0.12486947E+03 0.00000000E+00 0.0000E+00 0.9000E+01
       -1  1    1    2    0  501 0.48988504E+02 0.55901321E+02 0.16935538E+03 0.18494885E+03 0.00000000E+00 0.0000E+00 0.9000E+01
#aMCatNLO 1  0  0  5  1 0.17143170D+02 0.00000000D+00  -5  6  0 0.00000000D+00 0.00000000D+00 0.00000000D+00 0.00000000D+00 0.00000000D+00
  <mgrwgt>
 0.3158552419D-05    7    2    0
 0.226012824565710D+03 0.000000000000000D+00 0.000000000000000D+00 0.226012824565710D+03
 0.226012824565710D+03 -.000000000000000D+00 -.000000000000000D+00 -.226012824565710D+03
 0.126871909074768D+03 -.167890675535620D+02 -.601672871777658D+01 -.115231972553172D+03
 0.107376731134507D+03 -.321994360987659D+02 -.498845920846477D+02 -.894677940747511D+02
 0.217777008922144D+03 0.489885036523278D+02 0.559013208024242D+02 0.204699766627923D+03
 0.000000000000000D+00 0.000000000000000D+00 0.000000000000000D+00 0.000000000000000D+00
 0.226012824565710D+03 0.000000000000000D+00 0.000000000000000D+00 0.226012824565710D+03
 0.226012824565710D+03 -.000000000000000D+00 -.000000000000000D+00 -.226012824565710D+03
 0.125661519482101D+03 -.164847108136604D+02 -.566942389139594D+01 -.113960209813251D+03
 0.106266915906071D+03 -.319419498551207D+02 -.495907716975141D+02 -.883918809511713D+02
 0.183010760044108D+03 0.316957093951483D+02 0.607243447433518D+02 0.169708203258861D+03
 0.370864536991395D+02 0.167309512736327D+02 -.546414915444181D+01 0.326438875055615D+02
0.633644401017D-07 0.000000000000D+00 0.000000000000D+00 0.593538015745D-06 0.000000000000D+00  6 -2 22 9900012 13 -1 21 0 0.29160383D-01 0.41461616D-01 0.87225118D+04 0.87225118D+04 0.87225118D+04 0.12155327D+01  1  2  2  2  6  5       -1 0.352615636161D-06 0.100000000000D+01
0.145328788759D-08 0.000000000000D+00 -.121668067115D-09 0.593538015745D-06 0.000000000000D+00  6 -2 22 9900012 13 -1 21 2 0.29160383D-01 0.41461616D-01 0.87225118D+04 0.87225118D+04 0.87225118D+04 0.12155327D+01  1  2  3  2  6  5       -1 0.119492573574D-07 0.100000000000D+01
-.102571784213D-07 0.000000000000D+00 0.000000000000D+00 0.593538015745D-06 0.000000000000D+00  6 -2 22 9900012 13 -1 21 2 0.29160383D-01 0.41461616D-01 0.87225118D+04 0.87225118D+04 0.87225118D+04 0.12155327D+01  1  2 15  2  6  5       -1 -.843368101826D-07 0.100000000000D+01
0.369704252348D-06 0.000000000000D+00 0.000000000000D+00 0.593538015745D-06 0.000000000000D+00  6 -2 22 9900012 13 -1 21 2 0.29160383D-01 0.41461616D-01 0.98048193D+04 0.98048193D+04 0.98048193D+04 0.12102182D+01  1  2 12  2  6  5       -1 0.303485635196D-05 0.100000000000D+01
-.868717606998D-07 0.000000000000D+00 0.000000000000D+00 0.593538015745D-06 0.000000000000D+00  6 -2 22 9900012 13 -1 21 2 0.29160383D-01 0.41461616D-01 0.87225118D+04 0.87225118D+04 0.87225118D+04 0.12155327D+01  1  2  4  2  6  5       -1 -.714279004563D-06 0.100000000000D+01
-.367571247770D-06 0.000000000000D+00 0.000000000000D+00 0.593538015745D-06 0.000000000000D+00  6 -2 22 9900012 13 -1 21 2 0.29160383D-01 0.41461616D-01 0.87225118D+04 0.87225118D+04 0.87225118D+04 0.12155327D+01  1  2  5  2  6  5       -1 -.302225283393D-05 0.100000000000D+01
0.435405333063D-06 0.000000000000D+00 -.000000000000D+00 0.593538015745D-06 0.000000000000D+00  6 -2 22 9900012 13 -1 21 2 0.29160383D-01 0.41461616D-01 0.87225118D+04 0.87225118D+04 0.87225118D+04 0.12155327D+01  1  2  6  2  6  5       -1 0.357999982246D-05 0.100000000000D+01
  </mgrwgt>
  </event>
  <event>
  5     66 0.78930873E-06 0.27903328E+02 0.78161638E-02 0.12973158E+00
       -4 -1    0    0    0  501 0.00000000E+00 0.00000000E+00 0.30722052E+01 0.30722052E+01 0.00000000E+00 0.0000E+00 0.9000E+01
       22 -1    0    0    0    0 -.00000000E+00 -.00000000E+00 -.84005769E+03 0.84005769E+03 0.00000000E+00 0.0000E+00 0.9000E+01
  9900012  1    1    2    0    0 0.42289019E+01 0.23687351E+02 -.49388030E+03 0.49698765E+03 0.50000000E+02 0.0000E+00 0.9000E+01
       13  1    1    2    0    0 0.56395129E-01 0.10476928E+02 -.55206141E+02 0.56191523E+02 0.00000000E+00 0.0000E+00 0.9000E+01
       -3  1    1    2    0  501 -.42852970E+01 -.34164279E+02 -.28789904E+03 0.28995071E+03 0.00000000E+00 0.0000E+00 0.9000E+01
#aMCatNLO 1  0  0  5  1 0.67429503D+01 0.00000000D+00  -5  6  0 0.00000000D+00 0.00000000D+00 0.00000000D+00 0.00000000D+00 0.00000000D+00
  <mgrwgt>
 0.2543024485D-05    7    2    0
 0.508018656554005D+02 0.000000000000000D+00 0.000000000000000D+00 0.508018656554005D+02
 0.508018656554005D+02 -.000000000000000D+00 -.000000000000000D+00 -.508018656554005D+02
 0.556525175763146D+02 0.422890191632852D+01 0.236873506065836D+02 -.426948737026621D+01
 0.115154609464025D+02 0.563951287241061D-01 0.104769279711482D+02 0.477876978781680D+01
 0.344357527880839D+02 -.428529704505262D+01 -.341642785777318D+02 -.509282417550588D+00
 0.000000000000000D+00 -.000000000000000D+00 0.000000000000000D+00 0.000000000000000D+00
 0.508018656554005D+02 0.000000000000000D+00 0.000000000000000D+00 0.508018656554005D+02
 0.508018656554005D+02 -.000000000000000D+00 -.000000000000000D+00 -.508018656554005D+02
 0.546526137588471D+02 0.392726837194146D+01 0.212825949197578D+02 -.430533474772565D+01
 0.110661365381630D+02 -.535510179323108D-02 0.998462789125782D+01 0.477143113512795D+01
 0.290383487459441D+02 -.125396925506308D+01 -.283699033106587D+02 -.606645243468575D+01
 0.684663226784682D+01 -.266794401508515D+01 -.289731950035692D+01 0.560035604728344D+01
0.128071394697D-07 0.000000000000D+00 0.000000000000D+00 0.261459998731D-09 0.000000000000D+00  6 -4 22 9900012 13 -3 21 0 0.47264695D-03 0.12923964D+00 0.25199181D+04 0.25199181D+04 0.25199181D+04 0.12768144D+01  1  2  2  2  6  5       -3 0.251318815357D-05 0.100000000000D+01
-.417023764485D-09 0.000000000000D+00 -.245913938804D-10 0.261459998731D-09 0.000000000000D+00  6 -4 22 9900012 13 -3 21 2 0.47264695D-03 0.12923964D+00 0.25199181D+04 0.25199181D+04 0.25199181D+04 0.12768144D+01  1  2  3  2  6  5       -3 -.133410261804D-06 0.100000000000D+01
-.152256116967D-08 0.000000000000D+00 0.000000000000D+00 0.261459998731D-09 0.000000000000D+00  6 -4 22 9900012 13 -3 21 2 0.47264695D-03 0.12923964D+00 0.25199181D+04 0.25199181D+04 0.25199181D+04 0.12768144D+01  1  2 15  2  6  5       -3 -.487083234954D-06 0.100000000000D+01
0.127511784903D-07 0.000000000000D+00 0.000000000000D+00 0.261459998731D-09 0.000000000000D+00  6 -4 22 9900012 13 -3 21 2 0.47264695D-03 0.12923964D+00 0.23427332D+04 0.23427332D+04 0.23427332D+04 0.12807164D+01  1  2 12  2  6  5       -3 0.404936347073D-05 0.100000000000D+01
-.134409349646D-07 0.000000000000D+00 0.000000000000D+00 0.261459998731D-09 0.000000000000D+00  6 -4 22 9900012 13 -3 21 2 0.47264695D-03 0.12923964D+00 0.25199181D+04 0.25199181D+04 0.25199181D+04 0.12768144D+01  1  2  4  2  6  5       -3 -.429989560603D-05 0.100000000000D+01
-.129106635421D-07 0.000000000000D+00 0.000000000000D+00 0.261459998731D-09 0.000000000000D+00  6 -4 22 9900012 13 -3 21 2 0.47264695D-03 0.12923964D+00 0.25199181D+04 0.25199181D+04 0.25199181D+04 0.12768144D+01  1  2  5  2  6  5       -3 -.413025623454D-05 0.100000000000D+01
0.157266451790D-07 0.000000000000D+00 -.000000000000D+00 0.261459998731D-09 0.000000000000D+00  6 -4 22 9900012 13 -3 21 2 0.47264695D-03 0.12923964D+00 0.25199181D+04 0.25199181D+04 0.25199181D+04 0.12768144D+01  1  2  6  2  6  5       -3 0.503111819832D-05 0.100000000000D+01
  </mgrwgt>
  </event>
  <event>
  5     66 0.78930873E-06 0.33441317E+02 0.78161638E-02 0.12222722E+00
       -4 -1    0    0    0  501 0.00000000E+00 0.00000000E+00 0.11437345E+03 0.11437345E+03 0.00000000E+00 0.0000E+00 0.9000E+01
       22 -1    0    0    0    0 0.00000000E+00 0.00000000E+00 -.66733097E+02 0.66733097E+02 0.00000000E+00 0.0000E+00 0.9000E+01
  9900012  1    1    2    0    0 -.21761136E+02 -.34242336E+02 0.10203852E+02 0.65193582E+02 0.50000000E+02 0.0000E+00 0.9000E+01
       13  1    1    2    0    0 -.40550514E+01 0.12985662E+02 -.34226660E+02 0.36831170E+02 0.00000000E+00 0.0000E+00 0.9000E+01
       -3  1    1    2    0  501 0.25816187E+02 0.21256673E+02 0.71663166E+02 0.79081799E+02 0.00000000E+00 0.0000E+00 0.9000E+01
#aMCatNLO 1  0  0  1  1 0.13480394D+03 0.00000000D+00  -5  6  0 0.00000000D+00 0.00000000D+00 0.00000000D+00 0.00000000D+00 0.00000000D+00
  <mgrwgt>
 0.1215288144D-05    3    2    0
 0.873641509212244D+02 0.000000000000000D+00 0.000000000000000D+00 0.873641509212244D+02
 0.873641509212244D+02 0.000000000000000D+00 0.000000000000000D+00 -.873641509212244D+02
 0.647912766851749D+02 -.217611359533980D+02 -.342423355464986D+02 -.719895498205260D+01
 0.475076817651516D+02 -.405505135979498D+01 0.129856624457056D+02 -.455182266352121D+02
 0.624293433921222D+02 0.258161873131930D+02 0.212566731007929D+02 0.527171816172647D+02
 0.000000000000000D+00 -.000000000000000D+00 0.000000000000000D+00 -.000000000000000D+00
 0.908408107205235D+02 0.000000000000000D+00 0.000000000000000D+00 0.908408107205235D+02
 0.181627401645998D+03 0.000000000000000D+00 0.000000000000000D+00 -.181627401645998D+03
 0.631530000303622D+02 -.113572681124167D+02 -.361592162667278D+02 -.719895498205260D+01
 0.471059418371342D+02 0.363851384830781D+01 0.115681466676652D+02 -.455182266352121D+02
 0.668749341995538D+02 0.363306444649446D+02 0.193194166394529D+02 0.527171816172647D+02
 0.953343362994714D+02 -.286118902008357D+02 0.527165295960974D+01 -.907865909254746D+02
0.281213291744D-07 0.000000000000D+00 0.000000000000D+00 0.862133416989D-08 0.000000000000D+00  6 -4 22 9900012 13 -3 21 0 0.17595916D-01 0.10266630D-01 0.31044671D+04 0.31044671D+04 0.31044671D+04 0.12658433D+01  1  2  2  1  6  1       -4 0.153990506982D-05 0.100000000000D+01
0.525205998222D-09 0.000000000000D+00 -.539966542729D-10 0.862133416989D-08 0.000000000000D+00  6 -4 22 9900012 13 -3 21 2 0.17595916D-01 0.10266630D-01 0.31044671D+04 0.31044671D+04 0.31044671D+04 0.12658433D+01  1  2  3  1  6  1       -4 0.460837329668D-07 0.100000000000D+01
-.422479250477D-08 0.000000000000D+00 0.000000000000D+00 0.862133416989D-08 0.000000000000D+00  6 -4 22 9900012 13 -3 21 2 0.17595916D-01 0.10266630D-01 0.31044671D+04 0.31044671D+04 0.31044671D+04 0.12658433D+01  1  2 15  1  6  1       -4 -.370700658958D-06 0.100000000000D+01
  </mgrwgt>
  </event>
</LesHouchesEvents>
