<LesHouchesEvents version="3.0">
  <!--
  <scalesfunctionalform>
    muR  H_T/2 := sum_i mT(i)/2, i=final state
    muF1 H_T/2 := sum_i mT(i)/2, i=final state
    muF2 H_T/2 := sum_i mT(i)/2, i=final state
    QES  H_T/2 := sum_i mT(i)/2, i=final state
  </scalesfunctionalform>
PYTHIA8   
  -->
  <header>
        3
  </header>
  <init>
   2212   2212 0.65000000D+04 0.65000000D+04 -1 -1  82200  82200 -4   1
 0.25784718D-05 0.50314332D-07 0.12502375D-05     66
  </init>
  <event>
  7     66 0.12502375E-05 0.14435039E+02 0.78161638E-02 0.13047561E+00
       22 -1    0    0    0    0 0.00000000E+00 0.00000000E+00 0.13527778E+03 0.13527778E+03 0.00000000E+00 0.0000E+00 0.9000E+01
       21 -1    0    0  502  501 0.00000000E+00 0.00000000E+00 -.34175409E+02 0.34175409E+02 0.00000000E+00 0.0000E+00 0.9000E+01
      -24  2    1    2    0    0 -.12710393E+02 0.78120424E+01 0.10778983E+03 0.13384265E+03 0.77927046E+02 0.0000E+00 0.0000E+00
  9900012  1    3    3    0    0 -.20085207E+02 0.12697851E+00 0.11042500E+03 0.12287031E+03 0.50000000E+02 0.0000E+00 0.9000E+01
       13  1    3    3    0    0 0.73748144E+01 0.76850639E+01 -.26351711E+01 0.10972339E+02 0.00000000E+00 0.0000E+00 0.9000E+01
        4  1    1    2  502    0 -.76918986E+01 -.92586628E+01 -.89959677E+01 0.15027161E+02 0.00000000E+00 0.0000E+00 0.9000E+01
       -3  1    1    2    0  501 0.20402291E+02 0.14466204E+01 0.23085050E+01 0.20583377E+02 0.00000000E+00 0.0000E+00 0.9000E+01
#aMCatNLO 2  0  0  2  5 0.12412803D+02 0.00000000D+00  -5  6  0 0.00000000D+00 0.00000000D+00 0.00000000D+00 0.00000000D+00 0.00000000D+00
  <mgrwgt>
 0.6584794660D-06    2    2    0
 0.538072142388607D+02 0.000000000000000D+00 0.000000000000000D+00 0.538072142388607D+02
 0.538072142388607D+02 0.000000000000000D+00 0.000000000000000D+00 -.538072142388607D+02
 0.647690286379973D+02 -.246355341110109D+02 -.535020556260765D+01 0.325498514622230D+02
 0.172529177696059D+02 0.610720550654592D+01 0.615925553237789D+01 -.149140465250874D+02
 0.000000000000000D+00 -.000000000000000D+00 -.000000000000000D+00 -.000000000000000D+00
 0.255924820701181D+02 0.185283286044650D+02 -.809049969770241D+00 -.176358049371356D+02
 0.553772215919848D+02 0.000000000000000D+00 0.000000000000000D+00 0.553772215919848D+02
 0.834851074890470D+02 0.000000000000000D+00 0.000000000000000D+00 -.834851074890470D+02
 0.629517632371392D+02 -.200852070168350D+02 0.126978513695953D+00 0.325498514622230D+02
 0.183269440443359D+02 0.737481438088874D+01 0.768506389688382D+01 -.149140465250874D+02
 0.305768113174490D+02 -.769189855926799D+01 -.925866282432498D+01 -.281078858970622D+02
 0.270068104821076D+02 0.204022911952142D+02 0.144662041374520D+01 -.176358049371356D+02
-.707252492778D-09 0.000000000000D+00 0.000000000000D+00 0.155734192643D-07 0.000000000000D+00  6 22 21 9900012 13 4 -3 2 0.20221923D-01 0.54111679D-02 0.23534706D+04 0.23534706D+04 0.23534706D+04 0.12804706D+01  1  2 13  3  5  2       -4 -.370723247462D-05 0.100000000000D+01
0.830904611713D-09 0.000000000000D+00 0.000000000000D+00 0.155734192643D-07 0.696865365551D-10  6 22 21 9900012 13 4 -3 2 0.20811966D-01 0.52577552D-02 0.23534706D+04 0.23534706D+04 0.23534706D+04 0.12804706D+01  1  2  1  3  5  2       -4 0.436571194060D-05 0.100000000000D+01
  </mgrwgt>
  </event>
  <event>
  6     66 0.12502375E-05 0.12837256E+02 0.78161638E-02 0.13320639E+00
       22 -1    0    0    0    0 0.00000000E+00 0.00000000E+00 0.50134724E+01 0.50134724E+01 0.00000000E+00 0.0000E+00 0.9000E+01
       -2 -1    0    0    0  501 -.00000000E+00 -.00000000E+00 -.96739231E+03 0.96739231E+03 0.00000000E+00 0.0000E+00 0.9000E+01
      -24  2    1    2    0    0 0.38847353E+00 -.12831376E+02 -.95275542E+03 0.95636193E+03 0.81978374E+02 0.0000E+00 0.0000E+00
  9900012  1    3    3    0    0 -.17287115E+02 -.34676977E+01 -.85154421E+03 0.85319307E+03 0.50000000E+02 0.0000E+00 0.9000E+01
       13  1    3    3    0    0 0.17675588E+02 -.93636786E+01 -.10121121E+03 0.10316886E+03 0.00000000E+00 0.0000E+00 0.9000E+01
       -1  1    1    2    0  501 -.38847353E+00 0.12831376E+02 -.96234224E+01 0.16043858E+02 0.00000000E+00 0.0000E+00 0.9000E+01
#aMCatNLO 1  0  0  5  2 0.24536228D+01 0.00000000D+00  -5  6  0 0.00000000D+00 0.00000000D+00 0.00000000D+00 0.00000000D+00 0.00000000D+00
  <mgrwgt>
 0.5563622952D-04    8    2    0
 0.696419033532722D+02 0.000000000000000D+00 0.000000000000000D+00 0.696419033532722D+02
 0.696419033532722D+02 -.000000000000000D+00 -.000000000000000D+00 -.696419033532722D+02
 0.728135301533715D+02 -.172871149146119D+02 -.346769772190241D+01 -.499093268220927D+02
 0.209534094493971D+02 0.176755884445950D+02 -.936367858023074D+01 0.624022949397800D+01
 0.455168671037758D+02 -.388473529983053D+00 0.128313763021331D+02 0.436690973281146D+02
 0.000000000000000D+00 0.000000000000000D+00 0.000000000000000D+00 0.000000000000000D+00
 0.696419033532722D+02 0.000000000000000D+00 0.000000000000000D+00 0.696419033532722D+02
 0.696419033532722D+02 -.000000000000000D+00 -.000000000000000D+00 -.696419033532722D+02
 0.727087888838786D+02 -.172884523056084D+02 -.342352336814326D+01 -.497589879879495D+02
 0.209603418759448D+02 0.176752032454446D+02 -.935095535749303D+01 0.628353051165354D+01
 0.150336197904716D+02 -.593360427092154D+00 0.187116741594644D+01 0.149049112680862D+02
 0.305810561562495D+02 0.206609487256000D+00 0.109033113096898D+02 0.285705462082098D+02
0.409774376539D-07 0.000000000000D+00 0.000000000000D+00 0.100493174109D-06 0.000000000000D+00  6 22 -2 9900012 13 -1 21 0 0.77130345D-03 0.14882959D+00 0.18428780D+04 0.18428780D+04 0.18428780D+04 0.12938297D+01  1  2  2  2  6  5       -1 0.183411590240D-05 0.100000000000D+01
-.232263634022D-08 0.000000000000D+00 -.786820750991D-10 0.100493174109D-06 0.000000000000D+00  6 22 -2 9900012 13 -1 21 2 0.77130345D-03 0.14882959D+00 0.18428780D+04 0.18428780D+04 0.18428780D+04 0.12938297D+01  1  2  3  2  6  5       -1 -.174027327914D-06 0.100000000000D+01
-.119768192746D-08 0.000000000000D+00 0.000000000000D+00 0.100493174109D-06 0.000000000000D+00  6 22 -2 9900012 13 -1 21 2 0.77130345D-03 0.14882959D+00 0.18428780D+04 0.18428780D+04 0.18428780D+04 0.12938297D+01  1  2 15  2  6  5       -1 -.897382779716D-07 0.100000000000D+01
0.111762135817D-08 0.000000000000D+00 0.000000000000D+00 0.100493174109D-06 0.000000000000D+00  6 22 -2 9900012 13 -1 21 2 0.77130345D-03 0.14882959D+00 0.18438345D+04 0.18438345D+04 0.18438345D+04 0.12938009D+01  1  2 12  2  6  5       -1 0.837396447424D-07 0.100000000000D+01
-.470274100317D-06 0.000000000000D+00 0.000000000000D+00 0.100493174109D-06 0.000000000000D+00  6 22 -2 9900012 13 -1 21 2 0.77130345D-03 0.14882959D+00 0.18428780D+04 0.18428780D+04 0.18428780D+04 0.12938297D+01  1  2  4  2  6  5       -1 -.352360563933D-04 0.100000000000D+01
-.248099623375D-06 0.000000000000D+00 0.000000000000D+00 0.100493174109D-06 0.000000000000D+00  6 22 -2 9900012 13 -1 21 2 0.77130345D-03 0.14882959D+00 0.18428780D+04 0.18428780D+04 0.18428780D+04 0.12938297D+01  1  2  5  2  6  5       -1 -.185892702032D-04 0.100000000000D+01
0.447964852217D-06 0.000000000000D+00 -.000000000000D+00 0.100493174109D-06 0.000000000000D+00  6 22 -2 9900012 13 -1 21 2 0.77130345D-03 0.14882959D+00 0.18428780D+04 0.18428780D+04 0.18428780D+04 0.12938297D+01  1  2  6  2  6  5       -1 0.335644994786D-04 0.100000000000D+01
0.990875057251D-06 0.000000000000D+00 0.000000000000D+00 0.100493174109D-06 0.108205781667D-06  6 22 -2 9900012 13 -1 21 2 0.77130345D-03 0.14882959D+00 0.18438345D+04 0.18438345D+04 0.18438345D+04 0.12938009D+01  1  2 11  2  6  5       -1 0.742429667003D-04 0.100000000000D+01
  </mgrwgt>
  </event>
  <event>
  7     66 -.12502375E-05 0.19975114E+02 0.78161638E-02 0.12755452E+00
       22 -1    0    0    0    0 0.00000000E+00 0.00000000E+00 0.32041497E+03 0.32041497E+03 0.00000000E+00 0.0000E+00 0.9000E+01
       21 -1    0    0  502  501 0.00000000E+00 0.00000000E+00 -.10792713E+02 0.10792713E+02 0.00000000E+00 0.0000E+00 0.9000E+01
      -24  2    1    2    0    0 0.80523699E+01 0.14787004E+02 0.23125683E+03 0.24525613E+03 0.79920903E+02 0.0000E+00 0.0000E+00
  9900012  1    3    3    0    0 0.79131078E+01 0.34903762E+02 0.16980174E+03 0.18059214E+03 0.50000000E+02 0.0000E+00 0.9000E+01
       13  1    3    3    0    0 0.13926205E+00 -.20116758E+02 0.61455095E+02 0.64663993E+02 0.00000000E+00 0.0000E+00 0.9000E+01
        2  1    1    2  502    0 0.20417041E+01 0.60840565E+01 0.29686848E+01 0.70708831E+01 0.00000000E+00 0.0000E+00 0.9000E+01
       -1  1    1    2    0  501 -.10094074E+02 -.20871061E+02 0.75396739E+02 0.78880668E+02 0.00000000E+00 0.0000E+00 0.9000E+01
#aMCatNLO 2  0  0  2  5 0.66767778D+01 0.00000000D+00  -5  6  0 0.00000000D+00 0.00000000D+00 0.00000000D+00 0.00000000D+00 0.00000000D+00
  <mgrwgt>
 -.7808764112D-06    2    2    0
 0.524096050875473D+02 0.000000000000000D+00 0.000000000000000D+00 0.524096050875473D+02
 0.524096050875473D+02 0.000000000000000D+00 0.000000000000000D+00 -.524096050875473D+02
 0.638695953494968D+02 0.913368383533180D+01 0.385409462059525D+02 -.323982951010317D+01
 0.190084266061511D+02 0.520136304800872D+00 -.189817939955521D+02 0.860951204356727D+00
 0.000000000000000D+00 0.000000000000000D+00 0.000000000000000D+00 -.000000000000000D+00
 0.219411882194469D+02 -.965382014013267D+01 -.195591522104004D+02 0.237887830574644D+01
 0.533434457642066D+02 0.000000000000000D+00 0.000000000000000D+00 0.533434457642066D+02
 0.648279580599669D+02 0.000000000000000D+00 0.000000000000000D+00 -.648279580599669D+02
 0.615742348543216D+02 0.791310784796821D+01 0.349037623591934D+02 -.323982951010317D+01
 0.201356544288046D+02 0.139262049916819D+00 -.201167578993586D+02 0.860951204356727D+00
 0.131559234387322D+02 0.204170411727641D+01 0.608405647178044D+01 -.114845122957602D+02
 0.233055911023150D+02 -.100940740151614D+02 -.208710609316153D+02 0.237887830574644D+01
-.282729763833D-09 0.000000000000D+00 0.000000000000D+00 0.679344197006D-07 0.000000000000D+00  6 22 21 9900012 13 2 -1 2 0.48431649D-01 0.16900028D-02 0.30917795D+04 0.30917795D+04 0.30917795D+04 0.12660558D+01  1  2 13  3  5  2       -2 -.227038948071D-05 0.100000000000D+01
0.186026753352D-09 0.000000000000D+00 0.000000000000D+00 0.679344197006D-07 0.284870418885D-09  6 22 21 9900012 13 2 -1 2 0.49294610D-01 0.16604173D-02 0.30917795D+04 0.30917795D+04 0.30917795D+04 0.12660558D+01  1  2  1  3  5  2       -2 0.148951306953D-05 0.100000000000D+01
  </mgrwgt>
  </event>
</LesHouchesEvents>
