<LesHouchesEvents version="3.0">
  <!--
  <scalesfunctionalform>
    muR  H_T/2 := sum_i mT(i)/2, i=final state
    muF1 H_T/2 := sum_i mT(i)/2, i=final state
    muF2 H_T/2 := sum_i mT(i)/2, i=final state
    QES  H_T/2 := sum_i mT(i)/2, i=final state
  </scalesfunctionalform>
PYTHIA8   
  -->
  <header>
       41
  </header>
  <init>
   2212   2212 0.65000000D+04 0.65000000D+04 -1 -1  82200  82200 -4   1
 0.28559669D-04 0.36130879D-06 0.94388558D-06     66
  </init>
  <event>
  7     66 0.94388558E-06 0.29149986E+02 0.78161638E-02 0.12605022E+00
       22 -1    0    0    0    0 0.00000000E+00 0.00000000E+00 0.67753840E+02 0.67753840E+02 0.00000000E+00 0.0000E+00 0.9000E+01
        1 -1    0    0  501    0 -.00000000E+00 -.00000000E+00 -.21007742E+03 0.21007742E+03 0.00000000E+00 0.0000E+00 0.9000E+01
      -24  2    1    2    0    0 -.18496881E+02 -.26798814E+02 -.18946350E+03 0.20718480E+03 0.77258070E+02 0.0000E+00 0.0000E+00
  9900012  1    3    3    0    0 -.30461051E+01 0.20984495E+01 -.99046832E+02 0.11101332E+03 0.50000000E+02 0.0000E+00 0.9000E+01
       11  1    3    3    0    0 -.15450776E+02 -.28897263E+02 -.90416672E+02 0.96171476E+02 0.00000000E+00 0.0000E+00 0.9000E+01
        2  1    1    2  502    0 -.32859930E+01 0.38138176E+01 0.37079577E+02 0.37419754E+02 0.00000000E+00 0.0000E+00 0.9000E+01
       21  1    1    2  501  502 0.21782874E+02 0.22984996E+02 0.10060347E+02 0.33226709E+02 0.00000000E+00 0.0000E+00 0.9000E+01
#aMCatNLO 2  0  0  5  2 0.20289199D+02 0.00000000D+00  -5  6  0 0.00000000D+00 0.00000000D+00 0.00000000D+00 0.00000000D+00 0.00000000D+00
  <mgrwgt>
 0.3429617165D-03    2    2    0
 0.119304450229958D+03 0.000000000000000D+00 0.000000000000000D+00 0.119304450229958D+03
 0.119304450229958D+03 -.000000000000000D+00 -.000000000000000D+00 -.119304450229958D+03
 0.718185415817959D+02 -.348540642358785D+01 0.146197705800933D+01 -.514161208190624D+02
 0.599934249208042D+02 -.158159567574669D+02 -.294263477123972D+02 -.498312813991693D+02
 0.106796933957316D+03 0.193013631810548D+02 0.279643706543879D+02 0.101247402218232D+03
 0.000000000000000D+00 0.000000000000000D+00 0.000000000000000D+00 0.000000000000000D+00
 0.119304450229958D+03 0.000000000000000D+00 0.000000000000000D+00 0.119304450229958D+03
 0.119304450229958D+03 -.000000000000000D+00 -.000000000000000D+00 -.119304450229958D+03
 0.701829257619795D+02 -.304610507621914D+01 0.209844949736786D+01 -.491117177675873D+02
 0.580490415083916D+02 -.154507759215286D+02 -.288972632038956D+02 -.479156855611027D+02
 0.656877238933592D+02 -.328599298323318D+01 0.381381764715070D+01 0.654945350037591D+02
 0.446892092961859D+02 0.217828739809809D+02 0.229849960593771D+02 0.315328683249310D+02
-.425132346152D-06 0.000000000000D+00 0.000000000000D+00 0.189989436958D-06 0.000000000000D+00  6 22 1 9900012 11 2 21 2 0.10423668D-01 0.32319603D-01 0.35764255D+04 0.35764255D+04 0.35764255D+04 0.12585681D+01  1  2 13  2  6  5        2 -.436746957110D-04 0.100000000000D+01
0.376354413783D-05 0.000000000000D+00 0.000000000000D+00 0.189989436958D-06 0.129205964021D-07  6 22 1 9900012 11 2 21 2 0.10423668D-01 0.32319603D-01 0.35764255D+04 0.35764255D+04 0.35764255D+04 0.12585681D+01  1  2  1  2  6  5        2 0.386636412173D-03 0.100000000000D+01
  </mgrwgt>
  </event>
  <event>
  6     66 0.94388558E-06 0.10448114E+03 0.78161638E-02 0.10291528E+00
       22 -1    0    0    0    0 0.00000000E+00 0.00000000E+00 0.62455636E+02 0.62455636E+02 0.00000000E+00 0.0000E+00 0.9000E+01
        1 -1    0    0  501    0 0.00000000E+00 0.00000000E+00 -.23008629E+03 0.23008629E+03 0.00000000E+00 0.0000E+00 0.9000E+01
      -24  2    1    2    0    0 -.11693794E+02 0.10382467E+03 -.11982045E+03 0.17764143E+03 0.79266830E+02 0.0000E+00 0.0000E+00
  9900012  1    3    3    0    0 0.15292088E+02 0.61907993E+02 -.68684271E+02 0.10622606E+03 0.50000000E+02 0.0000E+00 0.9000E+01
       11  1    3    3    0    0 -.26985882E+02 0.41916680E+02 -.51136179E+02 0.71415368E+02 0.00000000E+00 0.0000E+00 0.9000E+01
        2  1    1    2  501    0 0.11693794E+02 -.10382467E+03 -.47810201E+02 0.11490049E+03 0.00000000E+00 0.0000E+00 0.9000E+01
#aMCatNLO 1  0  0  2  5 0.11834485D+02 0.00000000D+00  -5  6  0 0.00000000D+00 0.00000000D+00 0.00000000D+00 0.00000000D+00 0.00000000D+00
  <mgrwgt>
 0.1719588813D-04    3    2    0
 0.119875708208314D+03 0.000000000000000D+00 0.000000000000000D+00 0.119875708208314D+03
 0.119875708208314D+03 0.000000000000000D+00 0.000000000000000D+00 -.119875708208314D+03
 0.815927941587926D+02 0.152920878912033D+02 0.619079931341900D+02 -.953606274433505D+01
 0.513865494097604D+02 -.269858820018856D+02 0.419166804181413D+02 -.124632072736299D+02
 0.106772072848074D+03 0.116937941106824D+02 -.103824673552331D+03 0.219992700179649D+02
 0.000000000000000D+00 0.000000000000000D+00 0.000000000000000D+00 0.000000000000000D+00
 0.399813973153186D+03 0.000000000000000D+00 0.000000000000000D+00 0.399813973153186D+03
 0.185117820428493D+03 0.000000000000000D+00 0.000000000000000D+00 -.185117820428493D+03
 0.604236840416490D+02 -.180546750541135D+02 0.270945346738323D+02 -.953606274433505D+01
 0.558675823885095D+02 -.521701293040522D+02 0.156247507112885D+02 -.124632072736299D+02
 0.185907648640704D+03 -.570300710003262D+02 -.175571230398063D+03 0.219992700179649D+02
 0.282732878510816D+03 0.127254875358492D+03 0.132851945012943D+03 0.214696152724693D+03
0.251449839275D-06 0.000000000000D+00 0.000000000000D+00 0.173019107464D-06 0.000000000000D+00  6 22 1 9900012 11 2 21 0 0.96085594D-02 0.35397890D-01 0.13849406D+05 0.13849406D+05 0.13849406D+05 0.11949389D+01  1  2  2  1  6  2        1 0.181522253771D-04 0.100000000000D+01
-.131536447650D-07 0.000000000000D+00 -.482816795539D-09 0.173019107464D-06 0.000000000000D+00  6 22 1 9900012 11 2 21 2 0.96085594D-02 0.35397890D-01 0.13849406D+05 0.13849406D+05 0.13849406D+05 0.11949389D+01  1  2  3  1  6  2        1 -.135586361615D-05 0.100000000000D+01
0.387592668937D-08 0.000000000000D+00 0.000000000000D+00 0.173019107464D-06 0.000000000000D+00  6 22 1 9900012 11 2 21 2 0.96085594D-02 0.35397890D-01 0.13849406D+05 0.13849406D+05 0.13849406D+05 0.11949389D+01  1  2 15  1  6  2        1 0.399526372414D-06 0.100000000000D+01
  </mgrwgt>
  </event>
  <event>
  6     66 0.94388558E-06 0.19695686E+02 0.78161638E-02 0.12685735E+00
       22 -1    0    0    0    0 0.00000000E+00 0.00000000E+00 0.20930748E+04 0.20930748E+04 0.00000000E+00 0.0000E+00 0.9000E+01
        1 -1    0    0  501    0 0.00000000E+00 0.00000000E+00 -.87803243E+01 0.87803243E+01 0.00000000E+00 0.0000E+00 0.9000E+01
      -24  2    1    2    0    0 -.19378050E+02 -.35229584E+01 0.18864706E+03 0.20610539E+03 0.80646138E+02 0.0000E+00 0.0000E+00
  9900012  1    3    3    0    0 0.12072456E+02 -.35966223E+01 0.11807876E+03 0.12884592E+03 0.50000000E+02 0.0000E+00 0.9000E+01
       11  1    3    3    0    0 -.31450506E+02 0.73663877E-01 0.70568302E+02 0.77259466E+02 0.00000000E+00 0.0000E+00 0.9000E+01
        2  1    1    2  501    0 0.19378050E+02 0.35229584E+01 0.18956474E+04 0.18957497E+04 0.00000000E+00 0.0000E+00 0.9000E+01
#aMCatNLO 1  0  0  2  5 0.17198439D+02 0.00000000D+00  -5  6  0 0.00000000D+00 0.00000000D+00 0.00000000D+00 0.00000000D+00 0.00000000D+00
  <mgrwgt>
 0.1866360854D-04    6    2    0
 0.135565021982161D+03 0.000000000000000D+00 0.000000000000000D+00 0.135565021982161D+03
 0.135565021982161D+03 0.000000000000000D+00 0.000000000000000D+00 -.135565021982161D+03
 0.911170487246490D+02 0.120724560676076D+02 -.359662228147649D+01 -.751241417984267D+02
 0.564418479973951D+02 -.314505056939792D+02 0.736638773829144D-01 -.468672857181554D+02
 0.123571147242277D+03 0.193780496263716D+02 0.352295840409358D+01 0.121991427516582D+03
 0.000000000000000D+00 -.000000000000000D+00 0.000000000000000D+00 0.000000000000000D+00
 0.142650414109786D+03 0.000000000000000D+00 0.000000000000000D+00 0.142650414109786D+03
 0.139412363657569D+03 0.000000000000000D+00 0.000000000000000D+00 -.139412363657569D+03
 0.915646609541050D+02 0.141456625225484D+02 -.635221902080248D+01 -.751241417984267D+02
 0.557657611165841D+02 -.301770911856650D+02 -.161889156424161D+01 -.468672857181554D+02
 0.123992911661499D+03 0.221875887194378D+02 -.211332865071685D+00 0.121991427516582D+03
 0.107394440351670D+02 -.615616005632118D+01 0.818244345011578D+01 0.323805045221612D+01
0.209468818510D-05 0.000000000000D+00 0.000000000000D+00 0.288009745110D-05 0.000000000000D+00  6 22 1 9900012 11 2 21 0 0.32201150D+00 0.13508191D-02 0.26372675D+04 0.26372675D+04 0.26372675D+04 0.12743965D+01  1  2  2  1  6  2        1 0.127809584725D-04 0.100000000000D+01
-.377112426796D-07 0.000000000000D+00 -.402207708742D-08 0.288009745110D-05 0.000000000000D+00  6 22 1 9900012 11 2 21 2 0.32201150D+00 0.13508191D-02 0.26372675D+04 0.26372675D+04 0.26372675D+04 0.12743965D+01  1  2  3  1  6  2        1 -.373700821290D-06 0.100000000000D+01
0.659799359976D-07 0.000000000000D+00 0.000000000000D+00 0.288009745110D-05 0.000000000000D+00  6 22 1 9900012 11 2 21 2 0.32201150D+00 0.13508191D-02 0.26372675D+04 0.26372675D+04 0.26372675D+04 0.12743965D+01  1  2 15  1  6  2        1 0.653830383699D-06 0.100000000000D+01
0.153572234559D-05 0.000000000000D+00 0.000000000000D+00 0.288009745110D-05 0.000000000000D+00  6 22 1 9900012 11 2 21 2 0.32201150D+00 0.14617605D-02 0.33061381D+04 0.33061381D+04 0.33061381D+04 0.12625912D+01  1  2 12  1  6  2        1 0.137727112628D-04 0.100000000000D+01
-.118194871908D-05 0.000000000000D+00 0.000000000000D+00 0.288009745110D-05 0.000000000000D+00  6 22 1 9900012 11 2 21 2 0.32201150D+00 0.13508191D-02 0.26372675D+04 0.26372675D+04 0.26372675D+04 0.12743965D+01  1  2  4  1  6  2        1 -.117125603841D-04 0.100000000000D+01
0.223128821930D-07 0.000000000000D+00 0.000000000000D+00 0.288009745110D-05 0.000000000000D+00  6 22 21 9900012 11 2 -1 2 0.32201150D+00 0.14617605D-02 0.33061381D+04 0.33061381D+04 0.33061381D+04 0.12625912D+01  1  2 12  3  6  2        1 0.354236962949D-05 0.100000000000D+01
  </mgrwgt>
  </event>
  <event>
  6     66 0.94388558E-06 0.16845052E+02 0.78161638E-02 0.12901142E+00
       22 -1    0    0    0    0 0.00000000E+00 0.00000000E+00 0.90309635E+00 0.90309635E+00 0.00000000E+00 0.0000E+00 0.9000E+01
        1 -1    0    0  501    0 0.00000000E+00 0.00000000E+00 -.27221153E+04 0.27221153E+04 0.00000000E+00 0.0000E+00 0.9000E+01
      -24  2    1    2    0    0 -.16337778E+02 -.41027777E+01 -.23560507E+04 0.23574685E+04 0.79996102E+02 0.0000E+00 0.0000E+00
  9900012  1    3    3    0    0 -.30443129E+02 -.17918890E+02 -.16294169E+04 0.16305666E+04 0.50000000E+02 0.0000E+00 0.9000E+01
       11  1    3    3    0    0 0.14105351E+02 0.13816112E+02 -.72663376E+03 0.72690196E+03 0.00000000E+00 0.0000E+00 0.9000E+01
        2  1    1    2  501    0 0.16337778E+02 0.41027777E+01 -.36516159E+03 0.36554992E+03 0.00000000E+00 0.0000E+00 0.9000E+01
#aMCatNLO 1  0  0  2  5 0.75281522D+01 0.00000000D+00  -5  6  0 0.00000000D+00 0.00000000D+00 0.00000000D+00 0.00000000D+00 0.00000000D+00
  <mgrwgt>
 0.8045059761D-03   11    2    0
 0.495815736334601D+02 0.000000000000000D+00 0.000000000000000D+00 0.495815736334601D+02
 0.495815736334601D+02 0.000000000000000D+00 0.000000000000000D+00 -.495815736334601D+02
 0.612484063569947D+02 -.304431290133803D+02 -.179188896238669D+02 0.186991224230158D+01
 0.206000758019332D+02 0.141053506514227D+02 0.138161119095945D+02 -.587513895557889D+01
 0.173146651079924D+02 0.163377783619575D+02 0.410277771427238D+01 0.400522671327731D+01
 0.000000000000000D+00 -.000000000000000D+00 -.000000000000000D+00 -.000000000000000D+00
 0.520592359142382D+02 0.000000000000000D+00 0.000000000000000D+00 0.520592359142382D+02
 0.531404591603320D+02 0.000000000000000D+00 0.000000000000000D+00 -.531404591603320D+02
 0.594059164836491D+02 -.270102038861791D+02 -.172050930684905D+02 0.186991224230158D+01
 0.216018577314741D+02 0.153061039657872D+02 0.140657805006334D+02 -.587513895557889D+01
 0.183230107322159D+02 0.173517616987045D+02 0.431361185313666D+01 0.400522671327731D+01
 0.586891012723103D+01 -.564766177831262D+01 -.117429928527951D+01 -.108122324609384D+01
0.126075357055D-05 0.000000000000D+00 0.000000000000D+00 0.219099702254D-06 0.000000000000D+00  6 22 1 9900012 11 2 21 0 0.13893790D-03 0.41878698D+00 0.23916708D+04 0.23916708D+04 0.23916708D+04 0.12796062D+01  1  2  2  1  6  2        1 0.230746254217D-03 0.100000000000D+01
0.108427846491D-07 0.000000000000D+00 -.242081283748D-08 0.219099702254D-06 0.000000000000D+00  6 22 1 9900012 11 2 21 2 0.13893790D-03 0.41878698D+00 0.23916708D+04 0.23916708D+04 0.23916708D+04 0.12796062D+01  1  2  3  1  6  2        1 0.324936112088D-05 0.100000000000D+01
0.137680508809D-07 0.000000000000D+00 0.000000000000D+00 0.219099702254D-06 0.000000000000D+00  6 22 1 9900012 11 2 21 2 0.13893790D-03 0.41878698D+00 0.23916708D+04 0.23916708D+04 0.23916708D+04 0.12796062D+01  1  2 15  1  6  2        1 0.412600366884D-05 0.100000000000D+01
0.103931817362D-05 0.000000000000D+00 0.000000000000D+00 0.219099702254D-06 0.000000000000D+00  6 22 1 9900012 11 2 21 2 0.13893790D-03 0.47127635D+00 0.26942538D+04 0.26942538D+04 0.26942538D+04 0.12732656D+01  1  2 12  1  6  2        1 0.178354553405D-03 0.100000000000D+01
-.282340008773D-06 0.000000000000D+00 0.000000000000D+00 0.219099702254D-06 0.000000000000D+00  6 22 1 9900012 11 2 21 2 0.13893790D-03 0.41878698D+00 0.23916708D+04 0.23916708D+04 0.23916708D+04 0.12796062D+01  1  2  4  1  6  2        1 -.846115344962D-04 0.100000000000D+01
-.467230161579D-05 0.000000000000D+00 -.868520878546D-06 0.219099702254D-06 0.000000000000D+00  6 22 1 9900012 11 2 21 2 0.13893790D-03 0.45665817D+00 0.23916708D+04 0.23916708D+04 0.23916708D+04 0.12796062D+01  1  2  5  1  6  2        1 -.941706043352D-03 0.100000000000D+01
0.473298885852D-05 0.000000000000D+00 0.865276298398D-06 0.219099702254D-06 0.000000000000D+00  6 22 1 9900012 11 2 21 2 0.13893790D-03 0.41878698D+00 0.23916708D+04 0.23916708D+04 0.23916708D+04 0.12796062D+01  1  2  6  1  6  2        1 0.141838010069D-02 0.100000000000D+01
0.453824051381D-08 0.000000000000D+00 0.000000000000D+00 0.219099702254D-06 0.219774531341D-07  6 22 1 9900012 11 2 21 2 0.14588083D-03 0.44884683D+00 0.26942538D+04 0.26942538D+04 0.26942538D+04 0.12732656D+01  1  2 11  1  6  2        1 0.931363832455D-06 0.100000000000D+01
0.194541258043D-07 0.000000000000D+00 0.000000000000D+00 0.219099702254D-06 0.000000000000D+00  6 22 21 9900012 11 2 -1 2 0.13893790D-03 0.47127635D+00 0.26942538D+04 0.26942538D+04 0.26942538D+04 0.12732656D+01  1  2 12  3  6  2        1 0.163293872464D-05 0.100000000000D+01
-.647360140671D-07 0.000000000000D+00 -.124397861627D-07 0.219099702254D-06 0.000000000000D+00  6 22 21 9900012 11 2 -1 2 0.13893790D-03 0.45665817D+00 0.23916708D+04 0.23916708D+04 0.23916708D+04 0.12796062D+01  1  2  5  3  6  2        1 -.663046803355D-05 0.100000000000D+01
0.318510084786D-09 0.000000000000D+00 0.000000000000D+00 0.219099702254D-06 0.741117972326D-09  6 22 21 9900012 11 2 -1 2 0.14588083D-03 0.44884683D+00 0.26942538D+04 0.26942538D+04 0.26942538D+04 0.12732656D+01  1  2 11  3  6  2        1 0.334462828634D-07 0.100000000000D+01
  </mgrwgt>
  </event>
  <event>
  6     66 0.94388558E-06 0.47947127E+02 0.78161638E-02 0.12081065E+00
       22 -1    0    0    0    0 0.00000000E+00 0.00000000E+00 0.98604732E+01 0.98604732E+01 0.00000000E+00 0.0000E+00 0.9000E+01
        1 -1    0    0  501    0 -.00000000E+00 -.00000000E+00 -.17773334E+04 0.17773334E+04 0.00000000E+00 0.0000E+00 0.9000E+01
      -24  2    1    2    0    0 -.21245827E+02 -.70349223E+02 -.16076894E+04 0.16113213E+04 0.79313322E+02 0.0000E+00 0.0000E+00
  9900012  1    3    3    0    0 -.70769201E+01 -.31617288E+02 -.64411185E+03 0.64686151E+03 0.50000000E+02 0.0000E+00 0.9000E+01
       11  1    3    3    0    0 -.14168907E+02 -.38731935E+02 -.96357758E+03 0.96445979E+03 0.00000000E+00 0.0000E+00 0.9000E+01
        2  1    1    2  501    0 0.21245827E+02 0.70349223E+02 -.15978347E+03 0.17587256E+03 0.00000000E+00 0.0000E+00 0.9000E+01
#aMCatNLO 1  0  0  5  2 0.49284715D+02 0.00000000D+00  -5  6  0 0.00000000D+00 0.00000000D+00 0.00000000D+00 0.00000000D+00 0.00000000D+00
  <mgrwgt>
 0.8207743965D-04    4    2    0
 0.132383338048818D+03 0.000000000000000D+00 0.000000000000000D+00 0.132383338048818D+03
 0.132383338048818D+03 -.000000000000000D+00 -.000000000000000D+00 -.132383338048818D+03
 0.665365751028485D+02 -.707692005183749D+01 -.316172879375939D+02 -.296206031752929D+02
 0.777262846851873D+02 -.141689065699488D+02 -.387319349989351D+02 -.658821267781567D+02
 0.120503816309601D+03 0.212458266217863D+02 0.703492229365290D+02 0.955027299534495D+02
 0.000000000000000D+00 -.000000000000000D+00 0.000000000000000D+00 0.000000000000000D+00
 0.132383338048818D+03 0.000000000000000D+00 0.000000000000000D+00 0.132383338048818D+03
 0.132383338048818D+03 -.000000000000000D+00 -.000000000000000D+00 -.132383338048818D+03
 0.598484871882186D+02 -.509271091873753D+01 -.250471707497784D+02 -.207013272919391D+02
 0.650879632994277D+02 -.119267639460423D+02 -.313077479285697D+02 -.558034065974845D+02
 0.541849649768003D+02 0.260648870344261D+02 0.468041429318373D+02 -.812430291383958D+01
 0.856452606331897D+02 -.904541216964628D+01 0.955077574651082D+01 0.846290368032632D+02
0.202967657254D-05 0.000000000000D+00 0.000000000000D+00 0.447408358376D-06 0.000000000000D+00  6 22 1 9900012 11 2 21 0 0.15169959D-02 0.27343590D+00 0.75959313D+04 0.75959313D+04 0.75959313D+04 0.12219138D+01  1  2  2  2  6  5        2 0.719869677954D-04 0.100000000000D+01
-.128573770406D-06 0.000000000000D+00 -.389724623234D-08 0.447408358376D-06 0.000000000000D+00  6 22 1 9900012 11 2 21 2 0.15169959D-02 0.27343590D+00 0.75959313D+04 0.75959313D+04 0.75959313D+04 0.12219138D+01  1  2  3  2  6  5        2 -.680864303790D-05 0.100000000000D+01
0.746610725606D-07 0.000000000000D+00 0.000000000000D+00 0.447408358376D-06 0.000000000000D+00  6 22 1 9900012 11 2 21 2 0.15169959D-02 0.27343590D+00 0.75959313D+04 0.75959313D+04 0.75959313D+04 0.12219138D+01  1  2 15  2  6  5        2 0.395368814564D-05 0.100000000000D+01
0.242805461990D-06 0.000000000000D+00 0.000000000000D+00 0.447408358376D-06 0.000000000000D+00  6 22 1 9900012 11 2 21 2 0.15169959D-02 0.27343590D+00 0.61139562D+04 0.61139562D+04 0.61139562D+04 0.12321329D+01  1  2 12  2  6  5        2 0.129454267517D-04 0.100000000000D+01
  </mgrwgt>
  </event>
  <event>
  6     66 0.94388558E-06 0.18124631E+02 0.78161638E-02 0.13016812E+00
       22 -1    0    0    0    0 0.00000000E+00 0.00000000E+00 0.56634272E+02 0.56634272E+02 0.00000000E+00 0.0000E+00 0.9000E+01
        3 -1    0    0  501    0 -.00000000E+00 -.00000000E+00 -.58186774E+02 0.58186774E+02 0.00000000E+00 0.0000E+00 0.9000E+01
      -24  2    1    2    0    0 -.80133407E+01 -.16256956E+02 -.22764907E+02 0.86920000E+02 0.81904476E+02 0.0000E+00 0.0000E+00
  9900012  1    3    3    0    0 -.10849730E+02 0.78490748E+01 0.25808681E+01 0.51826494E+02 0.50000000E+02 0.0000E+00 0.9000E+01
       11  1    3    3    0    0 0.28363894E+01 -.24106031E+02 -.25345775E+02 0.35093506E+02 0.00000000E+00 0.0000E+00 0.9000E+01
        4  1    1    2  501    0 0.80133407E+01 0.16256956E+02 0.21212406E+02 0.27901046E+02 0.00000000E+00 0.0000E+00 0.9000E+01
#aMCatNLO 1  0  0  5  2 0.63506196D+01 0.00000000D+00  -5  6  0 0.00000000D+00 0.00000000D+00 0.00000000D+00 0.00000000D+00 0.00000000D+00
  <mgrwgt>
 0.2919208657D-04    6    2    0
 0.574052750832872D+02 0.000000000000000D+00 0.000000000000000D+00 0.574052750832872D+02
 0.574052750832872D+02 -.000000000000000D+00 -.000000000000000D+00 -.574052750832872D+02
 0.518661315026451D+02 -.108497300713020D+02 0.784907481830237D+01 0.328191695907352D+01
 0.347539811347806D+02 0.283638940941069D+01 -.241060307519497D+02 -.248735478213488D+02
 0.281904375291486D+02 0.801334066189130D+01 0.162569559336474D+02 0.215916308622753D+02
 0.000000000000000D+00 -.000000000000000D+00 0.000000000000000D+00 0.000000000000000D+00
 0.574052750832872D+02 0.000000000000000D+00 0.000000000000000D+00 0.574052750832872D+02
 0.574052750832872D+02 -.000000000000000D+00 -.000000000000000D+00 -.574052750832872D+02
 0.521421849917336D+02 -.100809660507929D+02 0.940869437425432D+01 0.535332133976713D+01
 0.331281096347871D+02 0.333813110449331D+01 -.230881291087783D+02 -.235216245816497D+02
 0.249980402812612D+02 0.852709795035508D+01 0.172339797818931D+02 0.159743719540364D+02
 0.454221525879256D+01 -.178426300405553D+01 -.355454504736911D+01 0.219393128784619D+01
0.127524263107D-06 0.000000000000D+00 0.000000000000D+00 0.113048094479D-06 0.000000000000D+00  6 22 3 9900012 11 4 21 0 0.87129650D-02 0.89518114D-02 0.22164864D+04 0.22164864D+04 0.22164864D+04 0.12837057D+01  1  2  2  2  6  5        4 0.338844724884D-04 0.100000000000D+01
-.547861374859D-08 0.000000000000D+00 -.244863374121D-09 0.113048094479D-06 0.000000000000D+00  6 22 3 9900012 11 4 21 2 0.87129650D-02 0.89518114D-02 0.22164864D+04 0.22164864D+04 0.22164864D+04 0.12837057D+01  1  2  3  2  6  5        4 -.239888554836D-05 0.100000000000D+01
0.647427764783D-08 0.000000000000D+00 0.000000000000D+00 0.113048094479D-06 0.000000000000D+00  6 22 3 9900012 11 4 21 2 0.87129650D-02 0.89518114D-02 0.22164864D+04 0.22164864D+04 0.22164864D+04 0.12837057D+01  1  2 15  2  6  5        4 0.283485052937D-05 0.100000000000D+01
0.929924669125D-07 0.000000000000D+00 0.000000000000D+00 0.113048094479D-06 0.000000000000D+00  6 22 3 9900012 11 4 21 2 0.87129650D-02 0.89518114D-02 0.24206510D+04 0.24206510D+04 0.24206510D+04 0.12789608D+01  1  2 12  2  6  5        4 0.408975491650D-04 0.100000000000D+01
-.117429201076D-06 0.000000000000D+00 0.000000000000D+00 0.113048094479D-06 0.000000000000D+00  6 22 3 9900012 11 4 21 2 0.87129650D-02 0.89518114D-02 0.22164864D+04 0.22164864D+04 0.22164864D+04 0.12837057D+01  1  2  4  2  6  5        4 -.514179729297D-04 0.100000000000D+01
0.122604451346D-07 0.000000000000D+00 0.000000000000D+00 0.113048094479D-06 0.172984091426D-07  6 22 3 9900012 11 4 21 2 0.87129650D-02 0.89518114D-02 0.24206510D+04 0.24206510D+04 0.24206510D+04 0.12789608D+01  1  2 11  2  6  5        4 0.539207286703D-05 0.100000000000D+01
  </mgrwgt>
  </event>
  <event>
  7     66 0.94388558E-06 0.47249443E+02 0.78161638E-02 0.12089305E+00
       22 -1    0    0    0    0 0.00000000E+00 0.00000000E+00 0.15818052E+02 0.15818052E+02 0.00000000E+00 0.0000E+00 0.9000E+01
        1 -1    0    0  502    0 0.00000000E+00 0.00000000E+00 -.94038989E+03 0.94038989E+03 0.00000000E+00 0.0000E+00 0.9000E+01
      -24  2    1    2    0    0 0.21897407E+02 -.52304936E+02 -.61530901E+03 0.62320817E+03 0.81042799E+02 0.0000E+00 0.0000E+00
  9900012  1    3    3    0    0 0.40574474E+02 -.46125388E+02 -.49889249E+03 0.50514113E+03 0.50000000E+02 0.0000E+00 0.9000E+01
       11  1    3    3    0    0 -.18677067E+02 -.61795484E+01 -.11641652E+03 0.11806704E+03 0.00000000E+00 0.0000E+00 0.9000E+01
        2  1    1    2  501    0 -.13860623E+01 0.62254762E+01 0.88524553E+01 0.10910714E+02 0.00000000E+00 0.0000E+00 0.9000E+01
       21  1    1    2  502  501 -.20511345E+02 0.46079460E+02 -.31811529E+03 0.32208907E+03 0.00000000E+00 0.0000E+00 0.9000E+01
#aMCatNLO 2  0  0  2  2 0.59015335D+02 0.00000000D+00  -5  6  0 0.00000000D+00 0.00000000D+00 0.00000000D+00 0.00000000D+00 0.00000000D+00
  <mgrwgt>
 0.8064289969D-04    1    2    0
 0.891251470422815D+02 0.000000000000000D+00 0.000000000000000D+00 0.891251470422815D+02
 0.891251470422815D+02 0.000000000000000D+00 0.000000000000000D+00 -.891251470422815D+02
 0.830586730945766D+02 0.304770445808441D+02 -.234411562168055D+02 -.540407728022861D+02
 0.244898241714062D+02 -.213587008022887D+02 -.155163002717164D+00 -.119805389038762D+02
 0.707017968185801D+02 -.911834377855539D+01 0.235963192195226D+02 0.660213117061624D+02
 0.000000000000000D+00 -.000000000000000D+00 0.000000000000000D+00 -.000000000000000D+00
 0.105930316107501D+03 0.000000000000000D+00 0.000000000000000D+00 0.105930316107501D+03
 0.140423791087461D+03 0.000000000000000D+00 0.000000000000000D+00 -.140423791087461D+03
 0.958866230492872D+02 0.405744741214587D+02 -.461253878519723D+02 -.540407728022861D+02
 0.230337351464973D+02 -.186770667941729D+02 -.617954839269815D+01 -.119805389038762D+02
 0.663286613885204D+02 -.138606231331957D+01 0.622547616286088D+01 0.660213117061624D+02
 0.611050876106578D+02 -.205113450139663D+02 0.460794600818096D+02 -.344934749799599D+02
0.786364911790D-06 0.000000000000D+00 0.000000000000D+00 0.141102980765D-06 0.580036100723D-08  6 22 1 9900012 11 2 21 2 0.24335465D-02 0.14467537D+00 0.60603650D+04 0.60603650D+04 0.60603650D+04 0.12325530D+01  1  2  1  1  6  2        1 0.806428996950D-04 0.100000000000D+01
  </mgrwgt>
  </event>
  <event>
  6     66 0.94388558E-06 0.34158742E+02 0.78161638E-02 0.11732278E+00
       22 -1    0    0    0    0 0.00000000E+00 0.00000000E+00 0.43962396E+02 0.43962396E+02 0.00000000E+00 0.0000E+00 0.9000E+01
        3 -1    0    0  501    0 0.00000000E+00 0.00000000E+00 -.99726508E+02 0.99726508E+02 0.00000000E+00 0.0000E+00 0.9000E+01
      -24  2    1    2    0    0 -.14401547E+02 -.30974426E+02 -.55419762E+02 0.10952843E+03 0.88081251E+02 0.0000E+00 0.0000E+00
  9900012  1    3    3    0    0 0.20479120E+02 -.22508506E+02 -.32665253E+02 0.67030187E+02 0.50000000E+02 0.0000E+00 0.9000E+01
       11  1    3    3    0    0 -.34880667E+02 -.84659202E+01 -.22754509E+02 0.42498240E+02 0.00000000E+00 0.0000E+00 0.9000E+01
        4  1    1    2  501    0 0.14401547E+02 0.30974426E+02 -.34435016E+00 0.34160477E+02 0.00000000E+00 0.0000E+00 0.9000E+01
#aMCatNLO 1  0  0  2  5 0.14834804D+03 0.00000000D+00  -5  6  0 0.00000000D+00 0.00000000D+00 0.00000000D+00 0.00000000D+00 0.00000000D+00
  <mgrwgt>
 0.1468034577D-04    3    2    0
 0.662134146167025D+02 0.000000000000000D+00 0.000000000000000D+00 0.662134146167025D+02
 0.662134146167025D+02 0.000000000000000D+00 0.000000000000000D+00 -.662134146167025D+02
 0.589755515628622D+02 0.204791202138255D+02 -.225085058339917D+02 -.721723510304712D+01
 0.365306687016583D+02 -.348806673681237D+02 -.846592023363415D+01 -.679389390131859D+01
 0.369206089688845D+02 0.144015471542982D+02 0.309744260676259D+02 0.140111290043657D+02
 0.000000000000000D+00 0.000000000000000D+00 0.000000000000000D+00 0.000000000000000D+00
 0.175620168313292D+03 0.000000000000000D+00 0.000000000000000D+00 0.175620168313292D+03
 0.776244722972664D+02 0.000000000000000D+00 0.000000000000000D+00 -.776244722972664D+02
 0.711433175346436D+02 0.174149895567679D+02 -.469680879538452D+02 -.721723510304712D+01
 0.442557530623872D+02 -.367830828541951D+02 -.236520506620046D+02 -.679389390131859D+01
 0.268873692805726D+02 0.128989519989982D+02 0.189798821961688D+02 0.140111290043657D+02
 0.110958200732955D+03 0.646914129842907D+01 0.516402564196810D+02 0.979956960160260D+02
0.869491024117D-07 0.000000000000D+00 0.000000000000D+00 0.300629626908D-08 0.000000000000D+00  6 22 3 9900012 11 4 21 0 0.67634456D-02 0.15342540D-01 0.41334850D+04 0.41334850D+04 0.41334850D+04 0.12512612D+01  1  2  2  1  6  2        3 0.149450918494D-04 0.100000000000D+01
-.306206009717D-08 0.000000000000D+00 -.166953723743D-09 0.300629626908D-08 0.000000000000D+00  6 22 3 9900012 11 4 21 2 0.67634456D-02 0.15342540D-01 0.41334850D+04 0.41334850D+04 0.41334850D+04 0.12512612D+01  1  2  3  1  6  2        3 -.824030292404D-06 0.100000000000D+01
0.207827539103D-08 0.000000000000D+00 0.000000000000D+00 0.300629626908D-08 0.000000000000D+00  6 22 3 9900012 11 4 21 2 0.67634456D-02 0.15342540D-01 0.41334850D+04 0.41334850D+04 0.41334850D+04 0.12512612D+01  1  2 15  1  6  2        3 0.559284215141D-06 0.100000000000D+01
  </mgrwgt>
  </event>
  <event>
  6     66 0.94388558E-06 0.44325369E+02 0.78161638E-02 0.12355258E+00
       22 -1    0    0    0    0 0.00000000E+00 0.00000000E+00 0.99040766E+02 0.99040766E+02 0.00000000E+00 0.0000E+00 0.9000E+01
        1 -1    0    0  501    0 0.00000000E+00 0.00000000E+00 -.74086581E+02 0.74086581E+02 0.00000000E+00 0.0000E+00 0.9000E+01
      -24  2    1    2    0    0 0.28894128E+02 -.33613505E+02 -.35479991E+02 0.98180512E+02 0.80098970E+02 0.0000E+00 0.0000E+00
  9900012  1    3    3    0    0 0.23727241E+02 -.49647435E+02 -.32178184E+02 0.81014105E+02 0.50000000E+02 0.0000E+00 0.9000E+01
       11  1    3    3    0    0 0.51668871E+01 0.16033929E+02 -.33018069E+01 0.17166407E+02 0.00000000E+00 0.0000E+00 0.9000E+01
        2  1    1    2  501    0 -.28894128E+02 0.33613505E+02 0.60434176E+02 0.74946834E+02 0.00000000E+00 0.0000E+00 0.9000E+01
#aMCatNLO 1  0  0  2  5 0.45646524D+02 0.00000000D+00  -5  6  0 0.00000000D+00 0.00000000D+00 0.00000000D+00 0.00000000D+00 0.00000000D+00
  <mgrwgt>
 0.7362957891D-05    5    2    0
 0.856597437264063D+02 0.000000000000000D+00 0.000000000000000D+00 0.856597437264063D+02
 0.856597437264063D+02 0.000000000000000D+00 0.000000000000000D+00 -.856597437264063D+02
 0.865560457399857D+02 0.237272405040036D+02 -.496474345322197D+02 -.443181605730274D+02
 0.178284941337132D+02 0.516688710211842D+01 0.160339294709377D+02 -.583708715634800D+01
 0.669349475791137D+02 -.288941276061220D+02 0.336135050612820D+02 0.501552477293754D+02
 0.000000000000000D+00 0.000000000000000D+00 0.000000000000000D+00 -.000000000000000D+00
 0.117155796990204D+03 0.000000000000000D+00 0.000000000000000D+00 0.117155796990204D+03
 0.412183030599072D+03 0.000000000000000D+00 0.000000000000000D+00 -.412183030599072D+03
 0.119039190654785D+03 -.228876751199589D+02 -.958247561059918D+02 -.443181605730274D+02
 0.112441156293132D+02 -.142478921702382D+01 0.950413202252657D+01 -.583708715634800D+01
 0.798929371790310D+02 -.621846336473402D+02 0.635511167226660D+00 0.501552477293754D+02
 0.319162584126147D+03 0.864970979843230D+02 0.856851129162386D+02 -.295027233608868D+03
0.618263229528D-07 0.000000000000D+00 0.000000000000D+00 0.718541020517D-07 0.000000000000D+00  6 22 1 9900012 11 2 21 0 0.15237041D-01 0.11397935D-01 0.45914689D+04 0.45914689D+04 0.45914689D+04 0.12460367D+01  1  2  2  1  6  2        1 0.875028549141D-05 0.100000000000D+01
-.397055422705D-08 0.000000000000D+00 -.118714679692D-09 0.718541020517D-07 0.000000000000D+00  6 22 1 9900012 11 2 21 2 0.15237041D-01 0.11397935D-01 0.45914689D+04 0.45914689D+04 0.45914689D+04 0.12460367D+01  1  2  3  1  6  2        1 -.872492330274D-06 0.100000000000D+01
0.152003566935D-08 0.000000000000D+00 0.000000000000D+00 0.718541020517D-07 0.000000000000D+00  6 22 1 9900012 11 2 21 2 0.15237041D-01 0.11397935D-01 0.45914689D+04 0.45914689D+04 0.45914689D+04 0.12460367D+01  1  2 15  1  6  2        1 0.334013688623D-06 0.100000000000D+01
-.180033021725D-07 0.000000000000D+00 -.227478862351D-07 0.718541020517D-07 0.000000000000D+00  6 22 1 9900012 11 2 21 2 0.15237041D-01 0.70868447D-01 0.45914689D+04 0.45914689D+04 0.45914689D+04 0.12460367D+01  1  2  5  1  6  2        1 -.404142975918D-06 0.100000000000D+01
-.564532773112D-08 0.000000000000D+00 -.509441335270D-08 0.718541020517D-07 0.000000000000D+00  6 22 21 9900012 11 2 -1 2 0.15237041D-01 0.70868447D-01 0.45914689D+04 0.45914689D+04 0.45914689D+04 0.12460367D+01  1  2  5  3  6  2        1 -.444705982574D-06 0.100000000000D+01
  </mgrwgt>
  </event>
  <event>
  7     66 0.94388558E-06 0.89665142E+02 0.78161638E-02 0.10936387E+00
       22 -1    0    0    0    0 0.00000000E+00 0.00000000E+00 0.74023970E+02 0.74023970E+02 0.00000000E+00 0.0000E+00 0.9000E+01
        1 -1    0    0  501    0 -.00000000E+00 -.00000000E+00 -.34000879E+03 0.34000879E+03 0.00000000E+00 0.0000E+00 0.9000E+01
      -24  2    1    2    0    0 -.92920582E+02 0.91783396E+02 -.17761732E+03 0.23394961E+03 0.78269287E+02 0.0000E+00 0.0000E+00
  9900012  1    3    3    0    0 -.52694564E+02 0.32359152E+02 -.80054753E+02 0.11283880E+03 0.50000000E+02 0.0000E+00 0.9000E+01
       11  1    3    3    0    0 -.40226018E+02 0.59424244E+02 -.97562563E+02 0.12111080E+03 0.00000000E+00 0.0000E+00 0.9000E+01
        2  1    1    2  502    0 0.43755644E+02 0.88309440E+01 -.20319582E+02 0.49045156E+02 0.00000000E+00 0.0000E+00 0.9000E+01
       21  1    1    2  501  502 0.49164938E+02 -.10061434E+03 -.68047920E+02 0.13103799E+03 0.00000000E+00 0.0000E+00 0.9000E+01
#aMCatNLO 2  0  0  5  2 0.39535651D+02 0.00000000D+00  -5  6  0 0.00000000D+00 0.00000000D+00 0.00000000D+00 0.00000000D+00 0.00000000D+00
  <mgrwgt>
 0.1799477552D-05    2    2    0
 0.158646778266797D+03 0.000000000000000D+00 0.000000000000000D+00 0.158646778266797D+03
 0.158646778266797D+03 -.000000000000000D+00 -.000000000000000D+00 -.158646778266797D+03
 0.855114282188249D+02 -.574588669559972D+02 0.370651476219457D+02 -.116986236762973D+02
 0.827889990922433D+02 -.448003447137602D+02 0.639425891899947D+02 -.275371162597555D+02
 0.148993129222525D+03 0.102259211669757D+03 -.101007736811940D+03 0.392357399360529D+02
 0.000000000000000D+00 0.000000000000000D+00 -.000000000000000D+00 0.000000000000000D+00
 0.158646778266797D+03 0.000000000000000D+00 0.000000000000000D+00 0.158646778266797D+03
 0.158646778266797D+03 -.000000000000000D+00 -.000000000000000D+00 -.158646778266797D+03
 0.801327696755593D+02 -.526945641215054D+02 0.323591515660320D+02 -.987061284051654D+01
 0.762501459036357D+02 -.402260181817669D+02 0.594242444571250D+02 -.257819972512941D+02
 0.469647133550959D+02 0.437556438326438D+02 0.883094398505365D+01 0.145993959344206D+02
 0.113945927599302D+03 0.491649384706285D+02 -.100614340008211D+03 0.210532141573900D+02
-.166127083509D-06 0.000000000000D+00 0.000000000000D+00 0.992359300280D-07 0.000000000000D+00  6 22 1 9900012 11 2 21 2 0.11388303D-01 0.52309044D-01 0.23701164D+05 0.23701164D+05 0.23701164D+05 0.11723084D+01  1  2 13  2  6  5        2 -.816371907008D-05 0.100000000000D+01
0.202745437838D-06 0.000000000000D+00 0.000000000000D+00 0.992359300280D-07 0.855771698484D-10  6 22 1 9900012 11 2 21 2 0.11388303D-01 0.52309044D-01 0.23701164D+05 0.23701164D+05 0.23701164D+05 0.11723084D+01  1  2  1  2  6  5        2 0.996319662206D-05 0.100000000000D+01
  </mgrwgt>
  </event>
  <event>
  7     66 0.94388558E-06 0.88249840E+02 0.78161638E-02 0.11634779E+00
       22 -1    0    0    0    0 0.00000000E+00 0.00000000E+00 0.10918516E+02 0.10918516E+02 0.00000000E+00 0.0000E+00 0.9000E+01
        1 -1    0    0  501    0 -.00000000E+00 -.00000000E+00 -.18114047E+04 0.18114047E+04 0.00000000E+00 0.0000E+00 0.9000E+01
      -24  2    1    2    0    0 0.63077358E+02 -.61731665E+02 -.14639627E+04 0.14688019E+04 0.80017444E+02 0.0000E+00 0.0000E+00
  9900012  1    3    3    0    0 0.60059504E+02 -.36723513E+02 -.86235678E+03 0.86666889E+03 0.50000000E+02 0.0000E+00 0.9000E+01
       11  1    3    3    0    0 0.30178536E+01 -.25008152E+02 -.60160593E+03 0.60213305E+03 0.00000000E+00 0.0000E+00 0.9000E+01
        2  1    1    2  502    0 0.37603963E+00 0.11614944E+00 0.28166587E+01 0.28440223E+01 0.00000000E+00 0.0000E+00 0.9000E+01
       21  1    1    2  501  502 -.63453398E+02 0.61615515E+02 -.33934010E+03 0.35067722E+03 0.00000000E+00 0.0000E+00 0.9000E+01
#aMCatNLO 2  0  0  5  2 0.27786155D+02 0.00000000D+00  -5  6  0 0.00000000D+00 0.00000000D+00 0.00000000D+00 0.00000000D+00 0.00000000D+00
  <mgrwgt>
 0.5626998059D-02    2    2    0
 0.140633748687883D+03 0.000000000000000D+00 0.000000000000000D+00 0.140633748687883D+03
 0.140633748687883D+03 -.000000000000000D+00 -.000000000000000D+00 -.140633748687883D+03
 0.993511924929682D+02 0.628954558976149D+02 -.394989625257277D+02 -.430656828181923D+02
 0.526645882512144D+02 0.451856557856957D+01 -.264768474010888D+02 -.453003087459851D+02
 0.129251716631584D+03 -.674140214761845D+02 0.659758099268165D+02 0.883659915641774D+02
 0.000000000000000D+00 -.000000000000000D+00 0.000000000000000D+00 0.000000000000000D+00
 0.140633748687883D+03 0.000000000000000D+00 0.000000000000000D+00 0.140633748687883D+03
 0.140633748687883D+03 -.000000000000000D+00 -.000000000000000D+00 -.140633748687883D+03
 0.948896813026797D+02 0.600595044233271D+02 -.367235132744857D+02 -.393483305735726D+02
 0.501226473191546D+02 0.301785356797372D+01 -.250081515986741D+02 -.433331822941768D+02
 0.364566927154387D+02 0.376039629487980D+00 0.116149436641019D+00 0.364545682631594D+02
 0.997984760384930D+02 -.634533976207888D+02 0.616155154365188D+02 0.462269446045901D+02
-.443971517475D-07 0.000000000000D+00 0.000000000000D+00 0.239170928425D-06 0.000000000000D+00  6 22 1 9900012 11 2 21 2 0.16797717D-02 0.27867764D+00 0.10037688D+05 0.10037688D+05 0.10037688D+05 0.12091606D+01  1  2 13  2  6  5        2 -.193274331389D-05 0.100000000000D+01
0.129302475508D-03 0.000000000000D+00 0.000000000000D+00 0.239170928425D-06 0.938702575619D-06  6 22 1 9900012 11 2 21 2 0.16797717D-02 0.27867764D+00 0.10037688D+05 0.10037688D+05 0.10037688D+05 0.12091606D+01  1  2  1  2  6  5        2 0.562893080234D-02 0.100000000000D+01
  </mgrwgt>
  </event>
  <event>
  7     66 0.94388558E-06 0.40067418E+02 0.78161638E-02 0.12464475E+00
       22 -1    0    0    0    0 0.00000000E+00 0.00000000E+00 0.14014844E+03 0.14014844E+03 0.00000000E+00 0.0000E+00 0.9000E+01
       21 -1    0    0  501  502 0.00000000E+00 0.00000000E+00 -.12282693E+03 0.12282693E+03 0.00000000E+00 0.0000E+00 0.9000E+01
      -24  2    1    2    0    0 -.25295439E+02 0.31355365E+02 -.55187808E+02 0.10514051E+03 0.79911292E+02 0.0000E+00 0.0000E+00
  9900012  1    3    3    0    0 0.26937732E+01 0.89440610E+01 -.19281981E+02 0.54397127E+02 0.50000000E+02 0.0000E+00 0.9000E+01
       11  1    3    3    0    0 -.27989213E+02 0.22411304E+02 -.35905827E+02 0.50743384E+02 0.00000000E+00 0.0000E+00 0.9000E+01
        2  1    1    2  501    0 0.56660936E+00 0.78196334E+00 0.10553379E+03 0.10553821E+03 0.00000000E+00 0.0000E+00 0.9000E+01
       -1  1    1    2    0  502 0.24728830E+02 -.32137329E+02 -.33024477E+02 0.52296645E+02 0.00000000E+00 0.0000E+00 0.9000E+01
#aMCatNLO 2  0  0  2  2 0.44382818D+02 0.00000000D+00  -5  6  0 0.00000000D+00 0.00000000D+00 0.00000000D+00 0.00000000D+00 0.00000000D+00
  <mgrwgt>
 0.1808825365D-02    1    2    0
 0.100257771602707D+03 0.000000000000000D+00 0.000000000000000D+00 0.100257771602707D+03
 0.100257771602707D+03 0.000000000000000D+00 0.000000000000000D+00 -.100257771602707D+03
 0.608943479586358D+02 0.101205287220340D+02 -.707672803307545D+00 -.332444839168449D+02
 0.552869140675701D+02 -.208847182036941D+02 0.131783778325682D+02 -.494651571347878D+02
 0.843342811792087D+02 0.107641894816601D+02 -.124707050292606D+02 0.827096410516327D+02
 0.000000000000000D+00 0.000000000000000D+00 -.000000000000000D+00 -.000000000000000D+00
 0.109839501959998D+03 0.000000000000000D+00 0.000000000000000D+00 0.109839501959998D+03
 0.156719595557674D+03 0.000000000000000D+00 0.000000000000000D+00 -.156719595557674D+03
 0.607655194301815D+02 0.269377315047042D+01 0.894406098683393D+01 -.332444839168449D+02
 0.610938978406044D+02 -.279892125765161D+02 0.224113043425758D+02 -.494651571347878D+02
 0.827152781275599D+02 0.566609359829322D+00 0.781963338661487D+00 0.827096410516327D+02
 0.619844021193263D+02 0.247288300662163D+02 -.321373286680713D+02 -.468800935976764D+02
0.292558726963D-05 0.000000000000D+00 0.000000000000D+00 0.419002649185D-05 0.236078135550D-06  6 22 21 9900012 11 2 -1 2 0.21561298D-01 0.18896451D-01 0.41111884D+04 0.41111884D+04 0.41111884D+04 0.12515319D+01  1  2  1  3  6  2        1 0.180882536527D-02 0.100000000000D+01
  </mgrwgt>
  </event>
  <event>
  7     66 0.94388558E-06 0.25794477E+02 0.78161638E-02 0.12780012E+00
       22 -1    0    0    0    0 0.00000000E+00 0.00000000E+00 0.47438656E+02 0.47438656E+02 0.00000000E+00 0.0000E+00 0.9000E+01
        1 -1    0    0  502    0 0.00000000E+00 0.00000000E+00 -.18182407E+03 0.18182407E+03 0.00000000E+00 0.0000E+00 0.9000E+01
      -24  2    1    2    0    0 0.25661036E+02 0.54290997E+01 -.12449214E+03 0.15042328E+03 0.80255268E+02 0.0000E+00 0.0000E+00
  9900012  1    3    3    0    0 0.29591202E+02 0.24868210E+02 -.81976522E+02 0.10350950E+03 0.50000000E+02 0.0000E+00 0.9000E+01
       11  1    3    3    0    0 -.39301659E+01 -.19439110E+02 -.42515614E+02 0.46913779E+02 0.00000000E+00 0.0000E+00 0.9000E+01
        2  1    1    2  501    0 0.68570793E-01 -.72130950E+00 0.30613161E+02 0.30621734E+02 0.00000000E+00 0.0000E+00 0.9000E+01
       21  1    1    2  502  501 -.25729607E+02 -.47077902E+01 -.40506444E+02 0.48217715E+02 0.00000000E+00 0.0000E+00 0.9000E+01
#aMCatNLO 2  0  0  2  2 0.11060419D+03 0.00000000D+00  -5  6  0 0.00000000D+00 0.00000000D+00 0.00000000D+00 0.00000000D+00 0.00000000D+00
  <mgrwgt>
 0.2287974513D-02    1    2    0
 0.762886948544068D+02 0.000000000000000D+00 0.000000000000000D+00 0.762886948544068D+02
 0.762886948544068D+02 0.000000000000000D+00 0.000000000000000D+00 -.762886948544068D+02
 0.666256218474728D+02 0.180424619038705D+02 0.227551173318292D+02 -.331005693338426D+02
 0.307700929484393D+02 -.894025262710438D+01 -.203558145245084D+02 -.212723134158690D+02
 0.551816749129015D+02 -.910220927676608D+01 -.239930280732078D+01 0.543728827497116D+02
 0.000000000000000D+00 -.000000000000000D+00 -.000000000000000D+00 -.000000000000000D+00
 0.842490538307453D+02 0.000000000000000D+00 0.000000000000000D+00 0.842490538307453D+02
 0.102380849052404D+03 0.000000000000000D+00 0.000000000000000D+00 -.102380849052404D+03
 0.713422372424121D+02 0.295912022600743D+02 0.248682100950485D+02 -.331005693338426D+02
 0.290832689917352D+02 -.393016592247096D+01 -.194391103964279D+02 -.212723134158690D+02
 0.543777102116827D+02 0.685707928503785D-01 -.721309502382396D+00 0.543728827497116D+02
 0.318266864373197D+02 -.257296071304538D+02 -.470779019623814D+01 -.181317952216590D+02
0.113750211116D-04 0.000000000000D+00 0.000000000000D+00 0.233065252584D-05 0.418652029705D-05  6 22 1 9900012 11 2 21 2 0.72982547D-02 0.27972935D-01 0.30201828D+04 0.30201828D+04 0.30201828D+04 0.12672741D+01  1  2  1  1  6  2        1 0.228797451263D-02 0.100000000000D+01
  </mgrwgt>
  </event>
  <event>
  6     66 0.94388558E-06 0.19468701E+02 0.78161638E-02 0.13063358E+00
       22 -1    0    0    0    0 0.00000000E+00 0.00000000E+00 0.16726784E+03 0.16726784E+03 0.00000000E+00 0.0000E+00 0.9000E+01
        1 -1    0    0  501    0 0.00000000E+00 0.00000000E+00 -.18158577E+02 0.18158577E+02 0.00000000E+00 0.0000E+00 0.9000E+01
      -24  2    1    2    0    0 0.19067066E+02 0.55891158E+01 0.79507614E+02 0.11304423E+03 0.77863638E+02 0.0000E+00 0.0000E+00
  9900012  1    3    3    0    0 0.17701724E+02 -.14102883E+02 0.74757990E+02 0.92741573E+02 0.50000000E+02 0.0000E+00 0.9000E+01
       11  1    3    3    0    0 0.13653420E+01 0.19691999E+02 0.47496239E+01 0.20302657E+02 0.00000000E+00 0.0000E+00 0.9000E+01
        2  1    1    2  501    0 -.19067066E+02 -.55891158E+01 0.69601650E+02 0.72382186E+02 0.00000000E+00 0.0000E+00 0.9000E+01
#aMCatNLO 1  0  0  2  5 0.35556064D+01 0.00000000D+00  -5  6  0 0.00000000D+00 0.00000000D+00 0.00000000D+00 0.00000000D+00 0.00000000D+00
  <mgrwgt>
 0.3141657019D-04    8    2    0
 0.551121209473612D+02 0.000000000000000D+00 0.000000000000000D+00 0.551121209473612D+02
 0.551121209473612D+02 0.000000000000000D+00 0.000000000000000D+00 -.551121209473612D+02
 0.548847391746465D+02 0.177017242190256D+02 -.141028827368717D+02 0.303730888420473D+00
 0.277292545654309D+02 0.136534195206152D+01 0.196919985366458D+02 -.194749221754838D+02
 0.276102481546449D+02 -.190670661710871D+02 -.558911579977413D+01 0.191711912870634D+02
 0.000000000000000D+00 -.000000000000000D+00 0.000000000000000D+00 0.000000000000000D+00
 0.566183528234434D+02 0.000000000000000D+00 0.000000000000000D+00 0.566183528234434D+02
 0.557563978982254D+02 0.000000000000000D+00 0.000000000000000D+00 -.557563978982254D+02
 0.552225062714908D+02 0.179816741392146D+02 -.150363673007598D+02 0.303730888420473D+00
 0.274066208799228D+02 0.150552604138223D+01 0.192245589196057D+02 -.194749221754838D+02
 0.276123860693706D+02 -.189266614957998D+02 -.605729095406560D+01 0.191711912870634D+02
 0.213323750088460D+01 -.560538684797008D+00 0.186909933521970D+01 0.861954925218069D+00
0.661373660530D-07 0.000000000000D+00 0.000000000000D+00 0.635283253754D-07 0.000000000000D+00  6 22 1 9900012 11 2 21 0 0.25733514D-01 0.27936272D-02 0.22322094D+04 0.22322094D+04 0.22322094D+04 0.12833230D+01  1  2  2  1  6  2        1 0.251859376895D-04 0.100000000000D+01
-.274842934004D-08 0.000000000000D+00 -.126992450006D-09 0.635283253754D-07 0.000000000000D+00  6 22 1 9900012 11 2 21 2 0.25733514D-01 0.27936272D-02 0.22322094D+04 0.22322094D+04 0.22322094D+04 0.12833230D+01  1  2  3  1  6  2        1 -.172372422672D-05 0.100000000000D+01
0.111626294227D-08 0.000000000000D+00 0.000000000000D+00 0.635283253754D-07 0.000000000000D+00  6 22 1 9900012 11 2 21 2 0.25733514D-01 0.27936272D-02 0.22322094D+04 0.22322094D+04 0.22322094D+04 0.12833230D+01  1  2 15  1  6  2        1 0.700083298102D-06 0.100000000000D+01
0.159244842003D-08 0.000000000000D+00 0.000000000000D+00 0.635283253754D-07 0.000000000000D+00  6 22 1 9900012 11 2 21 2 0.25733514D-01 0.29035288D-02 0.23198074D+04 0.23198074D+04 0.23198074D+04 0.12812455D+01  1  2 12  1  6  2        1 0.950494591686D-06 0.100000000000D+01
-.321721769046D-07 0.000000000000D+00 0.000000000000D+00 0.635283253754D-07 0.000000000000D+00  6 22 1 9900012 11 2 21 2 0.25733514D-01 0.27936272D-02 0.22322094D+04 0.22322094D+04 0.22322094D+04 0.12833230D+01  1  2  4  1  6  2        1 -.201773281738D-04 0.100000000000D+01
0.305720080471D-07 0.000000000000D+00 0.000000000000D+00 0.635283253754D-07 0.997472118756D-07  6 22 1 9900012 11 2 21 2 0.26436819D-01 0.28262855D-02 0.23198074D+04 0.23198074D+04 0.23198074D+04 0.12812455D+01  1  2 11  1  6  2        1 0.181608125236D-04 0.100000000000D+01
0.402217809079D-10 0.000000000000D+00 0.000000000000D+00 0.635283253754D-07 0.000000000000D+00  6 22 21 9900012 11 2 -1 2 0.25733514D-01 0.29035288D-02 0.23198074D+04 0.23198074D+04 0.23198074D+04 0.12812455D+01  1  2 12  3  6  2        1 0.381829120577D-06 0.100000000000D+01
0.836269987711D-09 0.000000000000D+00 0.000000000000D+00 0.635283253754D-07 0.321308428087D-09  6 22 21 9900012 11 2 -1 2 0.26436819D-01 0.28262855D-02 0.23198074D+04 0.23198074D+04 0.23198074D+04 0.12812455D+01  1  2 11  3  6  2        1 0.793846536257D-05 0.100000000000D+01
  </mgrwgt>
  </event>
  <event>
  7     66 0.94388558E-06 0.19337105E+02 0.78161638E-02 0.12832484E+00
       22 -1    0    0    0    0 0.00000000E+00 0.00000000E+00 0.10167491E+02 0.10167491E+02 0.00000000E+00 0.0000E+00 0.9000E+01
        3 -1    0    0  502    0 0.00000000E+00 0.00000000E+00 -.42767794E+03 0.42767794E+03 0.00000000E+00 0.0000E+00 0.9000E+01
      -24  2    1    2    0    0 -.25493830E+02 -.90651189E+00 -.29064758E+03 0.30199801E+03 0.77948865E+02 0.0000E+00 0.0000E+00
  9900012  1    3    3    0    0 -.22875204E+02 0.19859049E+02 -.24339787E+03 0.25032015E+03 0.50000000E+02 0.0000E+00 0.9000E+01
       11  1    3    3    0    0 -.26186259E+01 -.20765561E+02 -.47249716E+02 0.51677862E+02 0.00000000E+00 0.0000E+00 0.9000E+01
        4  1    1    2  501    0 0.39004679E+01 -.40969078E+01 0.12816043E+01 0.58000701E+01 0.00000000E+00 0.0000E+00 0.9000E+01
       21  1    1    2  502  501 0.21593362E+02 0.50034196E+01 -.12814447E+03 0.13004734E+03 0.00000000E+00 0.0000E+00 0.9000E+01
#aMCatNLO 2  0  0  2  5 0.37507255D+01 0.00000000D+00  -5  6  0 0.00000000D+00 0.00000000D+00 0.00000000D+00 0.00000000D+00 0.00000000D+00
  <mgrwgt>
 0.4874225596D-05    1    2    0
 0.512730026026433D+02 0.000000000000000D+00 0.000000000000000D+00 0.512730026026433D+02
 0.512730026026433D+02 0.000000000000000D+00 0.000000000000000D+00 -.512730026026433D+02
 0.606792204591973D+02 -.999478480414873D+01 0.228435841518411D+02 -.236694472971460D+02
 0.202196344569062D+02 0.170213854927910D+01 -.197643924679639D+02 0.391217743747109D+01
 0.216471502891831D+02 0.829264625486963D+01 -.307919168387728D+01 0.197572698596749D+02
 0.000000000000000D+00 0.000000000000000D+00 0.000000000000000D+00 -.000000000000000D+00
 0.578726246103109D+02 0.000000000000000D+00 0.000000000000000D+00 0.578726246103109D+02
 0.751376281706707D+02 0.000000000000000D+00 0.000000000000000D+00 -.751376281706707D+02
 0.630705916152446D+02 -.228752039108886D+02 0.198590492566955D+02 -.236694472971460D+02
 0.212925072087033D+02 -.261862585196104D+01 -.207655611428602D+02 0.391217743747109D+01
 0.205511074005915D+02 0.390046791126502D+01 -.409690775534669D+01 0.197572698596749D+02
 0.280960465564422D+02 0.215933618515846D+02 0.500341964151134D+01 -.172650035603598D+02
0.361870440071D-07 0.000000000000D+00 0.000000000000D+00 0.583073802291D-07 0.235729843920D-08  6 22 3 9900012 11 4 21 2 0.15642294D-02 0.65796606D-01 0.28736520D+04 0.28736520D+04 0.28736520D+04 0.12698730D+01  1  2  1  1  6  2        3 0.487422559568D-05 0.100000000000D+01
  </mgrwgt>
  </event>
  <event>
  7     66 0.94388558E-06 0.41491247E+02 0.78161638E-02 0.12443929E+00
       22 -1    0    0    0    0 0.00000000E+00 0.00000000E+00 0.48344263E+02 0.48344263E+02 0.00000000E+00 0.0000E+00 0.9000E+01
       21 -1    0    0  501  502 0.00000000E+00 0.00000000E+00 -.36553146E+03 0.36553146E+03 0.00000000E+00 0.0000E+00 0.9000E+01
      -24  2    1    2    0    0 -.92774288E+00 0.41393130E+02 -.18844061E+03 0.20860648E+03 0.79325577E+02 0.0000E+00 0.0000E+00
  9900012  1    3    3    0    0 -.21894661E+02 0.21048156E+02 -.10497504E+03 0.12017554E+03 0.50000000E+02 0.0000E+00 0.9000E+01
       11  1    3    3    0    0 0.20966918E+02 0.20344974E+02 -.83465573E+02 0.88430942E+02 0.00000000E+00 0.0000E+00 0.9000E+01
        2  1    1    2  501    0 -.12473931E+00 0.20463231E+00 0.35669005E+02 0.35669810E+02 0.00000000E+00 0.0000E+00 0.9000E+01
       -1  1    1    2    0  502 0.10524822E+01 -.41597762E+02 -.16441560E+03 0.16959944E+03 0.00000000E+00 0.0000E+00 0.9000E+01
#aMCatNLO 2  0  0  2  5 0.43984801D+02 0.00000000D+00  -5  6  0 0.00000000D+00 0.00000000D+00 0.00000000D+00 0.00000000D+00 0.00000000D+00
  <mgrwgt>
 0.1712453106D-01    1    2    0
 0.930057254414229D+02 0.000000000000000D+00 0.000000000000000D+00 0.930057254414229D+02
 0.930057254414229D+02 0.000000000000000D+00 0.000000000000000D+00 -.930057254414229D+02
 0.667713139417204D+02 -.215127960600189D+02 0.595553337829179D+01 -.382117729680772D+02
 0.431488195579954D+02 0.212172563411092D+02 0.104507254777700D+02 -.360892089078217D+02
 0.760913173831300D+02 0.295539718909657D+00 -.164062588560618D+02 0.743009818758990D+02
 0.000000000000000D+00 0.000000000000000D+00 -.000000000000000D+00 -.000000000000000D+00
 0.100703538460820D+03 0.000000000000000D+00 0.000000000000000D+00 0.100703538460820D+03
 0.175478929374838D+03 0.000000000000000D+00 0.000000000000000D+00 -.175478929374838D+03
 0.698751788895205D+02 -.218946607448364D+02 0.210481557944426D+02 -.382117729680772D+02
 0.464323229138720D+02 0.209669178653324D+02 0.203449739939398D+02 -.360892089078217D+02
 0.743013683723234D+02 -.124739311711313D+00 0.204632307175892D+00 0.743009818758990D+02
 0.855735976599425D+02 0.105248219121528D+01 -.415977620955583D+02 -.747753909140182D+02
0.478073732203D-04 0.000000000000D+00 0.000000000000D+00 0.177233038702D-05 0.272604385734D-05  6 22 21 9900012 11 2 -1 2 0.74375789D-02 0.56235610D-01 0.41969180D+04 0.41969180D+04 0.41969180D+04 0.12505000D+01  1  2  1  3  6  2        1 0.171245310555D-01 0.100000000000D+01
  </mgrwgt>
  </event>
  <event>
  7     66 0.94388558E-06 0.34565885E+02 0.78161638E-02 0.12113118E+00
       22 -1    0    0    0    0 0.00000000E+00 0.00000000E+00 0.16637759E+03 0.16637759E+03 0.00000000E+00 0.0000E+00 0.9000E+01
        1 -1    0    0  502    0 0.00000000E+00 0.00000000E+00 -.28185986E+03 0.28185986E+03 0.00000000E+00 0.0000E+00 0.9000E+01
      -24  2    1    2    0    0 -.22355427E+02 -.10539543E+02 0.16461072E+02 0.84152135E+02 0.78738605E+02 0.0000E+00 0.0000E+00
  9900012  1    3    3    0    0 -.39044601E+02 -.10581527E+02 0.19461729E+02 0.67195301E+02 0.50000000E+02 0.0000E+00 0.9000E+01
       11  1    3    3    0    0 0.16689174E+02 0.41984123E-01 -.30006570E+01 0.16956834E+02 0.00000000E+00 0.0000E+00 0.9000E+01
        2  1    1    2  501    0 -.11072452E+02 -.22906473E+02 0.11238206E+03 0.11522601E+03 0.00000000E+00 0.0000E+00 0.9000E+01
       21  1    1    2  502  501 0.33427880E+02 0.33446016E+02 -.24432540E+03 0.24885932E+03 0.00000000E+00 0.0000E+00 0.9000E+01
#aMCatNLO 2  0  0  2  5 0.10802059D+02 0.00000000D+00  -5  6  0 0.00000000D+00 0.00000000D+00 0.00000000D+00 0.00000000D+00 0.00000000D+00
  <mgrwgt>
 0.4558075793D-05    1    2    0
 0.723101517734109D+02 0.000000000000000D+00 0.000000000000000D+00 0.723101517734109D+02
 0.723101517734109D+02 0.000000000000000D+00 0.000000000000000D+00 -.723101517734109D+02
 0.638269717539094D+02 -.237938517090689D+02 0.467749646468917D+01 -.313983434426723D+02
 0.299178187353101D+02 0.228479841178876D+02 0.620413571585109D+01 -.182908228258580D+02
 0.508755130576024D+02 0.945867591181287D+00 -.108816321805403D+02 0.496891662685303D+02
 0.000000000000000D+00 0.000000000000000D+00 0.000000000000000D+00 -.000000000000000D+00
 0.771283165480742D+02 0.000000000000000D+00 0.000000000000000D+00 0.771283165480742D+02
 0.608014902798790D+03 0.000000000000000D+00 0.000000000000000D+00 -.608014902798790D+03
 0.715702842353834D+02 -.390446013686334D+02 -.105815272316472D+02 -.313983434426723D+02
 0.247605429510804D+02 0.166891738836521D+02 0.419841230930942D-01 -.182908228258580D+02
 0.558239996195118D+02 -.110724524607766D+02 -.229064725691548D+02 0.496891662685303D+02
 0.532988392540889D+03 0.334278799457578D+02 0.334460156777088D+02 -.530886586250716D+03
0.236723862852D-06 0.000000000000D+00 0.000000000000D+00 0.686422528585D-06 0.471803380696D-08  6 22 1 9900012 11 2 21 2 0.25596553D-01 0.43363056D-01 0.59085090D+04 0.59085090D+04 0.59085090D+04 0.12337663D+01  1  2  1  1  6  2        1 0.455807579285D-05 0.100000000000D+01
  </mgrwgt>
  </event>
  <event>
  6     66 0.94388558E-06 0.15772571E+02 0.78161638E-02 0.13122314E+00
       22 -1    0    0    0    0 0.00000000E+00 0.00000000E+00 0.25015024E+01 0.25015024E+01 0.00000000E+00 0.0000E+00 0.9000E+01
        1 -1    0    0  501    0 0.00000000E+00 0.00000000E+00 -.10959816E+04 0.10959816E+04 0.00000000E+00 0.0000E+00 0.9000E+01
      -24  2    1    2    0    0 -.49137022E+00 0.15764915E+02 -.71213651E+03 0.71681347E+03 0.80214542E+02 0.0000E+00 0.0000E+00
  9900012  1    3    3    0    0 -.17464590E+02 0.25139163E+02 -.42520238E+03 0.42922494E+03 0.50000000E+02 0.0000E+00 0.9000E+01
       11  1    3    3    0    0 0.16973219E+02 -.93742478E+01 -.28693413E+03 0.28758853E+03 0.00000000E+00 0.0000E+00 0.9000E+01
        2  1    1    2  501    0 0.49137022E+00 -.15764915E+02 -.38134360E+03 0.38166964E+03 0.00000000E+00 0.0000E+00 0.9000E+01
#aMCatNLO 1  0  0  2  5 0.80590240D+01 0.00000000D+00  -5  6  0 0.00000000D+00 0.00000000D+00 0.00000000D+00 0.00000000D+00 0.00000000D+00
  <mgrwgt>
 0.1183009589D-03    5    2    0
 0.523602967355144D+02 0.000000000000000D+00 0.000000000000000D+00 0.523602967355144D+02
 0.523602967355144D+02 0.000000000000000D+00 0.000000000000000D+00 -.523602967355144D+02
 0.625092835391491D+02 -.174645895747420D+02 0.251391629973101D+02 0.216891937000484D+02
 0.205726338423118D+02 0.169732193565340D+02 -.937424778308381D+01 -.687506846410701D+01
 0.216386760895680D+02 0.491370218207948D+00 -.157649152142263D+02 -.148141252359414D+02
 0.000000000000000D+00 0.000000000000000D+00 -.000000000000000D+00 -.000000000000000D+00
 0.158024076528978D+03 0.000000000000000D+00 0.000000000000000D+00 0.158024076528978D+03
 0.192891229105067D+03 0.000000000000000D+00 0.000000000000000D+00 -.192891229105067D+03
 0.145490386512843D+03 -.127365771726991D+03 0.444408779918463D+02 0.216891937000484D+02
 0.957165688595267D+01 0.104582300369728D+01 -.657695244024041D+01 -.687506846410701D+01
 0.342888255470338D+02 -.290591504299642D+02 -.105750190154664D+02 -.148141252359414D+02
 0.161564436688215D+03 0.155379099153258D+03 -.272889065361395D+02 -.348671525760888D+02
0.195720809057D-06 0.000000000000D+00 0.000000000000D+00 0.288881120017D-06 0.000000000000D+00  6 22 1 9900012 11 2 21 0 0.38484653D-03 0.16861256D+00 0.21990601D+04 0.21990601D+04 0.21990601D+04 0.12841334D+01  1  2  2  1  6  2        1 0.107007614964D-03 0.100000000000D+01
0.103665293299D-07 0.000000000000D+00 -.375809720627D-09 0.288881120017D-06 0.000000000000D+00  6 22 1 9900012 11 2 21 2 0.38484653D-03 0.16861256D+00 0.21990601D+04 0.21990601D+04 0.21990601D+04 0.12841334D+01  1  2  3  1  6  2        1 0.934612022975D-05 0.100000000000D+01
0.207883746640D-08 0.000000000000D+00 0.000000000000D+00 0.288881120017D-06 0.000000000000D+00  6 22 1 9900012 11 2 21 2 0.38484653D-03 0.16861256D+00 0.21990601D+04 0.21990601D+04 0.21990601D+04 0.12841334D+01  1  2 15  1  6  2        1 0.187421115407D-05 0.100000000000D+01
0.698188191782D-07 0.000000000000D+00 -.493124701177D-07 0.288881120017D-06 0.000000000000D+00  6 22 1 9900012 11 2 21 2 0.38484653D-03 0.78232579D+00 0.21990601D+04 0.21990601D+04 0.21990601D+04 0.12841334D+01  1  2  5  1  6  2        1 0.705096848927D-07 0.100000000000D+01
0.122824057624D-07 0.000000000000D+00 -.917499341894D-08 0.288881120017D-06 0.000000000000D+00  6 22 21 9900012 11 2 -1 2 0.38484653D-03 0.78232579D+00 0.21990601D+04 0.21990601D+04 0.21990601D+04 0.12841334D+01  1  2  5  3  6  2        1 0.250284298356D-08 0.100000000000D+01
  </mgrwgt>
  </event>
  <event>
  7     66 -.94388558E-06 0.40592423E+02 0.78161638E-02 0.12195244E+00
       22 -1    0    0    0    0 0.00000000E+00 0.00000000E+00 0.46963872E+01 0.46963872E+01 0.00000000E+00 0.0000E+00 0.9000E+01
        1 -1    0    0  502    0 0.00000000E+00 0.00000000E+00 -.13495174E+04 0.13495174E+04 0.00000000E+00 0.0000E+00 0.9000E+01
      -24  2    1    2    0    0 0.19076457E+02 -.28026633E+02 -.54724284E+03 0.55418991E+03 0.80637029E+02 0.0000E+00 0.0000E+00
  9900012  1    3    3    0    0 0.34076706E+02 -.35075014E+02 -.40625323E+03 0.41222951E+03 0.50000000E+02 0.0000E+00 0.9000E+01
       11  1    3    3    0    0 -.15000250E+02 0.70483807E+01 -.14098960E+03 0.14196040E+03 0.00000000E+00 0.0000E+00 0.9000E+01
        2  1    1    2  501    0 -.26054095E+02 0.39470371E+02 -.68905770E+03 0.69067883E+03 0.00000000E+00 0.0000E+00 0.9000E+01
       21  1    1    2  502  501 0.69776388E+01 -.11443738E+02 -.10852045E+03 0.10934503E+03 0.00000000E+00 0.0000E+00 0.9000E+01
#aMCatNLO 2  0  0  2  5 0.19365552D+02 0.00000000D+00  -5  6  0 0.00000000D+00 0.00000000D+00 0.00000000D+00 0.00000000D+00 0.00000000D+00
  <mgrwgt>
 -.1869658767D-04    2    2    0
 0.725939127472323D+02 0.000000000000000D+00 0.000000000000000D+00 0.725939127472323D+02
 0.725939127472323D+02 0.000000000000000D+00 0.000000000000000D+00 -.725939127472323D+02
 0.796189439662455D+02 0.377818274852495D+02 -.411516305137436D+02 0.268002435853728D+02
 0.153677916211401D+02 -.142343317997221D+02 0.579223049085336D+01 -.536979239247932D-01
 0.502010899070789D+02 -.235474956855274D+02 0.353594000228902D+02 -.267465456614480D+02
 0.000000000000000D+00 0.000000000000000D+00 -.000000000000000D+00 0.000000000000000D+00
 0.799185007028436D+02 0.000000000000000D+00 0.000000000000000D+00 0.799185007028436D+02
 0.793039917991570D+02 0.000000000000000D+00 0.000000000000000D+00 -.793039917991570D+02
 0.748981410348024D+02 0.340767061063551D+02 -.350750135449004D+02 0.268002435853728D+02
 0.165737757258421D+02 -.150002495883724D+02 0.704838070978095D+01 -.536979239247932D-01
 0.543332657847318D+02 -.260540953673687D+02 0.394703709205074D+02 -.267465456614480D+02
 0.134173099566244D+02 0.697763884938610D+01 -.114437380853879D+02 0.614508903686637D+00
-.889331991714D-07 0.000000000000D+00 0.000000000000D+00 0.263715406083D-06 0.000000000000D+00  6 22 1 9900012 11 2 21 2 0.65630153D-03 0.22856633D+00 0.54177007D+04 0.54177007D+04 0.54177007D+04 0.12379417D+01  1  2 13  1  6  2        1 -.221634397733D-04 0.100000000000D+01
0.128854870992D-07 0.000000000000D+00 0.000000000000D+00 0.263715406083D-06 0.140526998437D-08  6 22 1 9900012 11 2 21 2 0.72252110D-03 0.20761806D+00 0.54177007D+04 0.54177007D+04 0.54177007D+04 0.12379417D+01  1  2  1  1  6  2        1 0.346685210257D-05 0.100000000000D+01
  </mgrwgt>
  </event>
  <event>
  6     66 0.94388558E-06 0.16853938E+02 0.78161638E-02 0.13123417E+00
       22 -1    0    0    0    0 0.00000000E+00 0.00000000E+00 0.10569506E+03 0.10569506E+03 0.00000000E+00 0.0000E+00 0.9000E+01
        3 -1    0    0  501    0 0.00000000E+00 0.00000000E+00 -.52599796E+02 0.52599796E+02 0.00000000E+00 0.0000E+00 0.9000E+01
      -24  2    1    2    0    0 -.19778217E+01 -.16737487E+02 -.19622193E+02 0.83649805E+02 0.79550011E+02 0.0000E+00 0.0000E+00
  9900012  1    3    3    0    0 -.19609749E+02 -.17334970E+01 -.25914389E+02 0.59658217E+02 0.50000000E+02 0.0000E+00 0.9000E+01
       11  1    3    3    0    0 0.17631927E+02 -.15003990E+02 0.62921963E+01 0.23991588E+02 0.00000000E+00 0.0000E+00 0.9000E+01
        4  1    1    2  501    0 0.19778217E+01 0.16737487E+02 0.72717461E+02 0.74645056E+02 0.00000000E+00 0.0000E+00 0.9000E+01
#aMCatNLO 1  0  0  5  2 0.61562386D+01 0.00000000D+00  -5  6  0 0.00000000D+00 0.00000000D+00 0.00000000D+00 0.00000000D+00 0.00000000D+00
  <mgrwgt>
 0.1469591422D-05    1    2    0
 0.745623152850784D+02 0.000000000000000D+00 0.000000000000000D+00 0.745623152850784D+02
 0.745623152850784D+02 -.000000000000000D+00 -.000000000000000D+00 -.745623152850784D+02
 0.725535447325745D+02 -.196097490351774D+02 -.173349696712988D+01 -.487490470091878D+02
 0.232266074633323D+02 0.176319273500923D+02 -.150039896740051D+02 -.186298846994169D+01
 0.533444783742500D+02 0.197782168508502D+01 0.167374866411350D+02 0.506120354791295D+02
 0.000000000000000D+00 0.000000000000000D+00 0.000000000000000D+00 -.000000000000000D+00
 0.745623152850784D+02 0.000000000000000D+00 0.000000000000000D+00 0.745623152850784D+02
 0.745623152850784D+02 -.000000000000000D+00 -.000000000000000D+00 -.745623152850784D+02
 0.683025102367301D+02 -.193582158091844D+02 0.395124658170360D+00 -.423123653537375D+02
 0.227725399369283D+02 0.177140701727139D+02 -.143088489509250D+02 0.239028857621080D+00
 0.458311767301474D+02 -.108638388011301D+01 0.258456054553218D+01 0.457453448705058D+02
 0.122184036663510D+02 0.273052951658345D+01 0.113291637472225D+02 -.367200837438937D+01
0.693191793069D-08 0.000000000000D+00 0.000000000000D+00 0.294350699993D-06 0.000000000000D+00  6 22 3 9900012 11 4 21 2 0.16260779D-01 0.80922763D-02 0.21968725D+04 0.21968725D+04 0.21968725D+04 0.12841874D+01  1  2 14  2  6  5        4 0.146959142219D-05 0.100000000000D+01
  </mgrwgt>
  </event>
  <event>
  6     66 0.94388558E-06 0.17460920E+02 0.78161638E-02 0.12277091E+00
       22 -1    0    0    0    0 0.00000000E+00 0.00000000E+00 0.68458845E+02 0.68458845E+02 0.00000000E+00 0.0000E+00 0.9000E+01
        1 -1    0    0  501    0 -.00000000E+00 -.00000000E+00 -.10453623E+03 0.10453623E+03 0.00000000E+00 0.0000E+00 0.9000E+01
      -24  2    1    2    0    0 0.29461624E+01 0.17210574E+02 -.87357031E+02 0.11882417E+03 0.78632370E+02 0.0000E+00 0.0000E+00
  9900012  1    3    3    0    0 -.15355274E+02 -.11585822E+01 -.44260394E+02 0.68528164E+02 0.50000000E+02 0.0000E+00 0.9000E+01
       11  1    3    3    0    0 0.18301437E+02 0.18369156E+02 -.43096637E+02 0.50296010E+02 0.00000000E+00 0.0000E+00 0.9000E+01
        2  1    1    2  501    0 -.29461624E+01 -.17210574E+02 0.51279650E+02 0.54170898E+02 0.00000000E+00 0.0000E+00 0.9000E+01
#aMCatNLO 1  0  0  5  2 0.53297628D+01 0.00000000D+00  -5  6  0 0.00000000D+00 0.00000000D+00 0.00000000D+00 0.00000000D+00 0.00000000D+00
  <mgrwgt>
 0.1803450335D-04    3    2    0
 0.845956816200267D+02 0.000000000000000D+00 0.000000000000000D+00 0.845956816200267D+02
 0.845956816200267D+02 -.000000000000000D+00 -.000000000000000D+00 -.845956816200267D+02
 0.606309643381782D+02 -.153552744076264D+02 -.115858223495038D+01 -.306428959409646D+02
 0.422370733994016D+02 0.183014368520697D+02 0.183691564871455D+02 -.333406938807053D+02
 0.663233255024737D+02 -.294616244444334D+01 -.172105742521952D+02 0.639835898216699D+02
 0.000000000000000D+00 0.000000000000000D+00 0.000000000000000D+00 0.000000000000000D+00
 0.845956816200267D+02 0.000000000000000D+00 0.000000000000000D+00 0.845956816200267D+02
 0.845956816200267D+02 -.000000000000000D+00 -.000000000000000D+00 -.845956816200267D+02
 0.555171409231049D+02 -.159617324443993D+02 -.470132343457663D+01 -.174720803458774D+02
 0.344230847775795D+02 0.179011619709416D+02 0.160308738252587D+02 -.246476824487247D+02
 0.367332114569455D+02 0.238921226528941D+02 -.254478954984154D+02 0.114411500200578D+02
 0.425179260824236D+02 -.258315521794364D+02 0.141183451077333D+02 0.306786127745443D+02
0.124768187145D-06 0.000000000000D+00 0.000000000000D+00 0.690890077196D-06 0.000000000000D+00  6 22 1 9900012 11 2 21 0 0.10532130D-01 0.16082496D-01 0.22900315D+04 0.22900315D+04 0.22900315D+04 0.12819416D+01  1  2  2  2  6  5        2 0.180278807462D-04 0.100000000000D+01
-.692929840507D-08 0.000000000000D+00 -.239571345427D-09 0.690890077196D-06 0.000000000000D+00  6 22 1 9900012 11 2 21 2 0.10532130D-01 0.16082496D-01 0.22900315D+04 0.22900315D+04 0.22900315D+04 0.12819416D+01  1  2  3  2  6  5        2 -.164538122169D-05 0.100000000000D+01
0.695718858784D-08 0.000000000000D+00 0.000000000000D+00 0.690890077196D-06 0.000000000000D+00  6 22 1 9900012 11 2 21 2 0.10532130D-01 0.16082496D-01 0.22900315D+04 0.22900315D+04 0.22900315D+04 0.12819416D+01  1  2 15  2  6  5        2 0.165200382334D-05 0.100000000000D+01
  </mgrwgt>
  </event>
  <event>
  7     66 -.94388558E-06 0.78822369E+01 0.78161638E-02 0.13100852E+00
       22 -1    0    0    0    0 0.00000000E+00 0.00000000E+00 0.97044156E+03 0.97044156E+03 0.00000000E+00 0.0000E+00 0.9000E+01
        1 -1    0    0  501    0 0.00000000E+00 0.00000000E+00 -.24027542E+02 0.24027542E+02 0.00000000E+00 0.0000E+00 0.9000E+01
      -24  2    1    2    0    0 -.64604012E+01 -.14553631E+02 0.47815816E+02 0.94022620E+02 0.79374781E+02 0.0000E+00 0.0000E+00
  9900012  1    3    3    0    0 -.22641479E+02 -.23353427E+02 0.46359247E+02 0.75546005E+02 0.50000000E+02 0.0000E+00 0.9000E+01
       11  1    3    3    0    0 0.16181078E+02 0.87997966E+01 0.14565691E+01 0.18476615E+02 0.00000000E+00 0.0000E+00 0.9000E+01
        2  1    1    2  502    0 0.50360032E+01 0.36532856E+01 0.86641967E+03 0.86644201E+03 0.00000000E+00 0.0000E+00 0.9000E+01
       21  1    1    2  501  502 0.14243980E+01 0.10900345E+02 0.32178535E+02 0.34004479E+02 0.00000000E+00 0.0000E+00 0.9000E+01
#aMCatNLO 2  0  0  5  2 0.14569157D+02 0.00000000D+00  -5  6  0 0.00000000D+00 0.00000000D+00 0.00000000D+00 0.00000000D+00 0.00000000D+00
  <mgrwgt>
 -.2663768639D-03    2    2    0
 0.152700117030984D+03 0.000000000000000D+00 0.000000000000000D+00 0.152700117030984D+03
 0.152700117030984D+03 -.000000000000000D+00 -.000000000000000D+00 -.152700117030984D+03
 0.105508112529582D+03 -.228186660592615D+02 -.237525848519433D+02 -.868739604351164D+02
 0.575069210068084D+02 0.160846097395306D+02 0.858247915620666D+01 -.545405568796614D+02
 0.142385200525577D+03 0.673405631973092D+01 0.151701056957367D+02 0.141414517314778D+03
 0.000000000000000D+00 0.000000000000000D+00 0.000000000000000D+00 -.000000000000000D+00
 0.152700117030984D+03 0.000000000000000D+00 0.000000000000000D+00 0.152700117030984D+03
 0.152700117030984D+03 -.000000000000000D+00 -.000000000000000D+00 -.152700117030984D+03
 0.102334980356794D+03 -.226414788274833D+02 -.233534273595809D+02 -.831530460758397D+02
 0.556512506747781D+02 0.161810776226578D+02 0.879979661151144D+01 -.525147408660896D+02
 0.136404887402022D+03 0.503600324526916D+01 0.365328558045664D+01 0.136262927764449D+03
 0.110091156283744D+02 0.142439795955633D+01 0.109003451676128D+02 -.595140822519871D+00
-.115296441706D-04 0.000000000000D+00 0.000000000000D+00 0.520294670239D-05 0.000000000000D+00  6 22 1 9900012 11 2 21 2 0.14929870D+00 0.36965450D-02 0.22697042D+04 0.22697042D+04 0.22697042D+04 0.12824227D+01  1  2 13  2  6  5        2 -.227833983301D-03 0.100000000000D+01
-.195100000189D-05 0.000000000000D+00 0.000000000000D+00 0.520294670239D-05 0.000000000000D+00  6 22 1 9900012 11 2 21 2 0.14929870D+00 0.36965450D-02 0.22421426D+04 0.22421426D+04 0.22421426D+04 0.12830829D+01  1  2  8  2  6  5        2 -.385428806024D-04 0.100000000000D+01
  </mgrwgt>
  </event>
  <event>
  6     66 0.94388558E-06 0.23070256E+02 0.78161638E-02 0.11984570E+00
       22 -1    0    0    0    0 0.00000000E+00 0.00000000E+00 0.75778820E+02 0.75778820E+02 0.00000000E+00 0.0000E+00 0.9000E+01
        1 -1    0    0  501    0 0.00000000E+00 0.00000000E+00 -.52751068E+02 0.52751068E+02 0.00000000E+00 0.0000E+00 0.9000E+01
      -24  2    1    2    0    0 -.15264301E+02 -.17298492E+02 -.14896424E+02 0.84139801E+02 0.79532169E+02 0.0000E+00 0.0000E+00
  9900012  1    3    3    0    0 0.29626307E+01 -.50248657E+00 0.76044897E+01 0.50664168E+02 0.50000000E+02 0.0000E+00 0.9000E+01
       11  1    3    3    0    0 -.18226931E+02 -.16796006E+02 -.22500914E+02 0.33475632E+02 0.00000000E+00 0.0000E+00 0.9000E+01
        2  1    1    2  501    0 0.15264301E+02 0.17298492E+02 0.37924177E+02 0.44390088E+02 0.00000000E+00 0.0000E+00 0.9000E+01
#aMCatNLO 1  0  0  2  5 0.11427297D+02 0.00000000D+00  -5  6  0 0.00000000D+00 0.00000000D+00 0.00000000D+00 0.00000000D+00 0.00000000D+00
  <mgrwgt>
 0.6070808419D-04    5    2    0
 0.632251034486709D+02 0.000000000000000D+00 0.000000000000000D+00 0.632251034486709D+02
 0.632251034486709D+02 0.000000000000000D+00 0.000000000000000D+00 -.632251034486709D+02
 0.501125757698528D+02 0.296263069368414D+01 -.502486571508904D+00 -.149685567358168D+01
 0.381238188141077D+02 -.182269313153781D+02 -.167960058238700D+02 -.289672008340455D+02
 0.382138123133812D+02 0.152643006216939D+02 0.172984923953789D+02 0.304640565076272D+02
 0.000000000000000D+00 -.000000000000000D+00 0.000000000000000D+00 -.000000000000000D+00
 0.827827228046120D+02 0.000000000000000D+00 0.000000000000000D+00 0.827827228046120D+02
 0.119142385058404D+03 0.000000000000000D+00 0.000000000000000D+00 -.119142385058404D+03
 0.556412746765731D+02 0.227003321293712D+02 -.885470450904825D+01 -.149685567358168D+01
 0.370611076360615D+02 -.419455684888718D+01 -.227339540751991D+02 -.289672008340455D+02
 0.445796515002983D+02 0.307167183131766D+02 0.107596377753672D+02 0.304640565076272D+02
 0.646430740500835D+02 -.492224935936606D+02 0.208290208088801D+02 -.363596622537924D+02
0.217214438878D-06 0.000000000000D+00 0.000000000000D+00 0.451672195440D-06 0.000000000000D+00  6 22 1 9900012 11 2 21 0 0.11658280D-01 0.81155489D-02 0.23983591D+04 0.23983591D+04 0.23983591D+04 0.12794565D+01  1  2  2  1  6  2        1 0.649672462402D-04 0.100000000000D+01
-.120714611549D-07 0.000000000000D+00 -.417080319584D-09 0.451672195440D-06 0.000000000000D+00  6 22 1 9900012 11 2 21 2 0.11658280D-01 0.81155489D-02 0.23983591D+04 0.23983591D+04 0.23983591D+04 0.12794565D+01  1  2  3  1  6  2        1 -.591039713622D-05 0.100000000000D+01
0.669548193612D-08 0.000000000000D+00 0.000000000000D+00 0.451672195440D-06 0.000000000000D+00  6 22 1 9900012 11 2 21 2 0.11658280D-01 0.81155489D-02 0.23983591D+04 0.23983591D+04 0.23983591D+04 0.12794565D+01  1  2 15  1  6  2        1 0.327822429722D-05 0.100000000000D+01
-.205027414074D-07 0.000000000000D+00 -.509413584802D-07 0.451672195440D-06 0.000000000000D+00  6 22 1 9900012 11 2 21 2 0.11658280D-01 0.19792733D-01 0.23983591D+04 0.23983591D+04 0.23983591D+04 0.12794565D+01  1  2  5  1  6  2        1 -.326862279826D-05 0.100000000000D+01
0.117943379170D-08 0.000000000000D+00 -.498030462961D-08 0.451672195440D-06 0.000000000000D+00  6 22 21 9900012 11 2 -1 2 0.11658280D-01 0.19792733D-01 0.23983591D+04 0.23983591D+04 0.23983591D+04 0.12794565D+01  1  2  5  3  6  2        1 0.164163358710D-05 0.100000000000D+01
  </mgrwgt>
  </event>
  <event>
  7     66 -.94388558E-06 0.20083932E+02 0.78161638E-02 0.13053721E+00
       22 -1    0    0    0    0 0.00000000E+00 0.00000000E+00 0.44364626E+03 0.44364626E+03 0.00000000E+00 0.0000E+00 0.9000E+01
        3 -1    0    0  501    0 0.00000000E+00 0.00000000E+00 -.70949583E+01 0.70949583E+01 0.00000000E+00 0.0000E+00 0.9000E+01
      -24  2    1    2    0    0 0.18537452E+02 0.76525965E+01 0.39243632E+03 0.40054527E+03 0.77640510E+02 0.0000E+00 0.0000E+00
  9900012  1    3    3    0    0 -.36466880E+01 -.15671342E+01 0.32728061E+03 0.33110172E+03 0.50000000E+02 0.0000E+00 0.9000E+01
       11  1    3    3    0    0 0.22184140E+02 0.92197307E+01 0.65155714E+02 0.69443549E+02 0.00000000E+00 0.0000E+00 0.9000E+01
        4  1    1    2  502    0 -.19837075E+02 -.66221550E+01 0.43759002E+02 0.48499616E+02 0.00000000E+00 0.0000E+00 0.9000E+01
       21  1    1    2  501  502 0.12996224E+01 -.10304414E+01 0.35598176E+00 0.16963345E+01 0.00000000E+00 0.0000E+00 0.9000E+01
#aMCatNLO 2  0  0  5  2 0.50385348D+01 0.00000000D+00  -5  6  0 0.00000000D+00 0.00000000D+00 0.00000000D+00 0.00000000D+00 0.00000000D+00
  <mgrwgt>
 -.5089448659D-05    3    2    0
 0.561039369660938D+02 0.000000000000000D+00 0.000000000000000D+00 0.561039369660938D+02
 0.561039369660938D+02 -.000000000000000D+00 -.000000000000000D+00 -.561039369660938D+02
 0.571607085719950D+02 -.258544220939926D+01 -.112903267128733D+01 0.275569842011342D+02
 0.258043059517121D+02 0.226618313215408D+02 0.941693017276430D+01 -.797653013063194D+01
 0.292428594084804D+02 -.200763891121416D+02 -.828789750147695D+01 -.195804540705023D+02
 0.000000000000000D+00 0.000000000000000D+00 0.000000000000000D+00 -.000000000000000D+00
 0.561039369660938D+02 0.000000000000000D+00 0.000000000000000D+00 0.561039369660938D+02
 0.561039369660938D+02 -.000000000000000D+00 -.000000000000000D+00 -.561039369660938D+02
 0.567377147116611D+02 -.364668804435745D+01 -.156713419715802D+01 0.265219536877864D+02
 0.254639743327512D+02 0.221841403461192D+02 0.921973067540644D+01 -.844242099137841D+01
 0.245769437997890D+02 -.198370746594840D+02 -.662215503445684D+01 -.129098295183035D+02
 0.542924108798627D+01 0.129962235772227D+01 -.103044144379158D+01 -.516970317810447D+01
-.275720562761D-07 0.000000000000D+00 0.000000000000D+00 0.574340593492D-07 0.000000000000D+00  6 22 3 9900012 11 4 21 2 0.68253271D-01 0.10915320D-02 0.23402760D+04 0.23402760D+04 0.23402760D+04 0.12807728D+01  1  2 13  2  6  5        4 -.113923956445D-04 0.100000000000D+01
-.166064278773D-10 0.000000000000D+00 0.000000000000D+00 0.574340593492D-07 0.000000000000D+00  6 22 3 9900012 11 4 21 2 0.68253271D-01 0.10915320D-02 0.23203427D+04 0.23203427D+04 0.23203427D+04 0.12812331D+01  1  2  8  2  6  5        4 -.685775236837D-08 0.100000000000D+01
0.152710893089D-07 0.000000000000D+00 0.000000000000D+00 0.574340593492D-07 0.111478143857D-06  6 22 3 9900012 11 4 21 2 0.68253271D-01 0.10915320D-02 0.23402760D+04 0.23402760D+04 0.23402760D+04 0.12807728D+01  1  2  1  2  6  5        4 0.630980473811D-05 0.100000000000D+01
  </mgrwgt>
  </event>
  <event>
  7     66 -.94388558E-06 0.10334188E+02 0.78161638E-02 0.13119238E+00
       22 -1    0    0    0    0 0.00000000E+00 0.00000000E+00 0.95761635E+01 0.95761635E+01 0.00000000E+00 0.0000E+00 0.9000E+01
        1 -1    0    0  501    0 -.00000000E+00 -.00000000E+00 -.29547633E+03 0.29547633E+03 0.00000000E+00 0.0000E+00 0.9000E+01
      -24  2    1    2    0    0 -.15058787E+01 0.13010406E+02 -.24651961E+03 0.25920324E+03 0.79011784E+02 0.0000E+00 0.0000E+00
  9900012  1    3    3    0    0 -.11603098E+02 0.26368964E+02 -.14081069E+03 0.15217623E+03 0.50000000E+02 0.0000E+00 0.9000E+01
       11  1    3    3    0    0 0.10097219E+02 -.13358558E+02 -.10570892E+03 0.10702701E+03 0.00000000E+00 0.0000E+00 0.9000E+01
        2  1    1    2  502    0 0.87090532E+01 -.11047059E+02 -.33538854E+02 0.36369491E+02 0.00000000E+00 0.0000E+00 0.9000E+01
       21  1    1    2  501  502 -.72031746E+01 -.19633470E+01 -.58417012E+01 0.94797642E+01 0.00000000E+00 0.0000E+00 0.9000E+01
#aMCatNLO 2  0  0  5  2 0.96910470D+01 0.00000000D+00  -5  6  0 0.00000000D+00 0.00000000D+00 0.00000000D+00 0.00000000D+00 0.00000000D+00
  <mgrwgt>
 -.3151024963D-04    1    2    0
 0.531933234142559D+02 0.000000000000000D+00 0.000000000000000D+00 0.531933234142559D+02
 0.531933234142559D+02 -.000000000000000D+00 -.000000000000000D+00 -.531933234142559D+02
 0.597919331149614D+02 -.120720040725325D+02 0.304201957133709D+02 0.198838528886854D+01
 0.227418299012211D+02 0.991579292236927D+01 -.117910840610678D+02 -.167283655699413D+02
 0.238528838123292D+02 0.215621115016321D+01 -.186291116523031D+02 0.147399802810728D+02
 0.000000000000000D+00 -.000000000000000D+00 0.000000000000000D+00 0.000000000000000D+00
 0.531933234142559D+02 0.000000000000000D+00 0.000000000000000D+00 0.531933234142559D+02
 0.531933234142559D+02 -.000000000000000D+00 -.000000000000000D+00 -.531933234142559D+02
 0.579390219917105D+02 -.116030975792796D+02 0.263689638028797D+02 0.519385635958979D+01
 0.228098003696399D+02 0.100972189134598D+02 -.133585581205537D+02 -.154881273256738D+02
 0.141544063908647D+02 0.870905324658845D+01 -.110470586984713D+02 0.156910991914790D+01
 0.114834180762966D+02 -.720317458076867D+01 -.196334698385459D+01 0.872516104693613D+01
-.331668441455D-07 0.000000000000D+00 0.000000000000D+00 0.162667977793D-06 0.000000000000D+00  6 22 1 9900012 11 2 21 2 0.14732559D-02 0.45457897D-01 0.23032401D+04 0.23032401D+04 0.23032401D+04 0.12816315D+01  1  2 13  2  6  5        2 -.315102496303D-04 0.100000000000D+01
  </mgrwgt>
  </event>
  <event>
  6     66 0.94388558E-06 0.16056122E+02 0.78161638E-02 0.13109382E+00
       22 -1    0    0    0    0 0.00000000E+00 0.00000000E+00 0.61563851E+02 0.61563851E+02 0.00000000E+00 0.0000E+00 0.9000E+01
        1 -1    0    0  501    0 0.00000000E+00 0.00000000E+00 -.47893677E+02 0.47893677E+02 0.00000000E+00 0.0000E+00 0.9000E+01
      -24  2    1    2    0    0 0.78378533E+00 0.16036980E+02 -.95681169E+01 0.81211870E+02 0.79031765E+02 0.0000E+00 0.0000E+00
  9900012  1    3    3    0    0 0.15166696E+01 -.44415473E+01 0.11819552E+02 0.51591951E+02 0.50000000E+02 0.0000E+00 0.9000E+01
       11  1    3    3    0    0 -.73288425E+00 0.20478528E+02 -.21387669E+02 0.29619919E+02 0.00000000E+00 0.0000E+00 0.9000E+01
        2  1    1    2  501    0 -.78378533E+00 -.16036980E+02 0.23238291E+02 0.28245658E+02 0.00000000E+00 0.0000E+00 0.9000E+01
#aMCatNLO 1  0  0  2  5 0.12409298D+02 0.00000000D+00  -5  6  0 0.00000000D+00 0.00000000D+00 0.00000000D+00 0.00000000D+00 0.00000000D+00
  <mgrwgt>
 0.1027276015D-03    6    2    0
 0.543002691000444D+02 0.000000000000000D+00 0.000000000000000D+00 0.543002691000444D+02
 0.543002691000444D+02 0.000000000000000D+00 0.000000000000000D+00 -.543002691000444D+02
 0.505112795812552D+02 0.151666957892937D+01 -.444154730847206D+01 0.541864704798967D+01
 0.325458448032703D+02 -.732884251213747D+00 0.204785277667761D+02 -.252848728519299D+02
 0.255434138155633D+02 -.783785327715625D+00 -.160369804583040D+02 0.198662258039402D+02
 0.000000000000000D+00 -.000000000000000D+00 -.000000000000000D+00 0.000000000000000D+00
 0.595727289343617D+02 0.000000000000000D+00 0.000000000000000D+00 0.595727289343617D+02
 0.569670978377628D+02 0.000000000000000D+00 0.000000000000000D+00 -.569670978377628D+02
 0.505304888878903D+02 0.423493551550520D+01 -.245639829792104D+01 0.541864704798967D+01
 0.333842528701757D+02 0.104079352002965D+01 0.217738442497010D+02 -.252848728519299D+02
 0.249271001712984D+02 0.573992560087809D+00 -.150453955680057D+02 0.198662258039402D+02
 0.769798484276003D+01 -.584972159562266D+01 -.427205038377425D+01 0.260563109659891D+01
0.129042626983D-06 0.000000000000D+00 0.000000000000D+00 0.311367916725D-06 0.000000000000D+00  6 22 1 9900012 11 2 21 0 0.94713617D-02 0.73682580D-02 0.18821521D+04 0.18821521D+04 0.18821521D+04 0.12926601D+01  1  2  2  1  6  2        1 0.567609925690D-04 0.100000000000D+01
-.532706687543D-08 0.000000000000D+00 -.247778832659D-09 0.311367916725D-06 0.000000000000D+00  6 22 1 9900012 11 2 21 2 0.94713617D-02 0.73682580D-02 0.18821521D+04 0.18821521D+04 0.18821521D+04 0.12926601D+01  1  2  3  1  6  2        1 -.391537721654D-05 0.100000000000D+01
0.606065001919D-08 0.000000000000D+00 0.000000000000D+00 0.311367916725D-06 0.000000000000D+00  6 22 1 9900012 11 2 21 2 0.94713617D-02 0.73682580D-02 0.18821521D+04 0.18821521D+04 0.18821521D+04 0.12926601D+01  1  2 15  1  6  2        1 0.445455849485D-05 0.100000000000D+01
0.733301299867D-07 0.000000000000D+00 0.000000000000D+00 0.311367916725D-06 0.000000000000D+00  6 22 1 9900012 11 2 21 2 0.94713617D-02 0.84807147D-02 0.22249030D+04 0.22249030D+04 0.22249030D+04 0.12835005D+01  1  2 12  1  6  2        1 0.452708126548D-04 0.100000000000D+01
-.162075273120D-07 0.000000000000D+00 0.000000000000D+00 0.311367916725D-06 0.000000000000D+00  6 22 1 9900012 11 2 21 2 0.94713617D-02 0.73682580D-02 0.18821521D+04 0.18821521D+04 0.18821521D+04 0.12926601D+01  1  2  4  1  6  2        1 -.119124810440D-04 0.100000000000D+01
0.158699618984D-08 0.000000000000D+00 0.000000000000D+00 0.311367916725D-06 0.000000000000D+00  6 22 21 9900012 11 2 -1 2 0.94713617D-02 0.84807147D-02 0.22249030D+04 0.22249030D+04 0.22249030D+04 0.12835005D+01  1  2 12  3  6  2        1 0.120690960478D-04 0.100000000000D+01
  </mgrwgt>
  </event>
  <event>
  6     66 0.94388558E-06 0.11088683E+03 0.78161638E-02 0.11008224E+00
       22 -1    0    0    0    0 0.00000000E+00 0.00000000E+00 0.22362260E+03 0.22362260E+03 0.00000000E+00 0.0000E+00 0.9000E+01
        1 -1    0    0  501    0 0.00000000E+00 0.00000000E+00 -.12309178E+03 0.12309178E+03 0.00000000E+00 0.0000E+00 0.9000E+01
      -24  2    1    2    0    0 0.10623545E+03 -.31779236E+02 0.16803882E+03 0.21689442E+03 0.80686148E+02 0.0000E+00 0.0000E+00
  9900012  1    3    3    0    0 0.10364805E+03 -.14245502E+02 0.12580704E+03 0.17109431E+03 0.50000000E+02 0.0000E+00 0.9000E+01
       11  1    3    3    0    0 0.25873964E+01 -.17533734E+02 0.42231788E+02 0.45800113E+02 0.00000000E+00 0.0000E+00 0.9000E+01
        2  1    1    2  501    0 -.10623545E+03 0.31779236E+02 -.67508005E+02 0.12981995E+03 0.00000000E+00 0.0000E+00 0.9000E+01
#aMCatNLO 1  0  0  5  5 0.10386836D+03 0.00000000D+00  -5  6  0 0.00000000D+00 0.00000000D+00 0.00000000D+00 0.00000000D+00 0.00000000D+00
  <mgrwgt>
 0.2845124211D-04    3    2    0
 0.165909925796957D+03 0.000000000000000D+00 0.000000000000000D+00 0.165909925796957D+03
 0.165909925796957D+03 -.000000000000000D+00 -.000000000000000D+00 -.165909925796957D+03
 0.140658771522731D+03 0.103648050012963D+03 -.142455023688294D+02 0.796180720505964D+02
 0.350610774633656D+02 0.258739644213757D+01 -.175337341094478D+02 0.302514908842940D+02
 0.156100002607817D+03 -.106235446455100D+03 0.317792364782772D+02 -.109869562934890D+03
 0.000000000000000D+00 0.000000000000000D+00 0.000000000000000D+00 0.000000000000000D+00
 0.165909925796957D+03 0.000000000000000D+00 0.000000000000000D+00 0.165909925796957D+03
 0.165909925796957D+03 -.000000000000000D+00 -.000000000000000D+00 -.165909925796957D+03
 0.848614332720448D+02 0.595361435544130D+02 -.104988119311972D+01 0.339971795467560D+02
 0.246938304314794D+02 -.910070445283695D+01 -.140373594556232D+02 0.181635618575873D+02
 0.125703894081576D+03 -.696159269333259D+02 -.778630909196484D+02 -.699459132253233D+02
 0.965606938088141D+02 0.191804878317498D+02 0.929503315683912D+02 0.177851718209800D+02
0.122628384827D-05 0.000000000000D+00 0.000000000000D+00 0.129219874863D-05 0.000000000000D+00  6 22 1 9900012 11 2 21 0 0.34403477D-01 0.18937197D-01 0.14953218D+05 0.14953218D+05 0.14953218D+05 0.11916238D+01  1  2  2  2  6  5        2 0.293321170415D-04 0.100000000000D+01
-.803644811045D-08 0.000000000000D+00 -.235462643266D-08 0.129219874863D-05 0.000000000000D+00  6 22 1 9900012 11 2 21 2 0.34403477D-01 0.18937197D-01 0.14953218D+05 0.14953218D+05 0.14953218D+05 0.11916238D+01  1  2  3  2  6  5        2 -.272957390567D-06 0.100000000000D+01
-.178983897366D-07 0.000000000000D+00 0.000000000000D+00 0.129219874863D-05 0.000000000000D+00  6 22 1 9900012 11 2 21 2 0.34403477D-01 0.18937197D-01 0.14953218D+05 0.14953218D+05 0.14953218D+05 0.11916238D+01  1  2 15  2  6  5        2 -.607917539033D-06 0.100000000000D+01
  </mgrwgt>
  </event>
  <event>
  6     66 0.94388558E-06 0.25050551E+02 0.78161638E-02 0.12776491E+00
       22 -1    0    0    0    0 0.00000000E+00 0.00000000E+00 0.51494959E+01 0.51494959E+01 0.00000000E+00 0.0000E+00 0.9000E+01
        1 -1    0    0  501    0 -.00000000E+00 -.00000000E+00 -.78671250E+03 0.78671250E+03 0.00000000E+00 0.0000E+00 0.9000E+01
      -24  2    1    2    0    0 -.24322322E+02 -.59962305E+01 -.35807221E+03 0.36763094E+03 0.79430948E+02 0.0000E+00 0.0000E+00
  9900012  1    3    3    0    0 -.40771032E+02 -.93378136E+01 -.25496732E+03 0.26316877E+03 0.50000000E+02 0.0000E+00 0.9000E+01
       11  1    3    3    0    0 0.16448710E+02 0.33415831E+01 -.10310489E+03 0.10446217E+03 0.00000000E+00 0.0000E+00 0.9000E+01
        2  1    1    2  501    0 0.24322322E+02 0.59962305E+01 -.42349079E+03 0.42423105E+03 0.00000000E+00 0.0000E+00 0.9000E+01
#aMCatNLO 1  0  0  5  2 0.59903642D+01 0.00000000D+00  -5  6  0 0.00000000D+00 0.00000000D+00 0.00000000D+00 0.00000000D+00 0.00000000D+00
  <mgrwgt>
 0.2246892199D-03    6    2    0
 0.636488239653408D+02 0.000000000000000D+00 0.000000000000000D+00 0.636488239653408D+02
 0.636488239653408D+02 -.000000000000000D+00 -.000000000000000D+00 -.636488239653408D+02
 0.716457060557499D+02 -.407710322005892D+02 -.933781363374190D+01 0.297260048790103D+02
 0.167847050866898D+02 0.164487104458636D+02 0.334158312825183D+01 -.846830987496682D-02
 0.388672367882419D+02 0.243223217547256D+02 0.599623050549008D+01 -.297175365691353D+02
 0.000000000000000D+00 0.000000000000000D+00 -.000000000000000D+00 0.000000000000000D+00
 0.636488239653408D+02 0.000000000000000D+00 0.000000000000000D+00 0.636488239653408D+02
 0.636488239653408D+02 -.000000000000000D+00 -.000000000000000D+00 -.636488239653408D+02
 0.698934610798502D+02 -.391677716620368D+02 -.894255861465031D+01 0.277671066223081D+02
 0.171873734293568D+02 0.168335233142705D+02 0.343645181240606D+01 -.478640960515735D+00
 0.354521621390521D+02 0.220367651729813D+02 0.100507478446411D+02 -.258885930248818D+02
 0.476465128242241D+01 0.297483174785048D+00 -.454464104239690D+01 -.139987263691057D+01
0.240349657675D-06 0.000000000000D+00 0.000000000000D+00 0.360772221810D-06 0.000000000000D+00  6 22 1 9900012 11 2 21 0 0.79223014D-03 0.12103269D+00 0.28634928D+04 0.28634928D+04 0.28634928D+04 0.12700587D+01  1  2  2  2  6  5        2 0.892766272521D-04 0.100000000000D+01
0.899488100721D-08 0.000000000000D+00 -.461502985496D-09 0.360772221810D-06 0.000000000000D+00  6 22 1 9900012 11 2 21 2 0.79223014D-03 0.12103269D+00 0.28634928D+04 0.28634928D+04 0.28634928D+04 0.12700587D+01  1  2  3  2  6  5        2 0.538936122111D-05 0.100000000000D+01
-.391841134313D-08 0.000000000000D+00 0.000000000000D+00 0.360772221810D-06 0.000000000000D+00  6 22 1 9900012 11 2 21 2 0.79223014D-03 0.12103269D+00 0.28634928D+04 0.28634928D+04 0.28634928D+04 0.12700587D+01  1  2 15  2  6  5        2 -.234775025085D-05 0.100000000000D+01
0.271250450910D-06 0.000000000000D+00 0.000000000000D+00 0.360772221810D-06 0.000000000000D+00  6 22 1 9900012 11 2 21 2 0.79223014D-03 0.12103269D+00 0.30303252D+04 0.30303252D+04 0.30303252D+04 0.12670995D+01  1  2 12  2  6  5        2 0.162628188397D-03 0.100000000000D+01
-.673244299034D-07 0.000000000000D+00 0.000000000000D+00 0.360772221810D-06 0.000000000000D+00  6 22 1 9900012 11 2 21 2 0.79223014D-03 0.12103269D+00 0.28634928D+04 0.28634928D+04 0.28634928D+04 0.12700587D+01  1  2  4  2  6  5        2 -.403380179753D-04 0.100000000000D+01
0.168139645609D-07 0.000000000000D+00 0.000000000000D+00 0.360772221810D-06 0.219303715129D-07  6 22 1 9900012 11 2 21 2 0.79223014D-03 0.12103269D+00 0.30303252D+04 0.30303252D+04 0.30303252D+04 0.12670995D+01  1  2 11  2  6  5        2 0.100808112470D-04 0.100000000000D+01
  </mgrwgt>
  </event>
  <event>
  6     66 0.94388558E-06 0.10846744E+03 0.78161638E-02 0.10365714E+00
       22 -1    0    0    0    0 0.00000000E+00 0.00000000E+00 0.98465570E+02 0.98465570E+02 0.00000000E+00 0.0000E+00 0.9000E+01
        1 -1    0    0  501    0 0.00000000E+00 0.00000000E+00 -.39682700E+03 0.39682700E+03 0.00000000E+00 0.0000E+00 0.9000E+01
      -24  2    1    2    0    0 0.17747550E+03 -.60085261E+02 -.11914739E+03 0.23601383E+03 0.79991469E+02 0.0000E+00 0.0000E+00
  9900012  1    3    3    0    0 0.10582598E+03 -.37638277E+02 -.46231162E+02 0.13135105E+03 0.50000000E+02 0.0000E+00 0.9000E+01
       11  1    3    3    0    0 0.71649520E+02 -.22446984E+02 -.72916232E+02 0.10466278E+03 0.00000000E+00 0.0000E+00 0.9000E+01
        2  1    1    2  501    0 -.17747550E+03 0.60085261E+02 -.17921404E+03 0.25927874E+03 0.00000000E+00 0.0000E+00 0.9000E+01
#aMCatNLO 1  0  0  2  5 0.12843723D+03 0.00000000D+00  -5  6  0 0.00000000D+00 0.00000000D+00 0.00000000D+00 0.00000000D+00 0.00000000D+00
  <mgrwgt>
 0.4905838042D-04    6    2    0
 0.197670930290119D+03 0.000000000000000D+00 0.000000000000000D+00 0.197670930290119D+03
 0.197670930290119D+03 0.000000000000000D+00 0.000000000000000D+00 -.197670930290119D+03
 0.129669052273179D+03 0.105825982253960D+03 -.376382773371162D+02 0.412102496534924D+02
 0.760944123189618D+02 0.716495203127282D+02 -.224469841068157D+02 -.123627961898788D+02
 0.189578395988097D+03 -.177475502566688D+03 0.600852614439318D+02 -.288474534636136D+02
 0.000000000000000D+00 -.000000000000000D+00 -.000000000000000D+00 0.000000000000000D+00
 0.260612169002692D+03 0.000000000000000D+00 0.000000000000000D+00 0.260612169002692D+03
 0.218419170950117D+03 0.000000000000000D+00 0.000000000000000D+00 -.218419170950117D+03
 0.135135411706439D+03 0.117083199507701D+03 -.188366454976879D+02 0.412102496534924D+02
 0.800681800709826D+02 0.782882159110631D+02 -.113591363980534D+02 -.123627961898788D+02
 0.185590605046100D+03 -.161526530679886D+03 0.867229900116571D+02 -.288474534636136D+02
 0.782371431292873D+02 -.338448847388778D+02 -.565272081159157D+02 0.421929980525751D+02
0.267904516744D-05 0.000000000000D+00 0.000000000000D+00 0.467831331028D-06 0.000000000000D+00  6 22 1 9900012 11 2 21 0 0.15148549D-01 0.61050308D-01 0.37133368D+05 0.37133368D+05 0.37133368D+05 0.11543778D+01  1  2  2  1  6  2        1 0.529937179907D-04 0.100000000000D+01
-.104673034528D-06 0.000000000000D+00 -.514411942588D-08 0.467831331028D-06 0.000000000000D+00  6 22 1 9900012 11 2 21 2 0.15148549D-01 0.61050308D-01 0.37133368D+05 0.37133368D+05 0.37133368D+05 0.11543778D+01  1  2  3  1  6  2        1 -.275914852055D-05 0.100000000000D+01
0.162446398409D-07 0.000000000000D+00 0.000000000000D+00 0.467831331028D-06 0.000000000000D+00  6 22 1 9900012 11 2 21 2 0.15148549D-01 0.61050308D-01 0.37133368D+05 0.37133368D+05 0.37133368D+05 0.11543778D+01  1  2 15  1  6  2        1 0.428203636072D-06 0.100000000000D+01
0.156360945282D-06 0.000000000000D+00 0.000000000000D+00 0.467831331028D-06 0.000000000000D+00  6 22 1 9900012 11 2 21 2 0.15148549D-01 0.88938068D-01 0.52218225D+05 0.52218225D+05 0.52218225D+05 0.11413124D+01  1  2 12  1  6  2        1 0.245754081266D-05 0.100000000000D+01
-.165226054883D-06 0.000000000000D+00 0.000000000000D+00 0.467831331028D-06 0.000000000000D+00  6 22 1 9900012 11 2 21 2 0.15148549D-01 0.61050308D-01 0.37133368D+05 0.37133368D+05 0.37133368D+05 0.11543778D+01  1  2  4  1  6  2        1 -.435530723782D-05 0.100000000000D+01
0.711740997797D-08 0.000000000000D+00 0.000000000000D+00 0.467831331028D-06 0.000000000000D+00  6 22 21 9900012 11 2 -1 2 0.15148549D-01 0.88938068D-01 0.52218225D+05 0.52218225D+05 0.52218225D+05 0.11413124D+01  1  2 12  3  6  2        1 0.293373734733D-06 0.100000000000D+01
  </mgrwgt>
  </event>
  <event>
  6     66 0.94388558E-06 0.23587798E+02 0.78161638E-02 0.12785862E+00
       22 -1    0    0    0    0 0.00000000E+00 0.00000000E+00 0.90419948E+03 0.90419948E+03 0.00000000E+00 0.0000E+00 0.9000E+01
        3 -1    0    0  501    0 0.00000000E+00 0.00000000E+00 -.37679097E+01 0.37679097E+01 0.00000000E+00 0.0000E+00 0.9000E+01
      -24  2    1    2    0    0 0.59071224E+01 0.29799623E+02 0.52887364E+03 0.53516958E+03 0.76001581E+02 0.0000E+00 0.0000E+00
  9900012  1    3    3    0    0 -.15145031E+02 0.23219133E+02 0.43492812E+03 0.43866954E+03 0.50000000E+02 0.0000E+00 0.9000E+01
       11  1    3    3    0    0 0.21052153E+02 0.65804903E+01 0.93945525E+02 0.96500039E+02 0.00000000E+00 0.0000E+00 0.9000E+01
        4  1    1    2  501    0 -.59071224E+01 -.29799623E+02 0.37155793E+03 0.37279781E+03 0.00000000E+00 0.0000E+00 0.9000E+01
#aMCatNLO 1  0  0  2  5 0.12843723D+03 0.00000000D+00  -5  6  0 0.00000000D+00 0.00000000D+00 0.00000000D+00 0.00000000D+00 0.00000000D+00
  <mgrwgt>
 0.7119361088D-06    1    2    0
 0.583690159905265D+02 0.000000000000000D+00 0.000000000000000D+00 0.583690159905265D+02
 0.583690159905265D+02 0.000000000000000D+00 0.000000000000000D+00 -.583690159905265D+02
 0.571761533780486D+02 -.151450306166845D+02 0.232191327121667D+02 -.782584707632800D+00
 0.259330446456052D+02 0.210521530337918D+02 0.658049030064698D+01 -.136391643672131D+02
 0.336288339573992D+02 -.590712241710723D+01 -.297996230128137D+02 0.144217490748459D+02
 0.000000000000000D+00 0.000000000000000D+00 -.000000000000000D+00 -.000000000000000D+00
 0.591191791876343D+02 0.000000000000000D+00 0.000000000000000D+00 0.591191791876343D+02
 0.100315507244604D+03 0.000000000000000D+00 0.000000000000000D+00 -.100315507244604D+03
 0.596423509883018D+02 -.174047385385613D+02 0.274530994423486D+02 -.782584707632800D+00
 0.256827131081250D+02 0.200537107294459D+02 0.845125043636203D+01 -.136391643672131D+02
 0.318076964683586D+02 -.717291029022959D+01 -.274279431641115D+02 0.144217490748459D+02
 0.423019258674532D+02 0.452393809934504D+01 -.847640671459910D+01 -.411963280569701D+02
0.276478223038D-08 0.000000000000D+00 0.000000000000D+00 0.118101741671D-07 0.000000000000D+00  6 22 3 9900012 11 4 21 2 0.13910761D+00 0.57967842D-03 0.30034188D+04 0.30034188D+04 0.30034188D+04 0.12675641D+01  1  2 14  1  6  2        3 0.711936108758D-06 0.100000000000D+01
  </mgrwgt>
  </event>
  <event>
  6     66 0.94388558E-06 0.42785267E+02 0.78161638E-02 0.11570339E+00
       22 -1    0    0    0    0 0.00000000E+00 0.00000000E+00 0.18148340E+03 0.18148340E+03 0.00000000E+00 0.0000E+00 0.9000E+01
        1 -1    0    0  501    0 0.00000000E+00 0.00000000E+00 -.20577107E+03 0.20577107E+03 0.00000000E+00 0.0000E+00 0.9000E+01
      -24  2    1    2    0    0 -.40791775E+02 -.61493544E+02 -.18370343E+03 0.21158771E+03 0.74679221E+02 0.0000E+00 0.0000E+00
  9900012  1    3    3    0    0 -.18792407E+02 -.49514325E+02 -.96766286E+02 0.12111374E+03 0.50000000E+02 0.0000E+00 0.9000E+01
       11  1    3    3    0    0 -.21999369E+02 -.11979219E+02 -.86937143E+02 0.90473979E+02 0.00000000E+00 0.0000E+00 0.9000E+01
        2  1    1    2  501    0 0.40791775E+02 0.61493544E+02 0.15941576E+03 0.17566676E+03 0.00000000E+00 0.0000E+00 0.9000E+01
#aMCatNLO 1  0  0  2  5 0.40325228D+02 0.00000000D+00  -5  6  0 0.00000000D+00 0.00000000D+00 0.00000000D+00 0.00000000D+00 0.00000000D+00
  <mgrwgt>
 0.3004954157D-04    9    2    0
 0.193246044436153D+03 0.000000000000000D+00 0.000000000000000D+00 0.193246044436153D+03
 0.193246044436153D+03 0.000000000000000D+00 0.000000000000000D+00 -.193246044436153D+03
 0.115271720837763D+03 -.187924067601637D+02 -.495143250026790D+02 -.893462181213552D+02
 0.851892010486191D+02 -.219993686312772D+02 -.119792190726218D+02 -.814231297945329D+02
 0.186031166985923D+03 0.407917753914409D+02 0.614935440753008D+02 0.170769347915888D+03
 0.000000000000000D+00 0.000000000000000D+00 -.000000000000000D+00 -.000000000000000D+00
 0.206342618113499D+03 0.000000000000000D+00 0.000000000000000D+00 0.206342618113499D+03
 0.213603116797468D+03 0.000000000000000D+00 0.000000000000000D+00 -.213603116797468D+03
 0.113876155479878D+03 -.253340598944165D+02 -.429327090171899D+02 -.893462181213552D+02
 0.860379291570307D+02 -.268875155824024D+02 -.706121051229476D+01 -.814231297945329D+02
 0.187847729706434D+03 0.301183792610389D+02 0.722321438068401D+02 0.170769347915888D+03
 0.321839205676242D+02 0.221031962157801D+02 -.222382242773554D+02 -.726049868396869D+01
0.199111672684D-05 0.000000000000D+00 0.000000000000D+00 0.326511546639D-07 0.000000000000D+00  6 22 1 9900012 11 2 21 0 0.27920523D-01 0.31657088D-01 0.73682281D+04 0.73682281D+04 0.73682281D+04 0.12233315D+01  1  2  2  1  6  2        1 0.330169987318D-04 0.100000000000D+01
-.696102642544D-07 0.000000000000D+00 -.382320625207D-08 0.326511546639D-07 0.000000000000D+00  6 22 1 9900012 11 2 21 2 0.27920523D-01 0.31657088D-01 0.73682281D+04 0.73682281D+04 0.73682281D+04 0.12233315D+01  1  2  3  1  6  2        1 -.172743806198D-05 0.100000000000D+01
0.611102476913D-07 0.000000000000D+00 0.000000000000D+00 0.326511546639D-07 0.000000000000D+00  6 22 1 9900012 11 2 21 2 0.27920523D-01 0.31657088D-01 0.73682281D+04 0.73682281D+04 0.73682281D+04 0.12233315D+01  1  2 15  1  6  2        1 0.151650290327D-05 0.100000000000D+01
0.113163125396D-05 0.000000000000D+00 0.000000000000D+00 0.326511546639D-07 0.000000000000D+00  6 22 1 9900012 11 2 21 2 0.27920523D-01 0.37363388D-01 0.10817884D+05 0.10817884D+05 0.10817884D+05 0.12058075D+01  1  2 12  1  6  2        1 0.227328365009D-04 0.100000000000D+01
-.160109620632D-05 0.000000000000D+00 0.000000000000D+00 0.326511546639D-07 0.000000000000D+00  6 22 1 9900012 11 2 21 2 0.27920523D-01 0.31657088D-01 0.73682281D+04 0.73682281D+04 0.73682281D+04 0.12233315D+01  1  2  4  1  6  2        1 -.397325675649D-04 0.100000000000D+01
-.335031576676D-05 0.000000000000D+00 -.129118010762D-05 0.326511546639D-07 0.000000000000D+00  6 22 1 9900012 11 2 21 2 0.27920523D-01 0.37161275D-01 0.73682281D+04 0.73682281D+04 0.73682281D+04 0.12233315D+01  1  2  5  1  6  2        1 -.681656951556D-04 0.100000000000D+01
0.352828140918D-05 0.000000000000D+00 0.127476569927D-05 0.326511546639D-07 0.000000000000D+00  6 22 1 9900012 11 2 21 2 0.27920523D-01 0.31657088D-01 0.73682281D+04 0.73682281D+04 0.73682281D+04 0.12233315D+01  1  2  6  1  6  2        1 0.875573116248D-04 0.100000000000D+01
0.279633128704D-07 0.000000000000D+00 0.000000000000D+00 0.326511546639D-07 0.000000000000D+00  6 22 21 9900012 11 2 -1 2 0.27920523D-01 0.37363388D-01 0.10817884D+05 0.10817884D+05 0.10817884D+05 0.12058075D+01  1  2 12  3  6  2        1 0.324669369654D-05 0.100000000000D+01
-.705285614095D-07 0.000000000000D+00 -.310705526268D-07 0.326511546639D-07 0.000000000000D+00  6 22 21 9900012 11 2 -1 2 0.27920523D-01 0.37161275D-01 0.73682281D+04 0.73682281D+04 0.73682281D+04 0.12233315D+01  1  2  5  3  6  2        1 -.839510110363D-05 0.100000000000D+01
  </mgrwgt>
  </event>
  <event>
  7     66 0.94388558E-06 0.27577308E+02 0.78161638E-02 0.13021700E+00
       22 -1    0    0    0    0 0.00000000E+00 0.00000000E+00 0.21836962E+02 0.21836962E+02 0.00000000E+00 0.0000E+00 0.9000E+01
        3 -1    0    0  501    0 -.00000000E+00 -.00000000E+00 -.34134997E+03 0.34134997E+03 0.00000000E+00 0.0000E+00 0.9000E+01
      -24  2    1    2    0    0 -.26012038E+02 0.83939149E+01 -.26431441E+03 0.27778404E+03 0.80961607E+02 0.0000E+00 0.0000E+00
  9900012  1    3    3    0    0 -.85895256E+01 0.11082702E+02 -.10144706E+03 0.11396540E+03 0.50000000E+02 0.0000E+00 0.9000E+01
       11  1    3    3    0    0 -.17422512E+02 -.26887873E+01 -.16286735E+03 0.16381864E+03 0.00000000E+00 0.0000E+00 0.9000E+01
        4  1    1    2  502    0 -.44823027E+00 0.53329708E+00 0.12318686E+02 0.12338369E+02 0.00000000E+00 0.0000E+00 0.9000E+01
       21  1    1    2  501  502 0.26460268E+02 -.89272120E+01 -.67517286E+02 0.73064525E+02 0.00000000E+00 0.0000E+00 0.9000E+01
#aMCatNLO 2  0  0  5  2 0.28576777D+02 0.00000000D+00  -5  6  0 0.00000000D+00 0.00000000D+00 0.00000000D+00 0.00000000D+00 0.00000000D+00
  <mgrwgt>
 0.7616948799D-02    2    2    0
 0.863368187699808D+02 0.000000000000000D+00 0.000000000000000D+00 0.863368187699808D+02
 0.863368187699808D+02 -.000000000000000D+00 -.000000000000000D+00 -.863368187699808D+02
 0.542323903199560D+02 -.133544189136630D+02 0.126203022678211D+02 -.101754422981650D+02
 0.510846907512904D+02 -.216517106275955D+02 -.132405257147356D+01 -.462503615212013D+02
 0.673565564687152D+02 0.350061295412585D+02 -.112962496963476D+02 0.564258038193663D+02
 0.000000000000000D+00 0.000000000000000D+00 0.000000000000000D+00 -.000000000000000D+00
 0.863368187699808D+02 0.000000000000000D+00 0.000000000000000D+00 0.863368187699808D+02
 0.863368187699808D+02 -.000000000000000D+00 -.000000000000000D+00 -.863368187699808D+02
 0.519887604143321D+02 -.858952555452175D+01 0.110827022570033D+02 -.249498914820395D+01
 0.431945072383566D+02 -.174225121930034D+02 -.268878732389024D+01 -.394333861997162D+02
 0.487457996425262D+02 -.448230268999232D+00 0.533297084707115D+00 0.487408213578177D+02
 0.287445702447468D+02 0.264602680165244D+02 -.892721201782023D+01 -.681244600989753D+01
-.624783563843D-07 0.000000000000D+00 0.000000000000D+00 0.347583003477D-06 0.000000000000D+00  6 22 3 9900012 11 4 21 2 0.33595326D-02 0.52515380D-01 0.24098234D+04 0.24098234D+04 0.24098234D+04 0.12792010D+01  1  2 13  2  6  5        4 -.474088802206D-05 0.100000000000D+01
0.100443343584D-03 0.000000000000D+00 0.000000000000D+00 0.347583003477D-06 0.294083819429D-05  6 22 3 9900012 11 4 21 2 0.33595326D-02 0.52515380D-01 0.24098234D+04 0.24098234D+04 0.24098234D+04 0.12792010D+01  1  2  1  2  6  5        4 0.762168968665D-02 0.100000000000D+01
  </mgrwgt>
  </event>
  <event>
  7     66 0.94388558E-06 0.22046260E+02 0.78161638E-02 0.12863961E+00
       22 -1    0    0    0    0 0.00000000E+00 0.00000000E+00 0.27678928E+03 0.27678928E+03 0.00000000E+00 0.0000E+00 0.9000E+01
       21 -1    0    0  501  502 0.00000000E+00 0.00000000E+00 -.25852597E+02 0.25852597E+02 0.00000000E+00 0.0000E+00 0.9000E+01
      -24  2    1    2    0    0 -.19932577E+02 0.93965090E+01 0.25667956E+03 0.27017188E+03 0.81380849E+02 0.0000E+00 0.0000E+00
  9900012  1    3    3    0    0 0.11702953E+02 0.70965180E+01 0.17618923E+03 0.18365720E+03 0.50000000E+02 0.0000E+00 0.9000E+01
       11  1    3    3    0    0 -.31635530E+02 0.22999911E+01 0.80490327E+02 0.86514678E+02 0.00000000E+00 0.0000E+00 0.9000E+01
        2  1    1    2  501    0 -.20384841E-01 0.43768252E-02 0.69979245E+01 0.69979556E+01 0.00000000E+00 0.0000E+00 0.9000E+01
       -1  1    1    2    0  502 0.19952962E+02 -.94008858E+01 -.12740800E+02 0.25472050E+02 0.00000000E+00 0.0000E+00 0.9000E+01
#aMCatNLO 2  0  0  2  5 0.23191075D+02 0.00000000D+00  -5  6  0 0.00000000D+00 0.00000000D+00 0.00000000D+00 0.00000000D+00 0.00000000D+00
  <mgrwgt>
 0.1231315884D-01    1    2    0
 0.412637881854576D+02 0.000000000000000D+00 0.000000000000000D+00 0.412637881854576D+02
 0.412637881854576D+02 0.000000000000000D+00 0.000000000000000D+00 -.412637881854576D+02
 0.559073093750968D+02 0.245295355250372D+02 0.105324280602298D+01 0.477700827718435D+01
 0.254815066489997D+02 -.247757595009653D+02 -.932006249890129D+00 -.588220082991968D+01
 0.113876034681861D+01 0.246223975928132D+00 -.121236556132850D+00 0.110519255273533D+01
 0.000000000000000D+00 0.000000000000000D+00 -.000000000000000D+00 -.000000000000000D+00
 0.437175322815445D+02 0.000000000000000D+00 0.000000000000000D+00 0.437175322815445D+02
 0.163680828429549D+03 0.000000000000000D+00 0.000000000000000D+00 -.163680828429549D+03
 0.520589999592127D+02 0.117029526815491D+02 0.709651796351158D+01 0.477700827718435D+01
 0.322598358547711D+02 -.316355300875986D+02 0.229999105431142D+01 -.588220082991968D+01
 0.110538919706031D+01 -.203848413521676D-01 0.437682522502440D-02 0.110519255273533D+01
 0.121974135700049D+03 0.199529622474017D+02 -.940088584304802D+01 -.119963296148005D+03
0.454294339751D-05 0.000000000000D+00 0.000000000000D+00 0.214768828481D-04 0.149541391769D-04  6 22 21 9900012 11 2 -1 2 0.42582967D-01 0.39773227D-02 0.27897372D+04 0.27897372D+04 0.27897372D+04 0.12714295D+01  1  2  1  3  6  2        1 0.123131588399D-01 0.100000000000D+01
  </mgrwgt>
  </event>
  <event>
  6     66 0.94388558E-06 0.27827696E+02 0.78161638E-02 0.12147125E+00
       22 -1    0    0    0    0 0.00000000E+00 0.00000000E+00 0.10263346E+02 0.10263346E+02 0.00000000E+00 0.0000E+00 0.9000E+01
        1 -1    0    0  501    0 0.00000000E+00 0.00000000E+00 -.42308934E+03 0.42308934E+03 0.00000000E+00 0.0000E+00 0.9000E+01
      -24  2    1    2    0    0 -.18749944E+02 -.20562594E+02 -.38400996E+03 0.39329342E+03 0.80260123E+02 0.0000E+00 0.0000E+00
  9900012  1    3    3    0    0 -.35955028E+02 -.66167859E+01 -.30570051E+03 0.31191240E+03 0.50000000E+02 0.0000E+00 0.9000E+01
       11  1    3    3    0    0 0.17205084E+02 -.13945808E+02 -.78309447E+02 0.81381017E+02 0.00000000E+00 0.0000E+00 0.9000E+01
        2  1    1    2  501    0 0.18749944E+02 0.20562594E+02 -.28816031E+02 0.40059260E+02 0.00000000E+00 0.0000E+00 0.9000E+01
#aMCatNLO 1  0  0  2  2 0.46579937D+02 0.00000000D+00  -5  6  0 0.00000000D+00 0.00000000D+00 0.00000000D+00 0.00000000D+00 0.00000000D+00
  <mgrwgt>
 0.3792867068D-04    7    2    0
 0.658962247216173D+02 0.000000000000000D+00 0.000000000000000D+00 0.658962247216173D+02
 0.658962247216173D+02 0.000000000000000D+00 0.000000000000000D+00 -.658962247216173D+02
 0.680385062545494D+02 -.359550281923982D+02 -.661678587594689D+01 -.281547940092992D+02
 0.222964759404787D+02 0.172050842777881D+02 -.139458077958939D+02 -.257533673109728D+01
 0.414574672482065D+02 0.187499439146101D+02 0.205625936718408D+02 0.307301307403965D+02
 0.000000000000000D+00 -.000000000000000D+00 -.000000000000000D+00 -.000000000000000D+00
 0.798772969915932D+02 0.000000000000000D+00 0.000000000000000D+00 0.798772969915932D+02
 0.905465092780601D+02 0.000000000000000D+00 0.000000000000000D+00 -.905465092780601D+02
 0.613496671268190D+02 -.217001326331737D+02 0.439857440637167D+00 -.281547940092992D+02
 0.252853971825669D+02 0.224472529718471D+02 -.113507614466837D+02 -.257533673109728D+01
 0.492018601095314D+02 0.287380224938242D+02 0.255070218971264D+02 0.307301307403965D+02
 0.345868818507361D+02 -.294851428324976D+02 -.145961178910798D+02 -.106692122864669D+02
0.101726650359D-06 0.000000000000D+00 0.000000000000D+00 0.102612628311D-06 0.000000000000D+00  6 22 1 9900012 11 2 21 0 0.15789764D-02 0.65090667D-01 0.31312305D+04 0.31312305D+04 0.31312305D+04 0.12653981D+01  1  2  2  1  6  2        1 0.355232243717D-04 0.100000000000D+01
-.561579056321D-08 0.000000000000D+00 -.195328561310D-09 0.102612628311D-06 0.000000000000D+00  6 22 1 9900012 11 2 21 2 0.15789764D-02 0.65090667D-01 0.31312305D+04 0.31312305D+04 0.31312305D+04 0.12653981D+01  1  2  3  1  6  2        1 -.314009583521D-05 0.100000000000D+01
0.136348348350D-08 0.000000000000D+00 0.000000000000D+00 0.102612628311D-06 0.000000000000D+00  6 22 1 9900012 11 2 21 2 0.15789764D-02 0.65090667D-01 0.31312305D+04 0.31312305D+04 0.31312305D+04 0.12653981D+01  1  2 15  1  6  2        1 0.762398234002D-06 0.100000000000D+01
-.208239822316D-07 0.000000000000D+00 0.000000000000D+00 0.102612628311D-06 0.000000000000D+00  6 22 1 9900012 11 2 21 2 0.15789764D-02 0.65090667D-01 0.31312305D+04 0.31312305D+04 0.31312305D+04 0.12653981D+01  1  2  4  1  6  2        1 -.116438280848D-04 0.100000000000D+01
-.467336537140D-07 0.000000000000D+00 -.275623752721D-07 0.102612628311D-06 0.000000000000D+00  6 22 1 9900012 11 2 21 2 0.15789764D-02 0.10435375D+00 0.31312305D+04 0.31312305D+04 0.31312305D+04 0.12653981D+01  1  2  5  1  6  2        1 -.139972626897D-04 0.100000000000D+01
0.561773182426D-07 0.000000000000D+00 0.247534057748D-07 0.102612628311D-06 0.000000000000D+00  6 22 1 9900012 11 2 21 2 0.15789764D-02 0.65090667D-01 0.31312305D+04 0.31312305D+04 0.31312305D+04 0.12653981D+01  1  2  6  1  6  2        1 0.314118130051D-04 0.100000000000D+01
-.135619520632D-08 0.000000000000D+00 -.148556704137D-08 0.102612628311D-06 0.000000000000D+00  6 22 21 9900012 11 2 -1 2 0.15789764D-02 0.10435375D+00 0.31312305D+04 0.31312305D+04 0.31312305D+04 0.12653981D+01  1  2  5  3  6  2        1 -.987578320228D-06 0.100000000000D+01
  </mgrwgt>
  </event>
  <event>
  6     66 0.94388558E-06 0.73359216E+02 0.78161638E-02 0.11303733E+00
       22 -1    0    0    0    0 0.00000000E+00 0.00000000E+00 0.41971403E+03 0.41971403E+03 0.00000000E+00 0.0000E+00 0.9000E+01
        3 -1    0    0  501    0 0.00000000E+00 0.00000000E+00 -.23321419E+02 0.23321419E+02 0.00000000E+00 0.0000E+00 0.9000E+01
      -24  2    1    2    0    0 -.16731763E+02 -.71425644E+02 0.26775051E+03 0.29494641E+03 0.99606587E+02 0.0000E+00 0.0000E+00
  9900012  1    3    3    0    0 -.23047608E+02 -.78924106E+01 0.87082259E+02 0.10332861E+03 0.50000000E+02 0.0000E+00 0.9000E+01
       11  1    3    3    0    0 0.63158451E+01 -.63533234E+02 0.18066825E+03 0.19161780E+03 0.00000000E+00 0.0000E+00 0.9000E+01
        4  1    1    2  501    0 0.16731763E+02 0.71425644E+02 0.12864210E+03 0.14808905E+03 0.00000000E+00 0.0000E+00 0.9000E+01
#aMCatNLO 1  0  0  2  5 0.12037913D+03 0.00000000D+00  -5  6  0 0.00000000D+00 0.00000000D+00 0.00000000D+00 0.00000000D+00 0.00000000D+00
  <mgrwgt>
 0.6936328275D-05    4    2    0
 0.989359729555371D+02 0.000000000000000D+00 0.000000000000000D+00 0.989359729555371D+02
 0.989359729555371D+02 0.000000000000000D+00 0.000000000000000D+00 -.989359729555371D+02
 0.569028332912573D+02 -.230476080336438D+02 -.789241055051506D+01 -.120187377125158D+02
 0.671035763241698D+02 0.631584509144823D+01 -.635332337176733D+02 0.206525608496868D+02
 0.738655362956472D+02 0.167317629421956D+02 0.714256442681883D+02 -.863382313717098D+01
 0.000000000000000D+00 -.000000000000000D+00 0.000000000000000D+00 0.000000000000000D+00
 0.171448926412914D+03 0.000000000000000D+00 0.000000000000000D+00 0.171448926412914D+03
 0.108891913874247D+03 0.000000000000000D+00 0.000000000000000D+00 -.108891913874247D+03
 0.575129797707757D+02 -.169872643066957D+02 -.193578314200186D+02 -.120187377125158D+02
 0.824268312769217D+02 0.142361285159252D+02 -.785174304825506D+02 0.206525608496868D+02
 0.630825416305345D+02 0.239855891639921D+02 0.577023021123105D+02 -.863382313717098D+01
 0.773184876089290D+02 -.212344533732215D+02 0.401729597902587D+02 0.625570125386662D+02
0.124165273125D-06 0.000000000000D+00 0.000000000000D+00 0.141373461887D-08 0.000000000000D+00  6 22 3 9900012 11 4 21 0 0.64571390D-01 0.35879106D-02 0.92953403D+04 0.92953403D+04 0.92953403D+04 0.12126334D+01  1  2  2  1  6  2        3 0.742992629023D-05 0.100000000000D+01
-.395388163613D-08 0.000000000000D+00 -.238413671135D-09 0.141373461887D-08 0.000000000000D+00  6 22 3 9900012 11 4 21 2 0.64571390D-01 0.35879106D-02 0.92953403D+04 0.92953403D+04 0.92953403D+04 0.12126334D+01  1  2  3  1  6  2        3 -.347910117237D-06 0.100000000000D+01
0.813184291375D-09 0.000000000000D+00 0.000000000000D+00 0.141373461887D-08 0.000000000000D+00  6 22 3 9900012 11 4 21 2 0.64571390D-01 0.35879106D-02 0.92953403D+04 0.92953403D+04 0.92953403D+04 0.12126334D+01  1  2 15  1  6  2        3 0.715537459599D-07 0.100000000000D+01
-.246887832421D-08 0.000000000000D+00 0.000000000000D+00 0.141373461887D-08 0.000000000000D+00  6 22 3 9900012 11 4 21 2 0.64571390D-01 0.35879106D-02 0.92953403D+04 0.92953403D+04 0.92953403D+04 0.12126334D+01  1  2  4  1  6  2        3 -.217241644102D-06 0.100000000000D+01
  </mgrwgt>
  </event>
  <event>
  7     66 0.94388558E-06 0.22175484E+02 0.78161638E-02 0.12485417E+00
       22 -1    0    0    0    0 0.00000000E+00 0.00000000E+00 0.20807133E+02 0.20807133E+02 0.00000000E+00 0.0000E+00 0.9000E+01
        1 -1    0    0  501    0 -.00000000E+00 -.00000000E+00 -.12415337E+04 0.12415337E+04 0.00000000E+00 0.0000E+00 0.9000E+01
      -24  2    1    2    0    0 -.13782165E+01 -.21040005E+02 -.12091181E+04 0.12119197E+04 0.79612310E+02 0.0000E+00 0.0000E+00
  9900012  1    3    3    0    0 0.84364770E+01 0.73330253E+01 -.66279645E+03 0.66477371E+03 0.50000000E+02 0.0000E+00 0.9000E+01
       11  1    3    3    0    0 -.98146935E+01 -.28373030E+02 -.54632166E+03 0.54714597E+03 0.00000000E+00 0.0000E+00 0.9000E+01
        2  1    1    2  502    0 -.13090793E+02 0.26990921E+02 -.16231028E+02 0.34107550E+02 0.00000000E+00 0.0000E+00 0.9000E+01
       21  1    1    2  501  502 0.14469010E+02 -.59509160E+01 0.46225699E+01 0.16313608E+02 0.00000000E+00 0.0000E+00 0.9000E+01
#aMCatNLO 2  0  0  5  5 0.22112018D+02 0.00000000D+00  -5  6  0 0.00000000D+00 0.00000000D+00 0.00000000D+00 0.00000000D+00 0.00000000D+00
  <mgrwgt>
 0.1036381503D-03    1    2    0
 0.160725720895768D+03 0.000000000000000D+00 0.000000000000000D+00 0.160725720895768D+03
 0.160725720895768D+03 -.000000000000000D+00 -.000000000000000D+00 -.160725720895768D+03
 0.951517814446708D+02 0.841841473952314D+01 0.705728493000672D+01 -.802071476539621D+02
 0.754325357310146D+02 -.982899198334061D+01 -.285913121783352D+02 -.691085756713535D+02
 0.150867124615851D+03 0.141057724381748D+01 0.215340272483284D+02 0.149315723325316D+03
 0.000000000000000D+00 0.000000000000000D+00 0.000000000000000D+00 0.000000000000000D+00
 0.160725720895768D+03 0.000000000000000D+00 0.000000000000000D+00 0.160725720895768D+03
 0.160725720895768D+03 -.000000000000000D+00 -.000000000000000D+00 -.160725720895768D+03
 0.935685979531529D+02 0.843647699605996D+01 0.733302532361861D+01 -.782951794072718D+02
 0.739624501054538D+02 -.981469352459385D+01 -.283730303354858D+02 -.675950217560557D+02
 0.723023842191496D+02 -.130907930401867D+02 0.269909210559306D+02 0.657856829553745D+02
 0.816180095137801D+02 0.144690095687206D+02 -.595091604406347D+01 0.801045182079531D+02
0.235678046068D-05 0.000000000000D+00 0.000000000000D+00 0.593783684303D-05 0.220070277994D-07  6 22 1 9900012 11 2 21 2 0.32010974D-02 0.19100518D+00 0.40258908D+04 0.40258908D+04 0.40258908D+04 0.12525829D+01  1  2  1  2  6  5        2 0.103638150271D-03 0.100000000000D+01
  </mgrwgt>
  </event>
  <event>
  6     66 0.94388558E-06 0.11182437E+03 0.78161638E-02 0.11179449E+00
       22 -1    0    0    0    0 0.00000000E+00 0.00000000E+00 0.23513605E+03 0.23513605E+03 0.00000000E+00 0.0000E+00 0.9000E+01
        3 -1    0    0  501    0 0.00000000E+00 0.00000000E+00 -.12800018E+03 0.12800018E+03 0.00000000E+00 0.0000E+00 0.9000E+01
  9900012  1    1    2    0    0 -.39290008E+02 0.39286816E+02 0.26955874E+02 0.79459284E+02 0.50000000E+02 0.0000E+00 0.9000E+01
       11  1    1    2    0    0 -.72595146E+02 -.13504255E+02 -.52517106E+02 0.90611625E+02 0.00000000E+00 0.0000E+00 0.9000E+01
        4  1    1    2  502    0 0.20486510E+01 0.12498969E+00 0.57318788E+02 0.57355523E+02 0.00000000E+00 0.0000E+00 0.9000E+01
       21  1    1    2  501  502 0.10983650E+03 -.25907550E+02 0.75378312E+02 0.13570980E+03 0.00000000E+00 0.0000E+00 0.9000E+01
#aMCatNLO 2  0  0  5  2 0.35437861D+02 0.00000000D+00  -5  6  0 0.00000000D+00 0.00000000D+00 0.00000000D+00 0.00000000D+00 0.00000000D+00
  <mgrwgt>
 0.5481487691D-03    2    2    0
 0.173486184918235D+03 0.000000000000000D+00 0.000000000000000D+00 0.173486184918235D+03
 0.173486184918235D+03 -.000000000000000D+00 -.000000000000000D+00 -.173486184918235D+03
 0.773470213429102D+02 -.432042292695729D+02 0.401888004098560D+02 0.903662248590872D+00
 0.117881110019021D+03 -.784832683399863D+02 -.121474098372137D+02 -.871135645249180D+02
 0.151744238474539D+03 0.121687497609559D+03 -.280413905726423D+02 0.862099022763272D+02
 0.000000000000000D+00 0.000000000000000D+00 -.000000000000000D+00 0.000000000000000D+00
 0.173486184918235D+03 0.000000000000000D+00 0.000000000000000D+00 0.173486184918235D+03
 0.173486184918235D+03 -.000000000000000D+00 -.000000000000000D+00 -.173486184918235D+03
 0.748376695101541D+02 -.392900076302432D+02 0.392868160652646D+02 0.367670526158150D+01
 0.111048696837478D+03 -.725951464871091D+02 -.135042552638952D+02 -.829421055048931D+02
 0.423289331160797D+02 0.204865102298762D+01 0.124989692181110D+00 0.422791436208020D+02
 0.118757070372759D+03 0.109836503094365D+03 -.259075504935505D+02 0.369862566225096D+02
-.200305602540D-06 0.000000000000D+00 0.000000000000D+00 0.333536924991D-09 0.000000000000D+00  6 22 3 9900012 11 4 21 2 0.36174777D-01 0.19692335D-01 0.17356859D+05 0.17356859D+05 0.17356859D+05 0.11852641D+01  1  2 13  2  6  5        4 -.310698039660D-05 0.100000000000D+01
0.355392055846D-04 0.000000000000D+00 0.000000000000D+00 0.333536924991D-09 0.467363205296D-10  6 22 3 9900012 11 4 21 2 0.36174777D-01 0.19692335D-01 0.17356859D+05 0.17356859D+05 0.17356859D+05 0.11852641D+01  1  2  1  2  6  5        4 0.551255749523D-03 0.100000000000D+01
  </mgrwgt>
  </event>
  <event>
  6     66 0.94388558E-06 0.21224368E+02 0.78161638E-02 0.12899212E+00
       22 -1    0    0    0    0 0.00000000E+00 0.00000000E+00 0.26417400E+02 0.26417400E+02 0.00000000E+00 0.0000E+00 0.9000E+01
        1 -1    0    0  501    0 0.00000000E+00 0.00000000E+00 -.10996926E+03 0.10996926E+03 0.00000000E+00 0.0000E+00 0.9000E+01
      -24  2    1    2    0    0 -.18981832E+02 0.94954638E+01 -.52923682E+02 0.99123285E+02 0.81080428E+02 0.0000E+00 0.0000E+00
  9900012  1    3    3    0    0 0.36492729E+00 0.19597392E+02 -.15664813E+02 0.55942625E+02 0.50000000E+02 0.0000E+00 0.9000E+01
       11  1    3    3    0    0 -.19346759E+02 -.10101928E+02 -.37258869E+02 0.43180660E+02 0.00000000E+00 0.0000E+00 0.9000E+01
        2  1    1    2  501    0 0.18981832E+02 -.94954638E+01 -.30628179E+02 0.37263376E+02 0.00000000E+00 0.0000E+00 0.9000E+01
#aMCatNLO 1  0  0  2  5 0.72948263D+01 0.00000000D+00  -5  6  0 0.00000000D+00 0.00000000D+00 0.00000000D+00 0.00000000D+00 0.00000000D+00
  <mgrwgt>
 0.9704583069D-04   11    2    0
 0.538989973477806D+02 0.000000000000000D+00 0.000000000000000D+00 0.538989973477806D+02
 0.538989973477806D+02 0.000000000000000D+00 0.000000000000000D+00 -.538989973477806D+02
 0.586374875104836D+02 0.364927285544901D+00 0.195973920439315D+02 0.235406880675744D+02
 0.257538940713670D+02 -.193467594317903D+02 -.101019282445832D+02 -.136717593991746D+02
 0.234066131137107D+02 0.189818321462453D+02 -.949546379934830D+01 -.986892866839984D+01
 0.000000000000000D+00 0.000000000000000D+00 0.000000000000000D+00 -.000000000000000D+00
 0.552158090982128D+02 0.000000000000000D+00 0.000000000000000D+00 0.552158090982128D+02
 0.636162066526977D+02 0.000000000000000D+00 0.000000000000000D+00 -.636162066526977D+02
 0.578762706624363D+02 -.228031228758570D+01 0.170381597294962D+02 0.235406880675744D+02
 0.271289130765547D+02 -.205473703845183D+02 -.112635025603833D+02 -.136717593991746D+02
 0.230081693398017D+02 0.179280662970479D+02 -.105149675299397D+02 -.986892866839984D+01
 0.108186626721178D+02 0.489961637505616D+01 0.474031036082674D+01 -.840039755448492D+01
0.638383359440D-07 0.000000000000D+00 0.000000000000D+00 0.137671754201D-06 0.000000000000D+00  6 22 1 9900012 11 2 21 0 0.40642153D-02 0.16918348D-01 0.23403528D+04 0.23403528D+04 0.23403528D+04 0.12807710D+01  1  2  2  1  6  2        1 0.320238862203D-04 0.100000000000D+01
0.871877091319D-09 0.000000000000D+00 -.122578009522D-09 0.137671754201D-06 0.000000000000D+00  6 22 1 9900012 11 2 21 2 0.40642153D-02 0.16918348D-01 0.23403528D+04 0.23403528D+04 0.23403528D+04 0.12807710D+01  1  2  3  1  6  2        1 0.717448506652D-06 0.100000000000D+01
-.178866913007D-09 0.000000000000D+00 0.000000000000D+00 0.137671754201D-06 0.000000000000D+00  6 22 1 9900012 11 2 21 2 0.40642153D-02 0.16918348D-01 0.23403528D+04 0.23403528D+04 0.23403528D+04 0.12807710D+01  1  2 15  1  6  2        1 -.147185653693D-06 0.100000000000D+01
0.141484467217D-06 0.000000000000D+00 0.000000000000D+00 0.137671754201D-06 0.000000000000D+00  6 22 1 9900012 11 2 21 2 0.40642153D-02 0.20456333D-01 0.26991165D+04 0.26991165D+04 0.26991165D+04 0.12731703D+01  1  2 12  1  6  2        1 0.925182902811D-04 0.100000000000D+01
-.732787530932D-07 0.000000000000D+00 0.000000000000D+00 0.137671754201D-06 0.000000000000D+00  6 22 1 9900012 11 2 21 2 0.40642153D-02 0.16918348D-01 0.23403528D+04 0.23403528D+04 0.23403528D+04 0.12807710D+01  1  2  4  1  6  2        1 -.602994762674D-04 0.100000000000D+01
-.234020287491D-06 0.000000000000D+00 -.367065632304D-07 0.137671754201D-06 0.000000000000D+00  6 22 1 9900012 11 2 21 2 0.40642153D-02 0.20392371D-01 0.23403528D+04 0.23403528D+04 0.23403528D+04 0.12807710D+01  1  2  5  1  6  2        1 -.152988770997D-03 0.100000000000D+01
0.237355143058D-06 0.000000000000D+00 0.360755724735D-07 0.137671754201D-06 0.000000000000D+00  6 22 1 9900012 11 2 21 2 0.40642153D-02 0.16918348D-01 0.23403528D+04 0.23403528D+04 0.23403528D+04 0.12807710D+01  1  2  6  1  6  2        1 0.195314333441D-03 0.100000000000D+01
0.177984429413D-08 0.000000000000D+00 0.000000000000D+00 0.137671754201D-06 0.264220878767D-07  6 22 1 9900012 11 2 21 2 0.41635086D-02 0.19968481D-01 0.26991165D+04 0.26991165D+04 0.26991165D+04 0.12731703D+01  1  2 11  1  6  2        1 0.116051368289D-05 0.100000000000D+01
0.389021541666D-08 0.000000000000D+00 0.000000000000D+00 0.137671754201D-06 0.000000000000D+00  6 22 21 9900012 11 2 -1 2 0.40642153D-02 0.20456333D-01 0.26991165D+04 0.26991165D+04 0.26991165D+04 0.12731703D+01  1  2 12  3  6  2        1 0.218028474874D-04 0.100000000000D+01
-.597658421603D-08 0.000000000000D+00 -.996336638837D-09 0.137671754201D-06 0.000000000000D+00  6 22 21 9900012 11 2 -1 2 0.40642153D-02 0.20392371D-01 0.23403528D+04 0.23403528D+04 0.23403528D+04 0.12807710D+01  1  2  5  3  6  2        1 -.336074160502D-04 0.100000000000D+01
0.974453266713D-10 0.000000000000D+00 0.000000000000D+00 0.137671754201D-06 0.673535105758D-09  6 22 21 9900012 11 2 -1 2 0.41635086D-02 0.19968481D-01 0.26991165D+04 0.26991165D+04 0.26991165D+04 0.12731703D+01  1  2 11  3  6  2        1 0.551360043316D-06 0.100000000000D+01
  </mgrwgt>
  </event>
  <event>
  7     66 -.94388558E-06 0.98543695E+01 0.78161638E-02 0.13030248E+00
       22 -1    0    0    0    0 0.00000000E+00 0.00000000E+00 0.30470743E+01 0.30470743E+01 0.00000000E+00 0.0000E+00 0.9000E+01
        3 -1    0    0  501    0 -.00000000E+00 -.00000000E+00 -.98985957E+03 0.98985957E+03 0.00000000E+00 0.0000E+00 0.9000E+01
      -24  2    1    2    0    0 0.19300807E+02 0.16702847E+01 -.86703224E+03 0.87093283E+03 0.80023692E+02 0.0000E+00 0.0000E+00
  9900012  1    3    3    0    0 0.75885373E+01 0.19771441E+02 -.43702580E+03 0.44038625E+03 0.50000000E+02 0.0000E+00 0.9000E+01
       11  1    3    3    0    0 0.11712269E+02 -.18101156E+02 -.43000643E+03 0.43054659E+03 0.00000000E+00 0.0000E+00 0.9000E+01
        4  1    1    2  502    0 -.69026526E+01 0.52053843E+01 -.53529342E+02 0.54222994E+02 0.00000000E+00 0.0000E+00 0.9000E+01
       21  1    1    2  501  502 -.12398154E+02 -.68756690E+01 -.66250915E+02 0.67750814E+02 0.00000000E+00 0.0000E+00 0.9000E+01
#aMCatNLO 2  0  0  5  2 0.59341804D+01 0.00000000D+00  -5  6  0 0.00000000D+00 0.00000000D+00 0.00000000D+00 0.00000000D+00 0.00000000D+00
  <mgrwgt>
 -.3772829940D-05    1    2    0
 0.549197202415230D+02 0.000000000000000D+00 0.000000000000000D+00 0.549197202415230D+02
 0.549197202415230D+02 -.000000000000000D+00 -.000000000000000D+00 -.549197202415230D+02
 0.547721152215423D+02 0.888616135040225D+01 0.198837367754104D+02 0.506534837328299D+01
 0.292982967541311D+02 0.124007062579256D+02 -.180415790669428D+02 -.194708526204947D+02
 0.257690285073726D+02 -.212868676083279D+02 -.184215770846753D+01 0.144055042472117D+02
 0.000000000000000D+00 0.000000000000000D+00 0.000000000000000D+00 0.000000000000000D+00
 0.549197202415230D+02 0.000000000000000D+00 0.000000000000000D+00 0.549197202415230D+02
 0.549197202415230D+02 -.000000000000000D+00 -.000000000000000D+00 -.549197202415230D+02
 0.546243615124992D+02 0.758853732710060D+01 0.197714408687884D+02 0.594349205900041D+01
 0.287405256662848D+02 0.117122693675862D+02 -.181011561427093D+02 -.190049653546839D+02
 0.924028357715544D+01 -.690265256037114D+01 0.520538428526759D+01 0.326193235057680D+01
 0.172342697271067D+02 -.123981541343157D+02 -.687566901134674D+01 0.979954094510665D+01
-.403052064806D-07 0.000000000000D+00 0.000000000000D+00 0.294486410535D-06 0.000000000000D+00  6 22 3 9900012 11 4 21 2 0.46878066D-03 0.15228609D+00 0.24345536D+04 0.24345536D+04 0.24345536D+04 0.12786543D+01  1  2 13  2  6  5        4 -.377282993988D-05 0.100000000000D+01
  </mgrwgt>
  </event>
  <event>
  7     66 0.94388558E-06 0.20641211E+02 0.78161638E-02 0.12933880E+00
       22 -1    0    0    0    0 0.00000000E+00 0.00000000E+00 0.42914629E+03 0.42914629E+03 0.00000000E+00 0.0000E+00 0.9000E+01
       21 -1    0    0  501  502 0.00000000E+00 0.00000000E+00 -.15017802E+02 0.15017802E+02 0.00000000E+00 0.0000E+00 0.9000E+01
      -24  2    1    2    0    0 -.19059970E+02 0.23274576E+01 0.24506474E+03 0.25832621E+03 0.79416649E+02 0.0000E+00 0.0000E+00
  9900012  1    3    3    0    0 -.26996194E+02 0.17968520E+02 0.21859223E+03 0.22657058E+03 0.50000000E+02 0.0000E+00 0.9000E+01
       11  1    3    3    0    0 0.79362238E+01 -.15641063E+02 0.26472503E+02 0.31755628E+02 0.00000000E+00 0.0000E+00 0.9000E+01
        4  1    1    2  501    0 -.29686687E+01 -.21699162E+00 0.16281618E+03 0.16284338E+03 0.00000000E+00 0.0000E+00 0.9000E+01
       -3  1    1    2    0  502 0.22028639E+02 -.21104660E+01 0.62475761E+01 0.22994504E+02 0.00000000E+00 0.0000E+00 0.9000E+01
#aMCatNLO 2  0  0  2  5 0.35256079D+03 0.00000000D+00  -5  6  0 0.00000000D+00 0.00000000D+00 0.00000000D+00 0.00000000D+00 0.00000000D+00
  <mgrwgt>
 0.8247408808D-04    1    2    0
 0.513012390430602D+02 0.000000000000000D+00 0.000000000000000D+00 0.513012390430602D+02
 0.513012390430602D+02 0.000000000000000D+00 0.000000000000000D+00 -.513012390430602D+02
 0.548956140297414D+02 -.148354462537797D+02 0.168034532724640D+02 -.332895363044851D+01
 0.271407699580887D+02 0.134221895881102D+02 -.161666488548329D+02 -.171786403822668D+02
 0.205660940982903D+02 0.141325666566950D+01 -.636804417631062D+00 0.205075940127153D+02
 0.000000000000000D+00 0.000000000000000D+00 -.000000000000000D+00 -.000000000000000D+00
 0.543320043043964D+02 0.000000000000000D+00 0.000000000000000D+00 0.543320043043964D+02
 0.118619478008500D+03 0.000000000000000D+00 0.000000000000000D+00 -.118619478008500D+03
 0.596887272222612D+02 -.269961941080990D+02 0.179685204960695D+02 -.332895363044851D+01
 0.245506045006952D+02 0.793622384298284D+01 -.156410628500873D+02 -.171786403822668D+02
 0.207224875770389D+02 -.296866869629499D+01 -.216991616916076D+00 0.205075940127153D+02
 0.679896630129010D+02 0.220286389614111D+02 -.211046602906611D+01 -.642874737041034D+02
0.278556721563D-07 0.000000000000D+00 0.000000000000D+00 0.233738763872D-04 0.183593242654D-07  6 22 21 9900012 11 4 -3 2 0.66022506D-01 0.23104311D-02 0.26133158D+04 0.26133158D+04 0.26133158D+04 0.12748801D+01  1  2  1  3  6  2        3 0.824740880765D-04 0.100000000000D+01
  </mgrwgt>
  </event>
  <event>
  6     66 -.94388558E-06 0.15099948E+02 0.78161638E-02 0.13115226E+00
       22 -1    0    0    0    0 0.00000000E+00 0.00000000E+00 0.34221261E+02 0.34221261E+02 0.00000000E+00 0.0000E+00 0.9000E+01
        1 -1    0    0  501    0 0.00000000E+00 0.00000000E+00 -.91221285E+02 0.91221285E+02 0.00000000E+00 0.0000E+00 0.9000E+01
      -24  2    1    2    0    0 0.13408259E+02 -.69445678E+01 -.67626119E+02 0.10697846E+03 0.81505161E+02 0.0000E+00 0.0000E+00
  9900012  1    3    3    0    0 0.27594102E+02 0.88148389E+01 -.33477343E+02 0.66782245E+02 0.50000000E+02 0.0000E+00 0.9000E+01
       11  1    3    3    0    0 -.14185843E+02 -.15759407E+02 -.34148776E+02 0.40196218E+02 0.00000000E+00 0.0000E+00 0.9000E+01
        2  1    1    2  501    0 -.13408259E+02 0.69445678E+01 0.10626095E+02 0.18464082E+02 0.00000000E+00 0.0000E+00 0.9000E+01
#aMCatNLO 1  0  0  2  5 0.30402986D+01 0.00000000D+00  -5  6  0 0.00000000D+00 0.00000000D+00 0.00000000D+00 0.00000000D+00 0.00000000D+00
  <mgrwgt>
 -.1649138349D-03    9    2    0
 0.558722413709671D+02 0.000000000000000D+00 0.000000000000000D+00 0.558722413709671D+02
 0.558722413709671D+02 0.000000000000000D+00 0.000000000000000D+00 -.558722413709671D+02
 0.578921245320841D+02 0.275941017255497D+02 0.881483891216723D+01 -.351599882691850D+01
 0.277045877745347D+02 -.141858425669715D+02 -.157594067403132D+02 -.178310726995144D+02
 0.261477704353155D+02 -.134082591585782D+02 0.694456782814601D+01 0.213470715264329D+02
 0.000000000000000D+00 0.000000000000000D+00 0.000000000000000D+00 -.000000000000000D+00
 0.565845660763926D+02 0.000000000000000D+00 0.000000000000000D+00 0.565845660763926D+02
 0.584884571308593D+02 0.000000000000000D+00 0.000000000000000D+00 -.584884571308593D+02
 0.576124764446412D+02 0.274142197951301D+02 0.743611103721155D+01 -.351599882691850D+01
 0.281330901719211D+02 -.142728017808402D+02 -.164259166663818D+02 -.178310726995144D+02
 0.260313059082864D+02 -.134895206226309D+02 0.632172902834045D+01 0.213470715264329D+02
 0.329615068240328D+01 0.348102608341075D+00 0.266807660082980D+01 -.190389105446669D+01
0.762439320697D-07 0.000000000000D+00 0.000000000000D+00 0.142924624578D-06 0.000000000000D+00  6 22 1 9900012 11 2 21 0 0.52648093D-02 0.14034044D-01 0.22131806D+04 0.22131806D+04 0.22131806D+04 0.12837865D+01  1  2  2  1  6  2        1 0.337886807749D-04 0.100000000000D+01
-.301672880765D-08 0.000000000000D+00 -.146398387318D-09 0.142924624578D-06 0.000000000000D+00  6 22 1 9900012 11 2 21 2 0.52648093D-02 0.14034044D-01 0.22131806D+04 0.22131806D+04 0.22131806D+04 0.12837865D+01  1  2  3  1  6  2        1 -.220337217120D-05 0.100000000000D+01
0.363249757738D-08 0.000000000000D+00 0.000000000000D+00 0.142924624578D-06 0.000000000000D+00  6 22 1 9900012 11 2 21 2 0.52648093D-02 0.14034044D-01 0.22131806D+04 0.22131806D+04 0.22131806D+04 0.12837865D+01  1  2 15  1  6  2        1 0.265312017893D-05 0.100000000000D+01
0.335162198170D-08 0.000000000000D+00 0.000000000000D+00 0.142924624578D-06 0.000000000000D+00  6 22 1 9900012 11 2 21 2 0.52648093D-02 0.14878488D-01 0.23451617D+04 0.23451617D+04 0.23451617D+04 0.12806607D+01  1  2 12  1  6  2        1 0.228018120084D-05 0.100000000000D+01
-.262852804029D-06 0.000000000000D+00 0.000000000000D+00 0.142924624578D-06 0.000000000000D+00  6 22 1 9900012 11 2 21 2 0.52648093D-02 0.14034044D-01 0.22131806D+04 0.22131806D+04 0.22131806D+04 0.12837865D+01  1  2  4  1  6  2        1 -.191983632089D-03 0.100000000000D+01
-.918471492369D-06 0.000000000000D+00 -.131677802586D-06 0.142924624578D-06 0.000000000000D+00  6 22 1 9900012 11 2 21 2 0.52648093D-02 0.14866561D-01 0.22131806D+04 0.22131806D+04 0.22131806D+04 0.12837865D+01  1  2  5  1  6  2        1 -.624298366581D-03 0.100000000000D+01
0.924742245847D-06 0.000000000000D+00 0.131459451967D-06 0.142924624578D-06 0.000000000000D+00  6 22 1 9900012 11 2 21 2 0.52648093D-02 0.14034044D-01 0.22131806D+04 0.22131806D+04 0.22131806D+04 0.12837865D+01  1  2  6  1  6  2        1 0.675417467047D-03 0.100000000000D+01
0.532751318363D-10 0.000000000000D+00 0.000000000000D+00 0.142924624578D-06 0.000000000000D+00  6 22 21 9900012 11 2 -1 2 0.52648093D-02 0.14878488D-01 0.23451617D+04 0.23451617D+04 0.23451617D+04 0.12806607D+01  1  2 12  3  6  2        1 0.361941945441D-06 0.100000000000D+01
-.896824275695D-08 0.000000000000D+00 -.130759569193D-08 0.142924624578D-06 0.000000000000D+00  6 22 21 9900012 11 2 -1 2 0.52648093D-02 0.14866561D-01 0.22131806D+04 0.22131806D+04 0.22131806D+04 0.12837865D+01  1  2  5  3  6  2        1 -.609298552187D-04 0.100000000000D+01
  </mgrwgt>
  </event>
</LesHouchesEvents>
