<LesHouchesEvents version="3.0">
  <!--
  <scalesfunctionalform>
    muR  H_T/2 := sum_i mT(i)/2, i=final state
    muF1 H_T/2 := sum_i mT(i)/2, i=final state
    muF2 H_T/2 := sum_i mT(i)/2, i=final state
    QES  H_T/2 := sum_i mT(i)/2, i=final state
  </scalesfunctionalform>
PYTHIA8   
  -->
  <header>
       50
  </header>
  <init>
   2212   2212 0.65000000D+04 0.65000000D+04 -1 -1  82200  82200 -4   1
 0.20018883D-04 0.11480645D-06 0.79906760D-06     66
  </init>
  <event>
  6     66 -.79906760E-06 0.26343198E+02 0.78161638E-02 0.12934320E+00
       -2 -1    0    0    0  501 0.00000000E+00 0.00000000E+00 0.38760539E+03 0.38760539E+03 0.00000000E+00 0.0000E+00 0.9000E+01
       22 -1    0    0    0    0 0.00000000E+00 0.00000000E+00 -.40948049E+02 0.40948049E+02 0.00000000E+00 0.0000E+00 0.9000E+01
      -24  2    1    2    0    0 0.21103035E+02 0.15767878E+02 0.27881824E+01 0.83676704E+02 0.79372872E+02 0.0000E+00 0.0000E+00
  9900012  1    3    3    0    0 0.13380175E+02 -.66327161E+01 -.14715891E+02 0.54217889E+02 0.50000000E+02 0.0000E+00 0.9000E+01
       13  1    3    3    0    0 0.77228599E+01 0.22400595E+02 0.17504073E+02 0.29458815E+02 0.00000000E+00 0.0000E+00 0.9000E+01
       -1  1    1    2    0  501 -.21103035E+02 -.15767878E+02 0.34386916E+03 0.34487673E+03 0.00000000E+00 0.0000E+00 0.9000E+01
#aMCatNLO 1  0  0  0  0 0.00000000D+00 0.00000000D+00  -5  6  0 0.00000000D+00 0.00000000D+00 0.00000000D+00 0.00000000D+00 0.00000000D+00
  <mgrwgt>
 -.7981212249D-05    1    2    0
 0.125982873208400D+03 0.000000000000000D+00 0.000000000000000D+00 0.125982873208400D+03
 0.125982873208400D+03 0.000000000000000D+00 0.000000000000000D+00 -.125982873208400D+03
 0.112462247432647D+03 0.133801746814821D+02 -.663271612203607D+01 -.996229647216918D+02
 0.260224297481357D+02 0.772285994614939D+01 0.224005945544071D+02 -.107581433276326D+02
 0.113481069236017D+03 -.211030346276315D+02 -.157678784323711D+02 0.110381108049324D+03
 0.000000000000000D+00 -.000000000000000D+00 0.000000000000000D+00 -.000000000000000D+00
 0.140284804060769D+03 0.000000000000000D+00 0.000000000000000D+00 0.140284804060769D+03
 0.150996380995745D+03 0.000000000000000D+00 0.000000000000000D+00 -.150996380995745D+03
 0.114712035182331D+03 0.153417534463442D+02 -.223326334525158D+02 -.996229647216918D+02
 0.232988499906390D+02 0.814873374611370D+01 0.189920220451473D+02 -.107581433276326D+02
 0.116411191944904D+03 -.191179869692971D+02 -.316556340969269D+02 0.110381108049324D+03
 0.368591079386406D+02 -.437250022316079D+01 0.349962455042953D+02 -.107115769349761D+02
-.219207630373D-06 0.000000000000D+00 0.000000000000D+00 0.460606113133D-05 0.000000000000D+00  6 -2 22 9900012 13 -1 21 2 0.59631598D-01 0.62996998D-02 0.26122463D+04 0.26122463D+04 0.26122463D+04 0.12749018D+01  1  2 14  1  6  1       -2 -.798121224904D-05 0.100000000000D+01
  </mgrwgt>
  </event>
  <event>
  7     66 0.79906760E-06 0.79739479E+02 0.78161638E-02 0.11511882E+00
       21 -1    0    0  502  501 0.00000000E+00 0.00000000E+00 0.38934673E+03 0.38934673E+03 0.00000000E+00 0.0000E+00 0.9000E+01
       22 -1    0    0    0    0 0.00000000E+00 0.00000000E+00 -.77194918E+02 0.77194918E+02 0.00000000E+00 0.0000E+00 0.9000E+01
      -24  2    1    2    0    0 -.63992289E+02 0.67026571E+02 0.34410388E+03 0.36512653E+03 0.79513077E+02 0.0000E+00 0.0000E+00
  9900012  1    3    3    0    0 -.70326392E+02 0.46124887E+02 0.30533901E+03 0.32063252E+03 0.50000000E+02 0.0000E+00 0.9000E+01
       13  1    3    3    0    0 0.63341027E+01 0.20901684E+02 0.38764870E+02 0.44494004E+02 0.00000000E+00 0.0000E+00 0.9000E+01
        2  1    1    2  502    0 0.40018186E+02 -.24913740E+02 -.21649039E+02 0.51873216E+02 0.00000000E+00 0.0000E+00 0.9000E+01
       -1  1    1    2    0  501 0.23974103E+02 -.42112831E+02 -.10303023E+02 0.49541906E+02 0.00000000E+00 0.0000E+00 0.9000E+01
#aMCatNLO 2  0  0  1  5 0.17171456D+03 0.00000000D+00  -5  6  0 0.00000000D+00 0.00000000D+00 0.00000000D+00 0.00000000D+00 0.00000000D+00
  <mgrwgt>
 0.9363586878D-05    1    2    0
 0.120731883065192D+03 0.000000000000000D+00 0.000000000000000D+00 0.120731883065192D+03
 0.120731883065192D+03 0.000000000000000D+00 0.000000000000000D+00 -.120731883065192D+03
 0.112109108058755D+03 -.507681171143325D+02 0.339486787709970D+02 0.796149332983370D+02
 0.217144480541085D+02 0.995537186853071D+01 0.186472247509170D+02 0.496878600290134D+01
 0.000000000000000D+00 0.000000000000000D+00 -.000000000000000D+00 -.000000000000000D+00
 0.107640210017520D+03 0.408127452458018D+02 -.525959035219141D+02 -.845837193012383D+02
 0.127978426204080D+03 0.000000000000000D+00 0.000000000000000D+00 0.127978426204080D+03
 0.234848870892698D+03 0.000000000000000D+00 0.000000000000000D+00 -.234848870892698D+03
 0.126142158607235D+03 -.703263916341276D+02 0.461248871404319D+02 0.796149332983370D+02
 0.223984391047252D+02 0.633410273957051D+01 0.209016837233276D+02 0.496878600290134D+01
 0.116805143646648D+03 0.400181857293416D+02 -.249137400906218D+02 -.106870444688618D+03
 0.974815557381703D+02 0.239741031652156D+02 -.421128307731377D+02 -.845837193012383D+02
0.600876168673D-07 0.000000000000D+00 0.000000000000D+00 0.111932201634D-06 0.239226272533D-10  6 21 22 9900012 13 2 -1 2 0.59899497D-01 0.11876141D-01 0.11586589D+05 0.11586589D+05 0.11586589D+05 0.12027576D+01  1  2  1  3  5  1       -2 0.936358687792D-05 0.100000000000D+01
  </mgrwgt>
  </event>
  <event>
  6     66 0.79906760E-06 0.37433136E+02 0.78161638E-02 0.12118286E+00
       -2 -1    0    0    0  501 0.00000000E+00 0.00000000E+00 0.37048606E+02 0.37048606E+02 0.00000000E+00 0.0000E+00 0.9000E+01
       22 -1    0    0    0    0 -.00000000E+00 -.00000000E+00 -.77415240E+03 0.77415240E+03 0.00000000E+00 0.0000E+00 0.9000E+01
      -24  2    1    2    0    0 0.12268841E+02 -.35365452E+02 -.76100563E+03 0.76678775E+03 0.86212832E+02 0.0000E+00 0.0000E+00
  9900012  1    3    3    0    0 -.58915650E+01 -.18550734E+02 -.67930675E+03 0.68142241E+03 0.50000000E+02 0.0000E+00 0.9000E+01
       13  1    3    3    0    0 0.18160406E+02 -.16814719E+02 -.81698882E+02 0.85365347E+02 0.00000000E+00 0.0000E+00 0.9000E+01
       -1  1    1    2    0  501 -.12268841E+02 0.35365452E+02 0.23901832E+02 0.44413256E+02 0.00000000E+00 0.0000E+00 0.9000E+01
#aMCatNLO 1  0  0  5  1 0.53614203D+02 0.00000000D+00  -5  6  0 0.00000000D+00 0.00000000D+00 0.00000000D+00 0.00000000D+00 0.00000000D+00
  <mgrwgt>
 0.6796607864D-04    4    2    0
 0.169355447584118D+03 0.000000000000000D+00 0.000000000000000D+00 0.169355447584118D+03
 0.169355447584118D+03 -.000000000000000D+00 -.000000000000000D+00 -.169355447584118D+03
 0.153673716340057D+03 -.589156498732493D+01 -.185507335804251D+02 -.144002676500794D+03
 0.266537024263382D+02 0.181604060886477D+02 -.168147188210257D+02 -.989367144679037D+01
 0.158383476401842D+03 -.122688411013228D+02 0.353654524014508D+02 0.153896347947585D+03
 0.000000000000000D+00 0.000000000000000D+00 0.000000000000000D+00 -.000000000000000D+00
 0.169355447584118D+03 0.000000000000000D+00 0.000000000000000D+00 0.169355447584118D+03
 0.169355447584118D+03 -.000000000000000D+00 -.000000000000000D+00 -.169355447584118D+03
 0.134716764238983D+03 -.747933215048853D+01 -.139739277053050D+02 -.124086242195061D+03
 0.248134913073232D+02 0.178770474978010D+02 -.159979257209788D+02 -.633931354690827D+01
 0.128007278583556D+03 0.251162875907560D+02 -.652065155538880D+01 0.125349577467655D+03
 0.511733610383748D+02 -.355140029380685D+02 0.364925049816727D+02 0.507597827431442D+01
0.831205149991D-05 0.000000000000D+00 0.000000000000D+00 0.385795092547D-06 0.000000000000D+00  6 -2 22 9900012 13 -1 21 0 0.56997856D-02 0.11910037D+00 0.33545763D+04 0.33545763D+04 0.33545763D+04 0.12618434D+01  1  2  2  2  6  5       -1 0.813578650834D-04 0.100000000000D+01
0.389188623213D-06 0.000000000000D+00 -.159602331865D-07 0.385795092547D-06 0.000000000000D+00  6 -2 22 9900012 13 -1 21 2 0.56997856D-02 0.11910037D+00 0.33545763D+04 0.33545763D+04 0.33545763D+04 0.12618434D+01  1  2  3  2  6  5       -1 0.606544134858D-05 0.100000000000D+01
-.120529441224D-05 0.000000000000D+00 0.000000000000D+00 0.385795092547D-06 0.000000000000D+00  6 -2 22 9900012 13 -1 21 2 0.56997856D-02 0.11910037D+00 0.33545763D+04 0.33545763D+04 0.33545763D+04 0.12618434D+01  1  2 15  2  6  5       -1 -.187843172416D-04 0.100000000000D+01
-.431772589068D-07 0.000000000000D+00 0.000000000000D+00 0.385795092547D-06 0.000000000000D+00  6 -2 22 9900012 13 -1 21 2 0.56997856D-02 0.11910037D+00 0.33545763D+04 0.33545763D+04 0.33545763D+04 0.12618434D+01  1  2  4  2  6  5       -1 -.672910552549D-06 0.100000000000D+01
  </mgrwgt>
  </event>
  <event>
  6     66 0.79906760E-06 0.41314997E+02 0.78161638E-02 0.97468389E-01
       -2 -1    0    0    0  501 0.00000000E+00 0.00000000E+00 0.56732558E+02 0.56732558E+02 0.00000000E+00 0.0000E+00 0.9000E+01
       22 -1    0    0    0    0 0.00000000E+00 0.00000000E+00 -.39958998E+03 0.39958998E+03 0.00000000E+00 0.0000E+00 0.9000E+01
      -24  2    1    2    0    0 -.37062356E+02 -.18256799E+02 -.38604576E+03 0.39655498E+03 0.80731600E+02 0.0000E+00 0.0000E+00
  9900012  1    3    3    0    0 -.10151295E+02 -.81572326E+01 -.14758122E+03 0.15636434E+03 0.50000000E+02 0.0000E+00 0.9000E+01
       13  1    3    3    0    0 -.26911061E+02 -.10099566E+02 -.23846454E+03 0.24019064E+03 0.00000000E+00 0.0000E+00 0.9000E+01
       -1  1    1    2    0  501 0.37062356E+02 0.18256799E+02 0.43188338E+02 0.59767562E+02 0.00000000E+00 0.0000E+00 0.9000E+01
#aMCatNLO 1  0  0  1  5 0.76837797D+02 0.00000000D+00  -5  6  0 0.00000000D+00 0.00000000D+00 0.00000000D+00 0.00000000D+00 0.00000000D+00
  <mgrwgt>
 0.1083246142D-03    5    4    0
 0.150564809398596D+03 0.000000000000000D+00 0.000000000000000D+00 0.150564809398596D+03
 0.150564809398596D+03 0.000000000000000D+00 0.000000000000000D+00 -.150564809398596D+03
 0.689180106681545D+02 -.101512952327058D+02 -.815723262986948D+01 -.456081457129809D+02
 0.924687020306976D+02 -.269110610261750D+02 -.100995663298839D+02 -.878877375384968D+02
 0.139742906098339D+03 0.370623562588808D+02 0.182567989597534D+02 0.133495883251478D+03
 0.000000000000000D+00 0.000000000000000D+00 0.000000000000000D+00 0.000000000000000D+00
 0.769272543471863D+03 0.000000000000000D+00 0.000000000000000D+00 0.769272543471863D+03
 0.297876974030611D+03 0.000000000000000D+00 0.000000000000000D+00 -.297876974030611D+03
 0.121134410107726D+03 -.990905639753360D+02 -.165681166044946D+02 -.456081457129809D+02
 0.178400161095733D+03 -.153670186288891D+03 -.220870304768502D+02 -.878877375384968D+02
 0.172411178016039D+03 -.109017108884567D+03 0.444223257342185D+01 0.133495883251478D+03
 0.595203768282975D+03 0.361777859148795D+03 0.342129145079230D+02 0.471395569441252D+03
 0.150564809398596D+03 0.000000000000000D+00 0.000000000000000D+00 0.150564809398596D+03
 0.150564809398596D+03 0.000000000000000D+00 0.000000000000000D+00 -.150564809398596D+03
 0.689180106681545D+02 -.101512952327058D+02 -.815723262986948D+01 -.456081457129809D+02
 0.924687020306976D+02 -.269110610261750D+02 -.100995663298839D+02 -.878877375384968D+02
 0.000000000000000D+00 0.000000000000000D+00 0.000000000000000D+00 0.000000000000000D+00
 0.139742906098339D+03 0.370623562588808D+02 0.182567989597534D+02 0.133495883251478D+03
 0.769272543471863D+03 0.000000000000000D+00 0.000000000000000D+00 0.769272543471863D+03
 0.297876974030611D+03 0.000000000000000D+00 0.000000000000000D+00 -.297876974030611D+03
 0.121134410107726D+03 -.990905639753360D+02 -.165681166044946D+02 -.456081457129809D+02
 0.178400161095733D+03 -.153670186288891D+03 -.220870304768502D+02 -.878877375384968D+02
 0.595203768282975D+03 0.361777859148795D+03 0.342129145079230D+02 0.471395569441252D+03
 0.172411178016039D+03 -.109017108884567D+03 0.444223257342185D+01 0.133495883251478D+03
0.551121925441D-05 0.000000000000D+00 0.000000000000D+00 0.905092588441D-05 0.000000000000D+00  6 -2 22 9900012 13 -1 21 0 0.87280858D-02 0.61475382D-01 0.37043578D+04 0.37043578D+04 0.37043578D+04 0.12567819D+01  1  2  2  1  6  1       -2 0.990185487824D-04 0.100000000000D+01
0.211861088312D-06 0.000000000000D+00 -.105822665371D-07 0.905092588441D-05 0.000000000000D+00  6 -2 22 9900012 13 -1 21 2 0.87280858D-02 0.61475382D-01 0.37043578D+04 0.37043578D+04 0.37043578D+04 0.12567819D+01  1  2  3  1  6  1       -2 0.601229005150D-05 0.100000000000D+01
-.759694661474D-06 0.000000000000D+00 0.000000000000D+00 0.905092588441D-05 0.000000000000D+00  6 -2 22 9900012 13 -1 21 2 0.87280858D-02 0.61475382D-01 0.37043578D+04 0.37043578D+04 0.37043578D+04 0.12567819D+01  1  2 15  1  6  1       -2 -.215589596549D-04 0.100000000000D+01
0.121281864570D-04 0.000000000000D+00 -.384982047924D-05 0.905092588441D-05 0.000000000000D+00  6 -2 22 9900012 13 -1 21 2 0.82512888D-01 0.61475382D-01 0.37043578D+04 0.37043578D+04 0.37043578D+04 0.12567819D+01  1  2  5  1  6  1       -2 0.748164230982D-05 0.100000000000D+01
0.268403679410D-05 0.000000000000D+00 -.103516511628D-05 0.905092588441D-05 0.000000000000D+00  6 21 22 9900012 13 2 -1 2 0.82512888D-01 0.61475382D-01 0.37043578D+04 0.37043578D+04 0.37043578D+04 0.12567819D+01  3  4  5  3  5  1       -2 0.173710927563D-04 0.100000000000D+01
  </mgrwgt>
  </event>
  <event>
  6     66 0.79906760E-06 0.64723344E+02 0.78161638E-02 0.11818489E+00
       -2 -1    0    0    0  501 0.00000000E+00 0.00000000E+00 0.15562640E+03 0.15562640E+03 0.00000000E+00 0.0000E+00 0.9000E+01
       22 -1    0    0    0    0 0.00000000E+00 0.00000000E+00 -.86783495E+02 0.86783495E+02 0.00000000E+00 0.0000E+00 0.9000E+01
      -24  2    1    2    0    0 0.59362524E+02 -.42122052E+02 -.36807344E+02 0.11411277E+03 0.79804557E+02 0.0000E+00 0.0000E+00
  9900012  1    3    3    0    0 0.57232845E+02 -.13478438E+02 -.36523441E+02 0.85388691E+02 0.50000000E+02 0.0000E+00 0.9000E+01
       13  1    3    3    0    0 0.21296793E+01 -.28643614E+02 -.28390256E+00 0.28724080E+02 0.00000000E+00 0.0000E+00 0.9000E+01
       -1  1    1    2    0  501 -.59362524E+02 0.42122052E+02 0.10565025E+03 0.12829712E+03 0.00000000E+00 0.0000E+00 0.9000E+01
#aMCatNLO 1  0  0  5  1 0.10563927D+02 0.00000000D+00  -5  6  0 0.00000000D+00 0.00000000D+00 0.00000000D+00 0.00000000D+00 0.00000000D+00
  <mgrwgt>
 0.2569049804D-04    5    2    0
 0.116214467734951D+03 0.000000000000000D+00 0.000000000000000D+00 0.116214467734951D+03
 0.116214467734951D+03 -.000000000000000D+00 -.000000000000000D+00 -.116214467734951D+03
 0.998732924364737D+02 0.572328451062206D+02 -.134784377763649D+02 -.633830237386748D+02
 0.300416368543403D+02 0.212967933602783D+01 -.286436138390626D+02 -.880385126251085D+01
 0.102514006179088D+03 -.593625244422484D+02 0.421220516154275D+02 0.721868750011857D+02
 0.000000000000000D+00 0.000000000000000D+00 0.000000000000000D+00 0.000000000000000D+00
 0.116214467734951D+03 0.000000000000000D+00 0.000000000000000D+00 0.116214467734951D+03
 0.116214467734951D+03 -.000000000000000D+00 -.000000000000000D+00 -.116214467734951D+03
 0.982797537745720D+02 0.561226974650894D+02 -.126907068521862D+02 -.620330459579764D+02
 0.296756682448111D+02 0.179511458086415D+01 -.284062156822605D+02 -.839700899312086D+01
 0.149342161107012D+02 -.576416296153216D+01 -.389045886732292D+01 0.132162614227964D+02
 0.895392973398177D+02 -.521536490844213D+02 0.449873814017696D+02 0.572137935283009D+02
0.715613438204D-06 0.000000000000D+00 0.000000000000D+00 0.954028770308D-06 0.000000000000D+00  6 -2 22 9900012 13 -1 21 0 0.23942523D-01 0.13351307D-01 0.79829385D+04 0.79829385D+04 0.79829385D+04 0.12196093D+01  1  2  2  2  6  5       -1 0.305846121317D-04 0.100000000000D+01
-.938034923325D-09 0.000000000000D+00 -.137407201402D-08 0.954028770308D-06 0.000000000000D+00  6 -2 22 9900012 13 -1 21 2 0.23942523D-01 0.13351307D-01 0.79829385D+04 0.79829385D+04 0.79829385D+04 0.12196093D+01  1  2  3  2  6  5       -1 -.596327611271D-07 0.100000000000D+01
-.102470171355D-06 0.000000000000D+00 0.000000000000D+00 0.954028770308D-06 0.000000000000D+00  6 -2 22 9900012 13 -1 21 2 0.23942523D-01 0.13351307D-01 0.79829385D+04 0.79829385D+04 0.79829385D+04 0.12196093D+01  1  2 15  2  6  5       -1 -.651423427752D-05 0.100000000000D+01
0.195671555593D-06 0.000000000000D+00 0.000000000000D+00 0.954028770308D-06 0.000000000000D+00  6 -2 22 9900012 13 -1 21 2 0.23942523D-01 0.13351307D-01 0.81470050D+04 0.81470050D+04 0.81470050D+04 0.12186694D+01  1  2 12  2  6  5       -1 0.124406350354D-04 0.100000000000D+01
-.169270766885D-06 0.000000000000D+00 0.000000000000D+00 0.954028770308D-06 0.000000000000D+00  6 -2 22 9900012 13 -1 21 2 0.23942523D-01 0.13351307D-01 0.79829385D+04 0.79829385D+04 0.79829385D+04 0.12196093D+01  1  2  5  2  6  5       -1 -.107608820913D-04 0.100000000000D+01
  </mgrwgt>
  </event>
  <event>
  6     66 0.79906760E-06 0.36873546E+02 0.78161638E-02 0.11972690E+00
       -2 -1    0    0    0  501 0.00000000E+00 0.00000000E+00 0.32391217E+02 0.32391217E+02 0.00000000E+00 0.0000E+00 0.9000E+01
       22 -1    0    0    0    0 -.00000000E+00 -.00000000E+00 -.35530958E+03 0.35530958E+03 0.00000000E+00 0.0000E+00 0.9000E+01
      -24  2    1    2    0    0 0.31760950E+02 0.18732338E+02 -.33690401E+03 0.34826405E+03 0.80149069E+02 0.0000E+00 0.0000E+00
  9900012  1    3    3    0    0 0.97409980E+01 0.12678691E+02 -.30216504E+03 0.30669096E+03 0.50000000E+02 0.0000E+00 0.9000E+01
       13  1    3    3    0    0 0.22019952E+02 0.60536476E+01 -.34738978E+02 0.41573086E+02 0.00000000E+00 0.0000E+00 0.9000E+01
       -1  1    1    2    0  501 -.31760950E+02 -.18732338E+02 0.13985655E+02 0.39436746E+02 0.00000000E+00 0.0000E+00 0.9000E+01
#aMCatNLO 1  0  0  5  1 0.12632420D-01 0.00000000D+00  -5  6  0 0.00000000D+00 0.00000000D+00 0.00000000D+00 0.00000000D+00 0.00000000D+00
  <mgrwgt>
 0.7958779812D-04    4    2    0
 0.107279585845283D+03 0.000000000000000D+00 0.000000000000000D+00 0.107279585845283D+03
 0.107279585845283D+03 -.000000000000000D+00 -.000000000000000D+00 -.107279585845283D+03
 0.994116950500190D+02 0.974099799964239D+01 0.126786905088823D+02 -.844218507121759D+02
 0.228378248435307D+02 0.220199516470487D+02 0.605364755444911D+01 -.203283870334328D+00
 0.923096517970171D+02 -.317609496466911D+02 -.187323380633314D+02 0.846251345825102D+02
 0.000000000000000D+00 0.000000000000000D+00 0.000000000000000D+00 0.000000000000000D+00
 0.107279585845283D+03 0.000000000000000D+00 0.000000000000000D+00 0.107279585845283D+03
 0.107279585845283D+03 -.000000000000000D+00 -.000000000000000D+00 -.107279585845283D+03
 0.790321920180324D+02 0.855006061402372D+00 0.743780801428437D+01 -.607456611763569D+02
 0.211567720691746D+02 0.198291473560430D+02 0.476152981029372D+01 0.563398201852145D+01
 0.688005382993813D+02 0.383770236974137D+01 -.498074366272050D+02 0.473075614192158D+02
 0.455696693039786D+02 -.245218557871868D+02 0.376080988026269D+02 0.780411773861960D+01
0.197818138328D-05 0.000000000000D+00 0.000000000000D+00 0.206940492235D-05 0.000000000000D+00  6 -2 22 9900012 13 -1 21 0 0.49832641D-02 0.54663012D-01 0.31474692D+04 0.31474692D+04 0.31474692D+04 0.12651301D+01  1  2  2  2  6  5       -1 0.971708088454D-04 0.100000000000D+01
0.608215893091D-07 0.000000000000D+00 -.379836868946D-08 0.206940492235D-05 0.000000000000D+00  6 -2 22 9900012 13 -1 21 2 0.49832641D-02 0.54663012D-01 0.31474692D+04 0.31474692D+04 0.31474692D+04 0.12651301D+01  1  2  3  2  6  5       -1 0.478187105425D-05 0.100000000000D+01
-.273059911807D-06 0.000000000000D+00 0.000000000000D+00 0.206940492235D-05 0.000000000000D+00  6 -2 22 9900012 13 -1 21 2 0.49832641D-02 0.54663012D-01 0.31474692D+04 0.31474692D+04 0.31474692D+04 0.12651301D+01  1  2 15  2  6  5       -1 -.214683191146D-04 0.100000000000D+01
-.114035626303D-07 0.000000000000D+00 0.000000000000D+00 0.206940492235D-05 0.000000000000D+00  6 -2 22 9900012 13 -1 21 2 0.49832641D-02 0.54663012D-01 0.31474692D+04 0.31474692D+04 0.31474692D+04 0.12651301D+01  1  2  4  2  6  5       -1 -.896562662642D-06 0.100000000000D+01
  </mgrwgt>
  </event>
  <event>
  6     66 0.79906760E-06 0.19186022E+02 0.78161638E-02 0.12398752E+00
       -2 -1    0    0    0  501 0.00000000E+00 0.00000000E+00 0.46549358E+01 0.46549358E+01 0.00000000E+00 0.0000E+00 0.9000E+01
       22 -1    0    0    0    0 -.00000000E+00 -.00000000E+00 -.15816887E+04 0.15816887E+04 0.00000000E+00 0.0000E+00 0.9000E+01
      -24  2    1    2    0    0 -.22281633E+02 0.30688797E+02 -.14684766E+04 0.14713527E+04 0.83766082E+02 0.0000E+00 0.0000E+00
  9900012  1    3    3    0    0 -.15764878E-01 0.37332692E+02 -.12679079E+04 0.12694425E+04 0.50000000E+02 0.0000E+00 0.9000E+01
       13  1    3    3    0    0 -.22265868E+02 -.66438950E+01 -.20056874E+03 0.20191020E+03 0.00000000E+00 0.0000E+00 0.9000E+01
       -1  1    1    2    0  501 0.22281633E+02 -.30688797E+02 -.10855711E+03 0.11499096E+03 0.00000000E+00 0.0000E+00 0.9000E+01
#aMCatNLO 1  0  0  5  1 0.13389483D+02 0.00000000D+00  -5  6  0 0.00000000D+00 0.00000000D+00 0.00000000D+00 0.00000000D+00 0.00000000D+00
  <mgrwgt>
 0.1691618687D-04    5    2    0
 0.858059395868017D+02 0.000000000000000D+00 0.000000000000000D+00 0.858059395868017D+02
 0.858059395868017D+02 -.000000000000000D+00 -.000000000000000D+00 -.858059395868017D+02
 0.829686606221875D+02 -.157648784133695D-01 0.373326917064978D+02 -.546815190613421D+02
 0.232809581825804D+02 -.222658682045615D+02 -.664389502927315D+01 0.144664641020214D+01
 0.653622603688355D+02 0.222816330829749D+02 -.306887966772247D+02 0.532348726511399D+02
 0.000000000000000D+00 0.000000000000000D+00 0.000000000000000D+00 0.000000000000000D+00
 0.858059395868017D+02 0.000000000000000D+00 0.000000000000000D+00 0.858059395868017D+02
 0.858059395868017D+02 -.000000000000000D+00 -.000000000000000D+00 -.858059395868017D+02
 0.780620608143376D+02 0.227829839148184D+01 0.341730471242389D+02 -.492005848061307D+02
 0.230867345080455D+02 -.216053084072605D+02 -.755369303362186D+01 0.302484386802912D+01
 0.623023584160240D+02 0.230321860271659D+02 -.338478367115678D+02 0.469619656845386D+02
 0.816072543519619D+01 -.370517601138729D+01 0.722848262095083D+01 -.786224746437099D+00
0.283398744397D-06 0.000000000000D+00 0.000000000000D+00 0.387954795967D-07 0.000000000000D+00  6 -2 22 9900012 13 -1 21 0 0.71614397D-03 0.24333672D+00 0.38167872D+04 0.38167872D+04 0.38167872D+04 0.12552686D+01  1  2  2  2  6  5       -1 0.983373010154D-05 0.100000000000D+01
0.642734182888D-08 0.000000000000D+00 -.544162899544D-09 0.387954795967D-07 0.000000000000D+00  6 -2 22 9900012 13 -1 21 2 0.71614397D-03 0.24333672D+00 0.38167872D+04 0.38167872D+04 0.38167872D+04 0.12552686D+01  1  2  3  2  6  5       -1 0.351418882881D-06 0.100000000000D+01
-.406695656350D-07 0.000000000000D+00 0.000000000000D+00 0.387954795967D-07 0.000000000000D+00  6 -2 22 9900012 13 -1 21 2 0.71614397D-03 0.24333672D+00 0.38167872D+04 0.38167872D+04 0.38167872D+04 0.12552686D+01  1  2 15  2  6  5       -1 -.222363361141D-05 0.100000000000D+01
0.175870409423D-06 0.000000000000D+00 0.000000000000D+00 0.387954795967D-07 0.000000000000D+00  6 -2 22 9900012 13 -1 21 2 0.71614397D-03 0.24333672D+00 0.43928108D+04 0.43928108D+04 0.43928108D+04 0.12482280D+01  1  2 12  2  6  5       -1 0.967399827746D-05 0.100000000000D+01
-.131562626225D-07 0.000000000000D+00 0.000000000000D+00 0.387954795967D-07 0.000000000000D+00  6 -2 22 9900012 13 -1 21 2 0.71614397D-03 0.24333672D+00 0.38167872D+04 0.38167872D+04 0.38167872D+04 0.12552686D+01  1  2  4  2  6  5       -1 -.719326781860D-06 0.100000000000D+01
  </mgrwgt>
  </event>
  <event>
  7     66 -.79906760E-06 0.39060771E+02 0.78161638E-02 0.12225487E+00
       -2 -1    0    0    0  502 0.00000000E+00 0.00000000E+00 0.33476364E+02 0.33476364E+02 0.00000000E+00 0.0000E+00 0.9000E+01
       22 -1    0    0    0    0 0.00000000E+00 0.00000000E+00 -.61412494E+03 0.61412494E+03 0.00000000E+00 0.0000E+00 0.9000E+01
      -24  2    1    2    0    0 -.42135043E+02 0.17238923E+01 -.57413692E+03 0.58089218E+03 0.77615622E+02 0.0000E+00 0.0000E+00
  9900012  1    3    3    0    0 -.44724549E+01 -.27761839E+01 -.31183661E+03 0.31586355E+03 0.50000000E+02 0.0000E+00 0.9000E+01
       13  1    3    3    0    0 -.37662589E+02 0.45000762E+01 -.26230031E+03 0.26502863E+03 0.00000000E+00 0.0000E+00 0.9000E+01
       -1  1    1    2    0  501 0.42876615E+02 -.13455804E+02 0.10387622E+02 0.46123373E+02 0.00000000E+00 0.0000E+00 0.9000E+01
       21  1    1    2  501  502 -.74157189E+00 0.11731912E+02 -.16899276E+02 0.20585753E+02 0.00000000E+00 0.0000E+00 0.9000E+01
#aMCatNLO 2  0  0  1  5 0.14655447D+02 0.00000000D+00  -5  6  0 0.00000000D+00 0.00000000D+00 0.00000000D+00 0.00000000D+00 0.00000000D+00
  <mgrwgt>
 -.2605225111D-04    3    2    0
 0.137110394457490D+03 0.000000000000000D+00 0.000000000000000D+00 0.137110394457490D+03
 0.137110394457490D+03 0.000000000000000D+00 0.000000000000000D+00 -.137110394457490D+03
 0.810457646465678D+02 -.469156885122905D+01 0.690271799595866D+00 -.636076149034353D+02
 0.670488167842681D+02 -.378433440401910D+02 0.735968653685505D+01 -.548567239097025D+02
 0.126126207484143D+03 0.425349128914201D+02 -.804995833645092D+01 0.118464338813138D+03
 0.000000000000000D+00 -.000000000000000D+00 0.000000000000000D+00 0.000000000000000D+00
 0.145232975175958D+03 0.000000000000000D+00 0.000000000000000D+00 0.145232975175958D+03
 0.141556489451148D+03 0.000000000000000D+00 0.000000000000000D+00 -.141556489451148D+03
 0.810779792740108D+02 -.447245485033623D+01 -.277618390329276D+01 -.636076149034353D+02
 0.666931887455007D+02 -.376625886171395D+02 0.450007617644083D+01 -.548567239097025D+02
 0.126701469515604D+03 0.428766153620403D+02 -.134558040293138D+02 0.118464338813138D+03
 0.123168270919907D+02 -.741571894564493D+00 0.117319117561657D+02 0.367648572480960D+01
-.931769244346D-06 0.000000000000D+00 0.000000000000D+00 0.110826910749D-05 0.000000000000D+00  6 -2 22 9900012 13 -1 21 2 0.53172163D-02 0.91513249D-01 0.52490442D+04 0.52490442D+04 0.52490442D+04 0.12394757D+01  1  2 13  1  6  1       -2 -.270445778399D-04 0.100000000000D+01
-.102809925303D-08 0.000000000000D+00 0.000000000000D+00 0.110826910749D-05 0.000000000000D+00  6 -2 22 9900012 13 -1 21 2 0.48621692D-02 0.91513249D-01 0.43604020D+04 0.43604020D+04 0.43604020D+04 0.12485960D+01  1  2  8  1  6  1       -2 -.338838426166D-07 0.100000000000D+01
0.358420918636D-07 0.000000000000D+00 0.000000000000D+00 0.110826910749D-05 0.304339450074D-08  6 -2 22 9900012 13 -1 21 2 0.51502099D-02 0.94480760D-01 0.52490442D+04 0.52490442D+04 0.52490442D+04 0.12394757D+01  1  2  1  1  6  1       -2 0.102621056840D-05 0.100000000000D+01
  </mgrwgt>
  </event>
  <event>
  6     66 0.79906760E-06 0.26208494E+02 0.78161638E-02 0.12170118E+00
       -4 -1    0    0    0  501 0.00000000E+00 0.00000000E+00 0.29648537E+02 0.29648537E+02 0.00000000E+00 0.0000E+00 0.9000E+01
       22 -1    0    0    0    0 0.00000000E+00 0.00000000E+00 -.41389704E+03 0.41389704E+03 0.00000000E+00 0.0000E+00 0.9000E+01
      -24  2    1    2    0    0 -.43547639E+02 0.53321554E+00 -.38927658E+03 0.39970538E+03 0.79570455E+02 0.0000E+00 0.0000E+00
  9900012  1    3    3    0    0 -.18604311E+02 0.48907997E+01 -.34108463E+03 0.34526623E+03 0.50000000E+02 0.0000E+00 0.9000E+01
       13  1    3    3    0    0 -.24943327E+02 -.43575841E+01 -.48191946E+02 0.54439156E+02 0.00000000E+00 0.0000E+00 0.9000E+01
       -3  1    1    2    0  501 0.43547639E+02 -.53321554E+00 0.50280746E+01 0.43840195E+02 0.00000000E+00 0.0000E+00 0.9000E+01
#aMCatNLO 1  0  0  1  5 0.42320341D+02 0.00000000D+00  -5  6  0 0.00000000D+00 0.00000000D+00 0.00000000D+00 0.00000000D+00 0.00000000D+00
  <mgrwgt>
 0.2932911867D-04    6    4    0
 0.110776539245929D+03 0.000000000000000D+00 0.000000000000000D+00 0.110776539245929D+03
 0.110776539245929D+03 0.000000000000000D+00 0.000000000000000D+00 -.110776539245929D+03
 0.996603074237401D+02 -.186043112362248D+02 0.489079965027750D+01 -.840365191925564D+02
 0.254050363550735D+02 -.249433272863721D+02 -.435758411467973D+01 -.206343324850227D+01
 0.964877347130439D+02 0.435476385225969D+02 -.533215535597763D+00 0.860999524410587D+02
 0.000000000000000D+00 0.000000000000000D+00 -.000000000000000D+00 -.000000000000000D+00
 0.122720256643382D+03 0.000000000000000D+00 0.000000000000000D+00 0.122720256643382D+03
 0.128192809439768D+03 0.000000000000000D+00 0.000000000000000D+00 -.128192809439768D+03
 0.102453961700277D+03 -.274148946531444D+02 0.135314914639143D+02 -.840365191925564D+02
 0.274039832716875D+02 -.272453828245777D+02 -.209991836177266D+01 -.206343324850227D+01
 0.933531979049812D+02 0.352720754956708D+02 0.758277251153618D+01 0.860999524410587D+02
 0.277019232062042D+02 0.193882019820512D+02 -.190143456136778D+02 -.547255279638619D+01
 0.110776539245929D+03 0.000000000000000D+00 0.000000000000000D+00 0.110776539245929D+03
 0.110776539245929D+03 0.000000000000000D+00 0.000000000000000D+00 -.110776539245929D+03
 0.996603074237401D+02 -.186043112362248D+02 0.489079965027750D+01 -.840365191925564D+02
 0.254050363550735D+02 -.249433272863721D+02 -.435758411467973D+01 -.206343324850227D+01
 0.000000000000000D+00 0.000000000000000D+00 -.000000000000000D+00 -.000000000000000D+00
 0.964877347130439D+02 0.435476385225969D+02 -.533215535597763D+00 0.860999524410587D+02
 0.122720256643382D+03 0.000000000000000D+00 0.000000000000000D+00 0.122720256643382D+03
 0.128192809439768D+03 0.000000000000000D+00 0.000000000000000D+00 -.128192809439768D+03
 0.102453961700277D+03 -.274148946531444D+02 0.135314914639143D+02 -.840365191925564D+02
 0.274039832716875D+02 -.272453828245777D+02 -.209991836177266D+01 -.206343324850227D+01
 0.277019232062042D+02 0.193882019820512D+02 -.190143456136778D+02 -.547255279638619D+01
 0.933531979049812D+02 0.352720754956708D+02 0.758277251153618D+01 0.860999524410587D+02
0.946941485734D-06 0.000000000000D+00 0.000000000000D+00 0.183723223490D-05 0.000000000000D+00  6 -4 22 9900012 13 -3 21 0 0.45613134D-02 0.63676468D-01 0.37481798D+04 0.37481798D+04 0.37481798D+04 0.12561860D+01  1  2  2  1  6  1       -4 0.284210690941D-04 0.100000000000D+01
0.201494090041D-07 0.000000000000D+00 -.181825232032D-08 0.183723223490D-05 0.000000000000D+00  6 -4 22 9900012 13 -3 21 2 0.45613134D-02 0.63676468D-01 0.37481798D+04 0.37481798D+04 0.37481798D+04 0.12561860D+01  1  2  3  1  6  1       -4 0.954305623776D-06 0.100000000000D+01
-.137863542248D-06 0.000000000000D+00 0.000000000000D+00 0.183723223490D-05 0.000000000000D+00  6 -4 22 9900012 13 -3 21 2 0.45613134D-02 0.63676468D-01 0.37481798D+04 0.37481798D+04 0.37481798D+04 0.12561860D+01  1  2 15  1  6  1       -4 -.652941997723D-05 0.100000000000D+01
0.126031006656D-06 0.000000000000D+00 0.000000000000D+00 0.183723223490D-05 0.000000000000D+00  6 -4 22 9900012 13 -3 21 2 0.58475540D-02 0.63676468D-01 0.55626418D+04 0.55626418D+04 0.55626418D+04 0.12366657D+01  1  2 12  1  6  1       -4 0.416590920840D-05 0.100000000000D+01
-.202267787749D-07 0.000000000000D+00 0.000000000000D+00 0.183723223490D-05 0.000000000000D+00  6 -4 22 9900012 13 -3 21 2 0.45613134D-02 0.63676468D-01 0.37481798D+04 0.37481798D+04 0.37481798D+04 0.12561860D+01  1  2  4  1  6  1       -4 -.957969969826D-06 0.100000000000D+01
0.424529454547D-08 0.000000000000D+00 0.000000000000D+00 0.183723223490D-05 0.000000000000D+00  6 21 22 9900012 13 4 -3 2 0.58475540D-02 0.63676468D-01 0.55626418D+04 0.55626418D+04 0.55626418D+04 0.12366657D+01  3  4 12  3  5  1       -4 0.327522468949D-05 0.100000000000D+01
  </mgrwgt>
  </event>
  <event>
  6     66 0.79906760E-06 0.28234072E+02 0.78161638E-02 0.12125239E+00
       -2 -1    0    0    0  501 0.00000000E+00 0.00000000E+00 0.14675571E+03 0.14675571E+03 0.00000000E+00 0.0000E+00 0.9000E+01
       22 -1    0    0    0    0 0.00000000E+00 0.00000000E+00 -.69293601E+02 0.69293601E+02 0.00000000E+00 0.0000E+00 0.9000E+01
      -24  2    1    2    0    0 0.45644812E+02 -.47492305E+01 -.32055954E+02 0.97305006E+02 0.79590677E+02 0.0000E+00 0.0000E+00
  9900012  1    3    3    0    0 0.28989994E+02 -.24024463E+02 -.95534322E+01 0.63315580E+02 0.50000000E+02 0.0000E+00 0.9000E+01
       13  1    3    3    0    0 0.16654818E+02 0.19275233E+02 -.22502522E+02 0.33989426E+02 0.00000000E+00 0.0000E+00 0.9000E+01
       -1  1    1    2    0  501 -.45644812E+02 0.47492305E+01 0.10951806E+03 0.11874431E+03 0.00000000E+00 0.0000E+00 0.9000E+01
#aMCatNLO 1  0  0  5  1 0.21162998D+02 0.00000000D+00  -5  6  0 0.00000000D+00 0.00000000D+00 0.00000000D+00 0.00000000D+00 0.00000000D+00
  <mgrwgt>
 0.5250163119D-04    5    2    0
 0.100842609034822D+03 0.000000000000000D+00 0.000000000000000D+00 0.100842609034822D+03
 0.100842609034822D+03 -.000000000000000D+00 -.000000000000000D+00 -.100842609034822D+03
 0.714941664192092D+02 0.289899936563401D+02 -.240244634978422D+02 -.345517185306865D+02
 0.450528059803878D+02 0.166548182765290D+02 0.192752329494032D+02 -.371596252622185D+02
 0.851382456700479D+02 -.456448119328691D+02 0.474923054843904D+01 0.717113437929050D+02
 0.000000000000000D+00 0.000000000000000D+00 0.000000000000000D+00 0.000000000000000D+00
 0.100842609034822D+03 0.000000000000000D+00 0.000000000000000D+00 0.100842609034822D+03
 0.100842609034822D+03 -.000000000000000D+00 -.000000000000000D+00 -.100842609034822D+03
 0.675207595529331D+02 0.255268448107262D+02 -.236641313681892D+02 -.291108579606164D+02
 0.416012616817776D+02 0.144960865267304D+02 0.194998436847285D+02 -.337680995200564D+02
 0.756199314518639D+02 -.533601277179055D+02 -.600622263615533D+00 0.535790076019504D+02
 0.169432653830704D+02 0.133371963804488D+02 0.476490994707624D+01 0.929994987872238D+01
0.555512965010D-06 0.000000000000D+00 0.000000000000D+00 0.135152023918D-05 0.000000000000D+00  6 -2 22 9900012 13 -1 21 0 0.22577802D-01 0.10660554D-01 0.44860372D+04 0.44860372D+04 0.44860372D+04 0.12471862D+01  1  2  2  2  6  5       -1 0.342645120545D-04 0.100000000000D+01
0.115118587906D-07 0.000000000000D+00 -.106665802778D-08 0.135152023918D-05 0.000000000000D+00  6 -2 22 9900012 13 -1 21 2 0.22577802D-01 0.10660554D-01 0.44860372D+04 0.44860372D+04 0.44860372D+04 0.12471862D+01  1  2  3  2  6  5       -1 0.110448139218D-05 0.100000000000D+01
-.830150617295D-07 0.000000000000D+00 0.000000000000D+00 0.135152023918D-05 0.000000000000D+00  6 -2 22 9900012 13 -1 21 2 0.22577802D-01 0.10660554D-01 0.44860372D+04 0.44860372D+04 0.44860372D+04 0.12471862D+01  1  2 15  2  6  5       -1 -.796470775216D-05 0.100000000000D+01
0.288696554159D-06 0.000000000000D+00 0.000000000000D+00 0.135152023918D-05 0.000000000000D+00  6 -2 22 9900012 13 -1 21 2 0.22577802D-01 0.10660554D-01 0.58329157D+04 0.58329157D+04 0.58329157D+04 0.12343834D+01  1  2 12  2  6  5       -1 0.277804167788D-04 0.100000000000D+01
-.279652857891D-07 0.000000000000D+00 0.000000000000D+00 0.135152023918D-05 0.000000000000D+00  6 -2 22 9900012 13 -1 21 2 0.22577802D-01 0.10660554D-01 0.44860372D+04 0.44860372D+04 0.44860372D+04 0.12471862D+01  1  2  4  2  6  5       -1 -.268307128701D-05 0.100000000000D+01
  </mgrwgt>
  </event>
  <event>
  6     66 0.79906760E-06 0.18781255E+02 0.78161638E-02 0.12773924E+00
       -2 -1    0    0    0  501 0.00000000E+00 0.00000000E+00 0.29108949E+03 0.29108949E+03 0.00000000E+00 0.0000E+00 0.9000E+01
       22 -1    0    0    0    0 0.00000000E+00 0.00000000E+00 -.56349119E+02 0.56349119E+02 0.00000000E+00 0.0000E+00 0.9000E+01
      -24  2    1    2    0    0 0.19163679E+02 -.13993623E+02 -.22648693E+02 0.88958051E+02 0.82689198E+02 0.0000E+00 0.0000E+00
  9900012  1    3    3    0    0 -.84952398E+01 0.70376619E+01 -.11637170E+02 0.52508299E+02 0.50000000E+02 0.0000E+00 0.9000E+01
       13  1    3    3    0    0 0.27658919E+02 -.21031285E+02 -.11011523E+02 0.36449752E+02 0.00000000E+00 0.0000E+00 0.9000E+01
       -1  1    1    2    0  501 -.19163679E+02 0.13993623E+02 0.25738906E+03 0.25848055E+03 0.00000000E+00 0.0000E+00 0.9000E+01
#aMCatNLO 1  0  0  5  1 0.28265764D+01 0.00000000D+00  -5  6  0 0.00000000D+00 0.00000000D+00 0.00000000D+00 0.00000000D+00 0.00000000D+00
  <mgrwgt>
 0.8142435069D-04    6    2    0
 0.128072776308739D+03 0.000000000000000D+00 0.000000000000000D+00 0.128072776308739D+03
 0.128072776308739D+03 -.000000000000000D+00 -.000000000000000D+00 -.128072776308739D+03
 0.818875189313642D+02 -.849523983069650D+01 0.703766190370760D+01 -.639051482423957D+02
 0.595321678189594D+02 0.276589191722126D+02 -.210312853434401D+02 -.483399237923743D+02
 0.114725865867154D+03 -.191636793415161D+02 0.139936234397324D+02 0.112245072034770D+03
 0.000000000000000D+00 0.000000000000000D+00 0.000000000000000D+00 0.000000000000000D+00
 0.128072776308739D+03 0.000000000000000D+00 0.000000000000000D+00 0.128072776308739D+03
 0.128072776308739D+03 -.000000000000000D+00 -.000000000000000D+00 -.128072776308739D+03
 0.814405000184757D+02 -.859696954069908D+01 0.711194655588946D+01 -.633092992708166D+02
 0.591275269383216D+02 0.275850113613283D+02 -.209773166844817D+02 -.479070326231577D+02
 0.215671380142045D+01 -.141566687749948D+00 0.215202533330679D+01 -.126593429605028D-01
 0.113420811859260D+03 -.188464751328793D+02 0.117133447952854D+02 0.111228991236935D+03
0.322589635462D-05 0.000000000000D+00 0.000000000000D+00 0.850558307145D-06 0.000000000000D+00  6 -2 22 9900012 13 -1 21 0 0.44782998D-01 0.86690952D-02 0.30073290D+04 0.30073290D+04 0.30073290D+04 0.12674963D+01  1  2  2  2  6  5       -1 0.803411001313D-04 0.100000000000D+01
0.349130753341D-06 0.000000000000D+00 -.619414569989D-08 0.850558307145D-06 0.000000000000D+00  6 -2 22 9900012 13 -1 21 2 0.44782998D-01 0.86690952D-02 0.30073290D+04 0.30073290D+04 0.30073290D+04 0.12674963D+01  1  2  3  2  6  5       -1 0.139691141938D-04 0.100000000000D+01
-.451127549411D-06 0.000000000000D+00 0.000000000000D+00 0.850558307145D-06 0.000000000000D+00  6 -2 22 9900012 13 -1 21 2 0.44782998D-01 0.86690952D-02 0.30073290D+04 0.30073290D+04 0.30073290D+04 0.12674963D+01  1  2 15  2  6  5       -1 -.180501207452D-04 0.100000000000D+01
0.458483633623D-08 0.000000000000D+00 0.000000000000D+00 0.850558307145D-06 0.000000000000D+00  6 -2 22 9900012 13 -1 21 2 0.44782998D-01 0.86690952D-02 0.30377463D+04 0.30377463D+04 0.30377463D+04 0.12669722D+01  1  2 12  2  6  5       -1 0.183437016652D-06 0.100000000000D+01
-.253443223942D-06 0.000000000000D+00 0.000000000000D+00 0.850558307145D-06 0.000000000000D+00  6 -2 22 9900012 13 -1 21 2 0.44782998D-01 0.86690952D-02 0.30073290D+04 0.30073290D+04 0.30073290D+04 0.12674963D+01  1  2  5  2  6  5       -1 -.101405484994D-04 0.100000000000D+01
0.377944437971D-06 0.000000000000D+00 0.000000000000D+00 0.850558307145D-06 0.129786628064D-07  6 -2 22 9900012 13 -1 21 2 0.44782998D-01 0.86690952D-02 0.30377463D+04 0.30377463D+04 0.30377463D+04 0.12669722D+01  1  2 11  2  6  5       -1 0.151213685893D-04 0.100000000000D+01
  </mgrwgt>
  </event>
  <event>
  6     66 0.79906760E-06 0.10562070E+03 0.78161638E-02 0.10677345E+00
       -2 -1    0    0    0  501 0.00000000E+00 0.00000000E+00 0.21964772E+03 0.21964772E+03 0.00000000E+00 0.0000E+00 0.9000E+01
       22 -1    0    0    0    0 0.00000000E+00 0.00000000E+00 -.34757135E+03 0.34757135E+03 0.00000000E+00 0.0000E+00 0.9000E+01
      -24  2    1    2    0    0 -.16160038E+03 0.10141125E+02 -.28746231E+03 0.33990845E+03 0.81765818E+02 0.0000E+00 0.0000E+00
  9900012  1    3    3    0    0 -.11709373E+03 -.72905674E+01 -.24393559E+03 0.27526109E+03 0.50000000E+02 0.0000E+00 0.9000E+01
       13  1    3    3    0    0 -.44506658E+02 0.17431693E+02 -.43526717E+02 0.64647364E+02 0.00000000E+00 0.0000E+00 0.9000E+01
       -1  1    1    2    0  501 0.16160038E+03 -.10141125E+02 0.15953868E+03 0.22731061E+03 0.00000000E+00 0.0000E+00 0.9000E+01
#aMCatNLO 1  0  0  1  5 0.31853344D+02 0.00000000D+00  -5  6  0 0.00000000D+00 0.00000000D+00 0.00000000D+00 0.00000000D+00 0.00000000D+00
  <mgrwgt>
 0.3457199922D-04    9    4    0
 0.276302827956284D+03 0.000000000000000D+00 0.000000000000000D+00 0.276302827956284D+03
 0.276302827956284D+03 0.000000000000000D+00 0.000000000000000D+00 -.276302827956284D+03
 0.226071172810811D+03 -.117093726733196D+03 -.729056740479011D+01 -.186665695730907D+03
 0.562808594442294D+02 -.445066577371971D+02 0.174316925717797D+02 -.297124325986289D+02
 0.270253623657527D+03 0.161600384470393D+03 -.101411251669896D+02 0.216378128329536D+03
 0.000000000000000D+00 -.000000000000000D+00 -.000000000000000D+00 0.000000000000000D+00
 0.304876027844747D+03 0.000000000000000D+00 0.000000000000000D+00 0.304876027844747D+03
 0.283745476463090D+03 0.000000000000000D+00 0.000000000000000D+00 -.283745476463090D+03
 0.221991281510637D+03 -.109247152286079D+03 0.105205580352967D+01 -.186665695730907D+03
 0.554441667869725D+02 -.425501029590092D+02 0.195119378317806D+02 -.297124325986289D+02
 0.275892778169816D+03 0.171164627936079D+03 0.277555394405979D-01 0.216378128329536D+03
 0.352932778404108D+02 -.193673726909913D+02 -.205917491747509D+02 0.211305513816565D+02
 0.276302827956284D+03 0.000000000000000D+00 0.000000000000000D+00 0.276302827956284D+03
 0.276302827956284D+03 0.000000000000000D+00 0.000000000000000D+00 -.276302827956284D+03
 0.226071172810811D+03 -.117093726733196D+03 -.729056740479011D+01 -.186665695730907D+03
 0.562808594442294D+02 -.445066577371971D+02 0.174316925717797D+02 -.297124325986289D+02
 0.000000000000000D+00 -.000000000000000D+00 -.000000000000000D+00 0.000000000000000D+00
 0.270253623657527D+03 0.161600384470393D+03 -.101411251669896D+02 0.216378128329536D+03
 0.304876027844747D+03 0.000000000000000D+00 0.000000000000000D+00 0.304876027844747D+03
 0.283745476463090D+03 0.000000000000000D+00 0.000000000000000D+00 -.283745476463090D+03
 0.221991281510637D+03 -.109247152286079D+03 0.105205580352967D+01 -.186665695730907D+03
 0.554441667869725D+02 -.425501029590092D+02 0.195119378317806D+02 -.297124325986289D+02
 0.352932778404108D+02 -.193673726909913D+02 -.205917491747509D+02 0.211305513816565D+02
 0.275892778169816D+03 0.171164627936079D+03 0.277555394405979D-01 0.216378128329536D+03
0.285942261381D-05 0.000000000000D+00 0.000000000000D+00 0.135943806017D-05 0.000000000000D+00  6 -2 22 9900012 13 -1 21 0 0.33791956D-01 0.53472515D-01 0.28433991D+05 0.28433991D+05 0.28433991D+05 0.11649313D+01  1  2  2  1  6  1       -2 0.863811761592D-05 0.100000000000D+01
-.917299180335D-08 0.000000000000D+00 -.549046787015D-08 0.135943806017D-05 0.000000000000D+00  6 -2 22 9900012 13 -1 21 2 0.33791956D-01 0.53472515D-01 0.28433991D+05 0.28433991D+05 0.28433991D+05 0.11649313D+01  1  2  3  1  6  1       -2 -.376055874876D-07 0.100000000000D+01
-.402697004746D-06 0.000000000000D+00 0.000000000000D+00 0.135943806017D-05 0.000000000000D+00  6 -2 22 9900012 13 -1 21 2 0.33791956D-01 0.53472515D-01 0.28433991D+05 0.28433991D+05 0.28433991D+05 0.11649313D+01  1  2 15  1  6  1       -2 -.165089621441D-05 0.100000000000D+01
0.748998416378D-05 0.000000000000D+00 0.000000000000D+00 0.135943806017D-05 0.000000000000D+00  6 -2 22 9900012 13 -1 21 2 0.38290840D-01 0.53472515D-01 0.33561123D+05 0.33561123D+05 0.33561123D+05 0.11583414D+01  1  2 12  1  6  1       -2 0.244733882447D-04 0.100000000000D+01
-.128997354161D-05 0.000000000000D+00 0.000000000000D+00 0.135943806017D-05 0.000000000000D+00  6 -2 22 9900012 13 -1 21 2 0.33791956D-01 0.53472515D-01 0.28433991D+05 0.28433991D+05 0.28433991D+05 0.11649313D+01  1  2  4  1  6  1       -2 -.528837416578D-05 0.100000000000D+01
-.157322991871D-04 0.000000000000D+00 -.321858665099D-05 0.135943806017D-05 0.000000000000D+00  6 -2 22 9900012 13 -1 21 2 0.38139819D-01 0.53472515D-01 0.28433991D+05 0.28433991D+05 0.28433991D+05 0.11649313D+01  1  2  5  1  6  1       -2 -.519766369957D-04 0.100000000000D+01
0.160277523716D-04 0.000000000000D+00 0.319515400086D-05 0.135943806017D-05 0.000000000000D+00  6 -2 22 9900012 13 -1 21 2 0.33791956D-01 0.53472515D-01 0.28433991D+05 0.28433991D+05 0.28433991D+05 0.11649313D+01  1  2  6  1  6  1       -2 0.657073566577D-04 0.100000000000D+01
0.147047427752D-06 0.000000000000D+00 0.000000000000D+00 0.135943806017D-05 0.000000000000D+00  6 21 22 9900012 13 2 -1 2 0.38290840D-01 0.53472515D-01 0.33561123D+05 0.33561123D+05 0.33561123D+05 0.11583414D+01  3  4 12  3  5  1       -2 0.544770834373D-05 0.100000000000D+01
-.285541704191D-06 0.000000000000D+00 -.615114195591D-07 0.135943806017D-05 0.000000000000D+00  6 21 22 9900012 13 2 -1 2 0.38139819D-01 0.53472515D-01 0.28433991D+05 0.28433991D+05 0.28433991D+05 0.11649313D+01  3  4  5  3  5  1       -2 -.107410586810D-04 0.100000000000D+01
  </mgrwgt>
  </event>
  <event>
  6     66 0.79906760E-06 0.32725651E+02 0.78161638E-02 0.11741021E+00
       -2 -1    0    0    0  501 0.00000000E+00 0.00000000E+00 0.10123008E+03 0.10123008E+03 0.00000000E+00 0.0000E+00 0.9000E+01
       22 -1    0    0    0    0 0.00000000E+00 0.00000000E+00 -.46947560E+02 0.46947560E+02 0.00000000E+00 0.0000E+00 0.9000E+01
      -24  2    1    2    0    0 0.30593129E+02 -.11620183E+02 0.47377564E+01 0.88800441E+02 0.82414220E+02 0.0000E+00 0.0000E+00
  9900012  1    3    3    0    0 -.49668018E+01 -.72153585E+01 -.66671498E+01 0.51197475E+02 0.50000000E+02 0.0000E+00 0.9000E+01
       13  1    3    3    0    0 0.35559931E+02 -.44048247E+01 0.11404906E+02 0.37602966E+02 0.00000000E+00 0.0000E+00 0.9000E+01
       -1  1    1    2    0  501 -.30593129E+02 0.11620183E+02 0.49544761E+02 0.59377197E+02 0.00000000E+00 0.0000E+00 0.9000E+01
#aMCatNLO 1  0  0  1  5 0.70049333D+02 0.00000000D+00  -5  6  0 0.00000000D+00 0.00000000D+00 0.00000000D+00 0.00000000D+00 0.00000000D+00
  <mgrwgt>
 0.2944204707D-04    5    4    0
 0.689384157851377D+02 0.000000000000000D+00 0.000000000000000D+00 0.689384157851377D+02
 0.689384157851377D+02 0.000000000000000D+00 0.000000000000000D+00 -.689384157851377D+02
 0.576473251214528D+02 -.496680180443833D+01 -.721535845027643D+01 -.273218516196824D+02
 0.359221458950425D+02 0.355599308876961D+02 -.440482466599112D+01 -.254743020098101D+01
 0.443073605537802D+02 -.305931290832578D+02 0.116201831162675D+02 0.298692818206634D+02
 0.000000000000000D+00 -.000000000000000D+00 -.000000000000000D+00 0.000000000000000D+00
 0.126752816676155D+03 0.000000000000000D+00 0.000000000000000D+00 0.126752816676155D+03
 0.912882864003576D+02 0.000000000000000D+00 0.000000000000000D+00 -.912882864003576D+02
 0.590331737821573D+02 0.132608796239651D+02 0.791082185775624D+01 -.273218516196824D+02
 0.494067616280382D+02 0.488899059699015D+02 0.665701045478439D+01 -.254743020098101D+01
 0.412891970462782D+02 -.172213420411853D+02 0.227167157517252D+02 0.298692818206634D+02
 0.683119706200388D+02 -.449294435526813D+02 -.372845480642658D+02 0.354645302757972D+02
 0.689384157851377D+02 0.000000000000000D+00 0.000000000000000D+00 0.689384157851377D+02
 0.689384157851377D+02 0.000000000000000D+00 0.000000000000000D+00 -.689384157851377D+02
 0.576473251214528D+02 -.496680180443833D+01 -.721535845027643D+01 -.273218516196824D+02
 0.359221458950425D+02 0.355599308876961D+02 -.440482466599112D+01 -.254743020098101D+01
 0.000000000000000D+00 -.000000000000000D+00 -.000000000000000D+00 0.000000000000000D+00
 0.443073605537802D+02 -.305931290832578D+02 0.116201831162675D+02 0.298692818206634D+02
 0.126752816676155D+03 0.000000000000000D+00 0.000000000000000D+00 0.126752816676155D+03
 0.912882864003576D+02 0.000000000000000D+00 0.000000000000000D+00 -.912882864003576D+02
 0.590331737821573D+02 0.132608796239651D+02 0.791082185775624D+01 -.273218516196824D+02
 0.494067616280382D+02 0.488899059699015D+02 0.665701045478439D+01 -.254743020098101D+01
 0.683119706200388D+02 -.449294435526813D+02 -.372845480642658D+02 0.354645302757972D+02
 0.412891970462782D+02 -.172213420411853D+02 0.227167157517252D+02 0.298692818206634D+02
0.210461430673D-06 0.000000000000D+00 0.000000000000D+00 0.285687937831D-07 0.000000000000D+00  6 -2 22 9900012 13 -1 21 0 0.15573858D-01 0.72227016D-02 0.35592478D+04 0.35592478D+04 0.35592478D+04 0.12588134D+01  1  2  2  1  6  1       -2 0.392348228985D-04 0.100000000000D+01
0.368632308790D-08 0.000000000000D+00 -.404113654775D-09 0.285687937831D-07 0.000000000000D+00  6 -2 22 9900012 13 -1 21 2 0.15573858D-01 0.72227016D-02 0.35592478D+04 0.35592478D+04 0.35592478D+04 0.12588134D+01  1  2  3  1  6  1       -2 0.108896851143D-05 0.100000000000D+01
-.287521317739D-07 0.000000000000D+00 0.000000000000D+00 0.285687937831D-07 0.000000000000D+00  6 -2 22 9900012 13 -1 21 2 0.15573858D-01 0.72227016D-02 0.35592478D+04 0.35592478D+04 0.35592478D+04 0.12588134D+01  1  2 15  1  6  1       -2 -.849360335261D-05 0.100000000000D+01
-.388118497000D-07 0.000000000000D+00 -.659528118853D-07 0.285687937831D-07 0.000000000000D+00  6 -2 22 9900012 13 -1 21 2 0.37117630D-01 0.72227016D-02 0.35592478D+04 0.35592478D+04 0.35592478D+04 0.12588134D+01  1  2  5  1  6  1       -2 -.279022015795D-05 0.100000000000D+01
0.467270500762D-09 0.000000000000D+00 -.626098586324D-08 0.285687937831D-07 0.000000000000D+00  6 21 22 9900012 13 2 -1 2 0.37117630D-01 0.72227016D-02 0.35592478D+04 0.35592478D+04 0.35592478D+04 0.12588134D+01  3  4  5  3  5  1       -2 0.402079166816D-06 0.100000000000D+01
  </mgrwgt>
  </event>
  <event>
  7     66 -.79906760E-06 0.73743568E+02 0.78161638E-02 0.11690950E+00
       -2 -1    0    0    0  502 0.00000000E+00 0.00000000E+00 0.75045379E+03 0.75045379E+03 0.00000000E+00 0.0000E+00 0.9000E+01
       22 -1    0    0    0    0 0.00000000E+00 0.00000000E+00 -.20925063E+02 0.20925063E+02 0.00000000E+00 0.0000E+00 0.9000E+01
      -24  2    1    2    0    0 -.35629600E+02 -.60478075E+02 0.14161812E+03 0.17658372E+03 0.78734070E+02 0.0000E+00 0.0000E+00
  9900012  1    3    3    0    0 -.11829531E+02 -.15312516E+02 0.61568721E+02 0.81640176E+02 0.50000000E+02 0.0000E+00 0.9000E+01
       13  1    3    3    0    0 -.23800069E+02 -.45165559E+02 0.80049399E+02 0.94943548E+02 0.00000000E+00 0.0000E+00 0.9000E+01
       -1  1    1    2    0  501 0.34823690E+02 0.70848837E+02 0.54212108E+03 0.54783895E+03 0.00000000E+00 0.0000E+00 0.9000E+01
       21  1    1    2  501  502 0.80590962E+00 -.10370763E+02 0.45789525E+02 0.46956179E+02 0.00000000E+00 0.0000E+00 0.9000E+01
#aMCatNLO 2  0  0  1  5 0.12530599D+02 0.00000000D+00  -5  6  0 0.00000000D+00 0.00000000D+00 0.00000000D+00 0.00000000D+00 0.00000000D+00
  <mgrwgt>
 -.2503471445D-04    3    2    0
 0.119562443089593D+03 0.000000000000000D+00 0.000000000000000D+00 0.119562443089593D+03
 0.119562443089593D+03 0.000000000000000D+00 0.000000000000000D+00 -.119562443089593D+03
 0.719051692546921D+02 -.115884725225185D+02 -.184145543359210D+02 -.468717917168755D+02
 0.606192323485628D+02 -.235991213237969D+02 -.477514302712708D+02 -.289408657493469D+02
 0.106600484575930D+03 0.351875938463154D+02 0.661659846071918D+02 0.758126574662224D+02
 0.000000000000000D+00 0.000000000000000D+00 -.000000000000000D+00 0.000000000000000D+00
 0.127557695796269D+03 0.000000000000000D+00 0.000000000000000D+00 0.127557695796269D+03
 0.123107373108663D+03 0.000000000000000D+00 0.000000000000000D+00 -.123107373108663D+03
 0.712135928673367D+02 -.118295312356540D+02 -.153125158308263D+02 -.468717917168755D+02
 0.586851317048843D+02 -.238000688169400D+02 -.451655587500787D+02 -.289408657493469D+02
 0.109452300904743D+03 0.348236904302635D+02 0.708488371539638D+02 0.758126574662224D+02
 0.113140434279679D+02 0.805909622330573D+00 -.103707625730588D+02 0.445032268760612D+01
-.145319817529D-05 0.000000000000D+00 0.000000000000D+00 0.432190768268D-06 0.000000000000D+00  6 -2 22 9900012 13 -1 21 2 0.11887756D+00 0.31265411D-02 0.94102392D+04 0.94102392D+04 0.94102392D+04 0.12120760D+01  1  2 13  1  6  1       -2 -.298441349119D-04 0.100000000000D+01
-.309272640255D-08 0.000000000000D+00 0.000000000000D+00 0.432190768268D-06 0.000000000000D+00  6 -2 22 9900012 13 -1 21 2 0.10821780D+00 0.31265411D-02 0.83479340D+04 0.83479340D+04 0.83479340D+04 0.12175467D+01  1  2  8  1  6  1       -2 -.800353585200D-07 0.100000000000D+01
0.230467149183D-06 0.000000000000D+00 0.000000000000D+00 0.432190768268D-06 0.474821982698D-08  6 -2 22 9900012 13 -1 21 2 0.11545443D+00 0.32192405D-02 0.94102392D+04 0.94102392D+04 0.94102392D+04 0.12120760D+01  1  2  1  1  6  1       -2 0.488945581789D-05 0.100000000000D+01
  </mgrwgt>
  </event>
  <event>
  6     66 -.79906760E-06 0.95151025E+02 0.78161638E-02 0.11343381E+00
       -4 -1    0    0    0  501 0.00000000E+00 0.00000000E+00 0.18848054E+03 0.18848054E+03 0.00000000E+00 0.0000E+00 0.9000E+01
       22 -1    0    0    0    0 0.00000000E+00 0.00000000E+00 -.92844863E+02 0.92844863E+02 0.00000000E+00 0.0000E+00 0.9000E+01
      -24  2    1    2    0    0 0.71651592E+02 0.83185680E+02 -.12644363E+01 0.13488962E+03 0.78356885E+02 0.0000E+00 0.0000E+00
  9900012  1    3    3    0    0 0.39440827E+02 0.45921072E+02 0.20337673E+02 0.81104529E+02 0.50000000E+02 0.0000E+00 0.9000E+01
       13  1    3    3    0    0 0.32210765E+02 0.37264608E+02 -.21602109E+02 0.53785086E+02 0.00000000E+00 0.0000E+00 0.9000E+01
       -3  1    1    2    0  501 -.71651592E+02 -.83185680E+02 0.96900113E+02 0.14643579E+03 0.00000000E+00 0.0000E+00 0.9000E+01
#aMCatNLO 1  0  0  1  1 0.62759326D+00 0.00000000D+00  -5  6  0 0.00000000D+00 0.00000000D+00 0.00000000D+00 0.00000000D+00 0.00000000D+00
  <mgrwgt>
 -.4399636039D-05   10    4    0
 0.132285486405807D+03 0.000000000000000D+00 0.000000000000000D+00 0.132285486405807D+03
 0.132285486405807D+03 0.000000000000000D+00 0.000000000000000D+00 -.132285486405807D+03
 0.788890669375062D+02 0.394408268156713D+02 0.459210720654515D+02 -.769163199367818D+01
 0.649997359982593D+02 0.322107652624756D+02 0.372646080547314D+02 -.424120415398310D+02
 0.120682169875848D+03 -.716515920781468D+02 -.831856801201829D+02 0.501036735335092D+02
 0.000000000000000D+00 0.000000000000000D+00 0.000000000000000D+00 0.000000000000000D+00
 0.133133708187723D+03 0.000000000000000D+00 0.000000000000000D+00 0.133133708187723D+03
 0.132389260333485D+03 0.000000000000000D+00 0.000000000000000D+00 -.132389260333485D+03
 0.787604717652683D+02 0.392899012418418D+02 0.458296232841574D+02 -.769163199367818D+01
 0.648949922499540D+02 0.320864107191029D+02 0.371892591847469D+02 -.424120415398310D+02
 0.120916171814783D+03 -.718828859256009D+02 -.833258256232531D+02 0.501036735335092D+02
 0.951332691202080D+00 0.506573964656198D+00 0.306943154348784D+00 0.744447854238772D+00
 0.132285486405807D+03 0.000000000000000D+00 0.000000000000000D+00 0.132285486405807D+03
 0.132285486405807D+03 0.000000000000000D+00 0.000000000000000D+00 -.132285486405807D+03
 0.788890669375062D+02 0.394408268156713D+02 0.459210720654515D+02 -.769163199367818D+01
 0.649997359982593D+02 0.322107652624756D+02 0.372646080547314D+02 -.424120415398310D+02
 0.000000000000000D+00 0.000000000000000D+00 0.000000000000000D+00 0.000000000000000D+00
 0.120682169875848D+03 -.716515920781468D+02 -.831856801201829D+02 0.501036735335092D+02
 0.133133708187723D+03 0.000000000000000D+00 0.000000000000000D+00 0.133133708187723D+03
 0.132389260333485D+03 0.000000000000000D+00 0.000000000000000D+00 -.132389260333485D+03
 0.787604717652683D+02 0.392899012418418D+02 0.458296232841574D+02 -.769163199367818D+01
 0.648949922499540D+02 0.320864107191029D+02 0.371892591847469D+02 -.424120415398310D+02
 0.951332691202080D+00 0.506573964656198D+00 0.306943154348784D+00 0.744447854238772D+00
 0.120916171814783D+03 -.718828859256009D+02 -.833258256232531D+02 0.501036735335092D+02
0.170187974185D-06 0.000000000000D+00 0.000000000000D+00 0.135234540695D-06 0.000000000000D+00  6 -4 22 9900012 13 -3 21 0 0.28997006D-01 0.14283825D-01 0.14108612D+05 0.14108612D+05 0.14108612D+05 0.11941346D+01  1  2  2  1  6  1       -4 0.280365260558D-05 0.100000000000D+01
-.423844509983D-08 0.000000000000D+00 -.326783316196D-09 0.135234540695D-06 0.000000000000D+00  6 -4 22 9900012 13 -3 21 2 0.28997006D-01 0.14283825D-01 0.14108612D+05 0.14108612D+05 0.14108612D+05 0.11941346D+01  1  2  3  1  6  1       -4 -.995654106166D-07 0.100000000000D+01
-.222858062491D-07 0.000000000000D+00 0.000000000000D+00 0.135234540695D-06 0.000000000000D+00  6 -4 22 9900012 13 -3 21 2 0.28997006D-01 0.14283825D-01 0.14108612D+05 0.14108612D+05 0.14108612D+05 0.11941346D+01  1  2 15  1  6  1       -4 -.523516383449D-06 0.100000000000D+01
-.631193413262D-05 0.000000000000D+00 0.000000000000D+00 0.135234540695D-06 0.000000000000D+00  6 -4 22 9900012 13 -3 21 2 0.28997006D-01 0.14283825D-01 0.14108612D+05 0.14108612D+05 0.14108612D+05 0.11941346D+01  1  2  4  1  6  1       -4 -.148273788830D-03 0.100000000000D+01
-.423597324975D-04 0.000000000000D+00 -.311768158452D-05 0.135234540695D-06 0.000000000000D+00  6 -4 22 9900012 13 -3 21 2 0.29201070D-01 0.14283825D-01 0.14108612D+05 0.14108612D+05 0.14108612D+05 0.11941346D+01  1  2  5  1  6  1       -4 -.981840611327D-03 0.100000000000D+01
0.423806306497D-04 0.000000000000D+00 0.311760492372D-05 0.135234540695D-06 0.000000000000D+00  6 -4 22 9900012 13 -3 21 2 0.28997006D-01 0.14283825D-01 0.14108612D+05 0.14108612D+05 0.14108612D+05 0.11941346D+01  1  2  6  1  6  1       -4 0.995564362269D-03 0.100000000000D+01
0.631624254268D-05 0.000000000000D+00 0.000000000000D+00 0.135234540695D-06 0.125696973188D-05  6 -4 22 9900012 13 -3 21 2 0.29182936D-01 0.14295030D-01 0.14177821D+05 0.14177821D+05 0.14177821D+05 0.11939227D+01  1  2 11  1  6  1       -4 0.146425803546D-03 0.100000000000D+01
0.652196794539D-15 0.000000000000D+00 0.000000000000D+00 0.135234540695D-06 0.000000000000D+00  6 21 22 9900012 13 4 -3 2 0.29205830D-01 0.14283825D-01 0.14177821D+05 0.14177821D+05 0.14177821D+05 0.11939227D+01  3  4 12  3  5  1       -4 0.328489318022D-12 0.100000000000D+01
-.550603162761D-07 0.000000000000D+00 -.405664090110D-08 0.135234540695D-06 0.000000000000D+00  6 21 22 9900012 13 4 -3 2 0.29201070D-01 0.14283825D-01 0.14108612D+05 0.14108612D+05 0.14108612D+05 0.11941346D+01  3  4  5  3  5  1       -4 -.277433695579D-04 0.100000000000D+01
0.184332290721D-07 0.000000000000D+00 0.000000000000D+00 0.135234540695D-06 0.337362804044D-08  6 21 22 9900012 13 4 -3 2 0.29182936D-01 0.14295030D-01 0.14177821D+05 0.14177821D+05 0.14177821D+05 0.11939227D+01  3  4 11  3  5  1       -4 0.928739672093D-05 0.100000000000D+01
  </mgrwgt>
  </event>
  <event>
  6     66 0.79906760E-06 0.44994869E+02 0.78161638E-02 0.11442251E+00
       -2 -1    0    0    0  501 0.00000000E+00 0.00000000E+00 0.22496878E+02 0.22496878E+02 0.00000000E+00 0.0000E+00 0.9000E+01
       22 -1    0    0    0    0 -.00000000E+00 -.00000000E+00 -.88306349E+03 0.88306349E+03 0.00000000E+00 0.0000E+00 0.9000E+01
      -24  2    1    2    0    0 0.37627882E+02 0.24671455E+02 -.85563414E+03 0.86029595E+03 0.77296913E+02 0.0000E+00 0.0000E+00
  9900012  1    3    3    0    0 0.15862381E+02 -.40546233E+01 -.45046547E+03 0.45352750E+03 0.50000000E+02 0.0000E+00 0.9000E+01
       13  1    3    3    0    0 0.21765501E+02 0.28726078E+02 -.40516867E+03 0.40676845E+03 0.00000000E+00 0.0000E+00 0.9000E+01
       -1  1    1    2    0  501 -.37627882E+02 -.24671455E+02 -.49324791E+01 0.45264418E+02 0.00000000E+00 0.0000E+00 0.9000E+01
#aMCatNLO 1  0  0  5  1 0.39761060D+02 0.00000000D+00  -5  6  0 0.00000000D+00 0.00000000D+00 0.00000000D+00 0.00000000D+00 0.00000000D+00
  <mgrwgt>
 0.5810529133D-04    3    2    0
 0.140947406413348D+03 0.000000000000000D+00 0.000000000000000D+00 0.140947406413348D+03
 0.140947406413348D+03 -.000000000000000D+00 -.000000000000000D+00 -.140947406413348D+03
 0.817361178807173D+02 0.158623811721416D+02 -.405462331769998D+01 -.625518813427043D+02
 0.698088812213892D+02 0.217655009655079D+02 0.287260780315310D+02 -.597859122706085D+02
 0.130349813724589D+03 -.376278821376495D+02 -.246714547138310D+02 0.122337793613313D+03
 0.000000000000000D+00 0.000000000000000D+00 0.000000000000000D+00 -.000000000000000D+00
 0.140947406413348D+03 0.000000000000000D+00 0.000000000000000D+00 0.140947406413348D+03
 0.140947406413348D+03 -.000000000000000D+00 -.000000000000000D+00 -.140947406413348D+03
 0.642039052465071D+02 0.842129877637996D+01 -.893351410079910D+01 -.383590341592724D+02
 0.495713664888570D+02 0.156786288340435D+02 0.247351016169948D+02 -.399959463127679D+02
 0.939958092426008D+02 0.275753043822270D+02 -.660166602981248D+02 0.609640492953095D+02
 0.741237318487303D+02 -.516752319926505D+02 0.502150727819291D+02 0.173909311767309D+02
0.440593837915D-05 0.000000000000D+00 0.000000000000D+00 0.997053023537D-06 0.000000000000D+00  6 -2 22 9900012 13 -1 21 0 0.34610581D-02 0.13585592D+00 0.44654319D+04 0.44654319D+04 0.44654319D+04 0.12474144D+01  1  2  2  2  6  5       -1 0.695318907788D-04 0.100000000000D+01
0.170803953356D-06 0.000000000000D+00 -.845998174307D-08 0.997053023537D-06 0.000000000000D+00  6 -2 22 9900012 13 -1 21 2 0.34610581D-02 0.13585592D+00 0.44654319D+04 0.44654319D+04 0.44654319D+04 0.12474144D+01  1  2  3  2  6  5       -1 0.419435349435D-05 0.100000000000D+01
-.636121996392D-06 0.000000000000D+00 0.000000000000D+00 0.997053023537D-06 0.000000000000D+00  6 -2 22 9900012 13 -1 21 2 0.34610581D-02 0.13585592D+00 0.44654319D+04 0.44654319D+04 0.44654319D+04 0.12474144D+01  1  2 15  2  6  5       -1 -.156209529462D-04 0.100000000000D+01
  </mgrwgt>
  </event>
  <event>
  6     66 0.79906760E-06 0.11643368E+03 0.78161638E-02 0.97285339E-01
       -4 -1    0    0    0  501 0.00000000E+00 0.00000000E+00 0.59023785E+02 0.59023785E+02 0.00000000E+00 0.0000E+00 0.9000E+01
       22 -1    0    0    0    0 0.00000000E+00 0.00000000E+00 -.61537694E+03 0.61537694E+03 0.00000000E+00 0.0000E+00 0.9000E+01
      -24  2    1    2    0    0 -.11641973E+03 0.18022160E+01 -.53849417E+03 0.55660538E+03 0.79226068E+02 0.0000E+00 0.0000E+00
  9900012  1    3    3    0    0 -.52910407E+02 0.18604248E+02 -.28732740E+03 0.29698933E+03 0.50000000E+02 0.0000E+00 0.9000E+01
       13  1    3    3    0    0 -.63509324E+02 -.16802032E+02 -.25116678E+03 0.25961605E+03 0.00000000E+00 0.0000E+00 0.9000E+01
       -3  1    1    2    0  501 0.11641973E+03 -.18022160E+01 -.17858986E+02 0.11779535E+03 0.00000000E+00 0.0000E+00 0.9000E+01
#aMCatNLO 1  0  0  1  5 0.40294890D+01 0.00000000D+00  -5  6  0 0.00000000D+00 0.00000000D+00 0.00000000D+00 0.00000000D+00 0.00000000D+00
  <mgrwgt>
 0.2717415987D-04    3    2    0
 0.190582991692066D+03 0.000000000000000D+00 0.000000000000000D+00 0.190582991692066D+03
 0.190582991692066D+03 0.000000000000000D+00 0.000000000000000D+00 -.190582991692066D+03
 0.106080599884931D+03 -.529104074106719D+02 0.186042480557358D+02 -.748830048399782D+02
 0.927360356449600D+02 -.635093237404210D+02 -.168020320358720D+02 -.654540283301434D+02
 0.182349347854241D+03 0.116419731151093D+03 -.180221601986384D+01 0.140337033170122D+03
 0.000000000000000D+00 -.000000000000000D+00 0.000000000000000D+00 -.000000000000000D+00
 0.337955466370667D+03 0.000000000000000D+00 0.000000000000000D+00 0.337955466370667D+03
 0.577128683560584D+03 0.000000000000000D+00 0.000000000000000D+00 -.577128683560584D+03
 0.112909109800018D+03 -.312453921161312D+02 -.605369980547223D+02 -.748830048399782D+02
 0.122536706766472D+03 -.422120341848928D+02 -.945999939244315D+02 -.654540283301434D+02
 0.270224990098202D+03 0.161193661249281D+03 -.165359202851349D+03 0.140337033170122D+03
 0.409413343266560D+03 -.877362349482568D+02 0.320496194830503D+03 -.239173217189917D+03
0.575025704294D-05 0.000000000000D+00 0.000000000000D+00 0.205744693662D-05 0.000000000000D+00  6 -4 22 9900012 13 -3 21 0 0.90805824D-02 0.94673376D-01 0.16546371D+05 0.16546371D+05 0.16546371D+05 0.11872925D+01  1  2  2  1  6  1       -4 0.339396338553D-04 0.100000000000D+01
-.770065981419D-08 0.000000000000D+00 -.110412505612D-07 0.205744693662D-05 0.000000000000D+00  6 -4 22 9900012 13 -3 21 2 0.90805824D-02 0.94673376D-01 0.16546371D+05 0.16546371D+05 0.16546371D+05 0.11872925D+01  1  2  3  1  6  1       -4 -.640712572827D-07 0.100000000000D+01
-.805434837125D-06 0.000000000000D+00 0.000000000000D+00 0.205744693662D-05 0.000000000000D+00  6 -4 22 9900012 13 -3 21 2 0.90805824D-02 0.94673376D-01 0.16546371D+05 0.16546371D+05 0.16546371D+05 0.11872925D+01  1  2 15  1  6  1       -4 -.670140272640D-05 0.100000000000D+01
  </mgrwgt>
  </event>
  <event>
  6     66 -.79906760E-06 0.11344465E+03 0.78161638E-02 0.10370363E+00
       -4 -1    0    0    0  501 0.00000000E+00 0.00000000E+00 0.47029033E+03 0.47029033E+03 0.00000000E+00 0.0000E+00 0.9000E+01
       22 -1    0    0    0    0 0.00000000E+00 0.00000000E+00 -.11891315E+03 0.11891315E+03 0.00000000E+00 0.0000E+00 0.9000E+01
      -24  2    1    2    0    0 0.17655085E+03 -.11372618E+03 0.63650498E+02 0.23298656E+03 0.78278390E+02 0.0000E+00 0.0000E+00
  9900012  1    3    3    0    0 0.17063498E+03 -.92401721E+02 0.48511983E+02 0.20617417E+03 0.50000000E+02 0.0000E+00 0.9000E+01
       13  1    3    3    0    0 0.59158721E+01 -.21324459E+02 0.15138515E+02 0.26812399E+02 0.00000000E+00 0.0000E+00 0.9000E+01
       -3  1    1    2    0  501 -.17655085E+03 0.11372618E+03 0.28772668E+03 0.35621691E+03 0.00000000E+00 0.0000E+00 0.9000E+01
#aMCatNLO 1  0  0  1  5 0.22670194D+02 0.00000000D+00  -5  6  0 0.00000000D+00 0.00000000D+00 0.00000000D+00 0.00000000D+00 0.00000000D+00
  <mgrwgt>
 -.8916590832D-05    9    4    0
 0.236481932704268D+03 0.000000000000000D+00 0.000000000000000D+00 0.236481932704268D+03
 0.236481932704268D+03 0.000000000000000D+00 0.000000000000000D+00 -.236481932704268D+03
 0.220804462791828D+03 0.170634979457678D+03 -.924017209265143D+02 -.927374603064154D+02
 0.221552441399131D+02 0.591587208815767D+01 -.213244588435982D+02 -.106054484270868D+01
 0.230004158476796D+03 -.176550851545836D+03 0.113726179770113D+03 0.937980051491241D+02
 0.000000000000000D+00 -.000000000000000D+00 0.000000000000000D+00 0.000000000000000D+00
 0.337864569638013D+03 0.000000000000000D+00 0.000000000000000D+00 0.337864569638013D+03
 0.237997531855742D+03 0.000000000000000D+00 0.000000000000000D+00 -.237997531855742D+03
 0.230235085251677D+03 0.179543393010613D+03 -.983469773963551D+02 -.927374603064154D+02
 0.229765435016662D+02 0.680726316558854D+01 -.219193513616390D+02 -.106054484270868D+01
 0.220285890243830D+03 -.167657241240099D+03 0.107790802623976D+03 0.937980051491241D+02
 0.102364582496581D+03 -.186934149361028D+02 0.124755261340184D+02 0.998670377822709D+02
 0.236481932704268D+03 0.000000000000000D+00 0.000000000000000D+00 0.236481932704268D+03
 0.236481932704268D+03 0.000000000000000D+00 0.000000000000000D+00 -.236481932704268D+03
 0.220804462791828D+03 0.170634979457678D+03 -.924017209265143D+02 -.927374603064154D+02
 0.221552441399131D+02 0.591587208815767D+01 -.213244588435982D+02 -.106054484270868D+01
 0.000000000000000D+00 -.000000000000000D+00 0.000000000000000D+00 0.000000000000000D+00
 0.230004158476796D+03 -.176550851545836D+03 0.113726179770113D+03 0.937980051491241D+02
 0.337864569638013D+03 0.000000000000000D+00 0.000000000000000D+00 0.337864569638013D+03
 0.237997531855742D+03 0.000000000000000D+00 0.000000000000000D+00 -.237997531855742D+03
 0.230235085251677D+03 0.179543393010613D+03 -.983469773963551D+02 -.927374603064154D+02
 0.229765435016662D+02 0.680726316558854D+01 -.219193513616390D+02 -.106054484270868D+01
 0.102364582496581D+03 -.186934149361028D+02 0.124755261340184D+02 0.998670377822709D+02
 0.220285890243830D+03 -.167657241240099D+03 0.107790802623976D+03 0.937980051491241D+02
0.659983704675D-06 0.000000000000D+00 0.000000000000D+00 0.240578963618D-06 0.000000000000D+00  6 -4 22 9900012 13 -3 21 0 0.72352358D-01 0.18294331D-01 0.46769376D+05 0.46769376D+05 0.46769376D+05 0.11454870D+01  1  2  2  1  6  1       -4 0.118910991672D-05 0.100000000000D+01
-.169727631042D-07 0.000000000000D+00 -.126725560183D-08 0.240578963618D-06 0.000000000000D+00  6 -4 22 9900012 13 -3 21 2 0.72352358D-01 0.18294331D-01 0.46769376D+05 0.46769376D+05 0.46769376D+05 0.11454870D+01  1  2  3  1  6  1       -4 -.401256124735D-07 0.100000000000D+01
-.872227694530D-07 0.000000000000D+00 0.000000000000D+00 0.240578963618D-06 0.000000000000D+00  6 -4 22 9900012 13 -3 21 2 0.72352358D-01 0.18294331D-01 0.46769376D+05 0.46769376D+05 0.46769376D+05 0.11454870D+01  1  2 15  1  6  1       -4 -.206204907501D-06 0.100000000000D+01
0.827663591846D-05 0.000000000000D+00 0.000000000000D+00 0.240578963618D-06 0.000000000000D+00  6 -4 22 9900012 13 -3 21 2 0.10403318D+00 0.18294331D-01 0.51864690D+05 0.51864690D+05 0.51864690D+05 0.11415683D+01  1  2 12  1  6  1       -4 0.782581640366D-05 0.100000000000D+01
-.121042620152D-04 0.000000000000D+00 0.000000000000D+00 0.240578963618D-06 0.000000000000D+00  6 -4 22 9900012 13 -3 21 2 0.72352358D-01 0.18294331D-01 0.46769376D+05 0.46769376D+05 0.46769376D+05 0.11454870D+01  1  2  4  1  6  1       -4 -.286159020731D-04 0.100000000000D+01
-.858012057190D-05 0.000000000000D+00 -.284843991216D-06 0.240578963618D-06 0.000000000000D+00  6 -4 22 9900012 13 -3 21 2 0.10363573D+00 0.18294331D-01 0.46769376D+05 0.46769376D+05 0.46769376D+05 0.11454870D+01  1  2  5  1  6  1       -4 -.820544135743D-05 0.100000000000D+01
0.816696333613D-05 0.000000000000D+00 0.267394327590D-06 0.240578963618D-06 0.000000000000D+00  6 -4 22 9900012 13 -3 21 2 0.72352358D-01 0.18294331D-01 0.46769376D+05 0.46769376D+05 0.46769376D+05 0.11454870D+01  1  2  6  1  6  1       -4 0.193076639260D-04 0.100000000000D+01
0.367203971737D-06 0.000000000000D+00 0.000000000000D+00 0.240578963618D-06 0.000000000000D+00  6 21 22 9900012 13 4 -3 2 0.10403318D+00 0.18294331D-01 0.51864690D+05 0.51864690D+05 0.51864690D+05 0.11415683D+01  3  4 12  3  5  1       -4 0.775454330012D-05 0.100000000000D+01
-.369394012580D-06 0.000000000000D+00 -.125410097125D-07 0.240578963618D-06 0.000000000000D+00  6 21 22 9900012 13 4 -3 2 0.10363573D+00 0.18294331D-01 0.46769376D+05 0.46769376D+05 0.46769376D+05 0.11454870D+01  3  4  5  3  5  1       -4 -.792605042771D-05 0.100000000000D+01
  </mgrwgt>
  </event>
  <event>
  6     66 -.79906760E-06 0.28198143E+02 0.78161638E-02 0.12831752E+00
       -2 -1    0    0    0  501 0.00000000E+00 0.00000000E+00 0.25550839E+03 0.25550839E+03 0.00000000E+00 0.0000E+00 0.9000E+01
       22 -1    0    0    0    0 -.00000000E+00 -.00000000E+00 -.97285352E+03 0.97285352E+03 0.00000000E+00 0.0000E+00 0.9000E+01
      -24  2    1    2    0    0 -.18477989E+01 0.28137536E+02 -.97040645E+03 0.97373441E+03 0.75331869E+02 0.0000E+00 0.0000E+00
  9900012  1    3    3    0    0 0.18618731E+02 0.21680876E+02 -.77975764E+03 0.78188151E+03 0.50000000E+02 0.0000E+00 0.9000E+01
       13  1    3    3    0    0 -.20466530E+02 0.64566595E+01 -.19064881E+03 0.19185290E+03 0.00000000E+00 0.0000E+00 0.9000E+01
       -1  1    1    2    0  501 0.18477989E+01 -.28137536E+02 0.25306131E+03 0.25462750E+03 0.00000000E+00 0.0000E+00 0.9000E+01
#aMCatNLO 1  0  0  5  1 0.45518586D+02 0.00000000D+00  -5  6  0 0.00000000D+00 0.00000000D+00 0.00000000D+00 0.00000000D+00 0.00000000D+00
  <mgrwgt>
 -.4689282074D-04    1    2    0
 0.498570188701149D+03 0.000000000000000D+00 0.000000000000000D+00 0.498570188701149D+03
 0.498570188701149D+03 -.000000000000000D+00 -.000000000000000D+00 -.498570188701149D+03
 0.402228333336572D+03 0.186187307408430D+02 0.216808760674737D+02 -.398084054713654D+03
 0.991874379365230D+02 -.204665296077058D+02 0.645665950993235D+01 -.968379086835383D+02
 0.495724606129203D+03 0.184779886686282D+01 -.281375355774059D+02 0.494921963397192D+03
 0.000000000000000D+00 0.000000000000000D+00 0.000000000000000D+00 -.000000000000000D+00
 0.498570188701149D+03 0.000000000000000D+00 0.000000000000000D+00 0.498570188701149D+03
 0.498570188701149D+03 -.000000000000000D+00 -.000000000000000D+00 -.498570188701149D+03
 0.348687650483303D+03 0.188204018649575D+02 0.186099095616113D+02 -.344067640645435D+03
 0.861539146043969D+02 -.204167530684961D+02 0.569868245515052D+01 -.835055579831494D+02
 0.482673176453132D+03 -.276551172076485D+02 0.268384140838781D+02 0.481132299153829D+03
 0.796256358614666D+02 0.292514684111871D+02 -.511470061006398D+02 -.535591005252451D+02
-.986191471578D-04 0.000000000000D+00 0.000000000000D+00 0.105827759465D-03 0.000000000000D+00  6 -2 22 9900012 13 -1 21 2 0.39308982D-01 0.14966977D+00 0.28756366D+04 0.28756366D+04 0.28756366D+04 0.12698368D+01  1  2 14  2  6  5       -1 -.468928207401D-04 0.100000000000D+01
  </mgrwgt>
  </event>
  <event>
  6     66 0.79906760E-06 0.56303254E+02 0.78161638E-02 0.11543752E+00
       -2 -1    0    0    0  501 0.00000000E+00 0.00000000E+00 0.95281437E+02 0.95281437E+02 0.00000000E+00 0.0000E+00 0.9000E+01
       22 -1    0    0    0    0 0.00000000E+00 0.00000000E+00 -.14687289E+03 0.14687289E+03 0.00000000E+00 0.0000E+00 0.9000E+01
      -24  2    1    2    0    0 -.43916001E+02 -.67748388E+02 -.96524989E+02 0.14975583E+03 0.81186676E+02 0.0000E+00 0.0000E+00
  9900012  1    3    3    0    0 -.20804331E+02 -.72800581E+02 -.79119065E+02 0.12038510E+03 0.50000000E+02 0.0000E+00 0.9000E+01
       13  1    3    3    0    0 -.23111669E+02 0.50521935E+01 -.17405924E+02 0.29370735E+02 0.00000000E+00 0.0000E+00 0.9000E+01
       -1  1    1    2    0  501 0.43916001E+02 0.67748388E+02 0.44933537E+02 0.92398495E+02 0.00000000E+00 0.0000E+00 0.9000E+01
#aMCatNLO 1  0  0  1  5 0.15554436D+02 0.00000000D+00  -5  6  0 0.00000000D+00 0.00000000D+00 0.00000000D+00 0.00000000D+00 0.00000000D+00
  <mgrwgt>
 0.2762319545D-04    9    4    0
 0.118297337149073D+03 0.000000000000000D+00 0.000000000000000D+00 0.118297337149073D+03
 0.118297337149073D+03 0.000000000000000D+00 0.000000000000000D+00 -.118297337149073D+03
 0.105961406120603D+03 -.208043314163782D+02 -.728005810344360D+02 -.547272764023691D+02
 0.262653999774033D+02 -.231116691928002D+02 0.505219352790755D+01 -.114104041844325D+02
 0.104367868200141D+03 0.439160006091784D+02 0.677483875065285D+02 0.661376805868016D+02
 0.000000000000000D+00 -.000000000000000D+00 -.000000000000000D+00 0.000000000000000D+00
 0.150702342563348D+03 0.000000000000000D+00 0.000000000000000D+00 0.150702342563348D+03
 0.120296139094700D+03 0.000000000000000D+00 0.000000000000000D+00 -.120296139094700D+03
 0.102550323585918D+03 -.152419278712572D+02 -.692038851504922D+02 -.547272764023691D+02
 0.252586057875257D+02 -.217371790730882D+02 0.594095014471682D+01 -.114104041844325D+02
 0.109263763749560D+03 0.496149862181872D+02 0.714333984763917D+02 0.661376805868016D+02
 0.339257885350453D+02 -.126358792738418D+02 -.817046347061631D+01 0.304062034686482D+02
 0.118297337149073D+03 0.000000000000000D+00 0.000000000000000D+00 0.118297337149073D+03
 0.118297337149073D+03 0.000000000000000D+00 0.000000000000000D+00 -.118297337149073D+03
 0.105961406120603D+03 -.208043314163782D+02 -.728005810344360D+02 -.547272764023691D+02
 0.262653999774033D+02 -.231116691928002D+02 0.505219352790755D+01 -.114104041844325D+02
 0.000000000000000D+00 -.000000000000000D+00 -.000000000000000D+00 0.000000000000000D+00
 0.104367868200141D+03 0.439160006091784D+02 0.677483875065285D+02 0.661376805868016D+02
 0.150702342563348D+03 0.000000000000000D+00 0.000000000000000D+00 0.150702342563348D+03
 0.120296139094700D+03 0.000000000000000D+00 0.000000000000000D+00 -.120296139094700D+03
 0.102550323585918D+03 -.152419278712572D+02 -.692038851504922D+02 -.547272764023691D+02
 0.252586057875257D+02 -.217371790730882D+02 0.594095014471682D+01 -.114104041844325D+02
 0.339257885350453D+02 -.126358792738418D+02 -.817046347061631D+01 0.304062034686482D+02
 0.109263763749560D+03 0.496149862181872D+02 0.714333984763917D+02 0.661376805868016D+02
0.129053973780D-06 0.000000000000D+00 0.000000000000D+00 0.343368172766D-06 0.000000000000D+00  6 -2 22 9900012 13 -1 21 0 0.14658683D-01 0.22595829D-01 0.95188197D+04 0.95188197D+04 0.95188197D+04 0.12115562D+01  1  2  2  1  6  1       -2 0.565024749812D-05 0.100000000000D+01
-.819751534513D-09 0.000000000000D+00 -.247800620003D-09 0.343368172766D-06 0.000000000000D+00  6 -2 22 9900012 13 -1 21 2 0.14658683D-01 0.22595829D-01 0.95188197D+04 0.95188197D+04 0.95188197D+04 0.12115562D+01  1  2  3  1  6  1       -2 -.526823858235D-07 0.100000000000D+01
-.176528417820D-07 0.000000000000D+00 0.000000000000D+00 0.343368172766D-06 0.000000000000D+00  6 -2 22 9900012 13 -1 21 2 0.14658683D-01 0.22595829D-01 0.95188197D+04 0.95188197D+04 0.95188197D+04 0.12115562D+01  1  2 15  1  6  1       -2 -.113448256269D-05 0.100000000000D+01
0.596579631702D-06 0.000000000000D+00 0.000000000000D+00 0.343368172766D-06 0.000000000000D+00  6 -2 22 9900012 13 -1 21 2 0.18989639D-01 0.22595829D-01 0.11159991D+05 0.11159991D+05 0.11159991D+05 0.12044213D+01  1  2 12  1  6  1       -2 0.254942870364D-04 0.100000000000D+01
-.248189489061D-06 0.000000000000D+00 0.000000000000D+00 0.343368172766D-06 0.000000000000D+00  6 -2 22 9900012 13 -1 21 2 0.14658683D-01 0.22595829D-01 0.95188197D+04 0.95188197D+04 0.95188197D+04 0.12115562D+01  1  2  4  1  6  1       -2 -.159502164614D-04 0.100000000000D+01
-.722780514669D-06 0.000000000000D+00 -.768160576808D-07 0.343368172766D-06 0.000000000000D+00  6 -2 22 9900012 13 -1 21 2 0.18924279D-01 0.22595829D-01 0.95188197D+04 0.95188197D+04 0.95188197D+04 0.12115562D+01  1  2  5  1  6  1       -2 -.310400900667D-04 0.100000000000D+01
0.721187789469D-06 0.000000000000D+00 0.743768273233D-07 0.343368172766D-06 0.000000000000D+00  6 -2 22 9900012 13 -1 21 2 0.14658683D-01 0.22595829D-01 0.95188197D+04 0.95188197D+04 0.95188197D+04 0.12115562D+01  1  2  6  1  6  1       -2 0.463480600845D-04 0.100000000000D+01
0.207143028224D-07 0.000000000000D+00 0.000000000000D+00 0.343368172766D-06 0.000000000000D+00  6 21 22 9900012 13 2 -1 2 0.18989639D-01 0.22595829D-01 0.11159991D+05 0.11159991D+05 0.11159991D+05 0.12044213D+01  3  4 12  3  5  1       -2 0.117045810913D-04 0.100000000000D+01
-.235170108347D-07 0.000000000000D+00 -.264104417985D-08 0.343368172766D-06 0.000000000000D+00  6 21 22 9900012 13 2 -1 2 0.18924279D-01 0.22595829D-01 0.95188197D+04 0.95188197D+04 0.95188197D+04 0.12115562D+01  3  4  5  3  5  1       -2 -.133965087829D-04 0.100000000000D+01
  </mgrwgt>
  </event>
  <event>
  6     66 0.79906760E-06 0.84528167E+02 0.78161638E-02 0.10938802E+00
       -2 -1    0    0    0  501 0.00000000E+00 0.00000000E+00 0.26211047E+03 0.26211047E+03 0.00000000E+00 0.0000E+00 0.9000E+01
       22 -1    0    0    0    0 0.00000000E+00 0.00000000E+00 -.21511242E+03 0.21511242E+03 0.00000000E+00 0.0000E+00 0.9000E+01
      -24  2    1    2    0    0 -.10496378E+03 0.90144065E+02 -.16134804E+03 0.22712002E+03 0.80043534E+02 0.0000E+00 0.0000E+00
  9900012  1    3    3    0    0 -.43767644E+02 0.26601671E+02 -.75064317E+02 0.10372033E+03 0.50000000E+02 0.0000E+00 0.9000E+01
       13  1    3    3    0    0 -.61196137E+02 0.63542395E+02 -.86283723E+02 0.12339969E+03 0.00000000E+00 0.0000E+00 0.9000E+01
       -1  1    1    2    0  501 0.10496378E+03 -.90144065E+02 0.20834610E+03 0.25010287E+03 0.00000000E+00 0.0000E+00 0.9000E+01
#aMCatNLO 1  0  0  1  5 0.88681519D+01 0.00000000D+00  -5  6  0 0.00000000D+00 0.00000000D+00 0.00000000D+00 0.00000000D+00 0.00000000D+00
  <mgrwgt>
 0.6038760445D-04   11    4    0
 0.237451505666246D+03 0.000000000000000D+00 0.000000000000000D+00 0.237451505666246D+03
 0.237451505666246D+03 0.000000000000000D+00 0.000000000000000D+00 -.237451505666246D+03
 0.111655627428670D+03 -.437676436250967D+02 0.266016707353930D+02 -.856955286002852D+02
 0.132541431715584D+03 -.611961368811749D+02 0.635423947018251D+02 -.989172787110260D+02
 0.230705952188238D+03 0.104963780506272D+03 -.901440654372181D+02 0.184612807311311D+03
 0.000000000000000D+00 -.000000000000000D+00 0.000000000000000D+00 0.000000000000000D+00
 0.298019202120260D+03 0.000000000000000D+00 0.000000000000000D+00 0.298019202120260D+03
 0.237815304728657D+03 0.000000000000000D+00 0.000000000000000D+00 -.237815304728657D+03
 0.110826867003222D+03 -.426846025589734D+02 0.248373817470762D+02 -.856955286002852D+02
 0.130960658821204D+03 -.599134131064824D+02 0.614528197987766D+02 -.989172787110260D+02
 0.233197729077306D+03 0.107222055876742D+03 -.938228274835821D+02 0.184612807311311D+03
 0.608492519471854D+02 -.462404021128612D+01 0.753262593772928D+01 0.602038973916033D+02
 0.237451505666246D+03 0.000000000000000D+00 0.000000000000000D+00 0.237451505666246D+03
 0.237451505666246D+03 0.000000000000000D+00 0.000000000000000D+00 -.237451505666246D+03
 0.111655627428670D+03 -.437676436250967D+02 0.266016707353930D+02 -.856955286002852D+02
 0.132541431715584D+03 -.611961368811749D+02 0.635423947018251D+02 -.989172787110260D+02
 0.000000000000000D+00 -.000000000000000D+00 0.000000000000000D+00 0.000000000000000D+00
 0.230705952188238D+03 0.104963780506272D+03 -.901440654372181D+02 0.184612807311311D+03
 0.298019202120260D+03 0.000000000000000D+00 0.000000000000000D+00 0.298019202120260D+03
 0.237815304728657D+03 0.000000000000000D+00 0.000000000000000D+00 -.237815304728657D+03
 0.110826867003222D+03 -.426846025589734D+02 0.248373817470762D+02 -.856955286002852D+02
 0.130960658821204D+03 -.599134131064824D+02 0.614528197987766D+02 -.989172787110260D+02
 0.608492519471854D+02 -.462404021128612D+01 0.753262593772928D+01 0.602038973916033D+02
 0.233197729077306D+03 0.107222055876742D+03 -.938228274835821D+02 0.184612807311311D+03
0.540046149751D-06 0.000000000000D+00 0.000000000000D+00 0.533889591409D-05 0.000000000000D+00  6 -2 22 9900012 13 -1 21 0 0.40324688D-01 0.33094218D-01 0.22224171D+05 0.22224171D+05 0.22224171D+05 0.11749492D+01  1  2  2  1  6  1       -2 0.257168465305D-05 0.100000000000D+01
-.333658994213D-09 0.000000000000D+00 -.103695970623D-08 0.533889591409D-05 0.000000000000D+00  6 -2 22 9900012 13 -1 21 2 0.40324688D-01 0.33094218D-01 0.22224171D+05 0.22224171D+05 0.22224171D+05 0.11749492D+01  1  2  3  1  6  1       -2 -.219345060014D-08 0.100000000000D+01
-.764576468359D-07 0.000000000000D+00 0.000000000000D+00 0.533889591409D-05 0.000000000000D+00  6 -2 22 9900012 13 -1 21 2 0.40324688D-01 0.33094218D-01 0.22224171D+05 0.22224171D+05 0.22224171D+05 0.11749492D+01  1  2 15  1  6  1       -2 -.502627156007D-06 0.100000000000D+01
0.259178033559D-04 0.000000000000D+00 0.000000000000D+00 0.533889591409D-05 0.000000000000D+00  6 -2 22 9900012 13 -1 21 2 0.50688006D-01 0.33094218D-01 0.23626326D+05 0.23626326D+05 0.23626326D+05 0.11724378D+01  1  2 12  1  6  1       -2 0.111004651818D-03 0.100000000000D+01
-.164923544333D-04 0.000000000000D+00 0.000000000000D+00 0.533889591409D-05 0.000000000000D+00  6 -2 22 9900012 13 -1 21 2 0.40324688D-01 0.33094218D-01 0.22224171D+05 0.22224171D+05 0.22224171D+05 0.11749492D+01  1  2  4  1  6  1       -2 -.108419570150D-03 0.100000000000D+01
-.263701816260D-04 0.000000000000D+00 -.344052991077D-06 0.533889591409D-05 0.000000000000D+00  6 -2 22 9900012 13 -1 21 2 0.50644787D-01 0.33094218D-01 0.22224171D+05 0.22224171D+05 0.22224171D+05 0.11749492D+01  1  2  5  1  6  1       -2 -.113301643081D-03 0.100000000000D+01
0.257849702110D-04 0.000000000000D+00 0.335309638074D-06 0.533889591409D-05 0.000000000000D+00  6 -2 22 9900012 13 -1 21 2 0.40324688D-01 0.33094218D-01 0.22224171D+05 0.22224171D+05 0.22224171D+05 0.11749492D+01  1  2  6  1  6  1       -2 0.169508568223D-03 0.100000000000D+01
0.577183648135D-08 0.000000000000D+00 0.000000000000D+00 0.533889591409D-05 0.343105498763D-06  6 -2 22 9900012 13 -1 21 2 0.50610466D-01 0.33144922D-01 0.23626326D+05 0.23626326D+05 0.23626326D+05 0.11724378D+01  1  2 11  1  6  1       -2 0.247333079212D-07 0.100000000000D+01
0.821056353205D-06 0.000000000000D+00 0.000000000000D+00 0.533889591409D-05 0.000000000000D+00  6 21 22 9900012 13 2 -1 2 0.50688006D-01 0.33094218D-01 0.23626326D+05 0.23626326D+05 0.23626326D+05 0.11724378D+01  3  4 12  3  5  1       -2 0.380826093545D-04 0.100000000000D+01
-.828108597578D-06 0.000000000000D+00 -.108688898884D-07 0.533889591409D-05 0.000000000000D+00  6 21 22 9900012 13 2 -1 2 0.50644787D-01 0.33094218D-01 0.22224171D+05 0.22224171D+05 0.22224171D+05 0.11749492D+01  3  4  5  3  5  1       -2 -.385913900062D-04 0.100000000000D+01
0.275335298687D-09 0.000000000000D+00 0.000000000000D+00 0.533889591409D-05 0.162375191679D-07  6 21 22 9900012 13 2 -1 2 0.50610466D-01 0.33144922D-01 0.23626326D+05 0.23626326D+05 0.23626326D+05 0.11724378D+01  3  4 11  3  5  1       -2 0.127809391307D-07 0.100000000000D+01
  </mgrwgt>
  </event>
  <event>
  6     66 0.79906760E-06 0.28558378E+02 0.78161638E-02 0.12729014E+00
       -2 -1    0    0    0  501 0.00000000E+00 0.00000000E+00 0.33575166E+03 0.33575166E+03 0.00000000E+00 0.0000E+00 0.9000E+01
       22 -1    0    0    0    0 0.00000000E+00 0.00000000E+00 -.17574909E+03 0.17574909E+03 0.00000000E+00 0.0000E+00 0.9000E+01
      -24  2    1    2    0    0 -.28552752E+02 0.56687767E+00 -.16496123E+03 0.18528449E+03 0.79388620E+02 0.0000E+00 0.0000E+00
  9900012  1    3    3    0    0 -.24413658E+02 -.22949286E+02 -.12492725E+03 0.13867053E+03 0.50000000E+02 0.0000E+00 0.9000E+01
       13  1    3    3    0    0 -.41390934E+01 0.23516163E+02 -.40033977E+02 0.46613961E+02 0.00000000E+00 0.0000E+00 0.9000E+01
       -1  1    1    2    0  501 0.28552752E+02 -.56687767E+00 0.32496379E+03 0.32621626E+03 0.00000000E+00 0.0000E+00 0.9000E+01
#aMCatNLO 1  0  0  1  5 0.21618315D+03 0.00000000D+00  -5  6  0 0.00000000D+00 0.00000000D+00 0.00000000D+00 0.00000000D+00 0.00000000D+00
  <mgrwgt>
 0.1125944875D-03    4    2    0
 0.242915722129873D+03 0.000000000000000D+00 0.000000000000000D+00 0.242915722129873D+03
 0.242915722129873D+03 0.000000000000000D+00 0.000000000000000D+00 -.242915722129873D+03
 0.187140538339505D+03 -.244136581389445D+02 -.229492856738366D+02 -.177197304362496D+03
 0.622615413618383D+02 -.413909340226212D+01 0.235161633449687D+02 -.575009347758104D+02
 0.236429364558402D+03 0.285527515412067D+02 -.566877671132182D+00 0.234698239138307D+03
 0.000000000000000D+00 0.000000000000000D+00 0.000000000000000D+00 -.000000000000000D+00
 0.278180370266700D+03 0.000000000000000D+00 0.000000000000000D+00 0.278180370266700D+03
 0.405290808552870D+03 0.000000000000000D+00 0.000000000000000D+00 -.405290808552870D+03
 0.201841399393826D+03 -.458725130260203D+02 -.688242572397305D+02 -.177197304362496D+03
 0.592309911071962D+02 -.108414370619918D+02 0.918782073614994D+01 -.575009347758104D+02
 0.241514991584173D+03 0.218613245774802D+01 -.569337205016374D+02 0.234698239138307D+03
 0.180883796734375D+03 0.545278176302641D+02 0.116570157005218D+03 -.127110438286170D+03
0.324884516993D-04 0.000000000000D+00 0.000000000000D+00 0.693519142504D-04 0.000000000000D+00  6 -2 22 9900012 13 -1 21 0 0.51654101D-01 0.27038322D-01 0.31710901D+04 0.31710901D+04 0.31710901D+04 0.12647431D+01  1  2  2  1  6  1       -2 0.120635893871D-03 0.100000000000D+01
0.307418554947D-05 0.000000000000D+00 -.623821044655D-07 0.693519142504D-04 0.000000000000D+00  6 -2 22 9900012 13 -1 21 2 0.51654101D-01 0.27038322D-01 0.31710901D+04 0.31710901D+04 0.31710901D+04 0.12647431D+01  1  2  3  1  6  1       -2 0.182592202988D-04 0.100000000000D+01
-.441534166959D-05 0.000000000000D+00 0.000000000000D+00 0.693519142504D-04 0.000000000000D+00  6 -2 22 9900012 13 -1 21 2 0.51654101D-01 0.27038322D-01 0.31710901D+04 0.31710901D+04 0.31710901D+04 0.12647431D+01  1  2 15  1  6  1       -2 -.262250586188D-04 0.100000000000D+01
-.127229023863D-07 0.000000000000D+00 0.000000000000D+00 0.693519142504D-04 0.000000000000D+00  6 -2 22 9900012 13 -1 21 2 0.51654101D-01 0.27038322D-01 0.31710901D+04 0.31710901D+04 0.31710901D+04 0.12647431D+01  1  2  4  1  6  1       -2 -.755680728358D-07 0.100000000000D+01
  </mgrwgt>
  </event>
  <event>
  7     66 -.79906760E-06 0.65590611E+02 0.78161638E-02 0.11729633E+00
       -2 -1    0    0    0  502 0.00000000E+00 0.00000000E+00 0.94967391E+02 0.94967391E+02 0.00000000E+00 0.0000E+00 0.9000E+01
       22 -1    0    0    0    0 0.00000000E+00 0.00000000E+00 -.12267186E+03 0.12267186E+03 0.00000000E+00 0.0000E+00 0.9000E+01
      -24  2    1    2    0    0 0.63483106E+02 -.79640562E+01 -.57398484E+02 0.13906077E+03 0.10931505E+03 0.0000E+00 0.0000E+00
  9900012  1    3    3    0    0 0.81983025E+02 -.18191895E+02 -.25869070E+02 0.10110079E+03 0.50000000E+02 0.0000E+00 0.9000E+01
       13  1    3    3    0    0 -.18499919E+02 0.10227839E+02 -.31529414E+02 0.37959974E+02 0.00000000E+00 0.0000E+00 0.9000E+01
       -1  1    1    2    0  501 -.66966901E+02 0.73012957E+01 0.31758904E+02 0.74474846E+02 0.00000000E+00 0.0000E+00 0.9000E+01
       21  1    1    2  501  502 0.34837947E+01 0.66276057E+00 -.20648908E+01 0.41036388E+01 0.00000000E+00 0.0000E+00 0.9000E+01
#aMCatNLO 2  0  0  1  5 0.64833148D+01 0.00000000D+00  -5  6  0 0.00000000D+00 0.00000000D+00 0.00000000D+00 0.00000000D+00 0.00000000D+00
  <mgrwgt>
 -.6481294427D-05    3    2    0
 0.105980533436310D+03 0.000000000000000D+00 0.000000000000000D+00 0.105980533436310D+03
 0.105980533436310D+03 0.000000000000000D+00 0.000000000000000D+00 -.105980533436310D+03
 0.100013191532745D+03 0.836160094372638D+02 -.178812345585628D+02 -.138297829706273D+02
 0.341559620714083D+02 -.179363744658166D+02 0.103350481625681D+02 -.271680510070723D+02
 0.777919132684668D+02 -.656796349714471D+02 0.754618639599471D+01 0.409978339776996D+02
 0.000000000000000D+00 0.000000000000000D+00 0.000000000000000D+00 -.000000000000000D+00
 0.107145457986341D+03 0.000000000000000D+00 0.000000000000000D+00 0.107145457986341D+03
 0.108729075109893D+03 0.000000000000000D+00 0.000000000000000D+00 -.108729075109893D+03
 0.987087857168934D+02 0.819830252776231D+02 -.181918950914286D+02 -.138297829706273D+02
 0.344232290026551D+02 -.184999192445818D+02 0.102278388426054D+02 -.271680510070723D+02
 0.788587160844899D+02 -.669669007277141D+02 0.730129567649759D+01 0.409978339776996D+02
 0.388380229219568D+01 0.348379469467281D+01 0.662760572325614D+00 -.158361712355120D+01
-.789489709266D-07 0.000000000000D+00 0.000000000000D+00 0.442232254426D-09 0.000000000000D+00  6 -2 22 9900012 13 -1 21 2 0.14989279D-01 0.18395517D-01 0.90045056D+04 0.90045056D+04 0.90045056D+04 0.12140796D+01  1  2 13  1  6  1       -2 -.665322534112D-05 0.100000000000D+01
-.310289159993D-07 0.000000000000D+00 0.000000000000D+00 0.442232254426D-09 0.000000000000D+00  6 -2 22 9900012 13 -1 21 2 0.14451519D-01 0.18395517D-01 0.86364491D+04 0.86364491D+04 0.86364491D+04 0.12159867D+01  1  2  8  1  6  1       -2 -.276673132444D-05 0.100000000000D+01
0.347979088447D-07 0.000000000000D+00 0.000000000000D+00 0.442232254426D-09 0.170938127668D-10  6 -2 22 9900012 13 -1 21 2 0.14610368D-01 0.18872594D-01 0.90045056D+04 0.90045056D+04 0.90045056D+04 0.12140796D+01  1  2  1  1  6  1       -2 0.293866223846D-05 0.100000000000D+01
  </mgrwgt>
  </event>
  <event>
  6     66 0.79906760E-06 0.26658691E+02 0.78161638E-02 0.10367680E+00
       -4 -1    0    0    0  501 0.00000000E+00 0.00000000E+00 0.25437320E+02 0.25437320E+02 0.00000000E+00 0.0000E+00 0.9000E+01
       22 -1    0    0    0    0 0.00000000E+00 0.00000000E+00 -.33453288E+04 0.33453288E+04 0.00000000E+00 0.0000E+00 0.9000E+01
      -24  2    1    2    0    0 -.22593066E+02 -.14150590E+02 -.33375091E+04 0.33388120E+04 0.89377316E+02 0.0000E+00 0.0000E+00
  9900012  1    3    3    0    0 0.15683196E+02 -.15697719E+01 -.17047444E+04 0.17055504E+04 0.50000000E+02 0.0000E+00 0.9000E+01
       13  1    3    3    0    0 -.38276262E+02 -.12580818E+02 -.16327646E+04 0.16332617E+04 0.00000000E+00 0.0000E+00 0.9000E+01
       -3  1    1    2    0  501 0.22593066E+02 0.14150590E+02 0.17617575E+02 0.31954104E+02 0.00000000E+00 0.0000E+00 0.9000E+01
#aMCatNLO 1  0  0  1  5 0.16604720D+02 0.00000000D+00  -5  6  0 0.00000000D+00 0.00000000D+00 0.00000000D+00 0.00000000D+00 0.00000000D+00
  <mgrwgt>
 0.1150569479D-03    5    4    0
 0.291712529179780D+03 0.000000000000000D+00 0.000000000000000D+00 0.291712529179780D+03
 0.291712529179780D+03 0.000000000000000D+00 0.000000000000000D+00 -.291712529179780D+03
 0.153309887267528D+03 0.156831963440358D+02 -.156977187927693D+01 -.144067674037806D+03
 0.145248683710696D+03 -.382762618576934D+02 -.125808179294517D+02 -.139548668636133D+03
 0.284866487381336D+03 0.225930655136577D+02 0.141505898087286D+02 0.283616342673939D+03
 0.000000000000000D+00 -.000000000000000D+00 -.000000000000000D+00 0.000000000000000D+00
 0.462235232224626D+03 0.000000000000000D+00 0.000000000000000D+00 0.462235232224626D+03
 0.387278958489231D+03 0.000000000000000D+00 0.000000000000000D+00 -.387278958489231D+03
 0.167030281622949D+03 0.557424957713030D+02 0.391968677519578D+02 -.144067674037806D+03
 0.141605034338547D+03 -.240452269066965D+01 0.239243203149858D+02 -.139548668636133D+03
 0.313155778008364D+03 0.973771710362129D+02 0.902551828388074D+02 0.283616342673939D+03
 0.227723096743997D+03 -.150715144116846D+03 -.153376370905751D+03 0.749562737353952D+02
 0.291712529179780D+03 0.000000000000000D+00 0.000000000000000D+00 0.291712529179780D+03
 0.291712529179780D+03 0.000000000000000D+00 0.000000000000000D+00 -.291712529179780D+03
 0.153309887267528D+03 0.156831963440358D+02 -.156977187927693D+01 -.144067674037806D+03
 0.145248683710696D+03 -.382762618576934D+02 -.125808179294517D+02 -.139548668636133D+03
 0.000000000000000D+00 -.000000000000000D+00 -.000000000000000D+00 0.000000000000000D+00
 0.284866487381336D+03 0.225930655136577D+02 0.141505898087286D+02 0.283616342673939D+03
 0.462235232224626D+03 0.000000000000000D+00 0.000000000000000D+00 0.462235232224626D+03
 0.387278958489231D+03 0.000000000000000D+00 0.000000000000000D+00 -.387278958489231D+03
 0.167030281622949D+03 0.557424957713030D+02 0.391968677519578D+02 -.144067674037806D+03
 0.141605034338547D+03 -.240452269066965D+01 0.239243203149858D+02 -.139548668636133D+03
 0.227723096743997D+03 -.150715144116846D+03 -.153376370905751D+03 0.749562737353952D+02
 0.313155778008364D+03 0.973771710362129D+02 0.902551828388074D+02 0.283616342673939D+03
0.428876035543D-03 0.000000000000D+00 0.000000000000D+00 0.234135952599D-05 0.000000000000D+00  6 -4 22 9900012 13 -3 21 0 0.39134339D-02 0.51466597D+00 0.35625940D+04 0.35625940D+04 0.35625940D+04 0.12587656D+01  1  2  2  1  6  1       -4 0.510980672130D-04 0.100000000000D+01
0.512143999618D-04 0.000000000000D+00 -.823498451069D-06 0.234135952599D-05 0.000000000000D+00  6 -4 22 9900012 13 -3 21 2 0.39134339D-02 0.51466597D+00 0.35625940D+04 0.35625940D+04 0.35625940D+04 0.12587656D+01  1  2  3  1  6  1       -4 0.966839718326D-05 0.100000000000D+01
-.616032119288D-04 0.000000000000D+00 0.000000000000D+00 0.234135952599D-05 0.000000000000D+00  6 -4 22 9900012 13 -3 21 2 0.39134339D-02 0.51466597D+00 0.35625940D+04 0.35625940D+04 0.35625940D+04 0.12587656D+01  1  2 15  1  6  1       -4 -.116296260649D-04 0.100000000000D+01
0.422648373556D-03 0.000000000000D+00 -.138365299854D-03 0.234135952599D-05 0.000000000000D+00  6 -4 22 9900012 13 -3 21 2 0.10981610D-01 0.51466597D+00 0.35625940D+04 0.35625940D+04 0.35625940D+04 0.12587656D+01  1  2  5  1  6  1       -4 0.160008531754D-04 0.100000000000D+01
0.566914924426D-04 0.000000000000D+00 -.160393529498D-04 0.234135952599D-05 0.000000000000D+00  6 21 22 9900012 13 4 -3 2 0.10981610D-01 0.51466597D+00 0.35625940D+04 0.35625940D+04 0.35625940D+04 0.12587656D+01  3  4  5  3  5  1       -4 0.499192564254D-04 0.100000000000D+01
  </mgrwgt>
  </event>
  <event>
  6     66 0.79906760E-06 0.41009717E+02 0.78161638E-02 0.12665459E+00
       -4 -1    0    0    0  501 0.00000000E+00 0.00000000E+00 0.35030186E+02 0.35030186E+02 0.00000000E+00 0.0000E+00 0.9000E+01
       22 -1    0    0    0    0 -.00000000E+00 -.00000000E+00 -.47552750E+03 0.47552750E+03 0.00000000E+00 0.0000E+00 0.9000E+01
      -24  2    1    2    0    0 -.34944535E+02 -.21463373E+02 -.45769654E+03 0.46608735E+03 0.77906978E+02 0.0000E+00 0.0000E+00
  9900012  1    3    3    0    0 -.19161737E+02 -.75352439E+01 -.41474449E+03 0.41825464E+03 0.50000000E+02 0.0000E+00 0.9000E+01
       13  1    3    3    0    0 -.15782798E+02 -.13928129E+02 -.42952057E+02 0.47832716E+02 0.00000000E+00 0.0000E+00 0.9000E+01
       -3  1    1    2    0  501 0.34944535E+02 0.21463373E+02 0.17199231E+02 0.44470332E+02 0.00000000E+00 0.0000E+00 0.9000E+01
#aMCatNLO 1  0  0  5  5 0.26257459D+01 0.00000000D+00  -5  6  0 0.00000000D+00 0.00000000D+00 0.00000000D+00 0.00000000D+00 0.00000000D+00
  <mgrwgt>
 0.6260727850D-04    3    2    0
 0.129065164407810D+03 0.000000000000000D+00 0.000000000000000D+00 0.129065164407810D+03
 0.129065164407810D+03 -.000000000000000D+00 -.000000000000000D+00 -.129065164407810D+03
 0.119510509383263D+03 -.191617367524091D+02 -.753524386472957D+01 -.106577717171919D+03
 0.213113076004886D+02 -.157827978282424D+02 -.139281288857729D+02 -.332901638577674D+01
 0.117308511831868D+03 0.349445345806515D+02 0.214633727505024D+02 0.109906733557695D+03
 0.000000000000000D+00 -.000000000000000D+00 0.000000000000000D+00 0.000000000000000D+00
 0.129065164407810D+03 0.000000000000000D+00 0.000000000000000D+00 0.129065164407810D+03
 0.129065164407810D+03 -.000000000000000D+00 -.000000000000000D+00 -.129065164407810D+03
 0.932311536701306D+02 -.100808165073853D+02 -.195762840996695D+01 -.780166190257975D+02
 0.191709647217829D+02 -.140548039740080D+02 -.128667733219032D+02 0.210582950373860D+01
 0.806824290699576D+02 0.669776300884935D+02 -.191681564110403D+02 0.406968451868146D+02
 0.650457813537489D+02 -.428420096071003D+02 0.339925581429104D+02 0.352139443352444D+02
0.425519600253D-05 0.000000000000D+00 0.000000000000D+00 0.112141960362D-05 0.000000000000D+00  6 -4 22 9900012 13 -3 21 0 0.53892594D-02 0.73158077D-01 0.33717177D+04 0.33717177D+04 0.33717177D+04 0.12615818D+01  1  2  2  2  6  5       -3 0.765189349026D-04 0.100000000000D+01
0.124742552061D-06 0.000000000000D+00 -.817053653427D-08 0.112141960362D-05 0.000000000000D+00  6 -4 22 9900012 13 -3 21 2 0.53892594D-02 0.73158077D-01 0.33717177D+04 0.33717177D+04 0.33717177D+04 0.12615818D+01  1  2  3  2  6  5       -3 0.357021835763D-05 0.100000000000D+01
-.610812408099D-06 0.000000000000D+00 0.000000000000D+00 0.112141960362D-05 0.000000000000D+00  6 -4 22 9900012 13 -3 21 2 0.53892594D-02 0.73158077D-01 0.33717177D+04 0.33717177D+04 0.33717177D+04 0.12615818D+01  1  2 15  2  6  5       -3 -.174818747607D-04 0.100000000000D+01
  </mgrwgt>
  </event>
  <event>
  6     66 0.79906760E-06 0.40990614E+02 0.78161638E-02 0.12348895E+00
       -2 -1    0    0    0  501 0.00000000E+00 0.00000000E+00 0.33133017E+02 0.33133017E+02 0.00000000E+00 0.0000E+00 0.9000E+01
       22 -1    0    0    0    0 -.00000000E+00 -.00000000E+00 -.28077240E+03 0.28077240E+03 0.00000000E+00 0.0000E+00 0.9000E+01
      -24  2    1    2    0    0 -.23797959E+01 0.46343016E+02 -.25133553E+03 0.26735436E+03 0.78456786E+02 0.0000E+00 0.0000E+00
  9900012  1    3    3    0    0 -.22951548E+02 0.43666593E+02 -.20059573E+03 0.21253751E+03 0.50000000E+02 0.0000E+00 0.9000E+01
       13  1    3    3    0    0 0.20571752E+02 0.26764238E+01 -.50739802E+02 0.54816857E+02 0.00000000E+00 0.0000E+00 0.9000E+01
       -1  1    1    2    0  501 0.23797959E+01 -.46343016E+02 0.36961535E+01 0.46551049E+02 0.00000000E+00 0.0000E+00 0.9000E+01
#aMCatNLO 1  0  0  5  1 0.62710402D+01 0.00000000D+00  -5  6  0 0.00000000D+00 0.00000000D+00 0.00000000D+00 0.00000000D+00 0.00000000D+00
  <mgrwgt>
 0.3372857477D-04    6    2    0
 0.964512129816228D+02 0.000000000000000D+00 0.000000000000000D+00 0.964512129816228D+02
 0.964512129816228D+02 -.000000000000000D+00 -.000000000000000D+00 -.964512129816228D+02
 0.883414069205188D+02 -.229515482577939D+02 0.436665926940526D+02 -.535785338709315D+02
 0.240646786137151D+02 0.205717523327658D+02 0.267642379184137D+01 -.121962501789363D+02
 0.804963404290118D+02 0.237979592502801D+01 -.463430164858940D+02 0.657747840498678D+02
 0.000000000000000D+00 0.000000000000000D+00 0.000000000000000D+00 -.000000000000000D+00
 0.964512129816228D+02 0.000000000000000D+00 0.000000000000000D+00 0.964512129816228D+02
 0.964512129816228D+02 -.000000000000000D+00 -.000000000000000D+00 -.964512129816228D+02
 0.863746368003043D+02 -.228772225037221D+02 0.422192082313563D+02 -.515242567070796D+02
 0.237609375857500D+02 0.205920977739301D+02 0.228022632575983D+01 -.116339259120093D+02
 0.788674031452287D+02 0.451913306203474D+01 -.429820713404392D+02 0.659711016925218D+02
 0.389944843196274D+01 -.223400833224272D+01 -.151736321667696D+01 -.281291907343289D+01
0.293569851512D-06 0.000000000000D+00 0.000000000000D+00 0.361951682159D-06 0.000000000000D+00  6 -2 22 9900012 13 -1 21 0 0.50973872D-02 0.43195753D-01 0.47188933D+04 0.47188933D+04 0.47188933D+04 0.12446861D+01  1  2  2  2  6  5       -1 0.214763917445D-04 0.100000000000D+01
0.597111620821D-08 0.000000000000D+00 -.563692764262D-09 0.361951682159D-06 0.000000000000D+00  6 -2 22 9900012 13 -1 21 2 0.50973872D-02 0.43195753D-01 0.47188933D+04 0.47188933D+04 0.47188933D+04 0.12446861D+01  1  2  3  2  6  5       -1 0.676745012456D-06 0.100000000000D+01
-.423375233597D-07 0.000000000000D+00 0.000000000000D+00 0.361951682159D-06 0.000000000000D+00  6 -2 22 9900012 13 -1 21 2 0.50973872D-02 0.43195753D-01 0.47188933D+04 0.47188933D+04 0.47188933D+04 0.12446861D+01  1  2 15  2  6  5       -1 -.479838388240D-05 0.100000000000D+01
0.155477855909D-06 0.000000000000D+00 0.000000000000D+00 0.361951682159D-06 0.000000000000D+00  6 -2 22 9900012 13 -1 21 2 0.50973872D-02 0.43195753D-01 0.46213909D+04 0.46213909D+04 0.46213909D+04 0.12457158D+01  1  2 12  2  6  5       -1 0.176115553306D-04 0.100000000000D+01
-.164789551806D-07 0.000000000000D+00 0.000000000000D+00 0.361951682159D-06 0.000000000000D+00  6 -2 22 9900012 13 -1 21 2 0.50973872D-02 0.43195753D-01 0.47188933D+04 0.47188933D+04 0.47188933D+04 0.12446861D+01  1  2  4  2  6  5       -1 -.186766600081D-05 0.100000000000D+01
0.556115363945D-08 0.000000000000D+00 0.000000000000D+00 0.361951682159D-06 0.678269810832D-08  6 -2 22 9900012 13 -1 21 2 0.50973872D-02 0.43195753D-01 0.46213909D+04 0.46213909D+04 0.46213909D+04 0.12457158D+01  1  2 11  2  6  5       -1 0.629932567889D-06 0.100000000000D+01
  </mgrwgt>
  </event>
  <event>
  6     66 0.79906760E-06 0.22337612E+02 0.78161638E-02 0.12886565E+00
       -2 -1    0    0    0  501 0.00000000E+00 0.00000000E+00 0.12102110E+03 0.12102110E+03 0.00000000E+00 0.0000E+00 0.9000E+01
       22 -1    0    0    0    0 0.00000000E+00 0.00000000E+00 -.10671577E+04 0.10671577E+04 0.00000000E+00 0.0000E+00 0.9000E+01
      -24  2    1    2    0    0 -.80767488E+01 0.20826306E+02 -.10645354E+04 0.10676914E+04 0.78932485E+02 0.0000E+00 0.0000E+00
  9900012  1    3    3    0    0 0.70528420E+01 0.31155455E+01 -.47306013E+03 0.47575764E+03 0.50000000E+02 0.0000E+00 0.9000E+01
       13  1    3    3    0    0 -.15129591E+02 0.17710761E+02 -.59147526E+03 0.59193374E+03 0.00000000E+00 0.0000E+00 0.9000E+01
       -1  1    1    2    0  501 0.80767488E+01 -.20826306E+02 0.11839873E+03 0.12048746E+03 0.00000000E+00 0.0000E+00 0.9000E+01
#aMCatNLO 1  0  0  1  5 0.68765841D+01 0.00000000D+00  -5  6  0 0.00000000D+00 0.00000000D+00 0.00000000D+00 0.00000000D+00 0.00000000D+00
  <mgrwgt>
 0.1672022087D-02   11    4    0
 0.359372509001456D+03 0.000000000000000D+00 0.000000000000000D+00 0.359372509001456D+03
 0.359372509001456D+03 0.000000000000000D+00 0.000000000000000D+00 -.359372509001456D+03
 0.163765502666759D+03 0.705284201483605D+01 0.311554545069150D+01 -.155755226749392D+03
 0.199941183956491D+03 -.151295908108561D+02 0.177107610410211D+02 -.198579710613062D+03
 0.355038331379663D+03 0.807674879602008D+01 -.208263064917126D+02 0.354334937362454D+03
 0.000000000000000D+00 -.000000000000000D+00 0.000000000000000D+00 0.000000000000000D+00
 0.386761667529047D+03 0.000000000000000D+00 0.000000000000000D+00 0.386761667529047D+03
 0.359813481008868D+03 0.000000000000000D+00 0.000000000000000D+00 -.359813481008868D+03
 0.163785702837840D+03 0.792027652486543D+01 0.182620209732511D+01 -.155755226749392D+03
 0.199730615934715D+03 -.140711635906689D+02 0.161375286118384D+02 -.198579710613062D+03
 0.355261054585986D+03 0.995779270452932D+01 -.236222656480351D+02 0.354334937362454D+03
 0.277977751793727D+02 -.380690563872580D+01 0.565853493887151D+01 0.269481865201790D+02
 0.359372509001456D+03 0.000000000000000D+00 0.000000000000000D+00 0.359372509001456D+03
 0.359372509001456D+03 0.000000000000000D+00 0.000000000000000D+00 -.359372509001456D+03
 0.163765502666759D+03 0.705284201483605D+01 0.311554545069150D+01 -.155755226749392D+03
 0.199941183956491D+03 -.151295908108561D+02 0.177107610410211D+02 -.198579710613062D+03
 0.000000000000000D+00 -.000000000000000D+00 0.000000000000000D+00 0.000000000000000D+00
 0.355038331379663D+03 0.807674879602008D+01 -.208263064917126D+02 0.354334937362454D+03
 0.386761667529047D+03 0.000000000000000D+00 0.000000000000000D+00 0.386761667529047D+03
 0.359813481008868D+03 0.000000000000000D+00 0.000000000000000D+00 -.359813481008868D+03
 0.163785702837840D+03 0.792027652486543D+01 0.182620209732511D+01 -.155755226749392D+03
 0.199730615934715D+03 -.140711635906689D+02 0.161375286118384D+02 -.198579710613062D+03
 0.277977751793727D+02 -.380690563872580D+01 0.565853493887151D+01 0.269481865201790D+02
 0.355261054585986D+03 0.995779270452932D+01 -.236222656480351D+02 0.354334937362454D+03
0.280405328205D-04 0.000000000000D+00 0.000000000000D+00 0.320676382966D-03 0.000000000000D+00  6 -2 22 9900012 13 -1 21 0 0.18618630D-01 0.16417812D+00 0.23146617D+04 0.23146617D+04 0.23146617D+04 0.12813650D+01  1  2  2  1  6  1       -2 0.227166230303D-04 0.100000000000D+01
0.317910653130D-05 0.000000000000D+00 -.538415146363D-07 0.320676382966D-03 0.000000000000D+00  6 -2 22 9900012 13 -1 21 2 0.18618630D-01 0.16417812D+00 0.23146617D+04 0.23146617D+04 0.23146617D+04 0.12813650D+01  1  2  3  1  6  1       -2 0.422871421464D-05 0.100000000000D+01
-.383963858681D-05 0.000000000000D+00 0.000000000000D+00 0.320676382966D-03 0.000000000000D+00  6 -2 22 9900012 13 -1 21 2 0.18618630D-01 0.16417812D+00 0.23146617D+04 0.23146617D+04 0.23146617D+04 0.12813650D+01  1  2 15  1  6  1       -2 -.510732626015D-05 0.100000000000D+01
0.127323919541D-02 0.000000000000D+00 0.000000000000D+00 0.320676382966D-03 0.000000000000D+00  6 -2 22 9900012 13 -1 21 2 0.20062215D-01 0.16417812D+00 0.27312269D+04 0.27312269D+04 0.27312269D+04 0.12725461D+01  1  2 12  1  6  1       -2 0.150225309930D-02 0.100000000000D+01
-.346963285214D-04 0.000000000000D+00 0.000000000000D+00 0.320676382966D-03 0.000000000000D+00  6 -2 22 9900012 13 -1 21 2 0.18618630D-01 0.16417812D+00 0.23146617D+04 0.23146617D+04 0.23146617D+04 0.12813650D+01  1  2  4  1  6  1       -2 -.461516014545D-04 0.100000000000D+01
-.141955134994D-02 0.000000000000D+00 -.508962102876D-04 0.320676382966D-03 0.000000000000D+00  6 -2 22 9900012 13 -1 21 2 0.20051898D-01 0.16417812D+00 0.23146617D+04 0.23146617D+04 0.23146617D+04 0.12813650D+01  1  2  5  1  6  1       -2 -.168118260087D-02 0.100000000000D+01
0.141956002399D-02 0.000000000000D+00 0.507565690914D-04 0.320676382966D-03 0.000000000000D+00  6 -2 22 9900012 13 -1 21 2 0.18618630D-01 0.16417812D+00 0.23146617D+04 0.23146617D+04 0.23146617D+04 0.12813650D+01  1  2  6  1  6  1       -2 0.188823922473D-02 0.100000000000D+01
0.163992285045D-05 0.000000000000D+00 0.000000000000D+00 0.320676382966D-03 0.175155503265D-05  6 -2 22 9900012 13 -1 21 2 0.20037627D-01 0.16437957D+00 0.27312269D+04 0.27312269D+04 0.27312269D+04 0.12725461D+01  1  2 11  1  6  1       -2 0.193325799836D-05 0.100000000000D+01
0.184227020630D-04 0.000000000000D+00 0.000000000000D+00 0.320676382966D-03 0.000000000000D+00  6 21 22 9900012 13 2 -1 2 0.20062215D-01 0.16417812D+00 0.27312269D+04 0.27312269D+04 0.27312269D+04 0.12725461D+01  3  4 12  3  5  1       -2 0.291351882903D-03 0.100000000000D+01
-.195748824576D-04 0.000000000000D+00 -.635365407872D-06 0.320676382966D-03 0.000000000000D+00  6 21 22 9900012 13 2 -1 2 0.20051898D-01 0.16417812D+00 0.23146617D+04 0.23146617D+04 0.23146617D+04 0.12813650D+01  3  4  5  3  5  1       -2 -.311612364624D-03 0.100000000000D+01
0.338708138167D-06 0.000000000000D+00 0.000000000000D+00 0.320676382966D-03 0.442643543994D-06  6 21 22 9900012 13 2 -1 2 0.20037627D-01 0.16437957D+00 0.27312269D+04 0.27312269D+04 0.27312269D+04 0.12725461D+01  3  4 11  3  5  1       -2 0.535317759597D-05 0.100000000000D+01
  </mgrwgt>
  </event>
  <event>
  6     66 0.79906760E-06 0.45718511E+02 0.78161638E-02 0.12288919E+00
       -2 -1    0    0    0  501 0.00000000E+00 0.00000000E+00 0.18604544E+03 0.18604544E+03 0.00000000E+00 0.0000E+00 0.9000E+01
       22 -1    0    0    0    0 0.00000000E+00 0.00000000E+00 -.32173838E+02 0.32173838E+02 0.00000000E+00 0.0000E+00 0.9000E+01
      -24  2    1    2    0    0 0.97579736E+01 0.49574799E+02 0.11635483E+03 0.15528767E+03 0.89570842E+02 0.0000E+00 0.0000E+00
  9900012  1    3    3    0    0 0.25193657E+01 -.25641108E+01 0.53880023E+02 0.73593334E+02 0.50000000E+02 0.0000E+00 0.9000E+01
       13  1    3    3    0    0 0.72386079E+01 0.52138910E+02 0.62474810E+02 0.81694340E+02 0.00000000E+00 0.0000E+00 0.9000E+01
       -1  1    1    2    0  501 -.97579736E+01 -.49574799E+02 0.37516767E+02 0.62931602E+02 0.00000000E+00 0.0000E+00 0.9000E+01
#aMCatNLO 1  0  0  5  1 0.17987659D+02 0.00000000D+00  -5  6  0 0.00000000D+00 0.00000000D+00 0.00000000D+00 0.00000000D+00 0.00000000D+00
  <mgrwgt>
 0.3420727879D-04    7    2    0
 0.773679251375058D+02 0.000000000000000D+00 0.000000000000000D+00 0.773679251375058D+02
 0.773679251375058D+02 -.000000000000000D+00 -.000000000000000D+00 -.773679251375058D+02
 0.502073608081184D+02 0.251936569867298D+01 -.256411081769937D+01 0.280307179848920D+01
 0.530851828878892D+02 0.723860787668493D+01 0.521389101042207D+02 0.686827863385202D+01
 0.514433065790041D+02 -.975797357535791D+01 -.495747992865213D+02 -.967135043234121D+01
 0.000000000000000D+00 -.000000000000000D+00 0.000000000000000D+00 0.000000000000000D+00
 0.773679251375058D+02 0.000000000000000D+00 0.000000000000000D+00 0.773679251375058D+02
 0.773679251375058D+02 -.000000000000000D+00 -.000000000000000D+00 -.773679251375058D+02
 0.505558383443807D+02 0.163956503698797D+01 -.703388529273257D+01 0.193108127258235D+01
 0.484293179619688D+02 0.635224732273745D+01 0.476358084901313D+02 0.598978644892973D+01
 0.326305458126327D+02 -.231798639710709D+01 -.235502498060990D+02 -.224669800632724D+02
 0.231201481560295D+02 -.567382596261833D+01 -.170516733912997D+02 0.145461123417604D+02
0.268511696233D-06 0.000000000000D+00 0.000000000000D+00 0.845337047954D-09 0.000000000000D+00  6 -2 22 9900012 13 -1 21 0 0.28622375D-01 0.49498213D-02 0.58747675D+04 0.58747675D+04 0.58747675D+04 0.12340407D+01  1  2  2  2  6  5       -1 0.333845542685D-04 0.100000000000D+01
-.102885258323D-07 0.000000000000D+00 -.515577807145D-09 0.845337047954D-09 0.000000000000D+00  6 -2 22 9900012 13 -1 21 2 0.28622375D-01 0.49498213D-02 0.58747675D+04 0.58747675D+04 0.58747675D+04 0.12340407D+01  1  2  3  2  6  5       -1 -.194802476988D-05 0.100000000000D+01
-.328282071931D-07 0.000000000000D+00 0.000000000000D+00 0.845337047954D-09 0.000000000000D+00  6 -2 22 9900012 13 -1 21 2 0.28622375D-01 0.49498213D-02 0.58747675D+04 0.58747675D+04 0.58747675D+04 0.12340407D+01  1  2 15  2  6  5       -1 -.621567771764D-05 0.100000000000D+01
0.711254349699D-07 0.000000000000D+00 0.000000000000D+00 0.845337047954D-09 0.000000000000D+00  6 -2 22 9900012 13 -1 21 2 0.28622375D-01 0.49498213D-02 0.49148047D+04 0.49148047D+04 0.49148047D+04 0.12426870D+01  1  2 12  2  6  5       -1 0.134260340911D-04 0.100000000000D+01
-.560869420235D-07 0.000000000000D+00 0.000000000000D+00 0.845337047954D-09 0.000000000000D+00  6 -2 22 9900012 13 -1 21 2 0.28622375D-01 0.49498213D-02 0.58747675D+04 0.58747675D+04 0.58747675D+04 0.12340407D+01  1  2  4  2  6  5       -1 -.106194759201D-04 0.100000000000D+01
-.610339814296D-07 0.000000000000D+00 0.000000000000D+00 0.845337047954D-09 0.000000000000D+00  6 -2 22 9900012 13 -1 21 2 0.28622375D-01 0.49498213D-02 0.58747675D+04 0.58747675D+04 0.58747675D+04 0.12340407D+01  1  2  5  2  6  5       -1 -.115561460959D-04 0.100000000000D+01
0.936730634072D-07 0.000000000000D+00 -.000000000000D+00 0.845337047954D-09 0.000000000000D+00  6 -2 22 9900012 13 -1 21 2 0.28622375D-01 0.49498213D-02 0.58747675D+04 0.58747675D+04 0.58747675D+04 0.12340407D+01  1  2  6  2  6  5       -1 0.177360149319D-04 0.100000000000D+01
  </mgrwgt>
  </event>
  <event>
  6     66 0.79906760E-06 0.56602336E+02 0.78161638E-02 0.11132792E+00
       -2 -1    0    0    0  501 0.00000000E+00 0.00000000E+00 0.45898425E+03 0.45898425E+03 0.00000000E+00 0.0000E+00 0.9000E+01
       22 -1    0    0    0    0 0.00000000E+00 0.00000000E+00 -.84168187E+02 0.84168187E+02 0.00000000E+00 0.0000E+00 0.9000E+01
      -24  2    1    2    0    0 -.56415050E+02 -.46007097E+01 -.54113926E+02 0.11050390E+03 0.77967746E+02 0.0000E+00 0.0000E+00
  9900012  1    3    3    0    0 -.21980179E+02 0.87863241E+01 -.16379313E+02 0.57694104E+02 0.50000000E+02 0.0000E+00 0.9000E+01
       13  1    3    3    0    0 -.34434871E+02 -.13387034E+02 -.37734613E+02 0.52809791E+02 0.00000000E+00 0.0000E+00 0.9000E+01
       -1  1    1    2    0  501 0.56415050E+02 0.46007097E+01 0.42892999E+03 0.43264854E+03 0.00000000E+00 0.0000E+00 0.9000E+01
#aMCatNLO 1  0  0  1  1 0.31739084D+03 0.00000000D+00  -5  6  0 0.00000000D+00 0.00000000D+00 0.00000000D+00 0.00000000D+00 0.00000000D+00
  <mgrwgt>
 0.6717354649D-04    7    4    0
 0.196549921704056D+03 0.000000000000000D+00 0.000000000000000D+00 0.196549921704056D+03
 0.196549921704056D+03 0.000000000000000D+00 0.000000000000000D+00 -.196549921704056D+03
 0.953343613807747D+02 -.219801791137845D+02 0.878632405169862D+01 -.776422094975707D+02
 0.108947653827962D+03 -.344348710304745D+02 -.133870337805408D+02 -.102492039975262D+03
 0.188817828199376D+03 0.564150501442590D+02 0.460070972884221D+01 0.180134249472833D+03
 0.000000000000000D+00 -.000000000000000D+00 0.000000000000000D+00 0.000000000000000D+00
 0.249050557574456D+03 0.000000000000000D+00 0.000000000000000D+00 0.249050557574456D+03
 0.246717915163966D+03 0.000000000000000D+00 0.000000000000000D+00 -.246717915163966D+03
 0.944862197024028D+02 -.157942554301892D+02 -.122423246727093D+02 -.776422094975707D+02
 0.112623950179007D+03 -.272142365501791D+02 -.379331151452612D+02 -.102492039975262D+03
 0.196615002493021D+03 0.689756379488580D+02 -.380981986678875D+02 0.180134249472833D+03
 0.920433003639919D+02 -.259671459684896D+02 0.882736384858581D+02 0.233264241049038D+01
 0.196549921704056D+03 0.000000000000000D+00 0.000000000000000D+00 0.196549921704056D+03
 0.196549921704056D+03 0.000000000000000D+00 0.000000000000000D+00 -.196549921704056D+03
 0.953343613807747D+02 -.219801791137845D+02 0.878632405169862D+01 -.776422094975707D+02
 0.108947653827962D+03 -.344348710304745D+02 -.133870337805408D+02 -.102492039975262D+03
 0.000000000000000D+00 -.000000000000000D+00 0.000000000000000D+00 0.000000000000000D+00
 0.188817828199376D+03 0.564150501442590D+02 0.460070972884221D+01 0.180134249472833D+03
 0.249050557574456D+03 0.000000000000000D+00 0.000000000000000D+00 0.249050557574456D+03
 0.246717915163966D+03 0.000000000000000D+00 0.000000000000000D+00 -.246717915163966D+03
 0.944862197024028D+02 -.157942554301892D+02 -.122423246727093D+02 -.776422094975707D+02
 0.112623950179007D+03 -.272142365501791D+02 -.379331151452612D+02 -.102492039975262D+03
 0.920433003639919D+02 -.259671459684896D+02 0.882736384858581D+02 0.233264241049038D+01
 0.196615002493021D+03 0.689756379488580D+02 -.380981986678875D+02 0.180134249472833D+03
0.932992680629D-05 0.000000000000D+00 0.000000000000D+00 0.549969655145D-05 0.000000000000D+00  6 -2 22 9900012 13 -1 21 0 0.70612961D-01 0.12948952D-01 0.55404283D+04 0.55404283D+04 0.55404283D+04 0.12368588D+01  1  2  2  1  6  1       -2 0.571344760662D-04 0.100000000000D+01
0.267958610120D-06 0.000000000000D+00 -.179146877811D-07 0.549969655145D-05 0.000000000000D+00  6 -2 22 9900012 13 -1 21 2 0.70612961D-01 0.12948952D-01 0.55404283D+04 0.55404283D+04 0.55404283D+04 0.12368588D+01  1  2  3  1  6  1       -2 0.251031377485D-05 0.100000000000D+01
-.131673540505D-05 0.000000000000D+00 0.000000000000D+00 0.549969655145D-05 0.000000000000D+00  6 -2 22 9900012 13 -1 21 2 0.70612961D-01 0.12948952D-01 0.55404283D+04 0.55404283D+04 0.55404283D+04 0.12368588D+01  1  2 15  1  6  1       -2 -.123355581806D-04 0.100000000000D+01
-.754949058568D-07 0.000000000000D+00 0.000000000000D+00 0.549969655145D-05 0.000000000000D+00  6 -2 22 9900012 13 -1 21 2 0.70612961D-01 0.12948952D-01 0.55404283D+04 0.55404283D+04 0.55404283D+04 0.12368588D+01  1  2  4  1  6  1       -2 -.707258117284D-06 0.100000000000D+01
0.242630374285D-07 0.000000000000D+00 -.359931615204D-05 0.549969655145D-05 0.000000000000D+00  6 -2 22 9900012 13 -1 21 2 0.10811374D+00 0.12948952D-01 0.55404283D+04 0.55404283D+04 0.55404283D+04 0.12368588D+01  1  2  5  1  6  1       -2 0.883863952660D-07 0.100000000000D+01
0.165963394903D-05 0.000000000000D+00 0.329575887710D-05 0.549969655145D-05 0.000000000000D+00  6 -2 22 9900012 13 -1 21 2 0.70612961D-01 0.12948952D-01 0.55404283D+04 0.55404283D+04 0.55404283D+04 0.12368588D+01  1  2  6  1  6  1       -2 0.155479309346D-04 0.100000000000D+01
0.134770924737D-06 0.000000000000D+00 -.179482210474D-06 0.549969655145D-05 0.000000000000D+00  6 21 22 9900012 13 2 -1 2 0.10811374D+00 0.12948952D-01 0.55404283D+04 0.55404283D+04 0.55404283D+04 0.12368588D+01  3  4  5  3  5  1       -2 0.493525561790D-05 0.100000000000D+01
  </mgrwgt>
  </event>
  <event>
  6     66 0.79906760E-06 0.12854516E+03 0.78161638E-02 0.10350206E+00
       -2 -1    0    0    0  501 0.00000000E+00 0.00000000E+00 0.64040720E+02 0.64040720E+02 0.00000000E+00 0.0000E+00 0.9000E+01
       22 -1    0    0    0    0 0.00000000E+00 0.00000000E+00 -.79057605E+03 0.79057605E+03 0.00000000E+00 0.0000E+00 0.9000E+01
      -24  2    1    2    0    0 0.12085225E+03 0.43801711E+02 -.70888652E+03 0.72486571E+03 0.79914532E+02 0.0000E+00 0.0000E+00
  9900012  1    3    3    0    0 0.62510941E+02 0.29348189E+01 -.36812344E+03 0.37673744E+03 0.50000000E+02 0.0000E+00 0.9000E+01
       13  1    3    3    0    0 0.58341313E+02 0.40866892E+02 -.34076309E+03 0.34812827E+03 0.00000000E+00 0.0000E+00 0.9000E+01
       -1  1    1    2    0  501 -.12085225E+03 -.43801711E+02 -.17648802E+02 0.12975106E+03 0.00000000E+00 0.0000E+00 0.9000E+01
#aMCatNLO 1  0  0  1  5 0.15395833D+03 0.00000000D+00  -5  6  0 0.00000000D+00 0.00000000D+00 0.00000000D+00 0.00000000D+00 0.00000000D+00
  <mgrwgt>
 0.1083080523D-04    5    4    0
 0.225009021261093D+03 0.000000000000000D+00 0.000000000000000D+00 0.225009021261093D+03
 0.225009021261093D+03 0.000000000000000D+00 0.000000000000000D+00 -.225009021261093D+03
 0.121131695297503D+03 0.625109413484529D+02 0.293481893211755D+01 -.908661469151916D+02
 0.110972966330272D+03 0.583413134103050D+02 0.408668918007914D+02 -.850951676668114D+02
 0.217913380894409D+03 -.120852254758758D+03 -.438017107329090D+02 0.175961314582003D+03
 0.000000000000000D+00 0.000000000000000D+00 0.000000000000000D+00 0.000000000000000D+00
 0.407966746596258D+03 0.000000000000000D+00 0.000000000000000D+00 0.407966746596258D+03
 0.268478994365650D+03 0.000000000000000D+00 0.000000000000000D+00 -.268478994365650D+03
 0.125328013041071D+03 0.602562148507086D+02 -.363268876932077D+02 -.908661469151916D+02
 0.102315637820373D+03 0.563900513939405D+02 0.688943293281348D+01 -.850951676668114D+02
 0.245888967680633D+03 -.125095331455139D+03 -.117686695279245D+03 0.175961314582003D+03
 0.202913122419830D+03 0.844906521048947D+01 0.147124150039640D+03 0.139487752230609D+03
 0.225009021261093D+03 0.000000000000000D+00 0.000000000000000D+00 0.225009021261093D+03
 0.225009021261093D+03 0.000000000000000D+00 0.000000000000000D+00 -.225009021261093D+03
 0.121131695297503D+03 0.625109413484529D+02 0.293481893211755D+01 -.908661469151916D+02
 0.110972966330272D+03 0.583413134103050D+02 0.408668918007914D+02 -.850951676668114D+02
 0.000000000000000D+00 0.000000000000000D+00 0.000000000000000D+00 0.000000000000000D+00
 0.217913380894409D+03 -.120852254758758D+03 -.438017107329090D+02 0.175961314582003D+03
 0.407966746596258D+03 0.000000000000000D+00 0.000000000000000D+00 0.407966746596258D+03
 0.268478994365650D+03 0.000000000000000D+00 0.000000000000000D+00 -.268478994365650D+03
 0.125328013041071D+03 0.602562148507086D+02 -.363268876932077D+02 -.908661469151916D+02
 0.102315637820373D+03 0.563900513939405D+02 0.688943293281348D+01 -.850951676668114D+02
 0.202913122419830D+03 0.844906521048947D+01 0.147124150039640D+03 0.139487752230609D+03
 0.245888967680633D+03 -.125095331455139D+03 -.117686695279245D+03 0.175961314582003D+03
0.339666418247D-05 0.000000000000D+00 0.000000000000D+00 0.504733068892D-05 0.000000000000D+00  6 -2 22 9900012 13 -1 21 0 0.98524185D-02 0.12162708D+00 0.19582816D+05 0.19582816D+05 0.19582816D+05 0.11801943D+01  1  2  2  1  6  1       -2 0.162276338744D-04 0.100000000000D+01
0.164589420066D-08 0.000000000000D+00 -.652204241145D-08 0.504733068892D-05 0.000000000000D+00  6 -2 22 9900012 13 -1 21 2 0.98524185D-02 0.12162708D+00 0.19582816D+05 0.19582816D+05 0.19582816D+05 0.11801943D+01  1  2  3  1  6  1       -2 0.109524571417D-07 0.100000000000D+01
-.480863363064D-06 0.000000000000D+00 0.000000000000D+00 0.504733068892D-05 0.000000000000D+00  6 -2 22 9900012 13 -1 21 2 0.98524185D-02 0.12162708D+00 0.19582816D+05 0.19582816D+05 0.19582816D+05 0.11801943D+01  1  2 15  1  6  1       -2 -.319986264783D-05 0.100000000000D+01
-.959530160992D-06 0.000000000000D+00 -.108399734876D-05 0.504733068892D-05 0.000000000000D+00  6 -2 22 9900012 13 -1 21 2 0.21175333D-01 0.12162708D+00 0.19582816D+05 0.19582816D+05 0.19582816D+05 0.11801943D+01  1  2  5  1  6  1       -2 -.190996330923D-05 0.100000000000D+01
-.116542306234D-07 0.000000000000D+00 -.897719167475D-07 0.504733068892D-05 0.000000000000D+00  6 21 22 9900012 13 2 -1 2 0.21175333D-01 0.12162708D+00 0.19582816D+05 0.19582816D+05 0.19582816D+05 0.11801943D+01  3  4  5  3  5  1       -2 -.297955142669D-06 0.100000000000D+01
  </mgrwgt>
  </event>
  <event>
  7     66 -.79906760E-06 0.68765480E+02 0.78161638E-02 0.11339215E+00
       -2 -1    0    0    0  502 0.00000000E+00 0.00000000E+00 0.42224970E+03 0.42224970E+03 0.00000000E+00 0.0000E+00 0.9000E+01
       22 -1    0    0    0    0 0.00000000E+00 0.00000000E+00 -.18283192E+03 0.18283192E+03 0.00000000E+00 0.0000E+00 0.9000E+01
      -24  2    1    2    0    0 0.50478827E+02 0.86514111E+02 -.14862473E+03 0.19448793E+03 0.75521136E+02 0.0000E+00 0.0000E+00
  9900012  1    3    3    0    0 0.11819771E+02 0.50275970E+02 -.76287698E+02 0.10481981E+03 0.50000000E+02 0.0000E+00 0.9000E+01
       13  1    3    3    0    0 0.38659056E+02 0.36238141E+02 -.72337036E+02 0.89668123E+02 0.00000000E+00 0.0000E+00 0.9000E+01
       -1  1    1    2    0  501 -.20888554E+02 -.81156091E+02 0.35948320E+03 0.36912168E+03 0.00000000E+00 0.0000E+00 0.9000E+01
       21  1    1    2  501  502 -.29590273E+02 -.53580207E+01 0.28559311E+02 0.41472001E+02 0.00000000E+00 0.0000E+00 0.9000E+01
#aMCatNLO 2  0  0  1  5 0.35907834D+02 0.00000000D+00  -5  6  0 0.00000000D+00 0.00000000D+00 0.00000000D+00 0.00000000D+00 0.00000000D+00
  <mgrwgt>
 -.2707759858D-04    2    2    0
 0.260907173519297D+03 0.000000000000000D+00 0.000000000000000D+00 0.260907173519297D+03
 0.260907173519297D+03 0.000000000000000D+00 0.000000000000000D+00 -.260907173519297D+03
 0.142855848129888D+03 0.369877453024347D+01 0.488054712122098D+02 -.124547735393455D+03
 0.123516336046244D+03 0.315939510216787D+02 0.349588362357745D+02 -.114175248185273D+03
 0.255442162862464D+03 -.352927255519222D+02 -.837643074479843D+02 0.238722983578728D+03
 0.000000000000000D+00 -.000000000000000D+00 -.000000000000000D+00 0.000000000000000D+00
 0.284971745616634D+03 0.000000000000000D+00 0.000000000000000D+00 0.284971745616634D+03
 0.270906585609591D+03 0.000000000000000D+00 0.000000000000000D+00 -.270906585609591D+03
 0.143803750153473D+03 0.118197709777220D+02 0.502759702104147D+02 -.124547735393455D+03
 0.125871811011048D+03 0.386590563536605D+02 0.362381411068063D+02 -.114175248185273D+03
 0.253004556528048D+03 -.208885541003845D+02 -.811560906082842D+02 0.238722983578728D+03
 0.331982135336563D+02 -.295902732309980D+02 -.535802070893690D+01 0.140651600070431D+02
-.856898667977D-05 0.000000000000D+00 0.000000000000D+00 0.148812303964D-05 0.000000000000D+00  6 -2 22 9900012 13 -1 21 2 0.67451177D-01 0.27089758D-01 0.14249810D+05 0.14249810D+05 0.14249810D+05 0.11937034D+01  1  2 13  1  6  1       -2 -.288311709125D-04 0.100000000000D+01
0.511301008481D-06 0.000000000000D+00 0.000000000000D+00 0.148812303964D-05 0.120186823887D-08  6 -2 22 9900012 13 -1 21 2 0.64961492D-01 0.28127987D-01 0.14249810D+05 0.14249810D+05 0.14249810D+05 0.11937034D+01  1  2  1  1  6  1       -2 0.175357232988D-05 0.100000000000D+01
  </mgrwgt>
  </event>
  <event>
  6     66 0.79906760E-06 0.29034152E+02 0.78161638E-02 0.12133930E+00
       -4 -1    0    0    0  501 0.00000000E+00 0.00000000E+00 0.25815356E+01 0.25815356E+01 0.00000000E+00 0.0000E+00 0.9000E+01
       22 -1    0    0    0    0 0.00000000E+00 0.00000000E+00 -.12724043E+04 0.12724043E+04 0.00000000E+00 0.0000E+00 0.9000E+01
      -24  2    1    2    0    0 -.10667654E+02 -.27003392E+02 -.10114983E+04 0.10150348E+04 0.79523391E+02 0.0000E+00 0.0000E+00
  9900012  1    3    3    0    0 -.28364064E+02 -.15143313E+02 -.85917793E+03 0.86123199E+03 0.50000000E+02 0.0000E+00 0.9000E+01
       13  1    3    3    0    0 0.17696410E+02 -.11860078E+02 -.15232036E+03 0.15380285E+03 0.00000000E+00 0.0000E+00 0.9000E+01
       -3  1    1    2    0  501 0.10667654E+02 0.27003392E+02 -.25832448E+03 0.25995099E+03 0.00000000E+00 0.0000E+00 0.9000E+01
#aMCatNLO 1  0  0  1  1 0.44350877D+02 0.00000000D+00  -5  6  0 0.00000000D+00 0.00000000D+00 0.00000000D+00 0.00000000D+00 0.00000000D+00
  <mgrwgt>
 0.8208608726D-04    7    4    0
 0.573128001578878D+02 0.000000000000000D+00 0.000000000000000D+00 0.573128001578878D+02
 0.573128001578878D+02 0.000000000000000D+00 0.000000000000000D+00 -.573128001578878D+02
 0.615473793770421D+02 -.283640639209491D+02 -.151433134797335D+02 -.159449002168210D+02
 0.233507495654714D+02 0.176964098441150D+02 -.118600780727952D+02 0.956206734998655D+01
 0.297274713732620D+02 0.106676540768342D+02 0.270033915525286D+02 0.638283286683449D+01
 0.000000000000000D+00 -.000000000000000D+00 0.000000000000000D+00 0.000000000000000D+00
 0.885143830643328D+02 0.000000000000000D+00 0.000000000000000D+00 0.885143830643328D+02
 0.716302562936309D+02 0.000000000000000D+00 0.000000000000000D+00 -.716302562936309D+02
 0.620989640472342D+02 -.156050884530719D+02 -.293005581378087D+02 -.159449002168210D+02
 0.310103151086314D+02 0.233058882271885D+02 -.180843049375067D+02 0.956206734998655D+01
 0.270953689059944D+02 0.165311612785829D+02 0.204972965907085D+02 0.638283286683449D+01
 0.399399912961037D+02 -.242319610526996D+02 0.268875664846070D+02 0.168841267707020D+02
 0.573128001578878D+02 0.000000000000000D+00 0.000000000000000D+00 0.573128001578878D+02
 0.573128001578878D+02 0.000000000000000D+00 0.000000000000000D+00 -.573128001578878D+02
 0.615473793770421D+02 -.283640639209491D+02 -.151433134797335D+02 -.159449002168210D+02
 0.233507495654714D+02 0.176964098441150D+02 -.118600780727952D+02 0.956206734998655D+01
 0.000000000000000D+00 -.000000000000000D+00 0.000000000000000D+00 0.000000000000000D+00
 0.297274713732620D+02 0.106676540768342D+02 0.270033915525286D+02 0.638283286683449D+01
 0.885143830643328D+02 0.000000000000000D+00 0.000000000000000D+00 0.885143830643328D+02
 0.716302562936309D+02 0.000000000000000D+00 0.000000000000000D+00 -.716302562936309D+02
 0.620989640472342D+02 -.156050884530719D+02 -.293005581378087D+02 -.159449002168210D+02
 0.310103151086314D+02 0.233058882271885D+02 -.180843049375067D+02 0.956206734998655D+01
 0.399399912961037D+02 -.242319610526996D+02 0.268875664846070D+02 0.168841267707020D+02
 0.270953689059944D+02 0.165311612785829D+02 0.204972965907085D+02 0.638283286683449D+01
0.752754301572D-06 0.000000000000D+00 0.000000000000D+00 0.472789537962D-07 0.000000000000D+00  6 -4 22 9900012 13 -3 21 0 0.39715933D-03 0.19575451D+00 0.30130997D+04 0.30130997D+04 0.30130997D+04 0.12673964D+01  1  2  2  1  6  1       -4 0.765023144936D-04 0.100000000000D+01
-.525712014903D-08 0.000000000000D+00 -.144538736140D-08 0.472789537962D-07 0.000000000000D+00  6 -4 22 9900012 13 -3 21 2 0.39715933D-03 0.19575451D+00 0.30130997D+04 0.30130997D+04 0.30130997D+04 0.12673964D+01  1  2  3  1  6  1       -4 -.858211199645D-06 0.100000000000D+01
-.915838355768D-07 0.000000000000D+00 0.000000000000D+00 0.472789537962D-07 0.000000000000D+00  6 -4 22 9900012 13 -3 21 2 0.39715933D-03 0.19575451D+00 0.30130997D+04 0.30130997D+04 0.30130997D+04 0.12673964D+01  1  2 15  1  6  1       -4 -.149508231066D-04 0.100000000000D+01
-.931683517172D-07 0.000000000000D+00 0.000000000000D+00 0.472789537962D-07 0.000000000000D+00  6 -4 22 9900012 13 -3 21 2 0.39715933D-03 0.19575451D+00 0.30130997D+04 0.30130997D+04 0.30130997D+04 0.12673964D+01  1  2  4  1  6  1       -4 -.152094912480D-04 0.100000000000D+01
-.317349772805D-06 0.000000000000D+00 -.249788727096D-06 0.472789537962D-07 0.000000000000D+00  6 -4 22 9900012 13 -3 21 2 0.78096642D-03 0.19575451D+00 0.30130997D+04 0.30130997D+04 0.30130997D+04 0.12673964D+01  1  2  5  1  6  1       -4 -.201112296048D-04 0.100000000000D+01
0.431680263257D-06 0.000000000000D+00 0.201855252065D-06 0.472789537962D-07 0.000000000000D+00  6 -4 22 9900012 13 -3 21 2 0.39715933D-03 0.19575451D+00 0.30130997D+04 0.30130997D+04 0.30130997D+04 0.12673964D+01  1  2  6  1  6  1       -4 0.704706809223D-04 0.100000000000D+01
-.846883450191D-08 0.000000000000D+00 -.182930652883D-07 0.472789537962D-07 0.000000000000D+00  6 21 22 9900012 13 4 -3 2 0.78096642D-03 0.19575451D+00 0.30130997D+04 0.30130997D+04 0.30130997D+04 0.12673964D+01  3  4  5  3  5  1       -4 -.137571529983D-04 0.100000000000D+01
  </mgrwgt>
  </event>
  <event>
  7     66 -.79906760E-06 0.33577326E+02 0.78161638E-02 0.12342492E+00
       -2 -1    0    0    0  501 0.00000000E+00 0.00000000E+00 0.20080548E+03 0.20080548E+03 0.00000000E+00 0.0000E+00 0.9000E+01
       22 -1    0    0    0    0 0.00000000E+00 0.00000000E+00 -.24708934E+02 0.24708934E+02 0.00000000E+00 0.0000E+00 0.9000E+01
      -24  2    1    2    0    0 0.23822307E+01 0.43138027E+02 0.95047637E+02 0.13098769E+03 0.79102190E+02 0.0000E+00 0.0000E+00
  9900012  1    3    3    0    0 -.20012890E+02 0.37972687E+02 0.79400978E+02 0.10318409E+03 0.50000000E+02 0.0000E+00 0.9000E+01
       13  1    3    3    0    0 0.22395121E+02 0.51653399E+01 0.15646659E+02 0.27803599E+02 0.00000000E+00 0.0000E+00 0.9000E+01
       -1  1    1    2    0  502 -.94125132E+01 -.37050286E+02 0.72170057E+02 0.81669065E+02 0.00000000E+00 0.0000E+00 0.9000E+01
       21  1    1    2  502  501 0.70302825E+01 -.60877409E+01 0.88788559E+01 0.12857665E+02 0.00000000E+00 0.0000E+00 0.9000E+01
#aMCatNLO 2  0  0  5  1 0.87643379D+01 0.00000000D+00  -5  6  0 0.00000000D+00 0.00000000D+00 0.00000000D+00 0.00000000D+00 0.00000000D+00
  <mgrwgt>
 -.2404935547D-04    2    2    0
 0.704392602932626D+02 0.000000000000000D+00 0.000000000000000D+00 0.704392602932626D+02
 0.704392602932626D+02 -.000000000000000D+00 -.000000000000000D+00 -.704392602932626D+02
 0.673479325557736D+02 -.198774472176107D+02 0.404253222396571D+02 -.253464661600315D+01
 0.252989590321246D+02 0.224461875299227D+02 0.609006720047902D+01 -.995575587157061D+01
 0.482316289986271D+02 -.256874031231198D+01 -.465153894401361D+02 0.124904024875738D+02
 0.000000000000000D+00 0.000000000000000D+00 -.000000000000000D+00 0.000000000000000D+00
 0.704392602932626D+02 0.000000000000000D+00 0.000000000000000D+00 0.704392602932626D+02
 0.704392602932626D+02 -.000000000000000D+00 -.000000000000000D+00 -.704392602932626D+02
 0.659238982480475D+02 -.200128901794335D+02 0.379726873485713D+02 -.187606034351469D+01
 0.249490819532649D+02 0.223951208982436D+02 0.516533991350351D+01 -.970744630898099D+01
 0.405218172334876D+02 -.941251321322818D+01 -.370502863749844D+02 0.134424159453062D+02
 0.948372315172530D+01 0.703028249441813D+01 -.608774088709032D+01 -.185890929281052D+01
-.205911500484D-06 0.000000000000D+00 0.000000000000D+00 0.848214349087D-07 0.000000000000D+00  6 -2 22 9900012 13 -1 21 2 0.30893151D-01 0.38013744D-02 0.46517340D+04 0.46517340D+04 0.46517340D+04 0.12453928D+01  1  2 13  2  6  5       -1 -.489221662456D-04 0.100000000000D+01
0.104688695958D-06 0.000000000000D+00 0.000000000000D+00 0.848214349087D-07 0.353264134504D-08  6 -2 22 9900012 13 -1 21 2 0.30893151D-01 0.38013744D-02 0.46517340D+04 0.46517340D+04 0.46517340D+04 0.12453928D+01  1  2  1  2  6  5       -1 0.248728107737D-04 0.100000000000D+01
  </mgrwgt>
  </event>
  <event>
  6     66 0.79906760E-06 0.31913863E+02 0.78161638E-02 0.12605228E+00
       -2 -1    0    0    0  501 0.00000000E+00 0.00000000E+00 0.40890485E+03 0.40890485E+03 0.00000000E+00 0.0000E+00 0.9000E+01
       22 -1    0    0    0    0 0.00000000E+00 0.00000000E+00 -.22893620E+02 0.22893620E+02 0.00000000E+00 0.0000E+00 0.9000E+01
      -24  2    1    2    0    0 0.25293997E+02 -.19460431E+02 0.65114601E+02 0.10931880E+03 0.81805826E+02 0.0000E+00 0.0000E+00
  9900012  1    3    3    0    0 0.19337710E+02 -.39649423E+02 0.51485765E+02 0.84242554E+02 0.50000000E+02 0.0000E+00 0.9000E+01
       13  1    3    3    0    0 0.59562864E+01 0.20188992E+02 0.13628836E+02 0.25076242E+02 0.00000000E+00 0.0000E+00 0.9000E+01
       -1  1    1    2    0  501 -.25293997E+02 0.19460431E+02 0.32089662E+03 0.32247967E+03 0.00000000E+00 0.0000E+00 0.9000E+01
#aMCatNLO 1  0  0  5  1 0.97005539D+00 0.00000000D+00  -5  6  0 0.00000000D+00 0.00000000D+00 0.00000000D+00 0.00000000D+00 0.00000000D+00
  <mgrwgt>
 0.6629049479D-04    8    2    0
 0.967538751475241D+02 0.000000000000000D+00 0.000000000000000D+00 0.967538751475241D+02
 0.967538751475241D+02 -.000000000000000D+00 -.000000000000000D+00 -.967538751475241D+02
 0.852768021517578D+02 0.193377104719845D+02 -.396494232974905D+02 -.531611622437675D+02
 0.287688690042711D+02 0.595628642549026D+01 0.201889918226101D+02 -.196105860439971D+02
 0.794620791390192D+02 -.252939968974748D+02 0.194604314748804D+02 0.727717482877646D+02
 0.000000000000000D+00 0.000000000000000D+00 0.000000000000000D+00 0.000000000000000D+00
 0.967538751475241D+02 0.000000000000000D+00 0.000000000000000D+00 0.967538751475241D+02
 0.967538751475241D+02 -.000000000000000D+00 -.000000000000000D+00 -.967538751475241D+02
 0.852223931763012D+02 0.193148250128135D+02 -.396318159216465D+02 -.530953199460478D+02
 0.287563038864239D+02 0.594856504010212D+01 0.201949324215532D+02 -.195883713376311D+02
 0.765286082416468D+02 -.250217899665702D+02 0.193152918904728D+02 0.696954618713309D+02
 0.300044499067630D+01 -.241600086345419D+00 0.121591609620501D+00 0.298822941234810D+01
0.115651881216D-06 0.000000000000D+00 0.000000000000D+00 0.359486222304D-06 0.000000000000D+00  6 -2 22 9900012 13 -1 21 0 0.62908438D-01 0.35220955D-02 0.35785321D+04 0.35785321D+04 0.35785321D+04 0.12585381D+01  1  2  2  2  6  5       -1 0.526555024850D-05 0.100000000000D+01
0.643944390313D-08 0.000000000000D+00 -.222066837855D-09 0.359486222304D-06 0.000000000000D+00  6 -2 22 9900012 13 -1 21 2 0.62908438D-01 0.35220955D-02 0.35785321D+04 0.35785321D+04 0.35785321D+04 0.12585381D+01  1  2  3  2  6  5       -1 0.464378590422D-06 0.100000000000D+01
-.166380652737D-07 0.000000000000D+00 0.000000000000D+00 0.359486222304D-06 0.000000000000D+00  6 -2 22 9900012 13 -1 21 2 0.62908438D-01 0.35220955D-02 0.35785321D+04 0.35785321D+04 0.35785321D+04 0.12585381D+01  1  2 15  2  6  5       -1 -.119984915086D-05 0.100000000000D+01
0.894205112054D-11 0.000000000000D+00 0.000000000000D+00 0.359486222304D-06 0.000000000000D+00  6 -2 22 9900012 13 -1 21 2 0.62908438D-01 0.35220955D-02 0.35757019D+04 0.35757019D+04 0.35757019D+04 0.12585784D+01  1  2 12  2  6  5       -1 0.644853004668D-09 0.100000000000D+01
-.344552409658D-05 0.000000000000D+00 0.000000000000D+00 0.359486222304D-06 0.000000000000D+00  6 -2 22 9900012 13 -1 21 2 0.62908438D-01 0.35220955D-02 0.35785321D+04 0.35785321D+04 0.35785321D+04 0.12585381D+01  1  2  4  2  6  5       -1 -.248472950041D-03 0.100000000000D+01
-.723833548613D-05 0.000000000000D+00 0.000000000000D+00 0.359486222304D-06 0.000000000000D+00  6 -2 22 9900012 13 -1 21 2 0.62908438D-01 0.35220955D-02 0.35785321D+04 0.35785321D+04 0.35785321D+04 0.12585381D+01  1  2  5  2  6  5       -1 -.521990420387D-03 0.100000000000D+01
0.751680741108D-05 0.000000000000D+00 -.000000000000D+00 0.359486222304D-06 0.000000000000D+00  6 -2 22 9900012 13 -1 21 2 0.62908438D-01 0.35220955D-02 0.35785321D+04 0.35785321D+04 0.35785321D+04 0.12585381D+01  1  2  6  2  6  5       -1 0.542072340802D-03 0.100000000000D+01
0.402346467545D-05 0.000000000000D+00 0.000000000000D+00 0.359486222304D-06 0.619159202688D-04  6 -2 22 9900012 13 -1 21 2 0.62908438D-01 0.35220955D-02 0.35757019D+04 0.35757019D+04 0.35757019D+04 0.12585784D+01  1  2 11  2  6  5       -1 0.290150799874D-03 0.100000000000D+01
  </mgrwgt>
  </event>
  <event>
  7     66 0.79906760E-06 0.46941782E+02 0.78161638E-02 0.12345383E+00
       21 -1    0    0  502  501 0.00000000E+00 0.00000000E+00 0.64972794E+01 0.64972794E+01 0.00000000E+00 0.0000E+00 0.9000E+01
       22 -1    0    0    0    0 0.00000000E+00 0.00000000E+00 -.12563161E+04 0.12563161E+04 0.00000000E+00 0.0000E+00 0.9000E+01
      -24  2    1    2    0    0 0.38047651E+02 0.28191108E+02 -.10220081E+04 0.10262056E+04 0.79717937E+02 0.0000E+00 0.0000E+00
  9900012  1    3    3    0    0 0.20171872E+02 0.40240382E+02 -.88030326E+03 0.88287033E+03 0.50000000E+02 0.0000E+00 0.9000E+01
       13  1    3    3    0    0 0.17875779E+02 -.12049274E+02 -.14170488E+03 0.14333528E+03 0.00000000E+00 0.0000E+00 0.9000E+01
        4  1    1    2  502    0 -.15712587E+00 -.23936110E+00 -.10619636E+03 0.10619675E+03 0.00000000E+00 0.0000E+00 0.9000E+01
       -3  1    1    2    0  501 -.37890525E+02 -.27951747E+02 -.12161429E+03 0.13041099E+03 0.00000000E+00 0.0000E+00 0.9000E+01
#aMCatNLO 2  0  0  1  5 0.15276823D+02 0.00000000D+00  -5  6  0 0.00000000D+00 0.00000000D+00 0.00000000D+00 0.00000000D+00 0.00000000D+00
  <mgrwgt>
 0.2303183752D-02    2    2    0
 0.864430761147889D+02 0.000000000000000D+00 0.000000000000000D+00 0.864430761147889D+02
 0.864430761147889D+02 0.000000000000000D+00 0.000000000000000D+00 -.864430761147889D+02
 0.832636308222415D+02 0.200961646474172D+02 0.401250519808507D+02 -.491828891760179D+02
 0.215584461021320D+02 0.178561862255507D+02 -.120791213597571D+02 0.134309319262993D+00
 0.000000000000000D+00 -.000000000000000D+00 -.000000000000000D+00 -.000000000000000D+00
 0.680640753052043D+02 -.379523508729679D+02 -.280459306210936D+02 0.490485798567549D+02
 0.864457624671623D+02 0.000000000000000D+00 0.000000000000000D+00 0.864457624671623D+02
 0.944249474355073D+02 0.000000000000000D+00 0.000000000000000D+00 -.944249474355073D+02
 0.833375623969142D+02 0.201718715188948D+02 0.402403816828856D+02 -.491828891760179D+02
 0.215579805272221D+02 0.178757791810772D+02 -.120492740066866D+02 0.134309319262993D+00
 0.798432057423827D+01 -.157125869619625D+00 -.239361095915264D+00 -.797918496834502D+01
 0.679908464042949D+02 -.378905248303524D+02 -.279517465802837D+02 0.490485798567549D+02
-.264758629103D-08 0.000000000000D+00 0.000000000000D+00 0.491741887237D-06 0.000000000000D+00  6 21 22 9900012 13 4 -3 2 0.10918795D-02 0.17694122D+00 0.46380062D+04 0.46380062D+04 0.46380062D+04 0.12455387D+01  1  2 13  3  5  1       -4 -.344656396384D-05 0.100000000000D+01
0.192277968535D-05 0.000000000000D+00 0.000000000000D+00 0.491741887237D-06 0.325448775253D-06  6 21 22 9900012 13 4 -3 2 0.99958145D-03 0.19327940D+00 0.46380062D+04 0.46380062D+04 0.46380062D+04 0.12455387D+01  1  2  1  3  5  1       -4 0.230663031609D-02 0.100000000000D+01
  </mgrwgt>
  </event>
  <event>
  6     66 0.79906760E-06 0.28686653E+02 0.78161638E-02 0.12316194E+00
       -4 -1    0    0    0  501 0.00000000E+00 0.00000000E+00 0.36879452E+03 0.36879452E+03 0.00000000E+00 0.0000E+00 0.9000E+01
       22 -1    0    0    0    0 0.00000000E+00 0.00000000E+00 -.48435780E+02 0.48435780E+02 0.00000000E+00 0.0000E+00 0.9000E+01
      -24  2    1    2    0    0 -.21468972E+02 0.19026489E+02 -.98505741E+01 0.85777263E+02 0.80235784E+02 0.0000E+00 0.0000E+00
  9900012  1    3    3    0    0 0.41870870E+01 0.28683772E+02 -.68839649E+01 0.58203775E+02 0.50000000E+02 0.0000E+00 0.9000E+01
       13  1    3    3    0    0 -.25656059E+02 -.96572827E+01 -.29666092E+01 0.27573488E+02 0.00000000E+00 0.0000E+00 0.9000E+01
       -3  1    1    2    0  501 0.21468972E+02 -.19026489E+02 0.33020931E+03 0.33145303E+03 0.00000000E+00 0.0000E+00 0.9000E+01
#aMCatNLO 1  0  0  5  5 0.34437425D+02 0.00000000D+00  -5  6  0 0.00000000D+00 0.00000000D+00 0.00000000D+00 0.00000000D+00 0.00000000D+00
  <mgrwgt>
 0.1451280013D-04    4    2    0
 0.133651973455940D+03 0.000000000000000D+00 0.000000000000000D+00 0.133651973455940D+03
 0.133651973455940D+03 -.000000000000000D+00 -.000000000000000D+00 -.133651973455940D+03
 0.990996089281462D+02 0.418708696617696D+01 0.286837715370414D+02 -.805011928039578D+02
 0.465944258651899D+02 -.256560594455276D+02 -.965728266754031D+01 -.376768367424000D+02
 0.121609912118545D+03 0.214689724793507D+02 -.190264888695011D+02 0.118178029546358D+03
 0.000000000000000D+00 0.000000000000000D+00 0.000000000000000D+00 0.000000000000000D+00
 0.133651973455940D+03 0.000000000000000D+00 0.000000000000000D+00 0.133651973455940D+03
 0.133651973455940D+03 -.000000000000000D+00 -.000000000000000D+00 -.133651973455940D+03
 0.921145293640840D+02 0.570482909197374D+01 0.273387000069055D+02 -.721466348967884D+02
 0.432121858183407D+02 -.249432289041016D+02 -.102890158525043D+02 -.337529922795492D+02
 0.409383940214723D+02 0.352078856309601D+02 -.129828366631122D+02 0.163646829065982D+02
 0.910388377079840D+02 -.159694858188322D+02 -.406684749128906D+01 0.895349442697395D+02
0.228730402709D-05 0.000000000000D+00 0.000000000000D+00 0.673764333511D-05 0.000000000000D+00  6 -4 22 9900012 13 -3 21 0 0.56737618D-01 0.74516584D-02 0.32430368D+04 0.32430368D+04 0.32430368D+04 0.12635840D+01  1  2  2  2  6  5       -3 0.208431293023D-04 0.100000000000D+01
0.189701486944D-06 0.000000000000D+00 -.439192486251D-08 0.673764333511D-05 0.000000000000D+00  6 -4 22 9900012 13 -3 21 2 0.56737618D-01 0.74516584D-02 0.32430368D+04 0.32430368D+04 0.32430368D+04 0.12635840D+01  1  2  3  2  6  5       -3 0.276005669408D-05 0.100000000000D+01
-.322212980720D-06 0.000000000000D+00 0.000000000000D+00 0.673764333511D-05 0.000000000000D+00  6 -4 22 9900012 13 -3 21 2 0.56737618D-01 0.74516584D-02 0.32430368D+04 0.32430368D+04 0.32430368D+04 0.12635840D+01  1  2 15  2  6  5       -3 -.468802911713D-05 0.100000000000D+01
-.302578429861D-06 0.000000000000D+00 0.000000000000D+00 0.673764333511D-05 0.000000000000D+00  6 -4 22 9900012 13 -3 21 2 0.56737618D-01 0.74516584D-02 0.32430368D+04 0.32430368D+04 0.32430368D+04 0.12635840D+01  1  2  5  2  6  5       -3 -.440235674625D-05 0.100000000000D+01
  </mgrwgt>
  </event>
  <event>
  6     66 0.79906760E-06 0.56322710E+02 0.78161638E-02 0.11660763E+00
       -2 -1    0    0    0  501 0.00000000E+00 0.00000000E+00 0.13936955E+03 0.13936955E+03 0.00000000E+00 0.0000E+00 0.9000E+01
       22 -1    0    0    0    0 -.00000000E+00 -.00000000E+00 -.16073383E+04 0.16073383E+04 0.00000000E+00 0.0000E+00 0.9000E+01
      -24  2    1    2    0    0 0.33607349E+02 -.74654075E+02 -.15930890E+04 0.15971827E+04 0.79731828E+02 0.0000E+00 0.0000E+00
  9900012  1    3    3    0    0 0.90425018E+01 -.64433425E+02 -.13802600E+04 0.13826971E+04 0.50000000E+02 0.0000E+00 0.9000E+01
       13  1    3    3    0    0 0.24564847E+02 -.10220650E+02 -.21282901E+03 0.21448562E+03 0.00000000E+00 0.0000E+00 0.9000E+01
       -1  1    1    2    0  501 -.33607349E+02 0.74654075E+02 0.12512029E+03 0.14952516E+03 0.00000000E+00 0.0000E+00 0.9000E+01
#aMCatNLO 1  0  0  5  1 0.16234136D+02 0.00000000D+00  -5  6  0 0.00000000D+00 0.00000000D+00 0.00000000D+00 0.00000000D+00 0.00000000D+00
  <mgrwgt>
 0.6108835163D-03    7    2    0
 0.473301184095037D+03 0.000000000000000D+00 0.000000000000000D+00 0.473301184095037D+03
 0.473301184095037D+03 -.000000000000000D+00 -.000000000000000D+00 -.473301184095037D+03
 0.410932023618607D+03 0.904250181989742D+01 -.644334249585208D+02 -.402655802074470D+03
 0.657270458014001D+02 0.245648468294545D+02 -.102206503703985D+02 -.601011743315457D+02
 0.469943298770067D+03 -.336073486493520D+02 0.746540753289194D+02 0.462756976406016D+03
 0.000000000000000D+00 -.000000000000000D+00 0.000000000000000D+00 0.000000000000000D+00
 0.473301184095037D+03 0.000000000000000D+00 0.000000000000000D+00 0.473301184095037D+03
 0.473301184095037D+03 -.000000000000000D+00 -.000000000000000D+00 -.473301184095037D+03
 0.409037432525258D+03 0.890582612632161D+01 -.641298188148080D+02 -.400773843715683D+03
 0.654361173101949D+02 0.245429840440111D+02 -.101720852173296D+02 -.598001343240999D+02
 0.439849609549132D+03 -.157542637264825D+02 0.686763083325867D+02 0.434169375784115D+03
 0.322792088054897D+02 -.176945464438502D+02 0.562559569955106D+01 0.264046022556679D+02
0.143413670017D-03 0.000000000000D+00 0.000000000000D+00 0.434795904655D-03 0.000000000000D+00  6 -2 22 9900012 13 -1 21 0 0.21441469D-01 0.24728282D+00 0.90757719D+04 0.90757719D+04 0.90757719D+04 0.12137204D+01  1  2  2  2  6  5       -1 0.359926033377D-04 0.100000000000D+01
0.283904087222D-05 0.000000000000D+00 -.275373127276D-06 0.434795904655D-03 0.000000000000D+00  6 -2 22 9900012 13 -1 21 2 0.21441469D-01 0.24728282D+00 0.90757719D+04 0.90757719D+04 0.90757719D+04 0.12137204D+01  1  2  3  2  6  5       -1 0.104961891609D-05 0.100000000000D+01
-.205823382559D-04 0.000000000000D+00 0.000000000000D+00 0.434795904655D-03 0.000000000000D+00  6 -2 22 9900012 13 -1 21 2 0.21441469D-01 0.24728282D+00 0.90757719D+04 0.90757719D+04 0.90757719D+04 0.12137204D+01  1  2 15  2  6  5       -1 -.760947536262D-05 0.100000000000D+01
0.152084690484D-02 0.000000000000D+00 0.000000000000D+00 0.434795904655D-03 0.000000000000D+00  6 -2 22 9900012 13 -1 21 2 0.21441469D-01 0.24728282D+00 0.97416121D+04 0.97416121D+04 0.97416121D+04 0.12105101D+01  1  2 12  2  6  5       -1 0.561163110131D-03 0.100000000000D+01
-.767753988255D-04 0.000000000000D+00 0.000000000000D+00 0.434795904655D-03 0.000000000000D+00  6 -2 22 9900012 13 -1 21 2 0.21441469D-01 0.24728282D+00 0.90757719D+04 0.90757719D+04 0.90757719D+04 0.12137204D+01  1  2  4  2  6  5       -1 -.283845546874D-04 0.100000000000D+01
-.185316985673D-02 0.000000000000D+00 0.000000000000D+00 0.434795904655D-03 0.000000000000D+00  6 -2 22 9900012 13 -1 21 2 0.21441469D-01 0.24728282D+00 0.90757719D+04 0.90757719D+04 0.90757719D+04 0.12137204D+01  1  2  5  2  6  5       -1 -.685133544704D-03 0.100000000000D+01
0.198481992776D-02 0.000000000000D+00 -.000000000000D+00 0.434795904655D-03 0.000000000000D+00  6 -2 22 9900012 13 -1 21 2 0.21441469D-01 0.24728282D+00 0.90757719D+04 0.90757719D+04 0.90757719D+04 0.12137204D+01  1  2  6  2  6  5       -1 0.733805758694D-03 0.100000000000D+01
  </mgrwgt>
  </event>
  <event>
  6     66 0.79906760E-06 0.10972431E+02 0.78161638E-02 0.12107179E+00
       -2 -1    0    0    0  501 0.00000000E+00 0.00000000E+00 0.29810784E+02 0.29810784E+02 0.00000000E+00 0.0000E+00 0.9000E+01
       22 -1    0    0    0    0 -.00000000E+00 -.00000000E+00 -.33935834E+03 0.33935834E+03 0.00000000E+00 0.0000E+00 0.9000E+01
      -24  2    1    2    0    0 -.22825470E+02 -.57711954E+02 -.28478096E+03 0.30234805E+03 0.80389522E+02 0.0000E+00 0.0000E+00
  9900012  1    3    3    0    0 -.30476725E+02 -.34512009E+02 -.25461372E+03 0.26352999E+03 0.50000000E+02 0.0000E+00 0.9000E+01
       13  1    3    3    0    0 0.76512551E+01 -.23199945E+02 -.30167237E+02 0.38818054E+02 0.00000000E+00 0.0000E+00 0.9000E+01
       -1  1    1    2    0  501 0.22825470E+02 0.57711954E+02 -.24766593E+02 0.66821074E+02 0.00000000E+00 0.0000E+00 0.9000E+01
#aMCatNLO 1  0  0  5  1 0.87304428D+01 0.00000000D+00  -5  6  0 0.00000000D+00 0.00000000D+00 0.00000000D+00 0.00000000D+00 0.00000000D+00
  <mgrwgt>
 0.5293469447D-04    8    2    0
 0.100581003310714D+03 0.000000000000000D+00 0.000000000000000D+00 0.100581003310714D+03
 0.100581003310714D+03 -.000000000000000D+00 -.000000000000000D+00 -.100581003310714D+03
 0.918268896249615D+02 -.304767247925426D+02 -.345120091501823D+02 -.617435675073299D+02
 0.248169760247129D+02 0.765125508446411D+01 -.231999452626257D+02 0.437071326613981D+01
 0.845181409717540D+02 0.228254697080785D+02 0.577119544128079D+02 0.573728542411901D+02
 0.000000000000000D+00 0.000000000000000D+00 0.000000000000000D+00 0.000000000000000D+00
 0.100581003310714D+03 0.000000000000000D+00 0.000000000000000D+00 0.100581003310714D+03
 0.100581003310714D+03 -.000000000000000D+00 -.000000000000000D+00 -.100581003310714D+03
 0.900520908884056D+02 -.298763171639536D+02 -.329939375339838D+02 -.602344156782158D+02
 0.245601203505111D+02 0.781425569760578D+01 -.227878142495424D+02 0.478042270645383D+01
 0.775414523846580D+02 0.258567550735728D+02 0.476116728628521D+02 0.554728191296261D+02
 0.900834299785362D+01 -.379469360722498D+01 0.817007892067416D+01 -.188261578641806D-01
0.239650314252D-06 0.000000000000D+00 0.000000000000D+00 0.552511091986D-06 0.000000000000D+00  6 -2 22 9900012 13 -1 21 0 0.45862745D-02 0.52208975D-01 0.59645361D+04 0.59645361D+04 0.59645361D+04 0.12333146D+01  1  2  2  2  6  5       -1 0.153439519559D-04 0.100000000000D+01
-.123828850866D-08 0.000000000000D+00 -.460160154051D-09 0.552511091986D-06 0.000000000000D+00  6 -2 22 9900012 13 -1 21 2 0.45862745D-02 0.52208975D-01 0.59645361D+04 0.59645361D+04 0.59645361D+04 0.12333146D+01  1  2  3  2  6  5       -1 -.120594869660D-06 0.100000000000D+01
-.329338329351D-07 0.000000000000D+00 0.000000000000D+00 0.552511091986D-06 0.000000000000D+00  6 -2 22 9900012 13 -1 21 2 0.45862745D-02 0.52208975D-01 0.59645361D+04 0.59645361D+04 0.59645361D+04 0.12333146D+01  1  2 15  2  6  5       -1 -.320737151515D-05 0.100000000000D+01
0.485827260316D-06 0.000000000000D+00 0.000000000000D+00 0.552511091986D-06 0.000000000000D+00  6 -2 22 9900012 13 -1 21 2 0.45862745D-02 0.52208975D-01 0.59459652D+04 0.59459652D+04 0.59459652D+04 0.12334638D+01  1  2 12  2  6  5       -1 0.473101865596D-04 0.100000000000D+01
-.119408546409D-06 0.000000000000D+00 0.000000000000D+00 0.552511091986D-06 0.000000000000D+00  6 -2 22 9900012 13 -1 21 2 0.45862745D-02 0.52208975D-01 0.59645361D+04 0.59645361D+04 0.59645361D+04 0.12333146D+01  1  2  4  2  6  5       -1 -.116290008264D-04 0.100000000000D+01
-.478602587754D-06 0.000000000000D+00 0.000000000000D+00 0.552511091986D-06 0.000000000000D+00  6 -2 22 9900012 13 -1 21 2 0.45862745D-02 0.52208975D-01 0.59645361D+04 0.59645361D+04 0.59645361D+04 0.12333146D+01  1  2  5  2  6  5       -1 -.466103143860D-04 0.100000000000D+01
0.532315674763D-06 0.000000000000D+00 -.000000000000D+00 0.552511091986D-06 0.000000000000D+00  6 -2 22 9900012 13 -1 21 2 0.45862745D-02 0.52208975D-01 0.59645361D+04 0.59645361D+04 0.59645361D+04 0.12333146D+01  1  2  6  2  6  5       -1 0.518413430853D-04 0.100000000000D+01
0.666914992107D-10 0.000000000000D+00 0.000000000000D+00 0.552511091986D-06 0.144470619308D-07  6 -2 22 9900012 13 -1 21 2 0.45862745D-02 0.52208975D-01 0.59459652D+04 0.59459652D+04 0.59459652D+04 0.12334638D+01  1  2 11  2  6  5       -1 0.649446321218D-08 0.100000000000D+01
  </mgrwgt>
  </event>
  <event>
  6     66 -.79906760E-06 0.38314196E+02 0.78161638E-02 0.12408436E+00
       -2 -1    0    0    0  501 0.00000000E+00 0.00000000E+00 0.27077439E+03 0.27077439E+03 0.00000000E+00 0.0000E+00 0.9000E+01
       22 -1    0    0    0    0 0.00000000E+00 0.00000000E+00 -.64861999E+03 0.64861999E+03 0.00000000E+00 0.0000E+00 0.9000E+01
      -24  2    1    2    0    0 -.17112668E+02 0.39308787E+02 -.64367069E+03 0.65013429E+03 0.80775104E+02 0.0000E+00 0.0000E+00
  9900012  1    3    3    0    0 -.22964430E+02 0.64853036E+01 -.32103353E+03 0.32577899E+03 0.50000000E+02 0.0000E+00 0.9000E+01
       13  1    3    3    0    0 0.58517622E+01 0.32823484E+02 -.32263716E+03 0.32435530E+03 0.00000000E+00 0.0000E+00 0.9000E+01
       -1  1    1    2    0  501 0.17112668E+02 -.39308787E+02 0.26582509E+03 0.26926010E+03 0.00000000E+00 0.0000E+00 0.9000E+01
#aMCatNLO 1  0  0  1  5 0.37261184D+00 0.00000000D+00  -5  6  0 0.00000000D+00 0.00000000D+00 0.00000000D+00 0.00000000D+00 0.00000000D+00
  <mgrwgt>
 -.1379636418D-02    9    4    0
 0.419081955433933D+03 0.000000000000000D+00 0.000000000000000D+00 0.419081955433933D+03
 0.419081955433933D+03 0.000000000000000D+00 0.000000000000000D+00 -.419081955433933D+03
 0.212629376283484D+03 -.229644300989835D+02 0.648530359369125D+01 -.205284747232301D+03
 0.210344787641775D+03 0.585176216689834D+01 0.328234836899713D+02 -.207685592870713D+03
 0.415189746942606D+03 0.171126679320852D+02 -.393087872836626D+02 0.412970340103015D+03
 0.000000000000000D+00 0.000000000000000D+00 -.000000000000000D+00 0.000000000000000D+00
 0.687997073148676D+03 0.000000000000000D+00 0.000000000000000D+00 0.687997073148676D+03
 0.419082125919434D+03 0.000000000000000D+00 0.000000000000000D+00 -.419082125919434D+03
 0.212635787832634D+03 -.229987252192977D+02 0.657339024113137D+01 -.205284747232301D+03
 0.210357462291594D+03 0.581783501862625D+01 0.329106252051814D+02 -.207685592870713D+03
 0.415170743567213D+03 0.170457042695774D+02 -.391367918371797D+02 0.412970340103015D+03
 0.268915205376670D+03 0.135185931094078D+00 -.347223609133033D+00 0.268914947229242D+03
 0.419081955433933D+03 0.000000000000000D+00 0.000000000000000D+00 0.419081955433933D+03
 0.419081955433933D+03 0.000000000000000D+00 0.000000000000000D+00 -.419081955433933D+03
 0.212629376283484D+03 -.229644300989835D+02 0.648530359369125D+01 -.205284747232301D+03
 0.210344787641775D+03 0.585176216689834D+01 0.328234836899713D+02 -.207685592870713D+03
 0.000000000000000D+00 0.000000000000000D+00 -.000000000000000D+00 0.000000000000000D+00
 0.415189746942606D+03 0.171126679320852D+02 -.393087872836626D+02 0.412970340103015D+03
 0.687997073148676D+03 0.000000000000000D+00 0.000000000000000D+00 0.687997073148676D+03
 0.419082125919434D+03 0.000000000000000D+00 0.000000000000000D+00 -.419082125919434D+03
 0.212635787832634D+03 -.229987252192977D+02 0.657339024113137D+01 -.205284747232301D+03
 0.210357462291594D+03 0.581783501862625D+01 0.329106252051814D+02 -.207685592870713D+03
 0.268915205376670D+03 0.135185931094078D+00 -.347223609133033D+00 0.268914947229242D+03
 0.415170743567213D+03 0.170457042695774D+02 -.391367918371797D+02 0.412970340103015D+03
0.507677458870D-06 0.000000000000D+00 0.000000000000D+00 0.448841099302D-03 0.000000000000D+00  6 -2 22 9900012 13 -1 21 0 0.41657599D-01 0.99787691D-01 0.43306664D+04 0.43306664D+04 0.43306664D+04 0.12489363D+01  1  2  2  1  6  1       -2 0.315276360747D-06 0.100000000000D+01
0.283411108154D-07 0.000000000000D+00 -.974807558303D-09 0.448841099302D-03 0.000000000000D+00  6 -2 22 9900012 13 -1 21 2 0.41657599D-01 0.99787691D-01 0.43306664D+04 0.43306664D+04 0.43306664D+04 0.12489363D+01  1  2  3  1  6  1       -2 0.274537056136D-07 0.100000000000D+01
-.720664523591D-07 0.000000000000D+00 0.000000000000D+00 0.448841099302D-03 0.000000000000D+00  6 -2 22 9900012 13 -1 21 2 0.41657599D-01 0.99787691D-01 0.43306664D+04 0.43306664D+04 0.43306664D+04 0.12489363D+01  1  2 15  1  6  1       -2 -.698099372522D-07 0.100000000000D+01
-.107792661674D+00 0.000000000000D+00 0.000000000000D+00 0.448841099302D-03 0.000000000000D+00  6 -2 22 9900012 13 -1 21 2 0.41657599D-01 0.99787691D-01 0.43306664D+04 0.43306664D+04 0.43306664D+04 0.12489363D+01  1  2  4  1  6  1       -2 -.104417502200D+00 0.100000000000D+01
-.117188984782D+00 0.000000000000D+00 -.184683753326D-06 0.448841099302D-03 0.000000000000D+00  6 -2 22 9900012 13 -1 21 2 0.68388319D-01 0.99787691D-01 0.43306664D+04 0.43306664D+04 0.43306664D+04 0.12489363D+01  1  2  5  1  6  1       -2 -.442118798332D-01 0.100000000000D+01
0.104130591337D+00 0.000000000000D+00 0.164104246477D-06 0.448841099302D-03 0.000000000000D+00  6 -2 22 9900012 13 -1 21 2 0.41657599D-01 0.99787691D-01 0.43306664D+04 0.43306664D+04 0.43306664D+04 0.12489363D+01  1  2  6  1  6  1       -2 0.100870097102D+00 0.100000000000D+01
0.122033220134D+00 0.000000000000D+00 0.000000000000D+00 0.448841099302D-03 0.315068740432D-01  6 -2 22 9900012 13 -1 21 2 0.68388309D-01 0.99787732D-01 0.43499468D+04 0.43499468D+04 0.43499468D+04 0.12487153D+01  1  2 11  1  6  1       -2 0.460297346687D-01 0.100000000000D+01
-.656261985405D-02 0.000000000000D+00 -.103423610339D-07 0.448841099302D-03 0.000000000000D+00  6 21 22 9900012 13 2 -1 2 0.68388319D-01 0.99787691D-01 0.43306664D+04 0.43306664D+04 0.43306664D+04 0.12489363D+01  3  4  5  3  5  1       -2 -.265731040401D-01 0.100000000000D+01
0.665117923452D-02 0.000000000000D+00 0.000000000000D+00 0.448841099302D-03 0.171721271984D-02  6 21 22 9900012 13 2 -1 2 0.68388309D-01 0.99787732D-01 0.43499468D+04 0.43499468D+04 0.43499468D+04 0.12487153D+01  3  4 11  3  5  1       -2 0.269227449644D-01 0.100000000000D+01
  </mgrwgt>
  </event>
  <event>
  6     66 -.79906760E-06 0.33145765E+02 0.78161638E-02 0.12521305E+00
       -4 -1    0    0    0  501 0.00000000E+00 0.00000000E+00 0.75578563E+02 0.75578563E+02 0.00000000E+00 0.0000E+00 0.9000E+01
       22 -1    0    0    0    0 -.00000000E+00 -.00000000E+00 -.12244394E+04 0.12244394E+04 0.00000000E+00 0.0000E+00 0.9000E+01
      -24  2    1    2    0    0 -.50781968E+01 0.36706632E+02 -.12182235E+04 0.12213773E+04 0.79503566E+02 0.0000E+00 0.0000E+00
  9900012  1    3    3    0    0 -.24124569E+02 0.12699523E+02 -.76096470E+03 0.76309275E+03 0.50000000E+02 0.0000E+00 0.9000E+01
       13  1    3    3    0    0 0.19046372E+02 0.24007109E+02 -.45725882E+03 0.45828456E+03 0.00000000E+00 0.0000E+00 0.9000E+01
       -3  1    1    2    0  501 0.50781968E+01 -.36706632E+02 0.69362703E+02 0.78640635E+02 0.00000000E+00 0.0000E+00 0.9000E+01
#aMCatNLO 1  0  0  5  1 0.72476544D+02 0.00000000D+00  -5  6  0 0.00000000D+00 0.00000000D+00 0.00000000D+00 0.00000000D+00 0.00000000D+00
  <mgrwgt>
 -.3146086062D-05    1    2    0
 0.304206128770881D+03 0.000000000000000D+00 0.000000000000000D+00 0.304206128770881D+03
 0.304206128770881D+03 -.000000000000000D+00 -.000000000000000D+00 -.304206128770881D+03
 0.193605142159630D+03 -.241245689289084D+02 0.126995233368969D+02 -.185039666968087D+03
 0.115795504732586D+03 0.190463721008567D+02 0.240071087153568D+02 -.111666885678786D+03
 0.299011610649546D+03 0.507819682805172D+01 -.367066320522535D+02 0.296706552646873D+03
 0.000000000000000D+00 0.000000000000000D+00 0.000000000000000D+00 -.000000000000000D+00
 0.304206128770881D+03 0.000000000000000D+00 0.000000000000000D+00 0.304206128770881D+03
 0.304206128770881D+03 -.000000000000000D+00 -.000000000000000D+00 -.304206128770881D+03
 0.179503162599025D+03 -.238738438157078D+02 0.108872118436370D+02 -.170390415172882D+03
 0.107168261088143D+03 0.191962015597887D+02 0.229240993311546D+02 -.102912718845572D+03
 0.270727002871467D+03 -.215869313335612D+02 0.977210280216939D+01 0.269688005825604D+03
 0.510138309831276D+02 0.262645735894803D+02 -.435834139769609D+02 0.361512819284868D+01
-.253555468856D-05 0.000000000000D+00 0.000000000000D+00 0.163412884497D-03 0.000000000000D+00  6 -4 22 9900012 13 -3 21 2 0.11627471D-01 0.18837529D+00 0.38844560D+04 0.38844560D+04 0.38844560D+04 0.12543817D+01  1  2 14  2  6  5       -3 -.314608606189D-05 0.100000000000D+01
  </mgrwgt>
  </event>
  <event>
  6     66 -.79906760E-06 0.82833619E+02 0.78161638E-02 0.11036925E+00
       -2 -1    0    0    0  501 0.00000000E+00 0.00000000E+00 0.44515648E+03 0.44515648E+03 0.00000000E+00 0.0000E+00 0.9000E+01
       22 -1    0    0    0    0 0.00000000E+00 0.00000000E+00 -.65452241E+02 0.65452241E+02 0.00000000E+00 0.0000E+00 0.9000E+01
      -24  2    1    2    0    0 0.13573538E+03 0.77825855E+01 0.70634627E+02 0.17295700E+03 0.80250920E+02 0.0000E+00 0.0000E+00
  9900012  1    3    3    0    0 0.10727709E+03 0.39753230E+01 0.79819044E+02 0.14281197E+03 0.50000000E+02 0.0000E+00 0.9000E+01
       13  1    3    3    0    0 0.28458289E+02 0.38072625E+01 -.91844171E+01 0.30145032E+02 0.00000000E+00 0.0000E+00 0.9000E+01
       -1  1    1    2    0  501 -.13573538E+03 -.77825855E+01 0.30906961E+03 0.33765173E+03 0.00000000E+00 0.0000E+00 0.9000E+01
#aMCatNLO 1  0  0  1  5 0.52300572D+01 0.00000000D+00  -5  6  0 0.00000000D+00 0.00000000D+00 0.00000000D+00 0.00000000D+00 0.00000000D+00
  <mgrwgt>
 -.1087417263D-04   11    4    0
 0.170694140401737D+03 0.000000000000000D+00 0.000000000000000D+00 0.170694140401737D+03
 0.170694140401737D+03 0.000000000000000D+00 0.000000000000000D+00 -.170694140401737D+03
 0.124823868393889D+03 0.107277091933760D+03 0.397532296723894D+01 -.394565644013333D+02
 0.553026552948125D+02 0.284582885457794D+02 0.380726251207513D+01 -.472653599147004D+02
 0.161261757114773D+03 -.135735380479539D+03 -.778258547931407D+01 0.867219243160337D+02
 0.000000000000000D+00 -.000000000000000D+00 0.000000000000000D+00 0.000000000000000D+00
 0.223211803295508D+03 0.000000000000000D+00 0.000000000000000D+00 0.223211803295508D+03
 0.170843946691433D+03 0.000000000000000D+00 0.000000000000000D+00 -.170843946691433D+03
 0.126448475276193D+03 0.109173903920510D+03 0.366812323575498D+01 -.394565644013333D+02
 0.557294925745104D+02 0.292964512576679D+02 0.367151718685013D+01 -.472653599147004D+02
 0.159250243730190D+03 -.133315890151953D+03 -.817443600754504D+01 0.867219243160337D+02
 0.526275384060482D+02 -.515446502622492D+01 0.834795584939937D+00 0.523678566040741D+02
 0.170694140401737D+03 0.000000000000000D+00 0.000000000000000D+00 0.170694140401737D+03
 0.170694140401737D+03 0.000000000000000D+00 0.000000000000000D+00 -.170694140401737D+03
 0.124823868393889D+03 0.107277091933760D+03 0.397532296723894D+01 -.394565644013333D+02
 0.553026552948125D+02 0.284582885457794D+02 0.380726251207513D+01 -.472653599147004D+02
 0.000000000000000D+00 -.000000000000000D+00 0.000000000000000D+00 0.000000000000000D+00
 0.161261757114773D+03 -.135735380479539D+03 -.778258547931407D+01 0.867219243160337D+02
 0.223211803295508D+03 0.000000000000000D+00 0.000000000000000D+00 0.223211803295508D+03
 0.170843946691433D+03 0.000000000000000D+00 0.000000000000000D+00 -.170843946691433D+03
 0.126448475276193D+03 0.109173903920510D+03 0.366812323575498D+01 -.394565644013333D+02
 0.557294925745104D+02 0.292964512576679D+02 0.367151718685013D+01 -.472653599147004D+02
 0.526275384060482D+02 -.515446502622492D+01 0.834795584939937D+00 0.523678566040741D+02
 0.159250243730190D+03 -.133315890151953D+03 -.817443600754504D+01 0.867219243160337D+02
0.598673348652D-07 0.000000000000D+00 0.000000000000D+00 0.887461091574D-06 0.000000000000D+00  6 -2 22 9900012 13 -1 21 0 0.68485613D-01 0.10069576D-01 0.20035534D+05 0.20035534D+05 0.20035534D+05 0.11792416D+01  1  2  2  1  6  1       -2 0.599906237767D-06 0.100000000000D+01
-.119253841950D-08 0.000000000000D+00 -.114953164657D-09 0.887461091574D-06 0.000000000000D+00  6 -2 22 9900012 13 -1 21 2 0.68485613D-01 0.10069576D-01 0.20035534D+05 0.20035534D+05 0.20035534D+05 0.11792416D+01  1  2  3  1  6  1       -2 -.166177205075D-07 0.100000000000D+01
-.788242523261D-08 0.000000000000D+00 0.000000000000D+00 0.887461091574D-06 0.000000000000D+00  6 -2 22 9900012 13 -1 21 2 0.68485613D-01 0.10069576D-01 0.20035534D+05 0.20035534D+05 0.20035534D+05 0.11792416D+01  1  2 15  1  6  1       -2 -.109839597027D-06 0.100000000000D+01
0.246873450430D-05 0.000000000000D+00 0.000000000000D+00 0.887461091574D-06 0.000000000000D+00  6 -2 22 9900012 13 -1 21 2 0.89635258D-01 0.10069576D-01 0.20800623D+05 0.20800623D+05 0.20800623D+05 0.11776846D+01  1  2 12  1  6  1       -2 0.191606819286D-04 0.100000000000D+01
-.599902738932D-05 0.000000000000D+00 0.000000000000D+00 0.887461091574D-06 0.000000000000D+00  6 -2 22 9900012 13 -1 21 2 0.68485613D-01 0.10069576D-01 0.20035534D+05 0.20035534D+05 0.20035534D+05 0.11792416D+01  1  2  4  1  6  1       -2 -.835949256164D-04 0.100000000000D+01
-.507028280048D-05 0.000000000000D+00 -.323457277797D-07 0.887461091574D-06 0.000000000000D+00  6 -2 22 9900012 13 -1 21 2 0.89588137D-01 0.10069576D-01 0.20035534D+05 0.20035534D+05 0.20035534D+05 0.11792416D+01  1  2  5  1  6  1       -2 -.394353939646D-04 0.100000000000D+01
0.490220183982D-05 0.000000000000D+00 0.312130027019D-07 0.887461091574D-06 0.000000000000D+00  6 -2 22 9900012 13 -1 21 2 0.68485613D-01 0.10069576D-01 0.20035534D+05 0.20035534D+05 0.20035534D+05 0.11792416D+01  1  2  6  1  6  1       -2 0.683109396843D-04 0.100000000000D+01
0.311161591266D-05 0.000000000000D+00 0.000000000000D+00 0.887461091574D-06 0.303904398806D-06  6 -2 22 9900012 13 -1 21 2 0.89556660D-01 0.10078413D-01 0.20800623D+05 0.20800623D+05 0.20800623D+05 0.11776846D+01  1  2 11  1  6  1       -2 0.241680577312D-04 0.100000000000D+01
0.881940877235D-07 0.000000000000D+00 0.000000000000D+00 0.887461091574D-06 0.000000000000D+00  6 21 22 9900012 13 2 -1 2 0.89635258D-01 0.10069576D-01 0.20800623D+05 0.20800623D+05 0.20800623D+05 0.11776846D+01  3  4 12  3  5  1       -2 0.677545362942D-05 0.100000000000D+01
-.180265312164D-06 0.000000000000D+00 -.115388279305D-08 0.887461091574D-06 0.000000000000D+00  6 21 22 9900012 13 2 -1 2 0.89588137D-01 0.10069576D-01 0.20035534D+05 0.20035534D+05 0.20035534D+05 0.11792416D+01  3  4  5  3  5  1       -2 -.138926194692D-04 0.100000000000D+01
0.931228065947D-07 0.000000000000D+00 0.000000000000D+00 0.887461091574D-06 0.907448682422D-08  6 21 22 9900012 13 2 -1 2 0.89556660D-01 0.10078413D-01 0.20800623D+05 0.20800623D+05 0.20800623D+05 0.11776846D+01  3  4 11  3  5  1       -2 0.716018452260D-05 0.100000000000D+01
  </mgrwgt>
  </event>
  <event>
  7     66 -.79906760E-06 0.53434530E+02 0.78161638E-02 0.12210819E+00
       -4 -1    0    0    0  501 0.00000000E+00 0.00000000E+00 0.39233832E+02 0.39233832E+02 0.00000000E+00 0.0000E+00 0.9000E+01
       22 -1    0    0    0    0 -.00000000E+00 -.00000000E+00 -.25392243E+03 0.25392243E+03 0.00000000E+00 0.0000E+00 0.9000E+01
      -24  2    1    2    0    0 0.41400494E+02 0.31669341E+02 -.21120984E+03 0.23164907E+03 0.79591122E+02 0.0000E+00 0.0000E+00
  9900012  1    3    3    0    0 0.28682013E+02 0.74903279E+01 -.18450704E+03 0.19344666E+03 0.50000000E+02 0.0000E+00 0.9000E+01
       13  1    3    3    0    0 0.12718482E+02 0.24179013E+02 -.26702799E+02 0.38202407E+02 0.00000000E+00 0.0000E+00 0.9000E+01
       -3  1    1    2    0  502 -.46147604E+02 -.31391017E+02 -.59845647E+01 0.56132097E+02 0.00000000E+00 0.0000E+00 0.9000E+01
       21  1    1    2  502  501 0.47471096E+01 -.27832394E+00 0.25058114E+01 0.53750911E+01 0.00000000E+00 0.0000E+00 0.9000E+01
#aMCatNLO 2  0  0  5  1 0.10636755D+02 0.00000000D+00  -5  6  0 0.00000000D+00 0.00000000D+00 0.00000000D+00 0.00000000D+00 0.00000000D+00
  <mgrwgt>
 -.2975462818D-04    2    2    0
 0.998115717961176D+02 0.000000000000000D+00 0.000000000000000D+00 0.998115717961176D+02
 0.998115717961176D+02 -.000000000000000D+00 -.000000000000000D+00 -.998115717961176D+02
 0.878080692924088D+02 0.301204770834346D+02 0.859068236138834D+01 -.650324078417252D+02
 0.278702668259563D+02 0.131766873718249D+02 0.245295176099755D+02 0.119559553239839D+01
 0.839448074738702D+02 -.432971644552595D+02 -.331201999713639D+02 0.638368123093268D+02
 0.000000000000000D+00 0.000000000000000D+00 0.000000000000000D+00 0.000000000000000D+00
 0.998115717961176D+02 0.000000000000000D+00 0.000000000000000D+00 0.998115717961176D+02
 0.998115717961176D+02 -.000000000000000D+00 -.000000000000000D+00 -.998115717961176D+02
 0.856541091798593D+02 0.286820126834449D+02 0.749032788832403D+01 -.629115534377220D+02
 0.273840411305111D+02 0.127184816947058D+02 0.241790128172221D+02 0.187116840598801D+01
 0.759964878224362D+02 -.461476040005240D+02 -.313910167682864D+02 0.515797331576044D+02
 0.105885054594287D+02 0.474710962237325D+01 -.278323937259809D+00 0.946065187412959D+01
-.514141905364D-06 0.000000000000D+00 0.000000000000D+00 0.706779221834D-06 0.000000000000D+00  6 -4 22 9900012 13 -3 21 2 0.60359741D-02 0.39064989D-01 0.53300649D+04 0.53300649D+04 0.53300649D+04 0.12387319D+01  1  2 13  2  6  5       -3 -.363328429986D-04 0.100000000000D+01
0.930875655086D-07 0.000000000000D+00 0.000000000000D+00 0.706779221834D-06 0.775922815145D-07  6 -4 22 9900012 13 -3 21 2 0.60359741D-02 0.39064989D-01 0.53300649D+04 0.53300649D+04 0.53300649D+04 0.12387319D+01  1  2  1  2  6  5       -3 0.657821482253D-05 0.100000000000D+01
  </mgrwgt>
  </event>
  <event>
  6     66 0.79906760E-06 0.74054359E+02 0.78161638E-02 0.87080460E-01
       -2 -1    0    0    0  501 0.00000000E+00 0.00000000E+00 0.95028174E+03 0.95028174E+03 0.00000000E+00 0.0000E+00 0.9000E+01
       22 -1    0    0    0    0 0.00000000E+00 0.00000000E+00 -.85887356E+02 0.85887356E+02 0.00000000E+00 0.0000E+00 0.9000E+01
      -24  2    1    2    0    0 -.31363465E+00 -.74053695E+02 -.48810521E+02 0.11996647E+03 0.80780193E+02 0.0000E+00 0.0000E+00
  9900012  1    3    3    0    0 0.14585771E+02 -.25427837E+02 -.18888679E+02 0.60959838E+02 0.50000000E+02 0.0000E+00 0.9000E+01
       13  1    3    3    0    0 -.14899406E+02 -.48625858E+02 -.29921842E+02 0.59006635E+02 0.00000000E+00 0.0000E+00 0.9000E+01
       -1  1    1    2    0  501 0.31363465E+00 0.74053695E+02 0.91320490E+03 0.91620262E+03 0.00000000E+00 0.0000E+00 0.9000E+01
#aMCatNLO 1  0  0  1  5 0.10730727D+02 0.00000000D+00  -5  6  0 0.00000000D+00 0.00000000D+00 0.00000000D+00 0.00000000D+00 0.00000000D+00
  <mgrwgt>
 0.1434476677D-03    3    2    0
 0.285687216501906D+03 0.000000000000000D+00 0.000000000000000D+00 0.285687216501906D+03
 0.285687216501906D+03 0.000000000000000D+00 0.000000000000000D+00 -.285687216501906D+03
 0.139124123582058D+03 0.145857714819733D+02 -.254278368734648D+02 -.126476093174512D+03
 0.152273393556248D+03 -.148994061279901D+02 -.486258578875769D+02 -.143529509254600D+03
 0.279976915865506D+03 0.313634646016814D+00 0.740536947610417D+02 0.270005602429112D+03
 0.000000000000000D+00 -.000000000000000D+00 0.000000000000000D+00 -.000000000000000D+00
 0.756933558857930D+03 0.000000000000000D+00 0.000000000000000D+00 0.756933558857930D+03
 0.176440076181977D+04 0.000000000000000D+00 0.000000000000000D+00 -.176440076181977D+04
 0.323369961895713D+03 0.140973031748254D+03 -.257290758542651D+03 -.126476093174512D+03
 0.359840726998582D+03 0.125047682219611D+03 -.305364873473530D+03 -.143529509254600D+03
 0.440917374525376D+03 0.197314757827920D+03 -.287353427260843D+03 0.270005602429112D+03
 0.139720625725803D+04 -.463335471795785D+03 0.850009059277024D+03 -.100746720296184D+04
0.158084108053D-03 0.000000000000D+00 0.000000000000D+00 0.454726600279D-04 0.000000000000D+00  6 -2 22 9900012 13 -1 21 0 0.14619719D+00 0.13213439D-01 0.83604790D+04 0.83604790D+04 0.83604790D+04 0.12174776D+01  1  2  2  1  6  1       -2 0.172930630303D-03 0.100000000000D+01
0.385344550208D-05 0.000000000000D+00 -.303542299713D-06 0.454726600279D-04 0.000000000000D+00  6 -2 22 9900012 13 -1 21 2 0.14619719D+00 0.13213439D-01 0.83604790D+04 0.83604790D+04 0.83604790D+04 0.12174776D+01  1  2  3  1  6  1       -2 0.624819996501D-05 0.100000000000D+01
-.220364406395D-04 0.000000000000D+00 0.000000000000D+00 0.454726600279D-04 0.000000000000D+00  6 -2 22 9900012 13 -1 21 2 0.14619719D+00 0.13213439D-01 0.83604790D+04 0.83604790D+04 0.83604790D+04 0.12174776D+01  1  2 15  1  6  1       -2 -.357311625553D-04 0.100000000000D+01
  </mgrwgt>
  </event>
  <event>
  7     66 -.79906760E-06 0.32613761E+02 0.78161638E-02 0.11782967E+00
       -2 -1    0    0    0  501 0.00000000E+00 0.00000000E+00 0.39822379E+02 0.39822379E+02 0.00000000E+00 0.0000E+00 0.9000E+01
       22 -1    0    0    0    0 -.00000000E+00 -.00000000E+00 -.15553251E+04 0.15553251E+04 0.00000000E+00 0.0000E+00 0.9000E+01
      -24  2    1    2    0    0 0.60417702E+01 -.67450086E+02 -.14806732E+04 0.14845319E+04 0.82799540E+02 0.0000E+00 0.0000E+00
  9900012  1    3    3    0    0 -.10418601E+02 -.26970337E+02 -.59950892E+03 0.60228472E+03 0.50000000E+02 0.0000E+00 0.9000E+01
       13  1    3    3    0    0 0.16460371E+02 -.40479749E+02 -.88116432E+03 0.88224719E+03 0.00000000E+00 0.0000E+00 0.9000E+01
       -1  1    1    2    0  502 -.26861018E+02 0.41348701E+02 0.14187454E+02 0.51308023E+02 0.00000000E+00 0.0000E+00 0.9000E+01
       21  1    1    2  502  501 0.20819248E+02 0.26101385E+02 -.49016915E+02 0.59307515E+02 0.00000000E+00 0.0000E+00 0.9000E+01
#aMCatNLO 2  0  0  5  1 0.29729228D+02 0.00000000D+00  -5  6  0 0.00000000D+00 0.00000000D+00 0.00000000D+00 0.00000000D+00 0.00000000D+00
  <mgrwgt>
 -.4433804902D-04    2    2    0
 0.248870940060474D+03 0.000000000000000D+00 0.000000000000000D+00 0.248870940060474D+03
 0.248870940060474D+03 -.000000000000000D+00 -.000000000000000D+00 -.248870940060474D+03
 0.107336422494198D+03 -.103447250759474D+02 -.277950812726447D+02 -.902304145729321D+02
 0.148421384196596D+03 0.165623562570134D+02 -.416183102297791D+02 -.141500925423360D+03
 0.241984073430153D+03 -.621763118106603D+01 0.694133915024239D+02 0.231731339996292D+03
 0.000000000000000D+00 0.000000000000000D+00 0.000000000000000D+00 0.000000000000000D+00
 0.248870940060474D+03 0.000000000000000D+00 0.000000000000000D+00 0.248870940060474D+03
 0.248870940060474D+03 -.000000000000000D+00 -.000000000000000D+00 -.248870940060474D+03
 0.104824538887320D+03 -.104186006530360D+02 -.269703372172986D+02 -.874770691310419D+02
 0.144467377567666D+03 0.164603708297359D+02 -.404797489055382D+02 -.137699924843737D+03
 0.207627670612675D+03 -.268610177711014D+02 0.413487007988710D+02 0.201687927924781D+03
 0.408222930532854D+02 0.208192475944015D+02 0.261013853239658D+02 0.234890660499983D+02
-.170470527810D-04 0.000000000000D+00 0.000000000000D+00 0.636542560826D-05 0.000000000000D+00  6 -2 22 9900012 13 -1 21 2 0.61265199D-02 0.23928078D+00 0.84779037D+04 0.84779037D+04 0.84779037D+04 0.12168366D+01  1  2 13  2  6  5       -1 -.474208882450D-04 0.100000000000D+01
0.110823151748D-05 0.000000000000D+00 0.000000000000D+00 0.636542560826D-05 0.374699020427D-08  6 -2 22 9900012 13 -1 21 2 0.61265199D-02 0.23928078D+00 0.84779037D+04 0.84779037D+04 0.84779037D+04 0.12168366D+01  1  2  1  2  6  5       -1 0.308283922243D-05 0.100000000000D+01
  </mgrwgt>
  </event>
  <event>
  6     66 -.79906760E-06 0.24096261E+02 0.78161638E-02 0.12207277E+00
       -4 -1    0    0    0  501 0.00000000E+00 0.00000000E+00 0.84121401E+03 0.84121401E+03 0.00000000E+00 0.0000E+00 0.9000E+01
       22 -1    0    0    0    0 0.00000000E+00 0.00000000E+00 -.98783260E+01 0.98783260E+01 0.00000000E+00 0.0000E+00 0.9000E+01
      -24  2    1    2    0    0 0.40289263E+02 0.26658754E+02 0.25821578E+03 0.27593989E+03 0.84460163E+02 0.0000E+00 0.0000E+00
  9900012  1    3    3    0    0 0.25236373E+00 0.83352286E+01 0.16919405E+03 0.17662436E+03 0.50000000E+02 0.0000E+00 0.9000E+01
       13  1    3    3    0    0 0.40036899E+02 0.18323525E+02 0.89021735E+02 0.99315528E+02 0.00000000E+00 0.0000E+00 0.9000E+01
       -3  1    1    2    0  501 -.40289263E+02 -.26658754E+02 0.57311990E+03 0.57515245E+03 0.00000000E+00 0.0000E+00 0.9000E+01
#aMCatNLO 1  0  0  1  5 0.34036833D+01 0.00000000D+00  -5  6  0 0.00000000D+00 0.00000000D+00 0.00000000D+00 0.00000000D+00 0.00000000D+00
  <mgrwgt>
 -.3112491814D-04   11    4    0
 0.911580290358368D+02 0.000000000000000D+00 0.000000000000000D+00 0.911580290358368D+02
 0.911580290358368D+02 0.000000000000000D+00 0.000000000000000D+00 -.911580290358368D+02
 0.530210677376924D+02 0.252363725483004D+00 0.833522857692903D+01 -.155465076838941D+02
 0.577005676437405D+02 0.400368989135687D+02 0.183235251307060D+02 -.372914287548619D+02
 0.715944226902407D+02 -.402892626390517D+02 -.266587537076350D+02 0.528379364387560D+02
 0.000000000000000D+00 -.000000000000000D+00 -.000000000000000D+00 0.000000000000000D+00
 0.134525382162317D+03 0.000000000000000D+00 0.000000000000000D+00 0.134525382162317D+03
 0.912405354335431D+02 0.000000000000000D+00 0.000000000000000D+00 -.912405354335431D+02
 0.531026584259765D+02 0.114162793478402D+01 0.876898605307837D+01 -.155465076838941D+02
 0.585314362697680D+02 0.410108654787476D+02 0.187985979771640D+02 -.372914287548619D+02
 0.707136606677314D+02 -.390967914566010D+02 -.260771006004137D+02 0.528379364387560D+02
 0.434181622323838D+02 -.305570195693069D+01 -.149048342982869D+01 0.432848467287735D+02
 0.911580290358368D+02 0.000000000000000D+00 0.000000000000000D+00 0.911580290358368D+02
 0.911580290358368D+02 0.000000000000000D+00 0.000000000000000D+00 -.911580290358368D+02
 0.530210677376924D+02 0.252363725483004D+00 0.833522857692903D+01 -.155465076838941D+02
 0.577005676437405D+02 0.400368989135687D+02 0.183235251307060D+02 -.372914287548619D+02
 0.000000000000000D+00 -.000000000000000D+00 -.000000000000000D+00 0.000000000000000D+00
 0.715944226902407D+02 -.402892626390517D+02 -.266587537076350D+02 0.528379364387560D+02
 0.134525382162317D+03 0.000000000000000D+00 0.000000000000000D+00 0.134525382162317D+03
 0.912405354335431D+02 0.000000000000000D+00 0.000000000000000D+00 -.912405354335431D+02
 0.531026584259765D+02 0.114162793478402D+01 0.876898605307837D+01 -.155465076838941D+02
 0.585314362697680D+02 0.410108654787476D+02 0.187985979771640D+02 -.372914287548619D+02
 0.434181622323838D+02 -.305570195693069D+01 -.149048342982869D+01 0.432848467287735D+02
 0.707136606677314D+02 -.390967914566010D+02 -.260771006004137D+02 0.528379364387560D+02
0.161786015785D-06 0.000000000000D+00 0.000000000000D+00 0.491518298039D-07 0.000000000000D+00  6 -4 22 9900012 13 -3 21 0 0.12941754D+00 0.15197425D-02 0.51145348D+04 0.51145348D+04 0.51145348D+04 0.12407395D+01  1  2  2  1  6  1       -4 0.174644815128D-05 0.100000000000D+01
0.177476790277D-08 0.000000000000D+00 -.310650449925D-09 0.491518298039D-07 0.000000000000D+00  6 -4 22 9900012 13 -3 21 2 0.12941754D+00 0.15197425D-02 0.51145348D+04 0.51145348D+04 0.51145348D+04 0.12407395D+01  1  2  3  1  6  1       -4 0.294929012058D-07 0.100000000000D+01
-.217271151512D-07 0.000000000000D+00 0.000000000000D+00 0.491518298039D-07 0.000000000000D+00  6 -4 22 9900012 13 -3 21 2 0.12941754D+00 0.15197425D-02 0.51145348D+04 0.51145348D+04 0.51145348D+04 0.12407395D+01  1  2 15  1  6  1       -4 -.361058851494D-06 0.100000000000D+01
0.495983649664D-06 0.000000000000D+00 0.000000000000D+00 0.491518298039D-07 0.000000000000D+00  6 -4 22 9900012 13 -3 21 2 0.19115926D+00 0.15197425D-02 0.53498491D+04 0.53498491D+04 0.53498491D+04 0.12385523D+01  1  2 12  1  6  1       -4 0.256398404264D-05 0.100000000000D+01
-.164439899535D-04 0.000000000000D+00 0.000000000000D+00 0.491518298039D-07 0.000000000000D+00  6 -4 22 9900012 13 -3 21 2 0.12941754D+00 0.15197425D-02 0.51145348D+04 0.51145348D+04 0.51145348D+04 0.12407395D+01  1  2  4  1  6  1       -4 -.273264447916D-03 0.100000000000D+01
-.137407440152D-04 0.000000000000D+00 -.619863826753D-07 0.491518298039D-07 0.000000000000D+00  6 -4 22 9900012 13 -3 21 2 0.19104323D+00 0.15197425D-02 0.51145348D+04 0.51145348D+04 0.51145348D+04 0.12407395D+01  1  2  5  1  6  1       -4 -.711256482418D-04 0.100000000000D+01
0.127872296585D-04 0.000000000000D+00 0.575652910367D-07 0.491518298039D-07 0.000000000000D+00  6 -4 22 9900012 13 -3 21 2 0.12941754D+00 0.15197425D-02 0.51145348D+04 0.51145348D+04 0.51145348D+04 0.12407395D+01  1  2  6  1  6  1       -4 0.212496800525D-03 0.100000000000D+01
0.176628355426D-04 0.000000000000D+00 0.000000000000D+00 0.491518298039D-07 0.502334518134D-07  6 -4 22 9900012 13 -3 21 2 0.19098640D+00 0.15211180D-02 0.53498491D+04 0.53498491D+04 0.53498491D+04 0.12385523D+01  1  2 11  1  6  1       -4 0.914649468510D-04 0.100000000000D+01
0.231778446726D-07 0.000000000000D+00 0.000000000000D+00 0.491518298039D-07 0.000000000000D+00  6 21 22 9900012 13 4 -3 2 0.19115926D+00 0.15197425D-02 0.53498491D+04 0.53498491D+04 0.53498491D+04 0.12385523D+01  3  4 12  3  5  1       -4 0.336414136469D-05 0.100000000000D+01
-.639349563248D-06 0.000000000000D+00 -.289339570873D-08 0.491518298039D-07 0.000000000000D+00  6 21 22 9900012 13 4 -3 2 0.19104323D+00 0.15197425D-02 0.51145348D+04 0.51145348D+04 0.51145348D+04 0.12407395D+01  3  4  5  3  5  1       -4 -.932064594098D-04 0.100000000000D+01
0.654651791963D-06 0.000000000000D+00 0.000000000000D+00 0.491518298039D-07 0.185402620103D-08  6 21 22 9900012 13 4 -3 2 0.19098640D+00 0.15211180D-02 0.53498491D+04 0.53498491D+04 0.53498491D+04 0.12385523D+01  3  4 11  3  5  1       -4 0.951668824440D-04 0.100000000000D+01
  </mgrwgt>
  </event>
  <event>
  7     66 -.79906760E-06 0.26851552E+02 0.78161638E-02 0.12539193E+00
       21 -1    0    0  502  501 0.00000000E+00 0.00000000E+00 0.10436949E+02 0.10436949E+02 0.00000000E+00 0.0000E+00 0.9000E+01
       22 -1    0    0    0    0 0.00000000E+00 0.00000000E+00 -.71652980E+03 0.71652980E+03 0.00000000E+00 0.0000E+00 0.9000E+01
      -24  2    1    2    0    0 -.33350562E+02 -.18748823E+02 -.57597931E+03 0.58286050E+03 0.80687148E+02 0.0000E+00 0.0000E+00
  9900012  1    3    3    0    0 -.44588860E+02 -.29016702E+01 -.37535450E+03 0.38129724E+03 0.50000000E+02 0.0000E+00 0.9000E+01
       13  1    3    3    0    0 0.11238298E+02 -.15847153E+02 -.20062481E+03 0.20156326E+03 0.00000000E+00 0.0000E+00 0.9000E+01
        2  1    1    2  502    0 0.16818551E+02 -.15959286E+02 -.42084421E+02 0.48048527E+02 0.00000000E+00 0.0000E+00 0.9000E+01
       -1  1    1    2    0  501 0.16532011E+02 0.34708110E+02 -.88029119E+02 0.96057723E+02 0.00000000E+00 0.0000E+00 0.9000E+01
#aMCatNLO 2  0  0  1  5 0.25610459D+02 0.00000000D+00  -5  6  0 0.00000000D+00 0.00000000D+00 0.00000000D+00 0.00000000D+00 0.00000000D+00
  <mgrwgt>
 -.1923894097D-04    1    2    0
 0.697946868926298D+02 0.000000000000000D+00 0.000000000000000D+00 0.697946868926298D+02
 0.697946868926298D+02 0.000000000000000D+00 0.000000000000000D+00 -.697946868926298D+02
 0.639553092466327D+02 -.366897732421861D+02 -.103971900634665D+02 -.116636426151328D+02
 0.291592609343210D+02 0.145172319780045D+02 -.189585654887214D+02 -.167357482217701D+02
 0.000000000000000D+00 0.000000000000000D+00 -.000000000000000D+00 0.000000000000000D+00
 0.464748036043060D+02 0.221725412641817D+02 0.293557555521879D+02 0.283993908369029D+02
 0.990521514788229D+02 0.000000000000000D+00 0.000000000000000D+00 0.990521514788229D+02
 0.754994675877342D+02 0.000000000000000D+00 0.000000000000000D+00 -.754994675877342D+02
 0.680634019066878D+02 -.445888599327000D+02 -.290167020176785D+01 -.116636426151328D+02
 0.256420919176632D+02 0.112382980060425D+02 -.158471532869089D+02 -.167357482217701D+02
 0.330498319785555D+02 0.168185511604975D+02 -.159592860804902D+02 0.235526838910887D+02
 0.477962932636507D+02 0.165320107661600D+02 0.347081095691670D+02 0.283993908369029D+02
-.907366436604D-08 0.000000000000D+00 0.000000000000D+00 0.178459502773D-06 0.000000000000D+00  6 21 22 9900012 13 2 -1 2 0.17369276D-02 0.10190591D+00 0.54844267D+04 0.54844267D+04 0.54844267D+04 0.12373496D+01  1  2 13  3  5  1       -2 -.192389409675D-04 0.100000000000D+01
  </mgrwgt>
  </event>
  <event>
  6     66 0.79906760E-06 0.20368985E+02 0.78161638E-02 0.12404844E+00
       -2 -1    0    0    0  501 0.00000000E+00 0.00000000E+00 0.12325575E+04 0.12325575E+04 0.00000000E+00 0.0000E+00 0.9000E+01
       22 -1    0    0    0    0 0.00000000E+00 0.00000000E+00 -.87518006E+01 0.87518006E+01 0.00000000E+00 0.0000E+00 0.9000E+01
      -24  2    1    2    0    0 0.15666175E+02 -.13017931E+02 0.19047256E+03 0.20777542E+03 0.80473196E+02 0.0000E+00 0.0000E+00
  9900012  1    3    3    0    0 -.38043567E+01 -.25756695E+02 0.15854732E+03 0.16827101E+03 0.50000000E+02 0.0000E+00 0.9000E+01
       13  1    3    3    0    0 0.19470532E+02 0.12738764E+02 0.31925238E+02 0.39504412E+02 0.00000000E+00 0.0000E+00 0.9000E+01
       -1  1    1    2    0  501 -.15666175E+02 0.13017931E+02 0.10333332E+04 0.10335339E+04 0.00000000E+00 0.0000E+00 0.9000E+01
#aMCatNLO 1  0  0  1  5 0.42111115D+02 0.00000000D+00  -5  6  0 0.00000000D+00 0.00000000D+00 0.00000000D+00 0.00000000D+00 0.00000000D+00
  <mgrwgt>
 0.1172954591D-03    7    4    0
 0.103860954020340D+03 0.000000000000000D+00 0.000000000000000D+00 0.103860954020340D+03
 0.103860954020340D+03 0.000000000000000D+00 0.000000000000000D+00 -.103860954020340D+03
 0.714669812888931D+02 -.380435670669830D+01 -.257566952149870D+02 -.439277695336044D+02
 0.479819656476624D+02 0.194705316181443D+02 0.127387639968940D+02 -.419629755588392D+02
 0.882729611041237D+02 -.156661749114460D+02 0.130179312180931D+02 0.858907450924436D+02
 0.000000000000000D+00 -.000000000000000D+00 0.000000000000000D+00 0.000000000000000D+00
 0.174501145424407D+03 0.000000000000000D+00 0.000000000000000D+00 0.174501145424407D+03
 0.111438523324912D+03 0.000000000000000D+00 0.000000000000000D+00 -.111438523324912D+03
 0.754200246118437D+02 0.669464596179006D+01 -.348383824495331D+02 -.439277695336044D+02
 0.500658509926649D+02 0.264786688065482D+02 0.667669200286536D+01 -.419629755588392D+02
 0.859800456288409D+02 -.321114002621016D+01 0.224426681446662D+01 0.858907450924436D+02
 0.744737475159701D+02 -.299621747421280D+02 0.259174236322011D+02 0.630626220994947D+02
 0.103860954020340D+03 0.000000000000000D+00 0.000000000000000D+00 0.103860954020340D+03
 0.103860954020340D+03 0.000000000000000D+00 0.000000000000000D+00 -.103860954020340D+03
 0.714669812888931D+02 -.380435670669830D+01 -.257566952149870D+02 -.439277695336044D+02
 0.479819656476624D+02 0.194705316181443D+02 0.127387639968940D+02 -.419629755588392D+02
 0.000000000000000D+00 -.000000000000000D+00 0.000000000000000D+00 0.000000000000000D+00
 0.882729611041237D+02 -.156661749114460D+02 0.130179312180931D+02 0.858907450924436D+02
 0.174501145424407D+03 0.000000000000000D+00 0.000000000000000D+00 0.174501145424407D+03
 0.111438523324912D+03 0.000000000000000D+00 0.000000000000000D+00 -.111438523324912D+03
 0.754200246118437D+02 0.669464596179006D+01 -.348383824495331D+02 -.439277695336044D+02
 0.500658509926649D+02 0.264786688065482D+02 0.667669200286536D+01 -.419629755588392D+02
 0.744737475159701D+02 -.299621747421280D+02 0.259174236322011D+02 0.630626220994947D+02
 0.859800456288409D+02 -.321114002621016D+01 0.224426681446662D+01 0.858907450924436D+02
0.482443336233D-05 0.000000000000D+00 0.000000000000D+00 0.256634310441D-05 0.000000000000D+00  6 -2 22 9900012 13 -1 21 0 0.18962424D+00 0.13464309D-02 0.25004602D+04 0.25004602D+04 0.25004602D+04 0.12772276D+01  1  2  2  1  6  1       -2 0.540464747852D-04 0.100000000000D+01
0.529274164357D-06 0.000000000000D+00 -.926354720691D-08 0.256634310441D-05 0.000000000000D+00  6 -2 22 9900012 13 -1 21 2 0.18962424D+00 0.13464309D-02 0.25004602D+04 0.25004602D+04 0.25004602D+04 0.12772276D+01  1  2  3  1  6  1       -2 0.967249084782D-05 0.100000000000D+01
-.707936977674D-06 0.000000000000D+00 0.000000000000D+00 0.256634310441D-05 0.000000000000D+00  6 -2 22 9900012 13 -1 21 2 0.18962424D+00 0.13464309D-02 0.25004602D+04 0.25004602D+04 0.25004602D+04 0.12772276D+01  1  2 15  1  6  1       -2 -.129375556158D-04 0.100000000000D+01
-.267419341415D-06 0.000000000000D+00 0.000000000000D+00 0.256634310441D-05 0.000000000000D+00  6 -2 22 9900012 13 -1 21 2 0.18962424D+00 0.13464309D-02 0.25004602D+04 0.25004602D+04 0.25004602D+04 0.12772276D+01  1  2  4  1  6  1       -2 -.488709124034D-05 0.100000000000D+01
-.462928394077D-05 0.000000000000D+00 -.141782560514D-05 0.256634310441D-05 0.000000000000D+00  6 -2 22 9900012 13 -1 21 2 0.32590818D+00 0.13464309D-02 0.25004602D+04 0.25004602D+04 0.25004602D+04 0.12772276D+01  1  2  5  1  6  1       -2 -.115165316650D-04 0.100000000000D+01
0.485308958018D-05 0.000000000000D+00 0.123260318040D-05 0.256634310441D-05 0.000000000000D+00  6 -2 22 9900012 13 -1 21 2 0.18962424D+00 0.13464309D-02 0.25004602D+04 0.25004602D+04 0.25004602D+04 0.12772276D+01  1  2  6  1  6  1       -2 0.886902624559D-04 0.100000000000D+01
-.208744269045D-06 0.000000000000D+00 -.852757738042D-07 0.256634310441D-05 0.000000000000D+00  6 21 22 9900012 13 2 -1 2 0.32590818D+00 0.13464309D-02 0.25004602D+04 0.25004602D+04 0.25004602D+04 0.12772276D+01  3  4  5  3  5  1       -2 -.577259051160D-05 0.100000000000D+01
  </mgrwgt>
  </event>
  <event>
  7     66 0.79906760E-06 0.65247363E+02 0.78161638E-02 0.11974535E+00
       -4 -1    0    0    0  502 0.00000000E+00 0.00000000E+00 0.13362318E+03 0.13362318E+03 0.00000000E+00 0.0000E+00 0.9000E+01
       22 -1    0    0    0    0 0.00000000E+00 0.00000000E+00 -.16736389E+03 0.16736389E+03 0.00000000E+00 0.0000E+00 0.9000E+01
      -24  2    1    2    0    0 0.55206269E+02 0.40873422E+02 -.13905353E+03 0.17378082E+03 0.78393356E+02 0.0000E+00 0.0000E+00
  9900012  1    3    3    0    0 0.38731333E+02 0.13217658E+02 -.12022512E+03 0.13648773E+03 0.50000000E+02 0.0000E+00 0.9000E+01
       13  1    3    3    0    0 0.16474936E+02 0.27655764E+02 -.18828418E+02 0.37293084E+02 0.00000000E+00 0.0000E+00 0.9000E+01
       -3  1    1    2    0  501 -.47913687E+02 -.37238673E+02 0.78728944E+02 0.99401644E+02 0.00000000E+00 0.0000E+00 0.9000E+01
       21  1    1    2  501  502 -.72925819E+01 -.36347486E+01 0.26583882E+02 0.27804603E+02 0.00000000E+00 0.0000E+00 0.9000E+01
#aMCatNLO 2  0  0  1  5 0.82208813D+01 0.00000000D+00  -5  6  0 0.00000000D+00 0.00000000D+00 0.00000000D+00 0.00000000D+00 0.00000000D+00
  <mgrwgt>
 0.4689892062D-04    2    2    0
 0.133157057393908D+03 0.000000000000000D+00 0.000000000000000D+00 0.133157057393908D+03
 0.133157057393908D+03 0.000000000000000D+00 0.000000000000000D+00 -.133157057393908D+03
 0.111533816685089D+03 0.356616086598454D+02 0.116876544649461D+02 -.923657981356909D+02
 0.331613414914325D+02 0.155559539830329D+02 0.271977274701528D+02 -.108614218980969D+02
 0.121618956611294D+03 -.512175626428783D+02 -.388853819350989D+02 0.103227220033788D+03
 0.000000000000000D+00 -.000000000000000D+00 -.000000000000000D+00 0.000000000000000D+00
 0.167258982386073D+03 0.000000000000000D+00 0.000000000000000D+00 0.167258982386073D+03
 0.133706985575775D+03 0.000000000000000D+00 0.000000000000000D+00 -.133706985575775D+03
 0.112722062161792D+03 0.387313329172625D+02 0.132176580079761D+02 -.923657981356909D+02
 0.339740382950843D+02 0.164749359286625D+02 0.276557639303973D+02 -.108614218980969D+02
 0.119742637122919D+03 -.479136869857293D+02 -.372386732937757D+02 0.103227220033788D+03
 0.345272303820529D+02 -.729258186019570D+01 -.363474864459773D+01 0.335519968102987D+02
-.272556312767D-05 0.000000000000D+00 0.000000000000D+00 0.851025206860D-06 0.000000000000D+00  6 -4 22 9900012 13 -3 21 2 0.20642312D-01 0.25642389D-01 0.68587587D+04 0.68587587D+04 0.68587587D+04 0.12266884D+01  1  2 13  1  6  1       -4 -.492775997843D-04 0.100000000000D+01
0.531385487627D-05 0.000000000000D+00 0.000000000000D+00 0.851025206860D-06 0.368368415497D-06  6 -4 22 9900012 13 -3 21 2 0.20557412D-01 0.25748290D-01 0.68587587D+04 0.68587587D+04 0.68587587D+04 0.12266884D+01  1  2  1  1  6  1       -4 0.961765204051D-04 0.100000000000D+01
  </mgrwgt>
  </event>
  <event>
  6     66 0.79906760E-06 0.26520245E+02 0.78161638E-02 0.10466857E+00
       -2 -1    0    0    0  501 0.00000000E+00 0.00000000E+00 0.46183329E+03 0.46183329E+03 0.00000000E+00 0.0000E+00 0.9000E+01
       22 -1    0    0    0    0 -.00000000E+00 -.00000000E+00 -.47859403E+03 0.47859403E+03 0.00000000E+00 0.0000E+00 0.9000E+01
      -24  2    1    2    0    0 0.13404897E+02 0.22883010E+02 -.47445677E+03 0.48196361E+03 0.80475947E+02 0.0000E+00 0.0000E+00
  9900012  1    3    3    0    0 0.34125957E+02 0.19477994E+02 -.36832949E+03 0.37377879E+03 0.50000000E+02 0.0000E+00 0.9000E+01
       13  1    3    3    0    0 -.20721060E+02 0.34050159E+01 -.10612728E+03 0.10818482E+03 0.00000000E+00 0.0000E+00 0.9000E+01
       -1  1    1    2    0  501 -.13404897E+02 -.22883010E+02 0.45769602E+03 0.45846371E+03 0.00000000E+00 0.0000E+00 0.9000E+01
#aMCatNLO 1  0  0  5  5 0.24421939D+02 0.00000000D+00  -5  6  0 0.00000000D+00 0.00000000D+00 0.00000000D+00 0.00000000D+00 0.00000000D+00
  <mgrwgt>
 0.5496987997D-03    4    2    0
 0.470138974878578D+03 0.000000000000000D+00 0.000000000000000D+00 0.470138974878578D+03
 0.470138974878578D+03 -.000000000000000D+00 -.000000000000000D+00 -.470138974878578D+03
 0.367272583032384D+03 0.341259570392057D+02 0.194779940177262D+02 -.361725278426161D+03
 0.106310255434188D+03 -.207210601568193D+02 0.340501591220527D+01 -.104215708715612D+03
 0.466695111290584D+03 -.134048968823863D+02 -.228830099299314D+02 0.465940987141773D+03
 0.000000000000000D+00 0.000000000000000D+00 0.000000000000000D+00 0.000000000000000D+00
 0.470138974878578D+03 0.000000000000000D+00 0.000000000000000D+00 0.470138974878578D+03
 0.470138974878578D+03 -.000000000000000D+00 -.000000000000000D+00 -.470138974878578D+03
 0.286793129192200D+03 0.317799430160881D+02 0.154731991537466D+02 -.280180146123341D+03
 0.833893580029770D+02 -.214014779573334D+02 0.224349953335674D+01 -.805650574333207D+02
 0.408112690957374D+03 -.149572812113723D+03 -.100381823355116D+03 0.366206815797801D+03
 0.161982771604605D+03 0.139194347054968D+03 0.826651246680127D+02 -.546161224113894D+01
0.149731772892D-02 0.000000000000D+00 0.000000000000D+00 0.108246407298D-02 0.000000000000D+00  6 -2 22 9900012 13 -1 21 0 0.71051275D-01 0.73629851D-01 0.30864386D+04 0.30864386D+04 0.30864386D+04 0.12661456D+01  1  2  2  2  6  5       -1 0.580744669208D-03 0.100000000000D+01
0.163136790075D-03 0.000000000000D+00 -.287504716594D-05 0.108246407298D-02 0.000000000000D+00  6 -2 22 9900012 13 -1 21 2 0.71051275D-01 0.73629851D-01 0.30864386D+04 0.30864386D+04 0.30864386D+04 0.12661456D+01  1  2  3  2  6  5       -1 0.101435615482D-03 0.100000000000D+01
-.212841078009D-03 0.000000000000D+00 0.000000000000D+00 0.108246407298D-02 0.000000000000D+00  6 -2 22 9900012 13 -1 21 2 0.71051275D-01 0.73629851D-01 0.30864386D+04 0.30864386D+04 0.30864386D+04 0.12661456D+01  1  2 15  2  6  5       -1 -.132340876253D-03 0.100000000000D+01
-.226138035956D-06 0.000000000000D+00 0.000000000000D+00 0.108246407298D-02 0.000000000000D+00  6 -2 22 9900012 13 -1 21 2 0.71051275D-01 0.73629851D-01 0.30864386D+04 0.30864386D+04 0.30864386D+04 0.12661456D+01  1  2  4  2  6  5       -1 -.140608693174D-06 0.100000000000D+01
  </mgrwgt>
  </event>
  <event>
  6     66 0.79906760E-06 0.56288399E+02 0.78161638E-02 0.11621597E+00
       -2 -1    0    0    0  501 0.00000000E+00 0.00000000E+00 0.15694014E+02 0.15694014E+02 0.00000000E+00 0.0000E+00 0.9000E+01
       22 -1    0    0    0    0 0.00000000E+00 0.00000000E+00 -.77547145E+03 0.77547145E+03 0.00000000E+00 0.0000E+00 0.9000E+01
      -24  2    1    2    0    0 -.61343463E+02 -.53307563E+02 -.61466338E+03 0.62484407E+03 0.77552082E+02 0.0000E+00 0.0000E+00
  9900012  1    3    3    0    0 -.40134834E+02 -.55525025E+02 -.38706135E+03 0.39624528E+03 0.50000000E+02 0.0000E+00 0.9000E+01
       13  1    3    3    0    0 -.21208629E+02 0.22174620E+01 -.22760203E+03 0.22859879E+03 0.00000000E+00 0.0000E+00 0.9000E+01
       -1  1    1    2    0  501 0.61343463E+02 0.53307563E+02 -.14511406E+03 0.16632139E+03 0.00000000E+00 0.0000E+00 0.9000E+01
#aMCatNLO 1  0  0  1  5 0.39975325D+02 0.00000000D+00  -5  6  0 0.00000000D+00 0.00000000D+00 0.00000000D+00 0.00000000D+00 0.00000000D+00
  <mgrwgt>
 0.2873918816D-04    6    4    0
 0.110318901542347D+03 0.000000000000000D+00 0.000000000000000D+00 0.110318901542347D+03
 0.110318901542347D+03 0.000000000000000D+00 0.000000000000000D+00 -.110318901542347D+03
 0.879953515229368D+02 -.401348342530439D+02 -.555250252903665D+02 -.234381854167525D+02
 0.359529585172991D+02 -.212086285453200D+02 0.221746200738418D+01 -.289463670193527D+02
 0.966894930444589D+02 0.613434627983639D+02 0.533075632829823D+02 0.523845524361052D+02
 0.000000000000000D+00 -.000000000000000D+00 0.000000000000000D+00 -.000000000000000D+00
 0.113238815853568D+03 0.000000000000000D+00 0.000000000000000D+00 0.113238815853568D+03
 0.130532806452100D+03 0.000000000000000D+00 0.000000000000000D+00 -.130532806452100D+03
 0.910338357355545D+02 -.385660830498104D+02 -.612410642566978D+02 -.234381854167525D+02
 0.355180221754718D+02 -.205823609032948D+02 -.644614982615086D-01 -.289463670193527D+02
 0.945701924348826D+02 0.630193842853590D+02 0.472010293058732D+02 0.523845524361052D+02
 0.226495719597587D+02 -.387094033225387D+01 0.141044964490861D+02 -.172939905985326D+02
 0.110318901542347D+03 0.000000000000000D+00 0.000000000000000D+00 0.110318901542347D+03
 0.110318901542347D+03 0.000000000000000D+00 0.000000000000000D+00 -.110318901542347D+03
 0.879953515229368D+02 -.401348342530439D+02 -.555250252903665D+02 -.234381854167525D+02
 0.359529585172991D+02 -.212086285453200D+02 0.221746200738418D+01 -.289463670193527D+02
 0.000000000000000D+00 -.000000000000000D+00 0.000000000000000D+00 -.000000000000000D+00
 0.966894930444589D+02 0.613434627983639D+02 0.533075632829823D+02 0.523845524361052D+02
 0.113238815853568D+03 0.000000000000000D+00 0.000000000000000D+00 0.113238815853568D+03
 0.130532806452100D+03 0.000000000000000D+00 0.000000000000000D+00 -.130532806452100D+03
 0.910338357355545D+02 -.385660830498104D+02 -.612410642566978D+02 -.234381854167525D+02
 0.355180221754718D+02 -.205823609032948D+02 -.644614982615086D-01 -.289463670193527D+02
 0.226495719597587D+02 -.387094033225387D+01 0.141044964490861D+02 -.172939905985326D+02
 0.945701924348826D+02 0.630193842853590D+02 0.472010293058732D+02 0.523845524361052D+02
0.634822780189D-06 0.000000000000D+00 0.000000000000D+00 0.840089919049D-07 0.000000000000D+00  6 -2 22 9900012 13 -1 21 0 0.24144637D-02 0.11930330D+00 0.87806377D+04 0.87806377D+04 0.87806377D+04 0.12152289D+01  1  2  2  1  6  1       -2 0.235212255534D-04 0.100000000000D+01
-.100087622485D-07 0.000000000000D+00 -.121894331430D-08 0.840089919049D-07 0.000000000000D+00  6 -2 22 9900012 13 -1 21 2 0.24144637D-02 0.11930330D+00 0.87806377D+04 0.87806377D+04 0.87806377D+04 0.12152289D+01  1  2  3  1  6  1       -2 -.547651138143D-06 0.100000000000D+01
-.865012009378D-07 0.000000000000D+00 0.000000000000D+00 0.840089919049D-07 0.000000000000D+00  6 -2 22 9900012 13 -1 21 2 0.24144637D-02 0.11930330D+00 0.87806377D+04 0.87806377D+04 0.87806377D+04 0.12152289D+01  1  2 15  1  6  1       -2 -.473310085385D-05 0.100000000000D+01
0.198643379419D-06 0.000000000000D+00 0.000000000000D+00 0.840089919049D-07 0.000000000000D+00  6 -2 22 9900012 13 -1 21 2 0.29324852D-02 0.11930330D+00 0.10191858D+05 0.10191858D+05 0.10191858D+05 0.12084755D+01  1  2 12  1  6  1       -2 0.825225578881D-05 0.100000000000D+01
-.313087677995D-07 0.000000000000D+00 0.000000000000D+00 0.840089919049D-07 0.000000000000D+00  6 -2 22 9900012 13 -1 21 2 0.24144637D-02 0.11930330D+00 0.87806377D+04 0.87806377D+04 0.87806377D+04 0.12152289D+01  1  2  4  1  6  1       -2 -.171312714735D-05 0.100000000000D+01
0.556114194882D-08 0.000000000000D+00 0.000000000000D+00 0.840089919049D-07 0.000000000000D+00  6 21 22 9900012 13 2 -1 2 0.29324852D-02 0.11930330D+00 0.10191858D+05 0.10191858D+05 0.10191858D+05 0.12084755D+01  3  4 12  3  5  1       -2 0.395958595572D-05 0.100000000000D+01
  </mgrwgt>
  </event>
</LesHouchesEvents>
