<LesHouchesEvents version="3.0">
  <!--
  <scalesfunctionalform>
    muR  H_T/2 := sum_i mT(i)/2, i=final state
    muF1 H_T/2 := sum_i mT(i)/2, i=final state
    muF2 H_T/2 := sum_i mT(i)/2, i=final state
    QES  H_T/2 := sum_i mT(i)/2, i=final state
  </scalesfunctionalform>
PYTHIA8   
  -->
  <header>
        3
  </header>
  <init>
   2212   2212 0.65000000D+04 0.65000000D+04 -1 -1  82200  82200 -4   1
 0.17641162D-05 0.37134271D-07 0.86379863D-06     66
  </init>
  <event>
  6     66 0.86379863E-06 0.37965018E+02 0.78161638E-02 0.12271856E+00
       -2 -1    0    0    0  501 0.00000000E+00 0.00000000E+00 0.84416625E+02 0.84416625E+02 0.00000000E+00 0.0000E+00 0.9000E+01
       22 -1    0    0    0    0 0.00000000E+00 0.00000000E+00 -.63690252E+02 0.63690252E+02 0.00000000E+00 0.0000E+00 0.9000E+01
      -24  2    1    2    0    0 -.27020948E+02 -.40845580E+02 0.19631917E+00 0.95003429E+02 0.81407125E+02 0.0000E+00 0.0000E+00
  9900012  1    3    3    0    0 -.43315491E+02 -.27772137E+02 0.90483125E+01 0.72314558E+02 0.50000000E+02 0.0000E+00 0.9000E+01
       13  1    3    3    0    0 0.16294544E+02 -.13073444E+02 -.88519933E+01 0.22688871E+02 0.00000000E+00 0.0000E+00 0.9000E+01
       -1  1    1    2    0  501 0.27020948E+02 0.40845580E+02 0.20530054E+02 0.53103448E+02 0.00000000E+00 0.0000E+00 0.9000E+01
#aMCatNLO 1  0  0  5  1 0.74182038D+01 0.00000000D+00  -5  6  0 0.00000000D+00 0.00000000D+00 0.00000000D+00 0.00000000D+00 0.00000000D+00
  <mgrwgt>
 0.1759464271D-05    8    2    0
 0.733247304808024D+02 0.000000000000000D+00 0.000000000000000D+00 0.733247304808024D+02
 0.733247304808024D+02 -.000000000000000D+00 -.000000000000000D+00 -.733247304808024D+02
 0.717544038408967D+02 -.433154912853718D+02 -.277721365783352D+02 -.108218073521326D+01
 0.241654317495868D+02 0.162945436625941D+02 -.130734436176745D+02 -.121466460575435D+02
 0.507296253711214D+02 0.270209476227777D+02 0.408455801960097D+02 0.132288267927568D+02
 0.000000000000000D+00 0.000000000000000D+00 0.000000000000000D+00 0.000000000000000D+00
 0.733247304808024D+02 0.000000000000000D+00 0.000000000000000D+00 0.733247304808024D+02
 0.733247304808024D+02 -.000000000000000D+00 -.000000000000000D+00 -.733247304808024D+02
 0.708046674531731D+02 -.425135208373029D+02 -.265598568052967D+02 -.689554677144532D+00
 0.240648903249252D+02 0.165658648254882D+02 -.126633073607017D+02 -.120138135337090D+02
 0.397219032508216D+02 0.261999825408495D+02 0.271723750694774D+02 0.123714407330132D+02
 0.120579999326850D+02 -.252326529034751D+00 0.120507890965211D+02 0.331927477840337D+00
0.441631701839D-08 0.000000000000D+00 0.000000000000D+00 0.593554119930D-07 0.000000000000D+00  6 -2 22 9900012 13 -1 21 0 0.12987173D-01 0.97985003D-02 0.50134537D+04 0.50134537D+04 0.50134537D+04 0.12417142D+01  1  2  2  2  6  5       -1 0.738077434552D-06 0.100000000000D+01
-.892729688519D-10 0.000000000000D+00 -.847991009679D-11 0.593554119930D-07 0.000000000000D+00  6 -2 22 9900012 13 -1 21 2 0.12987173D-01 0.97985003D-02 0.50134537D+04 0.50134537D+04 0.50134537D+04 0.12417142D+01  1  2  3  2  6  5       -1 -.230040835559D-07 0.100000000000D+01
-.371220477432D-09 0.000000000000D+00 0.000000000000D+00 0.593554119930D-07 0.000000000000D+00  6 -2 22 9900012 13 -1 21 2 0.12987173D-01 0.97985003D-02 0.50134537D+04 0.50134537D+04 0.50134537D+04 0.12417142D+01  1  2 15  2  6  5       -1 -.956570279933D-07 0.100000000000D+01
0.940938901026D-08 0.000000000000D+00 0.000000000000D+00 0.593554119930D-07 0.000000000000D+00  6 -2 22 9900012 13 -1 21 2 0.12987173D-01 0.97985003D-02 0.50022032D+04 0.50022032D+04 0.50022032D+04 0.12418240D+01  1  2 12  2  6  5       -1 0.242449301770D-05 0.100000000000D+01
-.757070888918D-08 0.000000000000D+00 0.000000000000D+00 0.593554119930D-07 0.000000000000D+00  6 -2 22 9900012 13 -1 21 2 0.12987173D-01 0.97985003D-02 0.50134537D+04 0.50134537D+04 0.50134537D+04 0.12417142D+01  1  2  4  2  6  5       -1 -.195083934257D-05 0.100000000000D+01
-.929492915205D-08 0.000000000000D+00 0.000000000000D+00 0.593554119930D-07 0.000000000000D+00  6 -2 22 9900012 13 -1 21 2 0.12987173D-01 0.97985003D-02 0.50134537D+04 0.50134537D+04 0.50134537D+04 0.12417142D+01  1  2  5  2  6  5       -1 -.239514076445D-05 0.100000000000D+01
0.117574413268D-07 0.000000000000D+00 -.000000000000D+00 0.593554119930D-07 0.000000000000D+00  6 -2 22 9900012 13 -1 21 2 0.12987173D-01 0.97985003D-02 0.50134537D+04 0.50134537D+04 0.50134537D+04 0.12417142D+01  1  2  6  2  6  5       -1 0.302968710647D-05 0.100000000000D+01
0.123600920896D-09 0.000000000000D+00 0.000000000000D+00 0.593554119930D-07 0.385824200363D-08  6 -2 22 9900012 13 -1 21 2 0.12987173D-01 0.97985003D-02 0.50022032D+04 0.50022032D+04 0.50022032D+04 0.12418240D+01  1  2 11  2  6  5       -1 0.318479307602D-07 0.100000000000D+01
  </mgrwgt>
  </event>
  <event>
  6     66 0.86379863E-06 0.36171429E+02 0.78161638E-02 0.11803700E+00
       -2 -1    0    0    0  501 0.00000000E+00 0.00000000E+00 0.21520658E+03 0.21520658E+03 0.00000000E+00 0.0000E+00 0.9000E+01
       22 -1    0    0    0    0 0.00000000E+00 0.00000000E+00 -.31609017E+02 0.31609017E+02 0.00000000E+00 0.0000E+00 0.9000E+01
      -24  2    1    2    0    0 -.62868387E-01 0.36171375E+02 0.39940227E+02 0.98674441E+02 0.82662272E+02 0.0000E+00 0.0000E+00
  9900012  1    3    3    0    0 -.71901776E+01 0.27280059E+01 0.67770897E+01 0.51039883E+02 0.50000000E+02 0.0000E+00 0.9000E+01
       13  1    3    3    0    0 0.71273092E+01 0.33443369E+02 0.33163138E+02 0.47634558E+02 0.00000000E+00 0.0000E+00 0.9000E+01
       -1  1    1    2    0  501 0.62868387E-01 -.36171375E+02 0.14365733E+03 0.14814116E+03 0.00000000E+00 0.0000E+00 0.9000E+01
#aMCatNLO 1  0  0  1  5 0.35205950D+03 0.00000000D+00  -5  6  0 0.00000000D+00 0.00000000D+00 0.00000000D+00 0.00000000D+00 0.00000000D+00
  <mgrwgt>
 0.9583898109D-06    5    4    0
 0.824770787689457D+02 0.000000000000000D+00 0.000000000000000D+00 0.824770787689457D+02
 0.824770787689457D+02 0.000000000000000D+00 0.000000000000000D+00 -.824770787689457D+02
 0.688262854026623D+02 -.719017759125248D+01 0.272800588052635D+01 -.466681571572179D+02
 0.343627637437925D+02 0.712730920409805D+01 0.334433688497000D+02 -.339736303679734D+01
 0.617651083914366D+02 0.628683871544317D-01 -.361713747302264D+02 0.500655201940153D+02
 0.000000000000000D+00 0.000000000000000D+00 0.000000000000000D+00 0.000000000000000D+00
 0.164835792808170D+03 0.000000000000000D+00 0.000000000000000D+00 0.164835792808170D+03
 0.931293051143379D+02 0.000000000000000D+00 0.000000000000000D+00 -.931293051143379D+02
 0.725978482752613D+02 -.215300653125930D+02 -.113572430361663D+02 -.466681571572179D+02
 0.275055328665941D+02 0.854091162515466D+00 0.272815467112406D+02 -.339736303679734D+01
 0.716525001216603D+02 -.134651870894635D+02 -.494592074141198D+02 0.500655201940153D+02
 0.862092166589925D+02 0.341411612395410D+02 0.335349037390455D+02 0.717064876938324D+02
 0.824770787689457D+02 0.000000000000000D+00 0.000000000000000D+00 0.824770787689457D+02
 0.824770787689457D+02 0.000000000000000D+00 0.000000000000000D+00 -.824770787689457D+02
 0.688262854026623D+02 -.719017759125248D+01 0.272800588052635D+01 -.466681571572179D+02
 0.343627637437925D+02 0.712730920409805D+01 0.334433688497000D+02 -.339736303679734D+01
 0.000000000000000D+00 0.000000000000000D+00 0.000000000000000D+00 0.000000000000000D+00
 0.617651083914366D+02 0.628683871544317D-01 -.361713747302264D+02 0.500655201940153D+02
 0.164835792808170D+03 0.000000000000000D+00 0.000000000000000D+00 0.164835792808170D+03
 0.931293051143379D+02 0.000000000000000D+00 0.000000000000000D+00 -.931293051143379D+02
 0.725978482752613D+02 -.215300653125930D+02 -.113572430361663D+02 -.466681571572179D+02
 0.275055328665941D+02 0.854091162515466D+00 0.272815467112406D+02 -.339736303679734D+01
 0.862092166589925D+02 0.341411612395410D+02 0.335349037390455D+02 0.717064876938324D+02
 0.716525001216603D+02 -.134651870894635D+02 -.494592074141198D+02 0.500655201940153D+02
0.186832046684D-07 0.000000000000D+00 0.000000000000D+00 0.558607806856D-07 0.000000000000D+00  6 -2 22 9900012 13 -1 21 0 0.33108704D-01 0.48629258D-02 0.36574546D+04 0.36574546D+04 0.36574546D+04 0.12574286D+01  1  2  2  1  6  1       -2 0.177933170229D-05 0.100000000000D+01
0.453376286639D-09 0.000000000000D+00 -.358742126638D-10 0.558607806856D-07 0.000000000000D+00  6 -2 22 9900012 13 -1 21 2 0.33108704D-01 0.48629258D-02 0.36574546D+04 0.36574546D+04 0.36574546D+04 0.12574286D+01  1  2  3  1  6  1       -2 0.682701764381D-07 0.100000000000D+01
-.172552239633D-08 0.000000000000D+00 0.000000000000D+00 0.558607806856D-07 0.000000000000D+00  6 -2 22 9900012 13 -1 21 2 0.33108704D-01 0.48629258D-02 0.36574546D+04 0.36574546D+04 0.36574546D+04 0.12574286D+01  1  2 15  1  6  1       -2 -.259832112787D-06 0.100000000000D+01
-.109662678061D-07 0.000000000000D+00 -.445080801687D-08 0.558607806856D-07 0.000000000000D+00  6 -2 22 9900012 13 -1 21 2 0.72282381D-01 0.48629258D-02 0.36574546D+04 0.36574546D+04 0.36574546D+04 0.12574286D+01  1  2  5  1  6  1       -2 -.385732474126D-06 0.100000000000D+01
-.647773734519D-09 0.000000000000D+00 -.376472162169D-09 0.558607806856D-07 0.000000000000D+00  6 21 22 9900012 13 2 -1 2 0.72282381D-01 0.48629258D-02 0.36574546D+04 0.36574546D+04 0.36574546D+04 0.12574286D+01  3  4  5  3  5  1       -2 -.243647480954D-06 0.100000000000D+01
  </mgrwgt>
  </event>
  <event>
  6     66 0.86379863E-06 0.14908210E+03 0.78161638E-02 0.91220299E-01
       -2 -1    0    0    0  501 0.00000000E+00 0.00000000E+00 0.70657269E+02 0.70657269E+02 0.00000000E+00 0.0000E+00 0.9000E+01
       22 -1    0    0    0    0 0.00000000E+00 0.00000000E+00 -.36332214E+03 0.36332214E+03 0.00000000E+00 0.0000E+00 0.9000E+01
      -24  2    1    2    0    0 0.14672761E+03 -.26390951E+02 -.18427750E+03 0.24966095E+03 0.78402288E+02 0.0000E+00 0.0000E+00
  9900012  1    3    3    0    0 0.10755823E+03 -.42469400E+02 -.13387118E+03 0.18383122E+03 0.50000000E+02 0.0000E+00 0.9000E+01
       13  1    3    3    0    0 0.39169377E+02 0.16078449E+02 -.50406316E+02 0.65829730E+02 0.00000000E+00 0.0000E+00 0.9000E+01
       -1  1    1    2    0  501 -.14672761E+03 0.26390951E+02 -.10838737E+03 0.18431846E+03 0.00000000E+00 0.0000E+00 0.9000E+01
#aMCatNLO 1  0  0  1  5 0.62912954D+03 0.00000000D+00  -5  6  0 0.00000000D+00 0.00000000D+00 0.00000000D+00 0.00000000D+00 0.00000000D+00
  <mgrwgt>
 0.2002109894D-05    5    4    0
 0.160222813318264D+03 0.000000000000000D+00 0.000000000000000D+00 0.160222813318264D+03
 0.160222813318264D+03 0.000000000000000D+00 0.000000000000000D+00 -.160222813318264D+03
 0.126697220101616D+03 0.107558229185076D+03 -.424693996291139D+02 -.134075729045413D+02
 0.431167972619257D+02 0.391693768500395D+02 0.160784490346726D+02 -.814257944051086D+01
 0.150631609272986D+03 -.146727606035116D+03 0.263909505944414D+02 0.215501523450522D+02
 0.000000000000000D+00 -.000000000000000D+00 0.000000000000000D+00 0.000000000000000D+00
 0.390776690566557D+04 0.000000000000000D+00 0.000000000000000D+00 0.390776690566557D+04
 0.368676490749965D+03 0.000000000000000D+00 0.000000000000000D+00 -.368676490749965D+03
 0.485347819387365D+03 0.415735967302381D+03 -.245043564012675D+03 -.134075729045413D+02
 0.137495740686243D+03 0.130111643888043D+03 -.437005404047198D+02 -.814257944051086D+01
 0.629474131385462D+02 -.391860105815419D+02 -.442992587911257D+02 0.215501523450522D+02
 0.359065242320338D+04 -.506661600608882D+03 0.333043363208520D+03 0.353909041491560D+04
 0.160222813318264D+03 0.000000000000000D+00 0.000000000000000D+00 0.160222813318264D+03
 0.160222813318264D+03 0.000000000000000D+00 0.000000000000000D+00 -.160222813318264D+03
 0.126697220101616D+03 0.107558229185076D+03 -.424693996291139D+02 -.134075729045413D+02
 0.431167972619257D+02 0.391693768500395D+02 0.160784490346726D+02 -.814257944051086D+01
 0.000000000000000D+00 -.000000000000000D+00 0.000000000000000D+00 0.000000000000000D+00
 0.150631609272986D+03 -.146727606035116D+03 0.263909505944414D+02 0.215501523450522D+02
 0.390776690566557D+04 0.000000000000000D+00 0.000000000000000D+00 0.390776690566557D+04
 0.368676490749965D+03 0.000000000000000D+00 0.000000000000000D+00 -.368676490749965D+03
 0.485347819387365D+03 0.415735967302381D+03 -.245043564012675D+03 -.134075729045413D+02
 0.137495740686243D+03 0.130111643888043D+03 -.437005404047198D+02 -.814257944051086D+01
 0.359065242320338D+04 -.506661600608882D+03 0.333043363208520D+03 0.353909041491560D+04
 0.629474131385462D+02 -.391860105815419D+02 -.442992587911257D+02 0.215501523450522D+02
0.133704554407D-06 0.000000000000D+00 0.000000000000D+00 0.791059224179D-07 0.000000000000D+00  6 -2 22 9900012 13 -1 21 0 0.10870349D-01 0.55895713D-01 0.25187096D+05 0.25187096D+05 0.25187096D+05 0.11698285D+01  1  2  2  1  6  1       -2 0.237183909586D-05 0.100000000000D+01
-.508174655758D-08 0.000000000000D+00 -.256730347070D-09 0.791059224179D-07 0.000000000000D+00  6 -2 22 9900012 13 -1 21 2 0.10870349D-01 0.55895713D-01 0.25187096D+05 0.25187096D+05 0.25187096D+05 0.11698285D+01  1  2  3  1  6  1       -2 -.123366258689D-06 0.100000000000D+01
-.973217010432D-08 0.000000000000D+00 0.000000000000D+00 0.791059224179D-07 0.000000000000D+00  6 -2 22 9900012 13 -1 21 2 0.10870349D-01 0.55895713D-01 0.25187096D+05 0.25187096D+05 0.25187096D+05 0.11698285D+01  1  2 15  1  6  1       -2 -.236261568950D-06 0.100000000000D+01
-.460157484930D-06 0.000000000000D+00 -.254463683983D-06 0.791059224179D-07 0.000000000000D+00  6 -2 22 9900012 13 -1 21 2 0.40224382D+00 0.55895713D-01 0.25187096D+05 0.25187096D+05 0.25187096D+05 0.11698285D+01  1  2  5  1  6  1       -2 -.158473814309D-08 0.100000000000D+01
-.237222506732D-06 0.000000000000D+00 -.878983935750D-07 0.791059224179D-07 0.000000000000D+00  6 21 22 9900012 13 2 -1 2 0.40224382D+00 0.55895713D-01 0.25187096D+05 0.25187096D+05 0.25187096D+05 0.11698285D+01  3  4  5  3  5  1       -2 -.851663601470D-08 0.100000000000D+01
  </mgrwgt>
  </event>
</LesHouchesEvents>
