<LesHouchesEvents version="3.0">
  <!--
  <scalesfunctionalform>
    muR  H_T/2 := sum_i mT(i)/2, i=final state
    muF1 H_T/2 := sum_i mT(i)/2, i=final state
    muF2 H_T/2 := sum_i mT(i)/2, i=final state
    QES  H_T/2 := sum_i mT(i)/2, i=final state
  </scalesfunctionalform>
PYTHIA8   
  -->
  <header>
        7
  </header>
  <init>
   2212   2212 0.65000000D+04 0.65000000D+04 -1 -1  82200  82200 -4   1
 0.83584445D-05 0.17106737D-06 0.15282408D-05     66
  </init>
  <event>
  7     66 0.15282408E-05 0.26773224E+02 0.78161638E-02 0.12730274E+00
       22 -1    0    0    0    0 0.00000000E+00 0.00000000E+00 0.90622184E+03 0.90622184E+03 0.00000000E+00 0.0000E+00 0.9000E+01
       21 -1    0    0  502  501 0.00000000E+00 0.00000000E+00 -.17796206E+02 0.17796206E+02 0.00000000E+00 0.0000E+00 0.9000E+01
      -24  2    1    2    0    0 -.12105335E+02 -.23131079E+02 0.32594395E+03 0.33667134E+03 0.80165724E+02 0.0000E+00 0.0000E+00
  9900012  1    3    3    0    0 -.11484825E+02 -.41129471E+02 0.23888457E+03 0.24776879E+03 0.50000000E+02 0.0000E+00 0.9000E+01
       13  1    3    3    0    0 -.62050978E+00 0.17998393E+02 0.87059379E+02 0.88902546E+02 0.00000000E+00 0.0000E+00 0.9000E+01
        4  1    1    2  502    0 0.12596543E+02 0.24385574E+02 0.27176522E+01 0.27581058E+02 0.00000000E+00 0.0000E+00 0.9000E+01
       -3  1    1    2    0  501 -.49120798E+00 -.12544954E+01 0.55976403E+03 0.55976565E+03 0.00000000E+00 0.0000E+00 0.9000E+01
#aMCatNLO 2  0  0  2  5 0.44352981D+01 0.00000000D+00  -5  6  0 0.00000000D+00 0.00000000D+00 0.00000000D+00 0.00000000D+00 0.00000000D+00
  <mgrwgt>
 0.3735033492D-04    1    2    0
 0.677630339442304D+02 0.000000000000000D+00 0.000000000000000D+00 0.677630339442304D+02
 0.677630339442304D+02 0.000000000000000D+00 0.000000000000000D+00 -.677630339442304D+02
 0.692080941335930D+02 -.479840750872638D+01 -.281852743120857D+02 -.383708990113204D+02
 0.222645602737779D+02 0.126428166638672D+01 0.216471493828159D+02 -.505105530070524D+01
 0.000000000000000D+00 0.000000000000000D+00 0.000000000000000D+00 -.000000000000000D+00
 0.440534134810899D+02 0.353412584233965D+01 0.653812492926984D+01 0.434219543120256D+02
 0.703141539496460D+02 0.000000000000000D+00 0.000000000000000D+00 0.703141539496460D+02
 0.229360797940927D+03 0.000000000000000D+00 0.000000000000000D+00 -.229360797940927D+03
 0.761305491829702D+02 -.114848251559084D+02 -.411294714177306D+02 -.383708990113204D+02
 0.187040190077541D+02 -.620509778180135D+00 0.179983925673052D+02 -.505105530070524D+01
 0.161397534341678D+03 0.125965429091056D+02 0.243855742893796D+02 -.159046643991281D+03
 0.434428493581708D+02 -.491207975017080D+00 -.125449543895419D+01 0.434219543120256D+02
0.673654325261D-07 0.000000000000D+00 0.000000000000D+00 0.893216151332D-06 0.342995884505D-07  6 22 21 9900012 13 4 -3 2 0.13941874D+00 0.27378778D-02 0.31672557D+04 0.31672557D+04 0.31672557D+04 0.12648057D+01  1  2  1  3  5  2       -4 0.373503349159D-04 0.100000000000D+01
  </mgrwgt>
  </event>
  <event>
  6     66 0.15282408E-05 0.10217422E+02 0.78161638E-02 0.13501810E+00
       22 -1    0    0    0    0 0.00000000E+00 0.00000000E+00 0.67122365E+02 0.67122365E+02 0.00000000E+00 0.0000E+00 0.9000E+01
       -4 -1    0    0    0  501 0.00000000E+00 0.00000000E+00 -.31176875E+02 0.31176875E+02 0.00000000E+00 0.0000E+00 0.9000E+01
      -24  2    1    2    0    0 -.57956538E+01 0.84146362E+01 0.32286719E+02 0.87446485E+02 0.80622948E+02 0.0000E+00 0.0000E+00
  9900012  1    3    3    0    0 0.75545507E+01 0.42662536E+01 -.16177551E+01 0.50772919E+02 0.50000000E+02 0.0000E+00 0.9000E+01
       13  1    3    3    0    0 -.13350205E+02 0.41483826E+01 0.33904474E+02 0.36673566E+02 0.00000000E+00 0.0000E+00 0.9000E+01
       -3  1    1    2    0  501 0.57956538E+01 -.84146362E+01 0.36587704E+01 0.10852756E+02 0.00000000E+00 0.0000E+00 0.9000E+01
#aMCatNLO 1  0  0  2  5 0.45663458D+01 0.00000000D+00  -5  6  0 0.00000000D+00 0.00000000D+00 0.00000000D+00 0.00000000D+00 0.00000000D+00
  <mgrwgt>
 0.9591059867D-05   11    4    0
 0.457456621361772D+02 0.000000000000000D+00 0.000000000000000D+00 0.457456621361772D+02
 0.457456621361772D+02 0.000000000000000D+00 0.000000000000000D+00 -.457456621361772D+02
 0.551865479169240D+02 0.755455068345219D+01 0.426625362702822D+01 -.216860073537746D+02
 0.260819343957747D+02 -.133502045183010D+02 0.414838257753761D+01 0.220188615313194D+02
 0.102228419596557D+02 0.579565383484877D+01 -.841463620456583D+01 -.332854177544743D+00
 0.000000000000000D+00 0.000000000000000D+00 0.000000000000000D+00 -.000000000000000D+00
 0.462385709593511D+02 0.000000000000000D+00 0.000000000000000D+00 0.462385709593511D+02
 0.571442938680140D+02 0.000000000000000D+00 0.000000000000000D+00 -.571442938680140D+02
 0.549964925809041D+02 0.719389400820701D+01 0.160597953042856D+01 -.216860073537746D+02
 0.259999318847195D+02 -.135206815050352D+02 0.289091101800756D+01 0.220188615313194D+02
 0.106035925995280D+02 0.572748370075745D+01 -.891747243173834D+01 -.332854177544743D+00
 0.117828477622135D+02 0.599303796070745D+00 0.442058188330223D+01 -.109057229086629D+02
 0.457456621361772D+02 0.000000000000000D+00 0.000000000000000D+00 0.457456621361772D+02
 0.457456621361772D+02 0.000000000000000D+00 0.000000000000000D+00 -.457456621361772D+02
 0.551865479169240D+02 0.755455068345219D+01 0.426625362702822D+01 -.216860073537746D+02
 0.260819343957747D+02 -.133502045183010D+02 0.414838257753761D+01 0.220188615313194D+02
 0.000000000000000D+00 0.000000000000000D+00 0.000000000000000D+00 -.000000000000000D+00
 0.102228419596557D+02 0.579565383484877D+01 -.841463620456583D+01 -.332854177544743D+00
 0.462385709593511D+02 0.000000000000000D+00 0.000000000000000D+00 0.462385709593511D+02
 0.571442938680140D+02 0.000000000000000D+00 0.000000000000000D+00 -.571442938680140D+02
 0.549964925809041D+02 0.719389400820701D+01 0.160597953042856D+01 -.216860073537746D+02
 0.259999318847195D+02 -.135206815050352D+02 0.289091101800756D+01 0.220188615313194D+02
 0.117828477622135D+02 0.599303796070745D+00 0.442058188330223D+01 -.109057229086629D+02
 0.106035925995280D+02 0.572748370075745D+01 -.891747243173834D+01 -.332854177544743D+00
0.122419104660D-07 0.000000000000D+00 0.000000000000D+00 0.132714903059D-06 0.000000000000D+00  6 22 -4 9900012 13 -3 21 0 0.10326518D-01 0.47964423D-02 0.14041673D+04 0.14041673D+04 0.14041673D+04 0.13092051D+01  1  2  2  1  6  2       -4 0.464624216474D-05 0.100000000000D+01
0.532430637581D-09 0.000000000000D+00 -.235060797792D-10 0.132714903059D-06 0.000000000000D+00  6 22 -4 9900012 13 -3 21 2 0.10326518D-01 0.47964423D-02 0.14041673D+04 0.14041673D+04 0.14041673D+04 0.13092051D+01  1  2  3  1  6  2       -4 0.346362676024D-06 0.100000000000D+01
-.215124694928D-10 0.000000000000D+00 0.000000000000D+00 0.132714903059D-06 0.000000000000D+00  6 22 -4 9900012 13 -3 21 2 0.10326518D-01 0.47964423D-02 0.14041673D+04 0.14041673D+04 0.14041673D+04 0.13092051D+01  1  2 15  1  6  2       -4 -.139945299453D-07 0.100000000000D+01
0.135946221911D-07 0.000000000000D+00 0.000000000000D+00 0.132714903059D-06 0.000000000000D+00  6 22 -4 9900012 13 -3 21 2 0.10326518D-01 0.60561506D-02 0.15771250D+04 0.15771250D+04 0.15771250D+04 0.13025695D+01  1  2 12  1  6  2       -4 0.628354582705D-05 0.100000000000D+01
-.355217393854D-07 0.000000000000D+00 0.000000000000D+00 0.132714903059D-06 0.000000000000D+00  6 22 -4 9900012 13 -3 21 2 0.10326518D-01 0.47964423D-02 0.14041673D+04 0.14041673D+04 0.14041673D+04 0.13092051D+01  1  2  4  1  6  2       -4 -.231079953747D-04 0.100000000000D+01
-.662592115359D-07 0.000000000000D+00 -.519122240201D-08 0.132714903059D-06 0.000000000000D+00  6 22 -4 9900012 13 -3 21 2 0.10326518D-01 0.60492845D-02 0.14041673D+04 0.14041673D+04 0.14041673D+04 0.13092051D+01  1  2  5  1  6  2       -4 -.303580656542D-04 0.100000000000D+01
0.658203057012D-07 0.000000000000D+00 0.505450674914D-08 0.132714903059D-06 0.000000000000D+00  6 22 -4 9900012 13 -3 21 2 0.10326518D-01 0.47964423D-02 0.14041673D+04 0.14041673D+04 0.14041673D+04 0.13092051D+01  1  2  6  1  6  2       -4 0.428181543477D-04 0.100000000000D+01
0.264015729839D-07 0.000000000000D+00 0.000000000000D+00 0.132714903059D-06 0.425239022745D-07  6 22 -4 9900012 13 -3 21 2 0.10437786D-01 0.59915913D-02 0.15771250D+04 0.15771250D+04 0.15771250D+04 0.13025695D+01  1  2 11  1  6  2       -4 0.122201298426D-04 0.100000000000D+01
0.436947265457D-09 0.000000000000D+00 0.000000000000D+00 0.132714903059D-06 0.000000000000D+00  6 22 21 9900012 13 4 -3 2 0.10326518D-01 0.60561506D-02 0.15771250D+04 0.15771250D+04 0.15771250D+04 0.13025695D+01  3  4 12  3  5  2       -4 0.494033335920D-05 0.100000000000D+01
-.204499088494D-08 0.000000000000D+00 -.166245934112D-09 0.132714903059D-06 0.000000000000D+00  6 22 21 9900012 13 4 -3 2 0.10326518D-01 0.60492845D-02 0.14041673D+04 0.14041673D+04 0.14041673D+04 0.13092051D+01  3  4  5  3  5  2       -4 -.230336952250D-04 0.100000000000D+01
0.131117540788D-08 0.000000000000D+00 0.000000000000D+00 0.132714903059D-06 0.183457124938D-08  6 22 21 9900012 13 4 -3 2 0.10437786D-01 0.59915913D-02 0.15771250D+04 0.15771250D+04 0.15771250D+04 0.13025695D+01  3  4 11  3  5  2       -4 0.148500424332D-04 0.100000000000D+01
  </mgrwgt>
  </event>
  <event>
  6     66 0.15282408E-05 0.86758640E+02 0.78161638E-02 0.10694181E+00
       22 -1    0    0    0    0 0.00000000E+00 0.00000000E+00 0.94244539E+02 0.94244539E+02 0.00000000E+00 0.0000E+00 0.9000E+01
       -4 -1    0    0    0  501 0.00000000E+00 0.00000000E+00 -.11725748E+03 0.11725748E+03 0.00000000E+00 0.0000E+00 0.9000E+01
      -24  2    1    2    0    0 0.45815438E+02 0.73675011E+02 0.83461218E+01 0.11924991E+03 0.81386857E+02 0.0000E+00 0.0000E+00
  9900012  1    3    3    0    0 0.23111898E+02 0.43796376E+02 -.18911550E+02 0.72869260E+02 0.50000000E+02 0.0000E+00 0.9000E+01
       13  1    3    3    0    0 0.22703540E+02 0.29878635E+02 0.27257671E+02 0.46380645E+02 0.00000000E+00 0.0000E+00 0.9000E+01
       -3  1    1    2    0  501 -.45815438E+02 -.73675011E+02 -.31359062E+02 0.92252114E+02 0.00000000E+00 0.0000E+00 0.9000E+01
#aMCatNLO 1  0  0  2  2 0.51750231D+02 0.00000000D+00  -5  6  0 0.00000000D+00 0.00000000D+00 0.00000000D+00 0.00000000D+00 0.00000000D+00
  <mgrwgt>
 0.1925482609D-05    5    4    0
 0.105123152262710D+03 0.000000000000000D+00 0.000000000000000D+00 0.105123152262710D+03
 0.105123152262710D+03 0.000000000000000D+00 0.000000000000000D+00 -.105123152262710D+03
 0.712344757922818D+02 0.231118979748315D+02 0.437963759982078D+02 -.110484461724611D+02
 0.496412018117947D+02 0.227035401242000D+02 0.298786354963278D+02 0.324971587069662D+02
 0.893706269213436D+02 -.458154380990316D+02 -.736750114945356D+02 -.214487125345051D+02
 0.000000000000000D+00 0.000000000000000D+00 -.000000000000000D+00 -.000000000000000D+00
 0.136382622043125D+03 0.000000000000000D+00 0.000000000000000D+00 0.136382622043125D+03
 0.434685142412998D+03 0.000000000000000D+00 0.000000000000000D+00 -.434685142412998D+03
 0.925447938898668D+02 -.926521955520198D+01 0.765285987058829D+02 -.110484461724611D+02
 0.613808812189629D+02 0.755859946531142D+00 0.520670330529012D+02 0.324971587069662D+02
 0.924001762342537D+02 -.817492572491534D+02 -.373470780375794D+02 -.214487125345051D+02
 0.324741913113041D+03 0.902586168578243D+02 -.912485537212047D+02 -.298302520369873D+03
 0.105123152262710D+03 0.000000000000000D+00 0.000000000000000D+00 0.105123152262710D+03
 0.105123152262710D+03 0.000000000000000D+00 0.000000000000000D+00 -.105123152262710D+03
 0.712344757922818D+02 0.231118979748315D+02 0.437963759982078D+02 -.110484461724611D+02
 0.496412018117947D+02 0.227035401242000D+02 0.298786354963278D+02 0.324971587069662D+02
 0.000000000000000D+00 0.000000000000000D+00 -.000000000000000D+00 -.000000000000000D+00
 0.893706269213436D+02 -.458154380990316D+02 -.736750114945356D+02 -.214487125345051D+02
 0.136382622043125D+03 0.000000000000000D+00 0.000000000000000D+00 0.136382622043125D+03
 0.434685142412998D+03 0.000000000000000D+00 0.000000000000000D+00 -.434685142412998D+03
 0.925447938898668D+02 -.926521955520198D+01 0.765285987058829D+02 -.110484461724611D+02
 0.613808812189629D+02 0.755859946531142D+00 0.520670330529012D+02 0.324971587069662D+02
 0.324741913113041D+03 0.902586168578243D+02 -.912485537212047D+02 -.298302520369873D+03
 0.924001762342537D+02 -.817492572491534D+02 -.373470780375794D+02 -.214487125345051D+02
0.643246479126D-07 0.000000000000D+00 0.000000000000D+00 0.996927977058D-07 0.000000000000D+00  6 22 -4 9900012 13 -3 21 0 0.14499160D-01 0.18039612D-01 0.94728240D+04 0.94728240D+04 0.94728240D+04 0.12117755D+01  1  2  2  1  6  2       -4 0.236509949635D-05 0.100000000000D+01
-.215455899545D-08 0.000000000000D+00 -.123511792527D-09 0.996927977058D-07 0.000000000000D+00  6 22 -4 9900012 13 -3 21 2 0.14499160D-01 0.18039612D-01 0.94728240D+04 0.94728240D+04 0.94728240D+04 0.12117755D+01  1  2  3  1  6  2       -4 -.116325453740D-06 0.100000000000D+01
0.104892156541D-09 0.000000000000D+00 0.000000000000D+00 0.996927977058D-07 0.000000000000D+00  6 22 -4 9900012 13 -3 21 2 0.14499160D-01 0.18039612D-01 0.94728240D+04 0.94728240D+04 0.94728240D+04 0.12117755D+01  1  2 15  1  6  2       -4 0.566316713965D-08 0.100000000000D+01
-.276531406881D-07 0.000000000000D+00 -.176869435589D-07 0.996927977058D-07 0.000000000000D+00  6 22 -4 9900012 13 -3 21 2 0.14499160D-01 0.90564888D-01 0.94728240D+04 0.94728240D+04 0.94728240D+04 0.12117755D+01  1  2  5  1  6  2       -4 -.532946655544D-07 0.100000000000D+01
-.595528102458D-08 0.000000000000D+00 -.347892823582D-08 0.996927977058D-07 0.000000000000D+00  6 22 21 9900012 13 4 -3 2 0.14499160D-01 0.90564888D-01 0.94728240D+04 0.94728240D+04 0.94728240D+04 0.12117755D+01  3  4  5  3  5  2       -4 -.275659935608D-06 0.100000000000D+01
  </mgrwgt>
  </event>
  <event>
  6     66 0.15282408E-05 0.13847412E+02 0.78161638E-02 0.10713648E+00
       22 -1    0    0    0    0 0.00000000E+00 0.00000000E+00 0.56753439E+02 0.56753439E+02 0.00000000E+00 0.0000E+00 0.9000E+01
       -4 -1    0    0    0  501 0.00000000E+00 0.00000000E+00 -.53323206E+02 0.53323206E+02 0.00000000E+00 0.0000E+00 0.9000E+01
      -24  2    1    2    0    0 0.11915717E+02 -.70545380E+01 0.24600759E+02 0.84779570E+02 0.79941400E+02 0.0000E+00 0.0000E+00
  9900012  1    3    3    0    0 0.24767275E+02 -.53289806E+01 -.10234860E+01 0.56061248E+02 0.50000000E+02 0.0000E+00 0.9000E+01
       13  1    3    3    0    0 -.12851559E+02 -.17255574E+01 0.25624245E+02 0.28718323E+02 0.00000000E+00 0.0000E+00 0.9000E+01
       -3  1    1    2    0  501 -.11915717E+02 0.70545380E+01 -.21170526E+02 0.25297075E+02 0.00000000E+00 0.0000E+00 0.9000E+01
#aMCatNLO 1  0  0  2  5 0.84430762D+01 0.00000000D+00  -5  6  0 0.00000000D+00 0.00000000D+00 0.00000000D+00 0.00000000D+00 0.00000000D+00
  <mgrwgt>
 0.3705476962D-05    5    4    0
 0.550115925373873D+02 0.000000000000000D+00 0.000000000000000D+00 0.550115925373873D+02
 0.550115925373873D+02 0.000000000000000D+00 0.000000000000000D+00 -.550115925373873D+02
 0.561203972064048D+02 0.247672754241693D+02 -.532898062300342D+01 -.277182542517359D+01
 0.279333803068019D+02 -.128515588258082D+02 -.172555742550079D+01 0.247413342947084D+02
 0.259694075615679D+02 -.119157165983610D+02 0.705453804850420D+01 -.219695088695349D+02
 0.000000000000000D+00 -.000000000000000D+00 0.000000000000000D+00 -.000000000000000D+00
 0.113826234240192D+03 0.000000000000000D+00 0.000000000000000D+00 0.113826234240192D+03
 0.704827454414577D+03 0.000000000000000D+00 0.000000000000000D+00 -.704827454414577D+03
 0.128520113332127D+03 0.702522629069964D+02 -.952594146064385D+02 -.277182542517359D+01
 0.450142763709636D+02 0.511862139743864D+01 -.372552166751001D+02 0.247413342947084D+02
 0.298584035924882D+02 0.183710115614774D+01 -.201367823761748D+02 -.219695088695349D+02
 0.615260895359190D+03 -.772079854605827D+02 0.152651413657713D+03 -.591001220174386D+03
 0.550115925373873D+02 0.000000000000000D+00 0.000000000000000D+00 0.550115925373873D+02
 0.550115925373873D+02 0.000000000000000D+00 0.000000000000000D+00 -.550115925373873D+02
 0.561203972064048D+02 0.247672754241693D+02 -.532898062300342D+01 -.277182542517359D+01
 0.279333803068019D+02 -.128515588258082D+02 -.172555742550079D+01 0.247413342947084D+02
 0.000000000000000D+00 -.000000000000000D+00 0.000000000000000D+00 -.000000000000000D+00
 0.259694075615679D+02 -.119157165983610D+02 0.705453804850420D+01 -.219695088695349D+02
 0.113826234240192D+03 0.000000000000000D+00 0.000000000000000D+00 0.113826234240192D+03
 0.704827454414577D+03 0.000000000000000D+00 0.000000000000000D+00 -.704827454414577D+03
 0.128520113332127D+03 0.702522629069964D+02 -.952594146064385D+02 -.277182542517359D+01
 0.450142763709636D+02 0.511862139743864D+01 -.372552166751001D+02 0.247413342947084D+02
 0.615260895359190D+03 -.772079854605827D+02 0.152651413657713D+03 -.591001220174386D+03
 0.298584035924882D+02 0.183710115614774D+01 -.201367823761748D+02 -.219695088695349D+02
0.162676766509D-07 0.000000000000D+00 0.000000000000D+00 0.248902386608D-06 0.000000000000D+00  6 22 -4 9900012 13 -3 21 0 0.87312983D-02 0.82035701D-02 0.17167018D+04 0.17167018D+04 0.17167018D+04 0.12977887D+01  1  2  2  1  6  2       -4 0.355250301175D-05 0.100000000000D+01
0.102264023165D-08 0.000000000000D+00 -.312360808585D-10 0.248902386608D-06 0.000000000000D+00  6 22 -4 9900012 13 -3 21 2 0.87312983D-02 0.82035701D-02 0.17167018D+04 0.17167018D+04 0.17167018D+04 0.12977887D+01  1  2  3  1  6  2       -4 0.376131569483D-06 0.100000000000D+01
-.585100259020D-09 0.000000000000D+00 0.000000000000D+00 0.248902386608D-06 0.000000000000D+00  6 22 -4 9900012 13 -3 21 2 0.87312983D-02 0.82035701D-02 0.17167018D+04 0.17167018D+04 0.17167018D+04 0.12977887D+01  1  2 15  1  6  2       -4 -.215202445513D-06 0.100000000000D+01
0.106697843060D-07 0.000000000000D+00 -.161274023731D-07 0.248902386608D-06 0.000000000000D+00  6 22 -4 9900012 13 -3 21 2 0.87312983D-02 0.18189218D+00 0.17167018D+04 0.17167018D+04 0.17167018D+04 0.12977887D+01  1  2  5  1  6  2       -4 0.608189213696D-08 0.100000000000D+01
-.811806197872D-09 0.000000000000D+00 -.526687320186D-08 0.248902386608D-06 0.000000000000D+00  6 22 21 9900012 13 4 -3 2 0.87312983D-02 0.18189218D+00 0.17167018D+04 0.17167018D+04 0.17167018D+04 0.12977887D+01  3  4  5  3  5  2       -4 -.140370655698D-07 0.100000000000D+01
  </mgrwgt>
  </event>
  <event>
  7     66 0.15282408E-05 0.27501555E+02 0.78161638E-02 0.12245509E+00
       22 -1    0    0    0    0 0.00000000E+00 0.00000000E+00 0.11236778E+03 0.11236778E+03 0.00000000E+00 0.0000E+00 0.9000E+01
       21 -1    0    0  502  501 0.00000000E+00 0.00000000E+00 -.96584004E+02 0.96584004E+02 0.00000000E+00 0.0000E+00 0.9000E+01
      -24  2    1    2    0    0 0.30608635E+02 -.33750271E+02 0.71864927E+02 0.11672748E+03 0.79904741E+02 0.0000E+00 0.0000E+00
  9900012  1    3    3    0    0 -.43478149E+01 -.23468492E+02 0.46485403E+02 0.72322654E+02 0.50000000E+02 0.0000E+00 0.9000E+01
       13  1    3    3    0    0 0.34956449E+02 -.10281779E+02 0.25379524E+02 0.44404826E+02 0.00000000E+00 0.0000E+00 0.9000E+01
        4  1    1    2  502    0 0.17841577E+00 0.16035490E+02 -.54345453E+02 0.56662130E+02 0.00000000E+00 0.0000E+00 0.9000E+01
       -3  1    1    2    0  501 -.30787050E+02 0.17714781E+02 -.17356934E+01 0.35562179E+02 0.00000000E+00 0.0000E+00 0.9000E+01
#aMCatNLO 2  0  0  2  5 0.16179676D+02 0.00000000D+00  -5  6  0 0.00000000D+00 0.00000000D+00 0.00000000D+00 0.00000000D+00 0.00000000D+00
  <mgrwgt>
 0.2050257822D-05    2    2    0
 0.671134523923781D+02 0.000000000000000D+00 0.000000000000000D+00 0.671134523923781D+02
 0.671134523923781D+02 0.000000000000000D+00 0.000000000000000D+00 -.671134523923781D+02
 0.549584462240043D+02 -.427343197067932D+01 -.167831727421102D+02 0.148490303810462D+02
 0.359384927807404D+02 0.350046590432334D+02 -.594883610897702D+01 0.555521894859571D+01
 0.000000000000000D+00 0.000000000000000D+00 0.000000000000000D+00 -.000000000000000D+00
 0.433299657800116D+02 -.307312270725541D+02 0.227320088510872D+02 -.204042493296419D+02
 0.682947504214709D+02 0.000000000000000D+00 0.000000000000000D+00 0.682947504214709D+02
 0.158913101283764D+03 0.000000000000000D+00 0.000000000000000D+00 -.158913101283764D+03
 0.573599801344862D+02 -.434781487833319D+01 -.234684921448985D+02 0.148490303810462D+02
 0.368582255260663D+02 0.349564493972218D+02 -.102817788783361D+02 0.555521894859571D+01
 0.920263782865784D+02 0.178415769938954D+00 0.160354904931488D+02 -.906183508622928D+02
 0.409632677581037D+02 -.307870502888276D+02 0.177147805300858D+02 -.204042493296419D+02
-.257591838977D-08 0.000000000000D+00 0.000000000000D+00 0.143572151584D-06 0.000000000000D+00  6 22 21 9900012 13 4 -3 2 0.16988331D-01 0.15120620D-01 0.51407536D+04 0.51407536D+04 0.51407536D+04 0.12404902D+01  1  2 13  3  5  2       -4 -.332231531132D-05 0.100000000000D+01
0.414750107879D-08 0.000000000000D+00 0.000000000000D+00 0.143572151584D-06 0.986031881850D-09  6 22 21 9900012 13 4 -3 2 0.17287352D-01 0.14859078D-01 0.51407536D+04 0.51407536D+04 0.51407536D+04 0.12404902D+01  1  2  1  3  5  2       -4 0.537257313301D-05 0.100000000000D+01
  </mgrwgt>
  </event>
  <event>
  7     66 0.15282408E-05 0.20866847E+02 0.78161638E-02 0.12891550E+00
       22 -1    0    0    0    0 0.00000000E+00 0.00000000E+00 0.19005801E+04 0.19005801E+04 0.00000000E+00 0.0000E+00 0.9000E+01
       -2 -1    0    0    0  502 0.00000000E+00 0.00000000E+00 -.32233624E+01 0.32233624E+01 0.00000000E+00 0.0000E+00 0.9000E+01
      -24  2    1    2    0    0 0.10617421E+02 -.19179276E+02 0.11609563E+04 0.11640275E+04 0.81607288E+02 0.0000E+00 0.0000E+00
  9900012  1    3    3    0    0 0.25583931E+01 0.10876622E+02 0.58845628E+03 0.59068235E+03 0.50000000E+02 0.0000E+00 0.9000E+01
       13  1    3    3    0    0 0.80590281E+01 -.30055898E+02 0.57250007E+03 0.57334512E+03 0.00000000E+00 0.0000E+00 0.9000E+01
       -1  1    1    2    0  501 -.41868411E+00 0.57020371E+00 0.67137956E+03 0.67137993E+03 0.00000000E+00 0.0000E+00 0.9000E+01
       21  1    1    2  501  502 -.10198737E+02 0.18609072E+02 0.65020824E+02 0.68396048E+02 0.00000000E+00 0.0000E+00 0.9000E+01
#aMCatNLO 2  0  0  2  5 0.28892168D+03 0.00000000D+00  -5  6  0 0.00000000D+00 0.00000000D+00 0.00000000D+00 0.00000000D+00 0.00000000D+00
  <mgrwgt>
 0.1779231584D-03    1    2    0
 0.519979941556157D+02 0.000000000000000D+00 0.000000000000000D+00 0.519979941556157D+02
 0.519979941556157D+02 0.000000000000000D+00 0.000000000000000D+00 -.519979941556157D+02
 0.583628540990785D+02 -.296898627962487D+01 0.209621259548437D+02 -.214008676112674D+02
 0.256544015424244D+02 0.530059300507561D+01 -.250227338700691D+02 0.197859090319010D+01
 0.199787326697285D+02 -.233160672545073D+01 0.406060791522536D+01 0.194222767080773D+02
 0.000000000000000D+00 -.000000000000000D+00 0.000000000000000D+00 -.000000000000000D+00
 0.549999180222473D+02 0.000000000000000D+00 0.000000000000000D+00 0.549999180222473D+02
 0.111386683443362D+03 0.000000000000000D+00 0.000000000000000D+00 -.111386683443362D+03
 0.555233592163651D+02 0.255839314567453D+01 0.108766221165711D+02 -.214008676112674D+02
 0.311804387089310D+02 0.805902809129092D+01 -.300558979626794D+02 0.197859090319010D+01
 0.194351552906871D+02 -.418684106976818D+00 0.570203706201466D+00 0.194222767080773D+02
 0.602476482496266D+02 -.101987371299886D+02 0.186090721399068D+02 -.563867654211152D+02
0.344216294174D-05 0.000000000000D+00 0.000000000000D+00 0.218571759915D-06 0.265532840053D-06  6 22 -2 9900012 13 -1 21 2 0.29239694D+00 0.49590191D-03 0.27185177D+04 0.27185177D+04 0.27185177D+04 0.12727922D+01  1  2  1  1  6  2       -2 0.177923158407D-03 0.100000000000D+01
  </mgrwgt>
  </event>
  <event>
  7     66 0.15282408E-05 0.18574986E+02 0.78161638E-02 0.12983035E+00
       22 -1    0    0    0    0 0.00000000E+00 0.00000000E+00 0.43969640E+02 0.43969640E+02 0.00000000E+00 0.0000E+00 0.9000E+01
       -4 -1    0    0    0  502 0.00000000E+00 0.00000000E+00 -.14005033E+03 0.14005033E+03 0.00000000E+00 0.0000E+00 0.9000E+01
      -24  2    1    2    0    0 0.33482239E+01 0.18476476E+02 -.48272648E+02 0.95757910E+02 0.80540289E+02 0.0000E+00 0.0000E+00
  9900012  1    3    3    0    0 -.14468747E+02 -.42901289E+01 -.39701340E+02 0.65604468E+02 0.50000000E+02 0.0000E+00 0.9000E+01
       13  1    3    3    0    0 0.17816971E+02 0.22766605E+02 -.85713073E+01 0.30153442E+02 0.00000000E+00 0.0000E+00 0.9000E+01
       -3  1    1    2    0  501 -.10621219E+00 -.10923896E+00 0.18948436E+02 0.18949048E+02 0.00000000E+00 0.0000E+00 0.9000E+01
       21  1    1    2  501  502 -.32420117E+01 -.18367237E+02 -.66756476E+02 0.69313009E+02 0.00000000E+00 0.0000E+00 0.9000E+01
#aMCatNLO 2  0  0  2  5 0.28805137D+02 0.00000000D+00  -5  6  0 0.00000000D+00 0.00000000D+00 0.00000000D+00 0.00000000D+00 0.00000000D+00
  <mgrwgt>
 0.1916208488D-02    1    2    0
 0.546578242189892D+02 0.000000000000000D+00 0.000000000000000D+00 0.546578242189892D+02
 0.546578242189892D+02 0.000000000000000D+00 0.000000000000000D+00 -.546578242189892D+02
 0.593399417937512D+02 -.161868545685187D+02 -.140238648605251D+02 -.237180447262655D+02
 0.249876425127889D+02 0.170232776482703D+02 0.182700280235789D+02 -.892397038588232D+00
 0.249880641314383D+02 -.836423079751540D+00 -.424616316305381D+01 0.246104417648537D+02
 0.000000000000000D+00 -.000000000000000D+00 -.000000000000000D+00 -.000000000000000D+00
 0.571078868897036D+02 0.000000000000000D+00 0.000000000000000D+00 0.571078868897036D+02
 0.107830333055014D+03 0.000000000000000D+00 0.000000000000000D+00 -.107830333055014D+03
 0.573610974104437D+02 -.144687471768858D+02 -.429012885874472D+01 -.237180447262655D+02
 0.289233318866621D+02 0.178169710398412D+02 0.227666048834028D+02 -.892397038588232D+00
 0.246109133930726D+02 -.106212188028518D+00 -.109238963629272D+00 0.246104417648537D+02
 0.540428772545398D+02 -.324201167492691D+01 -.183672370610289D+02 -.507224461653108D+02
0.176364731402D-04 0.000000000000D+00 0.000000000000D+00 0.763403458380D-06 0.207888736230D-04  6 22 -4 9900012 13 -3 21 2 0.67645600D-02 0.21546204D-01 0.24970486D+04 0.24970486D+04 0.24970486D+04 0.12773004D+01  1  2  1  1  6  2       -4 0.191620848814D-02 0.100000000000D+01
  </mgrwgt>
  </event>
</LesHouchesEvents>
