<LesHouchesEvents version="3.0">
  <!--
  <scalesfunctionalform>
    muR  H_T/2 := sum_i mT(i)/2, i=final state
    muF1 H_T/2 := sum_i mT(i)/2, i=final state
    muF2 H_T/2 := sum_i mT(i)/2, i=final state
    QES  H_T/2 := sum_i mT(i)/2, i=final state
  </scalesfunctionalform>
PYTHIA8   
  -->
  <header>
       61
  </header>
  <init>
   2212   2212 0.65000000D+04 0.65000000D+04 -1 -1  82200  82200 -4   1
 0.81614653D-04 0.17337442D-05 0.16695846D-05     66
  </init>
  <event>
  6     66 0.16695846E-05 0.20794809E+02 0.78161638E-02 0.12668151E+00
       22 -1    0    0    0    0 0.00000000E+00 0.00000000E+00 0.54089148E+01 0.54089148E+01 0.00000000E+00 0.0000E+00 0.9000E+01
       -3 -1    0    0    0  501 0.00000000E+00 0.00000000E+00 -.43245343E+03 0.43245343E+03 0.00000000E+00 0.0000E+00 0.9000E+01
       24  2    1    2    0    0 0.13036592E+02 -.16200968E+02 -.35818740E+03 0.36593372E+03 0.71950351E+02 0.0000E+00 0.0000E+00
  9900012  1    3    3    0    0 0.27516682E+02 -.14872989E+02 -.31150845E+03 0.31704241E+03 0.50000000E+02 0.0000E+00 0.9000E+01
      -13  1    3    3    0    0 -.14480090E+02 -.13279792E+01 -.46678950E+02 0.48891317E+02 0.00000000E+00 0.0000E+00 0.9000E+01
       -4  1    1    2    0  501 -.13036592E+02 0.16200968E+02 -.68857114E+02 0.71928619E+02 0.00000000E+00 0.0000E+00 0.9000E+01
#aMCatNLO 1  0  0  2  5 0.24866965D+02 0.00000000D+00  -5  6  0 0.00000000D+00 0.00000000D+00 0.00000000D+00 0.00000000D+00 0.00000000D+00
  <mgrwgt>
 0.1240881790D-03    7    4    0
 0.483642816191657D+02 0.000000000000000D+00 0.000000000000000D+00 0.483642816191657D+02
 0.483642816191657D+02 0.000000000000000D+00 0.000000000000000D+00 -.483642816191657D+02
 0.598887918828778D+02 0.275166815043624D+02 -.148729891009355D+02 -.104064320197456D+02
 0.152351813424343D+02 -.144800895884538D+02 -.132797915183232D+01 0.454689206156314D+01
 0.216045900130194D+02 -.130365919159085D+02 0.162009682527678D+02 0.585953995818250D+01
 0.000000000000000D+00 -.000000000000000D+00 -.000000000000000D+00 -.000000000000000D+00
 0.565333600308950D+02 0.000000000000000D+00 0.000000000000000D+00 0.565333600308950D+02
 0.629267487005513D+02 0.000000000000000D+00 0.000000000000000D+00 -.629267487005513D+02
 0.636767500111886D+02 0.373456009583711D+02 -.719310459147746D+01 -.104064320197456D+02
 0.130547736570531D+02 -.122297883735255D+02 0.430307048701550D+00 0.454689206156314D+01
 0.219886991578689D+02 -.956899956428588D+01 0.189103921025563D+02 0.585953995818250D+01
 0.207398859053357D+02 -.155468130205596D+02 -.121475945597804D+02 -.639338866965638D+01
 0.483642816191657D+02 0.000000000000000D+00 0.000000000000000D+00 0.483642816191657D+02
 0.483642816191657D+02 0.000000000000000D+00 0.000000000000000D+00 -.483642816191657D+02
 0.598887918828778D+02 0.275166815043624D+02 -.148729891009355D+02 -.104064320197456D+02
 0.152351813424343D+02 -.144800895884538D+02 -.132797915183232D+01 0.454689206156314D+01
 0.000000000000000D+00 -.000000000000000D+00 -.000000000000000D+00 -.000000000000000D+00
 0.216045900130194D+02 -.130365919159085D+02 0.162009682527678D+02 0.585953995818250D+01
 0.565333600308950D+02 0.000000000000000D+00 0.000000000000000D+00 0.565333600308950D+02
 0.629267487005513D+02 0.000000000000000D+00 0.000000000000000D+00 -.629267487005513D+02
 0.636767500111886D+02 0.373456009583711D+02 -.719310459147746D+01 -.104064320197456D+02
 0.130547736570531D+02 -.122297883735255D+02 0.430307048701550D+00 0.454689206156314D+01
 0.207398859053357D+02 -.155468130205596D+02 -.121475945597804D+02 -.639338866965638D+01
 0.219886991578689D+02 -.956899956428588D+01 0.189103921025563D+02 0.585953995818250D+01
0.536952316185D-06 0.000000000000D+00 0.000000000000D+00 0.169905421319D-08 0.000000000000D+00  6 22 -3 9900012 -13 -4 21 0 0.83214073D-03 0.66531297D-01 0.22237546D+04 0.22237546D+04 0.22237546D+04 0.12835284D+01  1  2  2  1  6  2       -3 0.921797418083D-04 0.100000000000D+01
-.840053475377D-08 0.000000000000D+00 -.103101913847D-08 0.169905421319D-08 0.000000000000D+00  6 22 -3 9900012 -13 -4 21 2 0.83214073D-03 0.66531297D-01 0.22237546D+04 0.22237546D+04 0.22237546D+04 0.12835284D+01  1  2  3  1  6  2       -3 -.237584270256D-05 0.100000000000D+01
0.106909096444D-07 0.000000000000D+00 0.000000000000D+00 0.169905421319D-08 0.000000000000D+00  6 22 -3 9900012 -13 -4 21 2 0.83214073D-03 0.66531297D-01 0.22237546D+04 0.22237546D+04 0.22237546D+04 0.12835284D+01  1  2 15  1  6  2       -3 0.302360747343D-05 0.100000000000D+01
-.934016513695D-07 0.000000000000D+00 0.000000000000D+00 0.169905421319D-08 0.000000000000D+00  6 22 -3 9900012 -13 -4 21 2 0.83214073D-03 0.66531297D-01 0.22237546D+04 0.22237546D+04 0.22237546D+04 0.12835284D+01  1  2  4  1  6  2       -3 -.264158935494D-04 0.100000000000D+01
-.443142093784D-06 0.000000000000D+00 -.183737401285D-06 0.169905421319D-08 0.000000000000D+00  6 22 -3 9900012 -13 -4 21 2 0.83214073D-03 0.98142717D-01 0.22237546D+04 0.22237546D+04 0.22237546D+04 0.12835284D+01  1  2  5  1  6  2       -3 -.520698242686D-04 0.100000000000D+01
0.490125897621D-06 0.000000000000D+00 0.170677211357D-06 0.169905421319D-08 0.000000000000D+00  6 22 -3 9900012 -13 -4 21 2 0.83214073D-03 0.66531297D-01 0.22237546D+04 0.22237546D+04 0.22237546D+04 0.12835284D+01  1  2  6  1  6  2       -3 0.138617608442D-03 0.100000000000D+01
-.146262374700D-07 0.000000000000D+00 -.856513238268D-08 0.169905421319D-08 0.000000000000D+00  6 22 21 9900012 -13 3 -4 2 0.83214073D-03 0.98142717D-01 0.22237546D+04 0.22237546D+04 0.22237546D+04 0.12835284D+01  3  4  5  3  5  2       -3 -.288712181682D-04 0.100000000000D+01
  </mgrwgt>
  </event>
  <event>
  6     66 0.16695846E-05 0.15053113E+02 0.78161638E-02 0.13011331E+00
       22 -1    0    0    0    0 0.00000000E+00 0.00000000E+00 0.86257857E+02 0.86257857E+02 0.00000000E+00 0.0000E+00 0.9000E+01
       -3 -1    0    0    0  501 0.00000000E+00 0.00000000E+00 -.36028324E+02 0.36028324E+02 0.00000000E+00 0.0000E+00 0.9000E+01
       24  2    1    2    0    0 0.14908144E+02 -.20840922E+01 0.15146372E+02 0.84109954E+02 0.81354014E+02 0.0000E+00 0.0000E+00
  9900012  1    3    3    0    0 0.26329650E+02 0.17609693E+02 0.16047656E+02 0.61326006E+02 0.50000000E+02 0.0000E+00 0.9000E+01
      -13  1    3    3    0    0 -.11421506E+02 -.19693785E+02 -.90128352E+00 0.22783948E+02 0.00000000E+00 0.0000E+00 0.9000E+01
       -4  1    1    2    0  501 -.14908144E+02 0.20840922E+01 0.35083160E+02 0.38176227E+02 0.00000000E+00 0.0000E+00 0.9000E+01
#aMCatNLO 1  0  0  5  2 0.54374217D+01 0.00000000D+00  -5  6  0 0.00000000D+00 0.00000000D+00 0.00000000D+00 0.00000000D+00 0.00000000D+00
  <mgrwgt>
 0.6882477701D-04    8    2    0
 0.557469823707101D+02 0.000000000000000D+00 0.000000000000000D+00 0.557469823707101D+02
 0.557469823707101D+02 -.000000000000000D+00 -.000000000000000D+00 -.557469823707101D+02
 0.600324586961418D+02 0.263296499709618D+02 0.176096931447757D+02 -.100271799055085D+02
 0.253953929488690D+02 -.114215059017576D+02 -.196937852981203D+02 -.112529998931450D+02
 0.260661130964094D+02 -.149081440692042D+02 0.208409215334462D+01 0.212801797986536D+02
 0.000000000000000D+00 -.000000000000000D+00 0.000000000000000D+00 0.000000000000000D+00
 0.557469823707101D+02 0.000000000000000D+00 0.000000000000000D+00 0.557469823707101D+02
 0.557469823707101D+02 -.000000000000000D+00 -.000000000000000D+00 -.557469823707101D+02
 0.594594849681508D+02 0.253983290423978D+02 0.177398876633191D+02 -.869779398610151D+01
 0.252895422132769D+02 -.118165445916632D+02 -.196385606484203D+02 -.106891138514223D+02
 0.711851038895025D+01 0.152288349777068D+01 0.904666774209714D+00 0.689460615535444D+01
 0.196264271710422D+02 -.151046679485052D+02 0.994006210891429D+00 0.124923016821693D+02
0.727987159456D-07 0.000000000000D+00 0.000000000000D+00 0.122309523704D-06 0.000000000000D+00  6 22 -3 9900012 -13 -4 21 0 0.13270439D-01 0.55428191D-02 0.23526548D+04 0.23526548D+04 0.23526548D+04 0.12804892D+01  1  2  2  2  6  5       -4 0.225263594325D-04 0.100000000000D+01
-.277896833913D-08 0.000000000000D+00 -.139783118787D-09 0.122309523704D-06 0.000000000000D+00  6 22 -3 9900012 -13 -4 21 2 0.13270439D-01 0.55428191D-02 0.23526548D+04 0.23526548D+04 0.23526548D+04 0.12804892D+01  1  2  3  2  6  5       -4 -.140994679936D-05 0.100000000000D+01
0.591711772175D-08 0.000000000000D+00 0.000000000000D+00 0.122309523704D-06 0.000000000000D+00  6 22 -3 9900012 -13 -4 21 2 0.13270439D-01 0.55428191D-02 0.23526548D+04 0.23526548D+04 0.23526548D+04 0.12804892D+01  1  2 15  2  6  5       -4 0.300212891084D-05 0.100000000000D+01
0.107418448752D-07 0.000000000000D+00 0.000000000000D+00 0.122309523704D-06 0.000000000000D+00  6 22 -3 9900012 -13 -4 21 2 0.13270439D-01 0.55428191D-02 0.24328597D+04 0.24328597D+04 0.24328597D+04 0.12786916D+01  1  2 12  2  6  5       -4 0.545973290704D-05 0.100000000000D+01
-.593505703996D-07 0.000000000000D+00 0.000000000000D+00 0.122309523704D-06 0.000000000000D+00  6 22 -3 9900012 -13 -4 21 2 0.13270439D-01 0.55428191D-02 0.23526548D+04 0.23526548D+04 0.23526548D+04 0.12804892D+01  1  2  4  2  6  5       -4 -.301123066415D-04 0.100000000000D+01
-.166494905356D-07 0.000000000000D+00 0.000000000000D+00 0.122309523704D-06 0.000000000000D+00  6 22 -3 9900012 -13 -4 21 2 0.13270439D-01 0.55428191D-02 0.23526548D+04 0.23526548D+04 0.23526548D+04 0.12804892D+01  1  2  5  2  6  5       -4 -.844734197259D-05 0.100000000000D+01
0.329676628126D-07 0.000000000000D+00 -.000000000000D+00 0.122309523704D-06 0.000000000000D+00  6 22 -3 9900012 -13 -4 21 2 0.13270439D-01 0.55428191D-02 0.23526548D+04 0.23526548D+04 0.23526548D+04 0.12804892D+01  1  2  6  2  6  5       -4 0.167265851901D-04 0.100000000000D+01
0.120172036612D-06 0.000000000000D+00 0.000000000000D+00 0.122309523704D-06 0.775397701488D-07  6 22 -3 9900012 -13 -4 21 2 0.13270439D-01 0.55428191D-02 0.24328597D+04 0.24328597D+04 0.24328597D+04 0.12786916D+01  1  2 11  2  6  5       -4 0.610795659795D-04 0.100000000000D+01
  </mgrwgt>
  </event>
  <event>
  7     66 -.16695846E-05 0.21948234E+02 0.78161638E-02 0.12827276E+00
       22 -1    0    0    0    0 0.00000000E+00 0.00000000E+00 0.19736325E+03 0.19736325E+03 0.00000000E+00 0.0000E+00 0.9000E+01
       -3 -1    0    0    0  501 0.00000000E+00 0.00000000E+00 -.34177764E+02 0.34177764E+02 0.00000000E+00 0.0000E+00 0.9000E+01
       24  2    1    2    0    0 -.20214998E+02 -.13236935E+02 0.22101369E+02 0.87770763E+02 0.81433247E+02 0.0000E+00 0.0000E+00
  9900012  1    3    3    0    0 -.11151497E+02 0.12336835E+02 0.28482262E+02 0.59898186E+02 0.50000000E+02 0.0000E+00 0.9000E+01
      -13  1    3    3    0    0 -.90635010E+01 -.25573770E+02 -.63808932E+01 0.27872577E+02 0.00000000E+00 0.0000E+00 0.9000E+01
       -4  1    1    2    0  502 0.21759580E+02 0.97626747E+01 0.12298168E+03 0.12527283E+03 0.00000000E+00 0.0000E+00 0.9000E+01
       21  1    1    2  502  501 -.15445822E+01 0.34742602E+01 0.18102438E+02 0.18497418E+02 0.00000000E+00 0.0000E+00 0.9000E+01
#aMCatNLO 2  0  0  5  2 0.45199348D+01 0.00000000D+00  -5  6  0 0.00000000D+00 0.00000000D+00 0.00000000D+00 0.00000000D+00 0.00000000D+00
  <mgrwgt>
 -.2540947835D-05    3    2    0
 0.821305944777328D+02 0.000000000000000D+00 0.000000000000000D+00 0.821305944777328D+02
 0.821305944777328D+02 -.000000000000000D+00 -.000000000000000D+00 -.821305944777328D+02
 0.563071126012206D+02 -.113186341642596D+02 0.122273923550892D+02 -.198209567462546D+02
 0.460089369283683D+02 -.919971129155637D+01 -.256629615127282D+02 -.370621099753753D+02
 0.619451394258766D+02 0.205183454558159D+02 0.134355691576389D+02 0.568830667216299D+02
 0.000000000000000D+00 0.000000000000000D+00 0.000000000000000D+00 0.000000000000000D+00
 0.821305944777328D+02 0.000000000000000D+00 0.000000000000000D+00 0.821305944777328D+02
 0.821305944777328D+02 -.000000000000000D+00 -.000000000000000D+00 -.821305944777328D+02
 0.561361750173347D+02 -.111514970823068D+02 0.123368349915932D+02 -.193576021446444D+02
 0.456280269417794D+02 -.906350098443490D+01 -.255737699643524D+02 -.366844937584708D+02
 0.544070919184570D+02 0.217595802990134D+02 0.976267474566167D+01 0.489013547669657D+02
 0.808989507789435D+01 -.154458223227171D+01 0.347426022709752D+01 0.714074113614953D+01
-.185163782016D-06 0.000000000000D+00 0.000000000000D+00 0.336550550429D-06 0.000000000000D+00  6 22 -3 9900012 -13 -4 21 2 0.30363577D-01 0.52581175D-02 0.28878157D+04 0.28878157D+04 0.28878157D+04 0.12696153D+01  1  2 13  2  6  5       -4 -.303034691860D-04 0.100000000000D+01
-.488371926291D-10 0.000000000000D+00 0.000000000000D+00 0.336550550429D-06 0.000000000000D+00  6 22 -3 9900012 -13 -4 21 2 0.30363577D-01 0.52581175D-02 0.27295967D+04 0.27295967D+04 0.27295967D+04 0.12725776D+01  1  2  8  2  6  5       -4 -.797384734607D-08 0.100000000000D+01
0.169686509750D-06 0.000000000000D+00 0.000000000000D+00 0.336550550429D-06 0.100325308355D-06  6 22 -3 9900012 -13 -4 21 2 0.30363577D-01 0.52581175D-02 0.28878157D+04 0.28878157D+04 0.28878157D+04 0.12696153D+01  1  2  1  2  6  5       -4 0.277704951987D-04 0.100000000000D+01
  </mgrwgt>
  </event>
  <event>
  6     66 0.16695846E-05 0.29578678E+02 0.78161638E-02 0.10281290E+00
       22 -1    0    0    0    0 0.00000000E+00 0.00000000E+00 0.15207900E+03 0.15207900E+03 0.00000000E+00 0.0000E+00 0.9000E+01
       -3 -1    0    0    0  501 0.00000000E+00 0.00000000E+00 -.28417875E+02 0.28417875E+02 0.00000000E+00 0.0000E+00 0.9000E+01
       24  2    1    2    0    0 0.10102874E+02 -.27799823E+02 0.46476580E+02 0.97838830E+02 0.80854598E+02 0.0000E+00 0.0000E+00
  9900012  1    3    3    0    0 0.30193927E+02 -.30212569E+02 0.37502268E+02 0.75702660E+02 0.50000000E+02 0.0000E+00 0.9000E+01
      -13  1    3    3    0    0 -.20091054E+02 0.24127459E+01 0.89743114E+01 0.22136171E+02 0.00000000E+00 0.0000E+00 0.9000E+01
       -4  1    1    2    0  501 -.10102874E+02 0.27799823E+02 0.77184542E+02 0.82658041E+02 0.00000000E+00 0.0000E+00 0.9000E+01
#aMCatNLO 1  0  0  2  5 0.11731188D+02 0.00000000D+00  -5  6  0 0.00000000D+00 0.00000000D+00 0.00000000D+00 0.00000000D+00 0.00000000D+00
  <mgrwgt>
 0.3056357421D-04    3    2    0
 0.657401086177778D+02 0.000000000000000D+00 0.000000000000000D+00 0.657401086177778D+02
 0.657401086177778D+02 0.000000000000000D+00 0.000000000000000D+00 -.657401086177778D+02
 0.686530708227614D+02 0.301939273172394D+02 -.302125688822190D+02 -.197172910942030D+02
 0.219480632355471D+02 -.200910537534872D+02 0.241274589449897D+01 -.849974682650271D+01
 0.408790831772469D+02 -.101028735637523D+02 0.277998229877200D+02 0.282170379207057D+02
 0.000000000000000D+00 -.000000000000000D+00 -.000000000000000D+00 0.000000000000000D+00
 0.334387154450104D+03 0.000000000000000D+00 0.000000000000000D+00 0.334387154450104D+03
 0.196752836439084D+03 0.000000000000000D+00 0.000000000000000D+00 -.196752836439084D+03
 0.126120054470213D+03 0.963715196038863D+02 0.610739451870745D+02 -.197172910942030D+02
 0.269395420154137D+02 -.348063071230943D+01 0.253254503954051D+02 -.849974682650271D+01
 0.110951339202163D+03 0.414841807273377D+02 0.989598968831132D+02 0.282170379207057D+02
 0.267129055201398D+03 -.134375069618915D+03 -.185359292465593D+03 0.137634318011020D+03
0.150204947953D-06 0.000000000000D+00 0.000000000000D+00 0.760612382547D-07 0.000000000000D+00  6 22 -3 9900012 -13 -4 21 0 0.23396769D-01 0.43719807D-02 0.33393842D+04 0.33393842D+04 0.33393842D+04 0.12620766D+01  1  2  2  1  6  2       -3 0.303599051588D-04 0.100000000000D+01
-.795171063842D-08 0.000000000000D+00 -.288413275005D-09 0.760612382547D-07 0.000000000000D+00  6 22 -3 9900012 -13 -4 21 2 0.23396769D-01 0.43719807D-02 0.33393842D+04 0.33393842D+04 0.33393842D+04 0.12620766D+01  1  2  3  1  6  2       -3 -.256004849651D-05 0.100000000000D+01
0.858432261154D-08 0.000000000000D+00 0.000000000000D+00 0.760612382547D-07 0.000000000000D+00  6 22 -3 9900012 -13 -4 21 2 0.23396769D-01 0.43719807D-02 0.33393842D+04 0.33393842D+04 0.33393842D+04 0.12620766D+01  1  2 15  1  6  2       -3 0.276371754387D-05 0.100000000000D+01
  </mgrwgt>
  </event>
  <event>
  7     66 0.16695846E-05 0.22477702E+02 0.78161638E-02 0.13295617E+00
       22 -1    0    0    0    0 0.00000000E+00 0.00000000E+00 0.23215865E+03 0.23215865E+03 0.00000000E+00 0.0000E+00 0.9000E+01
       -3 -1    0    0    0  502 0.00000000E+00 0.00000000E+00 -.32750898E+02 0.32750898E+02 0.00000000E+00 0.0000E+00 0.9000E+01
       24  2    1    2    0    0 -.13350232E+02 -.18132174E+02 0.91709568E+02 0.12358318E+03 0.79719209E+02 0.0000E+00 0.0000E+00
  9900012  1    3    3    0    0 -.11685970E+02 -.25055594E+02 0.98418109E+02 0.11380013E+03 0.50000000E+02 0.0000E+00 0.9000E+01
      -13  1    3    3    0    0 -.16642625E+01 0.69234204E+01 -.67085416E+01 0.97830491E+01 0.00000000E+00 0.0000E+00 0.9000E+01
       -4  1    1    2    0  501 -.44997738E-01 0.43064357E-01 0.11697918E+03 0.11697920E+03 0.00000000E+00 0.0000E+00 0.9000E+01
       21  1    1    2  501  502 0.13395230E+02 0.18089110E+02 -.92809949E+01 0.24347175E+02 0.00000000E+00 0.0000E+00 0.9000E+01
#aMCatNLO 2  0  0  2  2 0.23209261D+02 0.00000000D+00  -5  6  0 0.00000000D+00 0.00000000D+00 0.00000000D+00 0.00000000D+00 0.00000000D+00
  <mgrwgt>
 0.1215335517D+00    1    2    0
 0.587635384739065D+02 0.000000000000000D+00 0.000000000000000D+00 0.587635384739065D+02
 0.587635384739065D+02 0.000000000000000D+00 0.000000000000000D+00 -.587635384739065D+02
 0.529878489915418D+02 -.546666883095176D+01 -.166569616807579D+02 -.610982985770061D+00
 0.328126599571184D+02 0.196024046634579D+01 0.118180008921585D+02 -.305477162106846D+02
 0.317265679991527D+02 0.350642836460597D+01 0.483896078859948D+01 0.311586991964547D+02
 0.000000000000000D+00 0.000000000000000D+00 0.000000000000000D+00 -.000000000000000D+00
 0.618380829162466D+02 0.000000000000000D+00 0.000000000000000D+00 0.618380829162466D+02
 0.122956661383322D+03 0.000000000000000D+00 0.000000000000000D+00 -.122956661383322D+03
 0.571377107970534D+02 -.116859697551123D+02 -.250555943015010D+02 -.610982985770061D+00
 0.313666460718994D+02 -.166426249249945D+01 0.692342043121279D+01 -.305477162106846D+02
 0.311587614476304D+02 -.449977375205957D-01 0.430643566375846D-01 0.311586991964547D+02
 0.651316259829851D+02 0.133952299851323D+02 0.180891095136507D+02 -.611185784670752D+02
0.912851532232D-03 0.000000000000D+00 0.000000000000D+00 0.458452008620D-05 0.926237161455D-03  6 22 -3 9900012 -13 -4 21 2 0.35716716D-01 0.50385996D-02 0.18846978D+04 0.18846978D+04 0.18846978D+04 0.12925852D+01  1  2  1  1  6  2       -3 0.121533551668D+00 0.100000000000D+01
  </mgrwgt>
  </event>
  <event>
  7     66 0.16695846E-05 0.39818635E+02 0.78161638E-02 0.12342203E+00
       22 -1    0    0    0    0 0.00000000E+00 0.00000000E+00 0.78255961E+02 0.78255961E+02 0.00000000E+00 0.0000E+00 0.9000E+01
       21 -1    0    0  502  501 0.00000000E+00 0.00000000E+00 -.16209029E+03 0.16209029E+03 0.00000000E+00 0.0000E+00 0.9000E+01
       24  2    1    2    0    0 0.26966822E+02 0.42371006E+02 -.53840589E+01 0.95736923E+02 0.81326862E+02 0.0000E+00 0.0000E+00
  9900012  1    3    3    0    0 0.42119583E+01 0.36736265E+02 0.15775690E+02 0.64157355E+02 0.50000000E+02 0.0000E+00 0.9000E+01
      -13  1    3    3    0    0 0.22754864E+02 0.56347413E+01 -.21159749E+02 0.31579568E+02 0.00000000E+00 0.0000E+00 0.9000E+01
        1  1    1    2  502    0 -.27120516E+02 -.42612833E+02 -.10580996E+03 0.11724813E+03 0.00000000E+00 0.0000E+00 0.9000E+01
       -2  1    1    2    0  501 0.15369363E+00 0.24182653E+00 0.27359695E+02 0.27361195E+02 0.00000000E+00 0.0000E+00 0.9000E+01
#aMCatNLO 2  0  0  2  2 0.53125939D+02 0.00000000D+00  -5  6  0 0.00000000D+00 0.00000000D+00 0.00000000D+00 0.00000000D+00 0.00000000D+00
  <mgrwgt>
 0.9053777668D-02    1    2    0
 0.550428062635746D+02 0.000000000000000D+00 0.000000000000000D+00 0.550428062635746D+02
 0.550428062635746D+02 0.000000000000000D+00 0.000000000000000D+00 -.550428062635746D+02
 0.533339628264211D+02 -.935690299564643D+01 0.154163307745824D+02 0.439280121890292D+01
 0.317493655752884D+02 0.148155670444303D+02 -.683979785831269D+01 -.272348738356307D+02
 0.000000000000000D+00 -.000000000000000D+00 -.000000000000000D+00 -.000000000000000D+00
 0.250022841254396D+02 -.545866404878387D+01 -.857653291626972D+01 0.228420726167278D+02
 0.653351456899201D+02 0.000000000000000D+00 0.000000000000000D+00 0.653351456899201D+02
 0.194145599528297D+03 0.000000000000000D+00 0.000000000000000D+00 -.194145599528297D+03
 0.623425253033232D+02 0.421195833494568D+01 0.367362649929383D+02 0.439280121890292D+01
 0.359342803466970D+02 0.227548641368026D+02 0.563474128136726D+01 -.272348738356307D+02
 0.138360069860265D+03 -.271205161031096D+02 -.426128328087886D+02 -.128810453838377D+03
 0.228438697079319D+02 0.153693631361326D+00 0.241826534482994D+00 0.228420726167278D+02
0.102995391631D-04 0.000000000000D+00 0.000000000000D+00 0.474546913580D-06 0.465381515010D-06  6 22 21 9900012 -13 1 -2 2 0.12039379D-01 0.24936967D-01 0.46531085D+04 0.46531085D+04 0.46531085D+04 0.12453782D+01  1  2  1  3  5  2       -1 0.905377766776D-02 0.100000000000D+01
  </mgrwgt>
  </event>
  <event>
  7     66 0.16695846E-05 0.35240331E+01 0.78161638E-02 0.13484746E+00
       22 -1    0    0    0    0 0.00000000E+00 0.00000000E+00 0.68315963E+02 0.68315963E+02 0.00000000E+00 0.0000E+00 0.9000E+01
       21 -1    0    0  502  501 0.00000000E+00 0.00000000E+00 -.36485405E+02 0.36485405E+02 0.00000000E+00 0.0000E+00 0.9000E+01
       24  2    1    2    0    0 -.80193468E+01 -.64892288E+01 0.34845009E+02 0.88181023E+02 0.80344870E+02 0.0000E+00 0.0000E+00
  9900012  1    3    3    0    0 0.43425513E+01 -.15826222E+02 0.45345311E+02 0.69465994E+02 0.50000000E+02 0.0000E+00 0.9000E+01
      -13  1    3    3    0    0 -.12361898E+02 0.93369931E+01 -.10500302E+02 0.18715029E+02 0.00000000E+00 0.0000E+00 0.9000E+01
        1  1    1    2  502    0 0.24848846E+01 0.58028081E+01 -.72532339E+01 0.96154373E+01 0.00000000E+00 0.0000E+00 0.9000E+01
       -2  1    1    2    0  501 0.55344622E+01 0.68642062E+00 0.42387832E+01 0.70049074E+01 0.00000000E+00 0.0000E+00 0.9000E+01
#aMCatNLO 2  0  0  2  2 0.65442600D+01 0.00000000D+00  -5  6  0 0.00000000D+00 0.00000000D+00 0.00000000D+00 0.00000000D+00 0.00000000D+00
  <mgrwgt>
 0.4870359373D-04    1    2    0
 0.432809752366099D+02 0.000000000000000D+00 0.000000000000000D+00 0.432809752366099D+02
 0.432809752366099D+02 0.000000000000000D+00 0.000000000000000D+00 -.432809752366099D+02
 0.549764961016038D+02 0.592993578641752D+01 -.121192941969933D+02 0.184492193153355D+02
 0.255916364273378D+02 -.116330742184548D+02 0.110389735610300D+02 -.199435328358805D+02
 0.000000000000000D+00 0.000000000000000D+00 0.000000000000000D+00 -.000000000000000D+00
 0.599381794427831D+01 0.570313843203731D+01 0.108032063596330D+01 0.149431352054496D+01
 0.441593685931818D+02 0.000000000000000D+00 0.000000000000000D+00 0.441593685931818D+02
 0.564440939899459D+02 0.000000000000000D+00 0.000000000000000D+00 -.564440939899459D+02
 0.557646908428632D+02 0.434255130578554D+01 -.158262218994737D+02 0.184492193153355D+02
 0.252535238442967D+02 -.123618980694301D+02 0.933699312946311D+01 -.199435328358805D+02
 0.138116513125194D+02 0.248488460927657D+01 0.580280814634597D+01 -.122847253967641D+02
 0.577359658344839D+01 0.553446215436797D+01 0.686420623664590D+00 0.149431352054496D+01
0.392159312584D-08 0.000000000000D+00 0.000000000000D+00 0.767785078539D-06 0.673618454010D-08  6 22 21 9900012 -13 1 -2 2 0.10510148D-01 0.56131392D-02 0.16002213D+04 0.16002213D+04 0.16002213D+04 0.13017462D+01  1  2  1  3  5  2       -1 0.487035937335D-04 0.100000000000D+01
  </mgrwgt>
  </event>
  <event>
  6     66 0.16695846E-05 0.99282149E+01 0.78161638E-02 0.12124980E+00
       22 -1    0    0    0    0 0.00000000E+00 0.00000000E+00 0.35432214E+02 0.35432214E+02 0.00000000E+00 0.0000E+00 0.9000E+01
       -1 -1    0    0    0  501 0.00000000E+00 0.00000000E+00 -.61834444E+02 0.61834444E+02 0.00000000E+00 0.0000E+00 0.9000E+01
       24  2    1    2    0    0 -.49848182E+01 -.85860956E+01 -.31086907E+02 0.86288696E+02 0.79879746E+02 0.0000E+00 0.0000E+00
  9900012  1    3    3    0    0 -.11715145E+02 0.92240562E+01 -.28773451E+01 0.52255210E+02 0.50000000E+02 0.0000E+00 0.9000E+01
      -13  1    3    3    0    0 0.67303271E+01 -.17810152E+02 -.28209562E+02 0.34033486E+02 0.00000000E+00 0.0000E+00 0.9000E+01
       -2  1    1    2    0  501 0.49848182E+01 0.85860956E+01 0.46846768E+01 0.10977962E+02 0.00000000E+00 0.0000E+00 0.9000E+01
#aMCatNLO 1  0  0  2  5 0.44552071D+02 0.00000000D+00  -5  6  0 0.00000000D+00 0.00000000D+00 0.00000000D+00 0.00000000D+00 0.00000000D+00
  <mgrwgt>
 0.2881488448D-04    5    4    0
 0.468073846539910D+02 0.000000000000000D+00 0.000000000000000D+00 0.468073846539910D+02
 0.468073846539910D+02 0.000000000000000D+00 0.000000000000000D+00 -.468073846539910D+02
 0.534821732200135D+02 -.117151452646364D+02 0.922405621587189D+01 0.117479790045112D+02
 0.274051643826783D+02 0.673032706641306D+01 -.178101518464334D+02 -.197115251471750D+02
 0.127274317052901D+02 0.498481819822335D+01 0.858609563056153D+01 0.796354614266383D+01
 0.000000000000000D+00 -.000000000000000D+00 0.000000000000000D+00 -.000000000000000D+00
 0.599733553334075D+02 0.000000000000000D+00 0.000000000000000D+00 0.599733553334075D+02
 0.175667661907016D+03 0.000000000000000D+00 0.000000000000000D+00 -.175667661907016D+03
 0.548561476625699D+02 0.172306884970744D+02 0.861889201719224D+01 0.117479790045112D+02
 0.357078547358628D+02 0.235928642067561D+02 -.181626932124983D+02 -.197115251471750D+02
 0.174503875861466D+02 0.130477282875129D+02 0.841752613750843D+01 0.796354614266383D+01
 0.127626627255844D+03 -.538712809913435D+02 0.112627505779766D+01 -.115694306573609D+03
 0.468073846539910D+02 0.000000000000000D+00 0.000000000000000D+00 0.468073846539910D+02
 0.468073846539910D+02 0.000000000000000D+00 0.000000000000000D+00 -.468073846539910D+02
 0.534821732200135D+02 -.117151452646364D+02 0.922405621587189D+01 0.117479790045112D+02
 0.274051643826783D+02 0.673032706641306D+01 -.178101518464334D+02 -.197115251471750D+02
 0.000000000000000D+00 -.000000000000000D+00 0.000000000000000D+00 -.000000000000000D+00
 0.127274317052901D+02 0.498481819822335D+01 0.858609563056153D+01 0.796354614266383D+01
 0.599733553334075D+02 0.000000000000000D+00 0.000000000000000D+00 0.599733553334075D+02
 0.175667661907016D+03 0.000000000000000D+00 0.000000000000000D+00 -.175667661907016D+03
 0.548561476625699D+02 0.172306884970744D+02 0.861889201719224D+01 0.117479790045112D+02
 0.357078547358628D+02 0.235928642067561D+02 -.181626932124983D+02 -.197115251471750D+02
 0.127626627255844D+03 -.538712809913435D+02 0.112627505779766D+01 -.115694306573609D+03
 0.174503875861466D+02 0.130477282875129D+02 0.841752613750843D+01 0.796354614266383D+01
0.637904640574D-07 0.000000000000D+00 0.000000000000D+00 0.638131600003D-06 0.000000000000D+00  6 22 -1 9900012 -13 -2 21 0 0.54511098D-02 0.95129914D-02 0.16460688D+04 0.16460688D+04 0.16460688D+04 0.13001509D+01  1  2  2  1  6  2       -1 0.343544027088D-04 0.100000000000D+01
0.760988219813D-09 0.000000000000D+00 -.122486089198D-09 0.638131600003D-06 0.000000000000D+00  6 22 -1 9900012 -13 -2 21 2 0.54511098D-02 0.95129914D-02 0.16460688D+04 0.16460688D+04 0.16460688D+04 0.13001509D+01  1  2  3  1  6  2       -1 0.692774837772D-06 0.100000000000D+01
0.177558715793D-08 0.000000000000D+00 0.000000000000D+00 0.638131600003D-06 0.000000000000D+00  6 22 -1 9900012 -13 -2 21 2 0.54511098D-02 0.95129914D-02 0.16460688D+04 0.16460688D+04 0.16460688D+04 0.13001509D+01  1  2 15  1  6  2       -1 0.161642726295D-05 0.100000000000D+01
-.292084014016D-07 0.000000000000D+00 -.214790671163D-07 0.638131600003D-06 0.000000000000D+00  6 22 -1 9900012 -13 -2 21 2 0.54511098D-02 0.44246137D-01 0.16460688D+04 0.16460688D+04 0.16460688D+04 0.13001509D+01  1  2  5  1  6  2       -1 -.258630386203D-05 0.100000000000D+01
-.576225696769D-08 0.000000000000D+00 -.400351943353D-08 0.638131600003D-06 0.000000000000D+00  6 22 21 9900012 -13 1 -2 2 0.54511098D-02 0.44246137D-01 0.16460688D+04 0.16460688D+04 0.16460688D+04 0.13001509D+01  3  4  5  3  5  2       -1 -.526241646656D-05 0.100000000000D+01
  </mgrwgt>
  </event>
  <event>
  6     66 -.16695846E-05 0.10556020E+02 0.78161638E-02 0.13207638E+00
       22 -1    0    0    0    0 0.00000000E+00 0.00000000E+00 0.12113558E+02 0.12113558E+02 0.00000000E+00 0.0000E+00 0.9000E+01
       -1 -1    0    0    0  501 0.00000000E+00 0.00000000E+00 -.18302420E+03 0.18302420E+03 0.00000000E+00 0.0000E+00 0.9000E+01
       24  2    1    2    0    0 -.20948076E+00 -.10553941E+02 -.15470191E+03 0.17579473E+03 0.82823177E+02 0.0000E+00 0.0000E+00
  9900012  1    3    3    0    0 -.13078643E+01 0.16476185E+02 -.12488860E+03 0.13553722E+03 0.50000000E+02 0.0000E+00 0.9000E+01
      -13  1    3    3    0    0 0.10983835E+01 -.27030126E+02 -.29813304E+02 0.40257512E+02 0.00000000E+00 0.0000E+00 0.9000E+01
       -2  1    1    2    0  501 0.20948076E+00 0.10553941E+02 -.16208738E+02 0.19343029E+02 0.00000000E+00 0.0000E+00 0.9000E+01
#aMCatNLO 1  0  0  2  5 0.44552071D+02 0.00000000D+00  -5  6  0 0.00000000D+00 0.00000000D+00 0.00000000D+00 0.00000000D+00 0.00000000D+00
  <mgrwgt>
 -.1414679401D-04    1    2    0
 0.470858189198454D+02 0.000000000000000D+00 0.000000000000000D+00 0.470858189198454D+02
 0.470858189198454D+02 0.000000000000000D+00 0.000000000000000D+00 -.470858189198454D+02
 0.541950673017421D+02 -.130786430583964D+01 0.164761849258624D+02 -.128035206520180D+02
 0.293119011676749D+02 0.109838354430863D+01 -.270301261766771D+02 0.112850955922422D+02
 0.106646693702738D+02 0.209480761531001D+00 0.105539412508148D+02 0.151842505977577D+01
 0.000000000000000D+00 0.000000000000000D+00 -.000000000000000D+00 0.000000000000000D+00
 0.664233753297220D+02 0.000000000000000D+00 0.000000000000000D+00 0.664233753297220D+02
 0.517872220703672D+02 0.000000000000000D+00 0.000000000000000D+00 -.517872220703672D+02
 0.580764008675169D+02 -.258098476808709D+01 0.265005040379381D+02 -.128035206520180D+02
 0.248992895522855D+02 0.483646983775454D+00 -.221898022361083D+02 0.112850955922422D+02
 0.127341115207106D+02 -.558534968492909D-01 0.126431349730448D+02 0.151842505977577D+01
 0.225007954595761D+02 0.215319128116092D+01 -.169538367748746D+02 0.146361532593548D+02
-.184899800629D-07 0.000000000000D+00 0.000000000000D+00 0.124114258303D-07 0.000000000000D+00  6 22 -1 9900012 -13 -2 21 2 0.18636244D-02 0.28157570D-01 0.20371411D+04 0.20371411D+04 0.20371411D+04 0.12883015D+01  1  2 14  1  6  2       -1 -.141467940122D-04 0.100000000000D+01
  </mgrwgt>
  </event>
  <event>
  5     66 -.16695846E-05 0.71015807E+01 0.78161638E-02 0.12271678E+00
       22 -1    0    0    0    0 0.00000000E+00 0.00000000E+00 0.18036781E+03 0.18036781E+03 0.00000000E+00 0.0000E+00 0.9000E+01
       -3 -1    0    0    0  501 0.00000000E+00 0.00000000E+00 -.30385162E+02 0.30385162E+02 0.00000000E+00 0.0000E+00 0.9000E+01
  9900012  1    1    2    0    0 -.19633066E+02 0.46167924E+02 0.85810915E+02 0.11126746E+03 0.50000000E+02 0.0000E+00 0.9000E+01
      -13  1    1    2    0    0 0.15696652E+02 -.52078685E+02 0.25332877E+02 0.60002741E+02 0.00000000E+00 0.0000E+00 0.9000E+01
       -4  1    1    2    0  501 0.39364141E+01 0.59107607E+01 0.38838858E+02 0.39482773E+02 0.00000000E+00 0.0000E+00 0.9000E+01
#aMCatNLO 1  0  0  2  2 0.75163561D+02 0.00000000D+00  -5  6  0 0.00000000D+00 0.00000000D+00 0.00000000D+00 0.00000000D+00 0.00000000D+00
  <mgrwgt>
 -.2209625842D-03    9    4    0
 0.740304340990131D+02 0.000000000000000D+00 0.000000000000000D+00 0.740304340990131D+02
 0.740304340990131D+02 0.000000000000000D+00 0.000000000000000D+00 -.740304340990131D+02
 0.714557449310502D+02 -.196330660427608D+02 0.461679240451894D+02 0.943339762596286D+01
 0.597474825158756D+02 0.156966519808776D+02 -.520786847722123D+02 -.247222041083033D+02
 0.168576407511005D+02 0.393641406188314D+01 0.591076072702287D+01 0.152888064823405D+02
 0.000000000000000D+00 -.000000000000000D+00 -.000000000000000D+00 -.000000000000000D+00
 0.744407312604082D+02 0.000000000000000D+00 0.000000000000000D+00 0.744407312604082D+02
 0.135915768160780D+03 0.000000000000000D+00 0.000000000000000D+00 -.135915768160780D+03
 0.716411121043817D+02 -.159141540438661D+02 0.478560304857305D+02 0.943339762596286D+01
 0.594316982698999D+02 0.187939728768419D+02 -.506727339579812D+02 -.247222041083033D+02
 0.172294706345434D+02 0.482229632489008D+01 0.631288466923705D+01 0.152888064823405D+02
 0.620542184123635D+02 -.770211515786587D+01 -.349618119698636D+01 -.614750369003723D+02
 0.740304340990131D+02 0.000000000000000D+00 0.000000000000000D+00 0.740304340990131D+02
 0.740304340990131D+02 0.000000000000000D+00 0.000000000000000D+00 -.740304340990131D+02
 0.714557449310502D+02 -.196330660427608D+02 0.461679240451894D+02 0.943339762596286D+01
 0.597474825158756D+02 0.156966519808776D+02 -.520786847722123D+02 -.247222041083033D+02
 0.000000000000000D+00 -.000000000000000D+00 -.000000000000000D+00 -.000000000000000D+00
 0.168576407511005D+02 0.393641406188314D+01 0.591076072702287D+01 0.152888064823405D+02
 0.744407312604082D+02 0.000000000000000D+00 0.000000000000000D+00 0.744407312604082D+02
 0.135915768160780D+03 0.000000000000000D+00 0.000000000000000D+00 -.135915768160780D+03
 0.716411121043817D+02 -.159141540438661D+02 0.478560304857305D+02 0.943339762596286D+01
 0.594316982698999D+02 0.187939728768419D+02 -.506727339579812D+02 -.247222041083033D+02
 0.620542184123635D+02 -.770211515786587D+01 -.349618119698636D+01 -.614750369003723D+02
 0.172294706345434D+02 0.482229632489008D+01 0.631288466923705D+01 0.152888064823405D+02
0.755848003717D-07 0.000000000000D+00 0.000000000000D+00 0.162462202119D-08 0.000000000000D+00  6 22 -3 9900012 -13 -4 21 0 0.27748894D-01 0.46746403D-02 0.43774553D+04 0.43774553D+04 0.43774553D+04 0.12484020D+01  1  2  2  1  6  2       -3 0.110539579105D-04 0.100000000000D+01
0.228756120060D-08 0.000000000000D+00 -.145132767681D-09 0.162462202119D-08 0.000000000000D+00  6 22 -3 9900012 -13 -4 21 2 0.27748894D-01 0.46746403D-02 0.43774553D+04 0.43774553D+04 0.43774553D+04 0.12484020D+01  1  2  3  1  6  2       -3 0.521392714506D-06 0.100000000000D+01
0.790494484077D-08 0.000000000000D+00 0.000000000000D+00 0.162462202119D-08 0.000000000000D+00  6 22 -3 9900012 -13 -4 21 2 0.27748894D-01 0.46746403D-02 0.43774553D+04 0.43774553D+04 0.43774553D+04 0.12484020D+01  1  2 15  1  6  2       -3 0.180173568579D-05 0.100000000000D+01
-.102839180216D-05 0.000000000000D+00 0.000000000000D+00 0.162462202119D-08 0.000000000000D+00  6 22 -3 9900012 -13 -4 21 2 0.27748894D-01 0.46746403D-02 0.43774553D+04 0.43774553D+04 0.43774553D+04 0.12484020D+01  1  2  4  1  6  2       -3 -.234396348898D-03 0.100000000000D+01
-.126527497553D-05 0.000000000000D+00 -.215246484353D-07 0.162462202119D-08 0.000000000000D+00  6 22 -3 9900012 -13 -4 21 2 0.27748894D-01 0.86108422D-02 0.43774553D+04 0.43774553D+04 0.43774553D+04 0.12484020D+01  1  2  5  1  6  2       -3 -.113473035397D-03 0.100000000000D+01
0.107500650515D-05 0.000000000000D+00 0.180506893694D-07 0.162462202119D-08 0.000000000000D+00  6 22 -3 9900012 -13 -4 21 2 0.27748894D-01 0.46746403D-02 0.43774553D+04 0.43774553D+04 0.43774553D+04 0.12484020D+01  1  2  6  1  6  2       -3 0.245021011760D-03 0.100000000000D+01
0.125866643140D-08 0.000000000000D+00 0.000000000000D+00 0.162462202119D-08 0.175862737079D-09  6 22 -3 9900012 -13 -4 21 2 0.27902686D-01 0.85823801D-02 0.50031227D+04 0.50031227D+04 0.50031227D+04 0.12418150D+01  1  2 11  1  6  2       -3 0.112953856535D-06 0.100000000000D+01
-.831944517143D-07 0.000000000000D+00 -.143541159279D-08 0.162462202119D-08 0.000000000000D+00  6 22 21 9900012 -13 3 -4 2 0.27748894D-01 0.86108422D-02 0.43774553D+04 0.43774553D+04 0.43774553D+04 0.12484020D+01  3  4  5  3  5  2       -3 -.131742225991D-03 0.100000000000D+01
0.872467151890D-10 0.000000000000D+00 0.000000000000D+00 0.162462202119D-08 0.121291524730D-10  6 22 21 9900012 -13 3 -4 2 0.27902686D-01 0.85823801D-02 0.50031227D+04 0.50031227D+04 0.50031227D+04 0.12418150D+01  3  4 11  3  5  2       -3 0.137974185463D-06 0.100000000000D+01
  </mgrwgt>
  </event>
  <event>
  7     66 0.16695846E-05 0.17750998E+02 0.78161638E-02 0.12851662E+00
       22 -1    0    0    0    0 0.00000000E+00 0.00000000E+00 0.22194620E+03 0.22194620E+03 0.00000000E+00 0.0000E+00 0.9000E+01
       -3 -1    0    0    0  502 0.00000000E+00 0.00000000E+00 -.18285048E+02 0.18285048E+02 0.00000000E+00 0.0000E+00 0.9000E+01
       24  2    1    2    0    0 0.22706744E+02 0.79296868E+01 0.10135602E+03 0.13028962E+03 0.78255130E+02 0.0000E+00 0.0000E+00
  9900012  1    3    3    0    0 0.28862153E+02 0.12528476E+02 0.10597190E+03 0.12132613E+03 0.50000000E+02 0.0000E+00 0.9000E+01
      -13  1    3    3    0    0 -.61554088E+01 -.45987888E+01 -.46158724E+01 0.89634923E+01 0.00000000E+00 0.0000E+00 0.9000E+01
       -4  1    1    2    0  501 -.78560898E+01 0.12177592E+02 0.48394674E+02 0.50517882E+02 0.00000000E+00 0.0000E+00 0.9000E+01
       21  1    1    2  501  502 -.14850655E+02 -.20107278E+02 0.53910453E+02 0.59423745E+02 0.00000000E+00 0.0000E+00 0.9000E+01
#aMCatNLO 2  0  0  2  5 0.35928127D+01 0.00000000D+00  -5  6  0 0.00000000D+00 0.00000000D+00 0.00000000D+00 0.00000000D+00 0.00000000D+00
  <mgrwgt>
 0.1512762369D-05    1    2    0
 0.490948996270544D+02 0.000000000000000D+00 0.000000000000000D+00 0.490948996270544D+02
 0.490948996270544D+02 0.000000000000000D+00 0.000000000000000D+00 -.490948996270544D+02
 0.548608243415494D+02 0.203212867609465D+02 0.964434641382771D+00 0.978903558253921D+01
 0.254178921339757D+02 -.974580688741534D+01 -.946006507248332D+01 -.214847773428540D+02
 0.179110827785837D+02 -.105754798735312D+02 0.849563043110055D+01 0.116957417603148D+02
 0.000000000000000D+00 -.000000000000000D+00 -.000000000000000D+00 0.000000000000000D+00
 0.680302593074735D+02 0.000000000000000D+00 0.000000000000000D+00 0.680302593074735D+02
 0.596542923101988D+02 0.000000000000000D+00 0.000000000000000D+00 -.596542923101988D+02
 0.598816483301167D+02 0.288621531834814D+02 0.125284756737921D+02 0.978903558253921D+01
 0.228173962957336D+02 -.615540879211337D+01 -.459878884561152D+01 -.214847773428540D+02
 0.186226276062961D+02 -.785608980765995D+01 0.121775915752169D+02 0.116957417603148D+02
 0.263628793855258D+02 -.148506545837081D+02 -.201072784033975D+02 0.837596699727472D+01
0.442493268593D-08 0.000000000000D+00 0.000000000000D+00 0.133453018592D-06 0.910095244118D-09  6 22 -3 9900012 -13 -4 21 2 0.34145569D-01 0.28130844D-02 0.28221806D+04 0.28221806D+04 0.28221806D+04 0.12708216D+01  1  2  1  1  6  2       -3 0.151276236877D-05 0.100000000000D+01
  </mgrwgt>
  </event>
  <event>
  6     66 0.16695846E-05 0.10461135E+02 0.78161638E-02 0.13454972E+00
       22 -1    0    0    0    0 0.00000000E+00 0.00000000E+00 0.93907942E+03 0.93907942E+03 0.00000000E+00 0.0000E+00 0.9000E+01
       -3 -1    0    0    0  501 0.00000000E+00 0.00000000E+00 -.94208848E+01 0.94208848E+01 0.00000000E+00 0.0000E+00 0.9000E+01
       24  2    1    2    0    0 -.12667097E+01 -.10384161E+02 0.16848062E+03 0.18725051E+03 0.81040718E+02 0.0000E+00 0.0000E+00
  9900012  1    3    3    0    0 -.71550452E+01 0.78148981E+01 0.15660870E+03 0.16473783E+03 0.50000000E+02 0.0000E+00 0.9000E+01
      -13  1    3    3    0    0 0.58883355E+01 -.18199059E+02 0.11871921E+02 0.22512679E+02 0.00000000E+00 0.0000E+00 0.9000E+01
       -4  1    1    2    0  501 0.12667097E+01 0.10384161E+02 0.76117791E+03 0.76124980E+03 0.00000000E+00 0.0000E+00 0.9000E+01
#aMCatNLO 1  0  0  5  2 0.39366756D+01 0.00000000D+00  -5  6  0 0.00000000D+00 0.00000000D+00 0.00000000D+00 0.00000000D+00 0.00000000D+00
  <mgrwgt>
 0.7206231934D-03    6    2    0
 0.940582744040722D+02 0.000000000000000D+00 0.000000000000000D+00 0.940582744040722D+02
 0.940582744040722D+02 -.000000000000000D+00 -.000000000000000D+00 -.940582744040722D+02
 0.566737277641951D+02 -.715504519349527D+01 0.781489805994089D+01 -.244876318839096D+02
 0.548407405955386D+02 0.588833548596755D+01 -.181990585937756D+02 -.513967761690573D+02
 0.766020804484107D+02 0.126670970752772D+01 0.103841605338347D+02 0.758844080529669D+02
 0.000000000000000D+00 0.000000000000000D+00 0.000000000000000D+00 0.000000000000000D+00
 0.940582744040722D+02 0.000000000000000D+00 0.000000000000000D+00 0.940582744040722D+02
 0.940582744040722D+02 -.000000000000000D+00 -.000000000000000D+00 -.940582744040722D+02
 0.566201781158584D+02 -.715288789115431D+01 0.783258306992812D+01 -.243583950033819D+02
 0.547181695299021D+02 0.589042166784512D+01 -.181819566110634D+02 -.512717998813334D+02
 0.286407853226277D+02 0.362003905158118D+00 -.513961681202830D-01 0.286384513461080D+02
 0.481374158397563D+02 0.900462318151067D+00 0.104007697092556D+02 0.469917435386073D+02
0.212515880794D-07 0.000000000000D+00 0.000000000000D+00 0.446354030966D-05 0.000000000000D+00  6 22 -3 9900012 -13 -4 21 0 0.14447376D+00 0.14493669D-02 0.16280992D+04 0.16280992D+04 0.16280992D+04 0.13007701D+01  1  2  2  2  6  5       -4 0.809569410699D-06 0.100000000000D+01
-.725852756348D-09 0.000000000000D+00 -.408058469483D-10 0.446354030966D-05 0.000000000000D+00  6 22 -3 9900012 -13 -4 21 2 0.14447376D+00 0.14493669D-02 0.16280992D+04 0.16280992D+04 0.16280992D+04 0.13007701D+01  1  2  3  2  6  5       -4 -.467856153291D-07 0.100000000000D+01
0.217596994726D-08 0.000000000000D+00 0.000000000000D+00 0.446354030966D-05 0.000000000000D+00  6 22 -3 9900012 -13 -4 21 2 0.14447376D+00 0.14493669D-02 0.16280992D+04 0.16280992D+04 0.16280992D+04 0.13007701D+01  1  2 15  2  6  5       -4 0.140254469009D-06 0.100000000000D+01
0.132673868885D-07 0.000000000000D+00 0.000000000000D+00 0.446354030966D-05 0.000000000000D+00  6 22 -3 9900012 -13 -4 21 2 0.14447376D+00 0.14493669D-02 0.16414805D+04 0.16414805D+04 0.16414805D+04 0.13003083D+01  1  2 12  2  6  5       -4 0.855544722566D-06 0.100000000000D+01
-.140813192235D-06 0.000000000000D+00 0.000000000000D+00 0.446354030966D-05 0.000000000000D+00  6 22 -3 9900012 -13 -4 21 2 0.14447376D+00 0.14493669D-02 0.16280992D+04 0.16280992D+04 0.16280992D+04 0.13007701D+01  1  2  5  2  6  5       -4 -.907626483133D-05 0.100000000000D+01
0.112885661844D-04 0.000000000000D+00 0.000000000000D+00 0.446354030966D-05 0.483588147138D-04  6 22 -3 9900012 -13 -4 21 2 0.14447376D+00 0.14493669D-02 0.16414805D+04 0.16414805D+04 0.16414805D+04 0.13003083D+01  1  2 11  2  6  5       -4 0.727940875286D-03 0.100000000000D+01
  </mgrwgt>
  </event>
  <event>
  7     66 0.16695846E-05 0.19752999E+02 0.78161638E-02 0.13274739E+00
       22 -1    0    0    0    0 0.00000000E+00 0.00000000E+00 0.16911048E+03 0.16911048E+03 0.00000000E+00 0.0000E+00 0.9000E+01
       21 -1    0    0  502  501 0.00000000E+00 0.00000000E+00 -.64457578E+02 0.64457578E+02 0.00000000E+00 0.0000E+00 0.9000E+01
       24  2    1    2    0    0 0.12828675E+02 0.14975117E+02 0.11444937E+03 0.14117236E+03 0.80262996E+02 0.0000E+00 0.0000E+00
  9900012  1    3    3    0    0 0.90306463E+01 0.25305885E+02 0.11684970E+03 0.12990686E+03 0.50000000E+02 0.0000E+00 0.9000E+01
      -13  1    3    3    0    0 0.37980288E+01 -.10330767E+02 -.24003358E+01 0.11265496E+02 0.00000000E+00 0.0000E+00 0.9000E+01
        1  1    1    2  502    0 -.12866040E+02 -.15034267E+02 -.49180227E+02 0.53011875E+02 0.00000000E+00 0.0000E+00 0.9000E+01
       -2  1    1    2    0  501 0.37364408E-01 0.59149986E-01 0.39383763E+02 0.39383825E+02 0.00000000E+00 0.0000E+00 0.9000E+01
#aMCatNLO 2  0  0  2  5 0.74383518D+01 0.00000000D+00  -5  6  0 0.00000000D+00 0.00000000D+00 0.00000000D+00 0.00000000D+00 0.00000000D+00
  <mgrwgt>
 0.9477565164D-01    1    2    0
 0.462177992715629D+02 0.000000000000000D+00 0.000000000000000D+00 0.462177992715629D+02
 0.462177992715629D+02 0.000000000000000D+00 0.000000000000000D+00 -.462177992715629D+02
 0.539130844097014D+02 0.133123717380508D+01 0.163089455290302D+02 0.117841747223041D+02
 0.271514006904320D+02 0.180066676629306D+00 -.145584405296076D+02 -.229176339265256D+02
 0.000000000000000D+00 -.000000000000000D+00 -.000000000000000D+00 -.000000000000000D+00
 0.113711134429925D+02 -.151130385043439D+01 -.175050499942259D+01 0.111334592042214D+02
 0.478065477200464D+02 0.000000000000000D+00 0.000000000000000D+00 0.478065477200464D+02
 0.228011696104125D+03 0.000000000000000D+00 0.000000000000000D+00 -.228011696104125D+03
 0.579724688811668D+02 0.903064632075971D+01 0.253058847172236D+02 0.117841747223041D+02
 0.254237629441016D+02 0.379802881637056D+01 -.103307673750626D+02 -.229176339265256D+02
 0.181288332972099D+03 -.128660395454282D+02 -.150342673280188D+02 -.180205148384078D+03
 0.111336790268041D+02 0.373644082978977D-01 0.591499858577877D-01 0.111334592042214D+02
0.690170839327D-04 0.000000000000D+00 0.000000000000D+00 0.106453976780D-04 0.146902748658D-03  6 22 21 9900012 -13 1 -2 2 0.26016997D-01 0.99165505D-02 0.19196179D+04 0.19196179D+04 0.19196179D+04 0.12915699D+01  1  2  1  3  5  2       -1 0.947756516417D-01 0.100000000000D+01
  </mgrwgt>
  </event>
  <event>
  6     66 0.16695846E-05 0.50655301E+01 0.78161638E-02 0.13561094E+00
       22 -1    0    0    0    0 0.00000000E+00 0.00000000E+00 0.62769217E+02 0.62769217E+02 0.00000000E+00 0.0000E+00 0.9000E+01
       -1 -1    0    0    0  501 -.00000000E+00 -.00000000E+00 -.79660082E+02 0.79660082E+02 0.00000000E+00 0.0000E+00 0.9000E+01
       24  2    1    2    0    0 -.68538039E+00 -.50189490E+01 -.58301725E+02 0.10070977E+03 0.81961621E+02 0.0000E+00 0.0000E+00
  9900012  1    3    3    0    0 0.11242642E+02 0.11007481E+02 -.17468635E+02 0.55251379E+02 0.50000000E+02 0.0000E+00 0.9000E+01
      -13  1    3    3    0    0 -.11928023E+02 -.16026430E+02 -.40833091E+02 0.45458393E+02 0.00000000E+00 0.0000E+00 0.9000E+01
       -2  1    1    2    0  501 0.68538039E+00 0.50189490E+01 0.41410860E+02 0.41719527E+02 0.00000000E+00 0.0000E+00 0.9000E+01
#aMCatNLO 1  0  0  5  2 0.40851603D+01 0.00000000D+00  -5  6  0 0.00000000D+00 0.00000000D+00 0.00000000D+00 0.00000000D+00 0.00000000D+00
  <mgrwgt>
 0.2793002325D-01    8    2    0
 0.707120990850388D+02 0.000000000000000D+00 0.000000000000000D+00 0.707120990850388D+02
 0.707120990850388D+02 -.000000000000000D+00 -.000000000000000D+00 -.707120990850388D+02
 0.535577000106475D+02 0.112426424407611D+02 0.110074811120655D+02 -.109938883452231D+02
 0.409046036984163D+02 -.119280228265867D+02 -.160264300641629D+02 -.356940109061928D+02
 0.469618944610138D+02 0.685380385825644D+00 0.501894895209739D+01 0.466878992514159D+02
 0.000000000000000D+00 0.000000000000000D+00 0.000000000000000D+00 0.000000000000000D+00
 0.707120990850388D+02 0.000000000000000D+00 0.000000000000000D+00 0.707120990850388D+02
 0.707120990850388D+02 -.000000000000000D+00 -.000000000000000D+00 -.707120990850388D+02
 0.534865605939778D+02 0.112485625350718D+02 0.110508331713769D+02 -.105906133574139D+02
 0.406225290689740D+02 -.119235139597672D+02 -.159934122351335D+02 -.353868682972647D+02
 0.372854292880630D+02 -.754406325835514D-01 -.497286795778651D-02 0.372853526358098D+02
 0.100296792190628D+02 0.750392057278879D+00 0.494755193171439D+01 0.869212901886883D+01
0.904186931066D-08 0.000000000000D+00 0.000000000000D+00 0.286349584827D-05 0.000000000000D+00  6 22 -1 9900012 -13 -2 21 0 0.96568026D-02 0.12255397D-01 0.15000443D+04 0.15000443D+04 0.15000443D+04 0.13054194D+01  1  2  2  2  6  5       -2 0.152400222217D-05 0.100000000000D+01
-.471486452969D-09 0.000000000000D+00 -.173615794659D-10 0.286349584827D-05 0.000000000000D+00  6 22 -1 9900012 -13 -2 21 2 0.96568026D-02 0.12255397D-01 0.15000443D+04 0.15000443D+04 0.15000443D+04 0.13054194D+01  1  2  3  2  6  5       -2 -.135424329389D-06 0.100000000000D+01
0.783948544918D-09 0.000000000000D+00 0.000000000000D+00 0.286349584827D-05 0.000000000000D+00  6 22 -1 9900012 -13 -2 21 2 0.96568026D-02 0.12255397D-01 0.15000443D+04 0.15000443D+04 0.15000443D+04 0.13054194D+01  1  2 15  2  6  5       -2 0.225172335923D-06 0.100000000000D+01
0.542324475008D-08 0.000000000000D+00 0.000000000000D+00 0.286349584827D-05 0.000000000000D+00  6 22 -1 9900012 -13 -2 21 2 0.96568026D-02 0.12255397D-01 0.14998672D+04 0.14998672D+04 0.14998672D+04 0.13054261D+01  1  2 12  2  6  5       -2 0.155770419451D-05 0.100000000000D+01
-.608253156951D-07 0.000000000000D+00 0.000000000000D+00 0.286349584827D-05 0.000000000000D+00  6 22 -1 9900012 -13 -2 21 2 0.96568026D-02 0.12255397D-01 0.15000443D+04 0.15000443D+04 0.15000443D+04 0.13054194D+01  1  2  4  2  6  5       -2 -.174707619615D-04 0.100000000000D+01
-.451000851208D-07 0.000000000000D+00 0.000000000000D+00 0.286349584827D-05 0.000000000000D+00  6 22 -1 9900012 -13 -2 21 2 0.96568026D-02 0.12255397D-01 0.15000443D+04 0.15000443D+04 0.15000443D+04 0.13054194D+01  1  2  5  2  6  5       -2 -.129540281474D-04 0.100000000000D+01
0.557317107407D-07 0.000000000000D+00 -.000000000000D+00 0.286349584827D-05 0.000000000000D+00  6 22 -1 9900012 -13 -2 21 2 0.96568026D-02 0.12255397D-01 0.15000443D+04 0.15000443D+04 0.15000443D+04 0.13054194D+01  1  2  6  2  6  5       -2 0.160077336374D-04 0.100000000000D+01
0.972792781567D-04 0.000000000000D+00 0.000000000000D+00 0.286349584827D-05 0.241107037977D-02  6 22 -1 9900012 -13 -2 21 2 0.96568026D-02 0.12255397D-01 0.14998672D+04 0.14998672D+04 0.14998672D+04 0.13054261D+01  1  2 11  2  6  5       -2 0.279412688542D-01 0.100000000000D+01
  </mgrwgt>
  </event>
  <event>
  6     66 0.16695846E-05 0.60672872E+01 0.78161638E-02 0.13568928E+00
       22 -1    0    0    0    0 0.00000000E+00 0.00000000E+00 0.60424527E+02 0.60424527E+02 0.00000000E+00 0.0000E+00 0.9000E+01
       -3 -1    0    0    0  501 0.00000000E+00 0.00000000E+00 -.33213159E+02 0.33213159E+02 0.00000000E+00 0.0000E+00 0.9000E+01
       24  2    1    2    0    0 -.84439835E-01 0.60666996E+01 0.22165854E+02 0.85746604E+02 0.82609582E+02 0.0000E+00 0.0000E+00
  9900012  1    3    3    0    0 -.82416163E+01 -.11394993E+02 -.52821077E+01 0.52207957E+02 0.50000000E+02 0.0000E+00 0.9000E+01
      -13  1    3    3    0    0 0.81571764E+01 0.17461692E+02 0.27447962E+02 0.33538647E+02 0.00000000E+00 0.0000E+00 0.9000E+01
       -4  1    1    2    0  501 0.84439835E-01 -.60666996E+01 0.50455133E+01 0.78910823E+01 0.00000000E+00 0.0000E+00 0.9000E+01
#aMCatNLO 1  0  0  5  2 0.15266688D+00 0.00000000D+00  -5  6  0 0.00000000D+00 0.00000000D+00 0.00000000D+00 0.00000000D+00 0.00000000D+00
  <mgrwgt>
 0.7967739007D+00    7    2    0
 0.447983195704611D+02 0.000000000000000D+00 0.000000000000000D+00 0.447983195704611D+02
 0.447983195704611D+02 -.000000000000000D+00 -.000000000000000D+00 -.447983195704611D+02
 0.561669020786416D+02 -.824161626301338D+01 -.113949926886715D+02 -.213764073714473D+02
 0.267151172839861D+02 0.815717642798857D+01 0.174616923048592D+02 0.184999261098584D+02
 0.671461977829442D+01 0.844398350248128D-01 -.606669961618770D+01 0.287648126158883D+01
 0.000000000000000D+00 0.000000000000000D+00 0.000000000000000D+00 0.000000000000000D+00
 0.447983195704611D+02 0.000000000000000D+00 0.000000000000000D+00 0.447983195704611D+02
 0.447983195704611D+02 -.000000000000000D+00 -.000000000000000D+00 -.447983195704611D+02
 0.561678894133767D+02 -.824095865512957D+01 -.114422394590512D+02 -.213540056607535D+02
 0.267079144554369D+02 0.815748916642323D+01 0.174392231688057D+02 0.185105796864175D+02
 0.143715321645712D+00 -.211083359021514D-03 -.623423877564797D-04 0.143715153108421D+00
 0.657711995046277D+01 0.836805720653665D-01 -.599692136736682D+01 0.269971082122761D+01
0.414838063180D-08 0.000000000000D+00 0.000000000000D+00 0.984730130235D-08 0.000000000000D+00  6 22 -3 9900012 -13 -4 21 0 0.92960811D-02 0.51097168D-02 0.14930648D+04 0.14930648D+04 0.14930648D+04 0.13056856D+01  1  2  2  2  6  5       -4 0.223580124048D-05 0.100000000000D+01
0.372774421238D-09 0.000000000000D+00 -.796543695990D-11 0.984730130235D-08 0.000000000000D+00  6 22 -3 9900012 -13 -4 21 2 0.92960811D-02 0.51097168D-02 0.14930648D+04 0.14930648D+04 0.14930648D+04 0.13056856D+01  1  2  3  2  6  5       -4 0.342513666741D-06 0.100000000000D+01
0.959280884081D-10 0.000000000000D+00 0.000000000000D+00 0.984730130235D-08 0.000000000000D+00  6 22 -3 9900012 -13 -4 21 2 0.92960811D-02 0.51097168D-02 0.14930648D+04 0.14930648D+04 0.14930648D+04 0.13056856D+01  1  2 15  2  6  5       -4 0.881409223168D-07 0.100000000000D+01
-.992951552595D-08 0.000000000000D+00 0.000000000000D+00 0.984730130235D-08 0.000000000000D+00  6 22 -3 9900012 -13 -4 21 2 0.92960811D-02 0.51097168D-02 0.14930648D+04 0.14930648D+04 0.14930648D+04 0.13056856D+01  1  2  4  2  6  5       -4 -.912346603733D-05 0.100000000000D+01
-.632279209478D-09 0.000000000000D+00 0.000000000000D+00 0.984730130235D-08 0.000000000000D+00  6 22 -3 9900012 -13 -4 21 2 0.92960811D-02 0.51097168D-02 0.14930648D+04 0.14930648D+04 0.14930648D+04 0.13056856D+01  1  2  5  2  6  5       -4 -.580952603247D-06 0.100000000000D+01
0.275566531817D-08 0.000000000000D+00 -.000000000000D+00 0.984730130235D-08 0.000000000000D+00  6 22 -3 9900012 -13 -4 21 2 0.92960811D-02 0.51097168D-02 0.14930648D+04 0.14930648D+04 0.14930648D+04 0.13056856D+01  1  2  6  2  6  5       -4 0.253196833973D-05 0.100000000000D+01
0.867288044551D-03 0.000000000000D+00 0.000000000000D+00 0.984730130235D-08 0.538873209960D-01  6 22 -3 9900012 -13 -4 21 2 0.92960811D-02 0.51097168D-02 0.14899944D+04 0.14899944D+04 0.14899944D+04 0.13058031D+01  1  2 11  2  6  5       -4 0.796778406684D+00 0.100000000000D+01
  </mgrwgt>
  </event>
  <event>
  7     66 0.16695846E-05 0.28623392E+02 0.78161638E-02 0.12387518E+00
       22 -1    0    0    0    0 0.00000000E+00 0.00000000E+00 0.63861166E+02 0.63861166E+02 0.00000000E+00 0.0000E+00 0.9000E+01
       -1 -1    0    0    0  502 0.00000000E+00 0.00000000E+00 -.10023986E+03 0.10023986E+03 0.00000000E+00 0.0000E+00 0.9000E+01
       24  2    1    2    0    0 0.15415276E+01 0.42829700E+02 -.14706657E+02 0.91184054E+02 0.79129555E+02 0.0000E+00 0.0000E+00
  9900012  1    3    3    0    0 0.22552127E+02 0.41783821E+02 -.11437230E+02 0.69894895E+02 0.50000000E+02 0.0000E+00 0.9000E+01
      -13  1    3    3    0    0 -.21010599E+02 0.10458786E+01 -.32694275E+01 0.21289159E+02 0.00000000E+00 0.0000E+00 0.9000E+01
       -2  1    1    2    0  501 -.29799252E+01 -.93367847E+01 0.18293149E+02 0.20753187E+02 0.00000000E+00 0.0000E+00 0.9000E+01
       21  1    1    2  501  502 0.14383977E+01 -.33492915E+02 -.39965188E+02 0.52163786E+02 0.00000000E+00 0.0000E+00 0.9000E+01
#aMCatNLO 2  0  0  2  2 0.36843151D+02 0.00000000D+00  -5  6  0 0.00000000D+00 0.00000000D+00 0.00000000D+00 0.00000000D+00 0.00000000D+00
  <mgrwgt>
 0.4566499961D-04    1    2    0
 0.533695579650328D+02 0.000000000000000D+00 0.000000000000000D+00 0.533695579650328D+02
 0.533695579650328D+02 0.000000000000000D+00 0.000000000000000D+00 -.533695579650328D+02
 0.608758861354237D+02 0.234151786907717D+02 0.216877669049451D+02 -.136837014849446D+02
 0.218244681559008D+02 -.207261728311760D+02 -.557696010602375D+01 -.395356624277020D+01
 0.240387616387409D+02 -.268900585959568D+01 -.161108067989214D+02 0.176372677277148D+02
 0.000000000000000D+00 0.000000000000000D+00 -.000000000000000D+00 -.000000000000000D+00
 0.618467946580102D+02 0.000000000000000D+00 0.000000000000000D+00 0.618467946580102D+02
 0.103504708913354D+03 0.000000000000000D+00 0.000000000000000D+00 -.103504708913354D+03
 0.702974382228476D+02 0.225521269834554D+02 0.417838210661508D+02 -.136837014849446D+02
 0.214049021543901D+02 -.210105994250359D+02 0.104587857981795D+01 -.395356624277020D+01
 0.201774308483347D+02 -.297992522604224D+01 -.933678469214285D+01 0.176372677277148D+02
 0.534717323457919D+02 0.143839766762276D+01 -.334929149538259D+02 -.416579142553437D+02
0.221969226369D-06 0.000000000000D+00 0.000000000000D+00 0.120710524016D-06 0.329090128173D-08  6 22 -1 9900012 -13 -2 21 2 0.98247947D-02 0.15421517D-01 0.44431540D+04 0.44431540D+04 0.44431540D+04 0.12476624D+01  1  2  1  1  6  2       -1 0.456649996057D-04 0.100000000000D+01
  </mgrwgt>
  </event>
  <event>
  6     66 -.16695846E-05 0.61796513E+01 0.78161638E-02 0.13384023E+00
       22 -1    0    0    0    0 0.00000000E+00 0.00000000E+00 0.17501627E+02 0.17501627E+02 0.00000000E+00 0.0000E+00 0.9000E+01
       -3 -1    0    0    0  501 -.00000000E+00 -.00000000E+00 -.10237397E+03 0.10237397E+03 0.00000000E+00 0.0000E+00 0.9000E+01
       24  2    1    2    0    0 0.40440781E+01 -.46726354E+01 -.82368599E+02 0.11320800E+03 0.77416262E+02 0.0000E+00 0.0000E+00
  9900012  1    3    3    0    0 0.10534366E+02 0.17694814E+02 -.52900992E+02 0.75647831E+02 0.50000000E+02 0.0000E+00 0.9000E+01
      -13  1    3    3    0    0 -.64902875E+01 -.22367450E+02 -.29467607E+02 0.37560172E+02 0.00000000E+00 0.0000E+00 0.9000E+01
       -4  1    1    2    0  501 -.40440781E+01 0.46726354E+01 -.25037444E+01 0.66675952E+01 0.00000000E+00 0.0000E+00 0.9000E+01
#aMCatNLO 1  0  0  5  2 0.14320976D+01 0.00000000D+00  -5  6  0 0.00000000D+00 0.00000000D+00 0.00000000D+00 0.00000000D+00 0.00000000D+00
  <mgrwgt>
 -.4614741333D-04    1    2    0
 0.423286080411453D+02 0.000000000000000D+00 0.000000000000000D+00 0.423286080411453D+02
 0.423286080411453D+02 -.000000000000000D+00 -.000000000000000D+00 -.423286080411453D+02
 0.540827817658523D+02 0.105343655927144D+02 0.176948144902182D+02 0.931646525567164D+00
 0.236431491409278D+02 -.649028747641823D+01 -.223674499302207D+02 -.407085413551905D+01
 0.693128517551057D+01 -.404407811629615D+01 0.467263544000250D+01 0.313920760995188D+01
 0.000000000000000D+00 0.000000000000000D+00 0.000000000000000D+00 -.000000000000000D+00
 0.423286080411453D+02 0.000000000000000D+00 0.000000000000000D+00 0.423286080411453D+02
 0.423286080411453D+02 -.000000000000000D+00 -.000000000000000D+00 -.423286080411453D+02
 0.544448528786462D+02 0.900838347629318D+01 0.194579748231670D+02 0.211618711424088D+01
 0.230371412508314D+02 -.714664830617841D+01 -.216090731663772D+02 -.356135534434718D+01
 0.346685529150996D+01 0.177712697541989D+01 0.277047605247428D+01 0.108874596126559D+01
 0.370836666130303D+01 -.363886214553465D+01 -.619377709264068D+00 0.356422268840703D+00
-.536586425237D-07 0.000000000000D+00 0.000000000000D+00 0.624754261776D-07 0.000000000000D+00  6 22 -3 9900012 -13 -4 21 2 0.26925580D-02 0.15749842D-01 0.17449193D+04 0.17449193D+04 0.17449193D+04 0.12968754D+01  1  2 14  2  6  5       -4 -.461474133260D-04 0.100000000000D+01
  </mgrwgt>
  </event>
  <event>
  6     66 0.16695846E-05 0.24057705E+02 0.78161638E-02 0.12548080E+00
       22 -1    0    0    0    0 0.00000000E+00 0.00000000E+00 0.82105596E+01 0.82105596E+01 0.00000000E+00 0.0000E+00 0.9000E+01
       -1 -1    0    0    0  501 0.00000000E+00 0.00000000E+00 -.41959374E+03 0.41959374E+03 0.00000000E+00 0.0000E+00 0.9000E+01
       24  2    1    2    0    0 -.59783919E+01 0.23303047E+02 -.28463120E+03 0.29878943E+03 0.87643754E+02 0.0000E+00 0.0000E+00
  9900012  1    3    3    0    0 -.25920798E+01 0.44871107E+02 -.18620079E+03 0.19796684E+03 0.50000000E+02 0.0000E+00 0.9000E+01
      -13  1    3    3    0    0 -.33863121E+01 -.21568060E+02 -.98430415E+02 0.10082259E+03 0.00000000E+00 0.0000E+00 0.9000E+01
       -2  1    1    2    0  501 0.59783919E+01 -.23303047E+02 -.12675198E+03 0.12901487E+03 0.00000000E+00 0.0000E+00 0.9000E+01
#aMCatNLO 1  0  0  2  5 0.10097672D+02 0.00000000D+00  -5  6  0 0.00000000D+00 0.00000000D+00 0.00000000D+00 0.00000000D+00 0.00000000D+00
  <mgrwgt>
 0.6027413152D-04    9    4    0
 0.586949691605541D+02 0.000000000000000D+00 0.000000000000000D+00 0.586949691605541D+02
 0.586949691605541D+02 0.000000000000000D+00 0.000000000000000D+00 -.586949691605541D+02
 0.689257687899505D+02 -.259207980095988D+01 0.448711072382744D+02 0.151863906443384D+02
 0.224867728593285D+02 -.338631208593343D+01 -.215680599716147D+02 -.538578064392967D+01
 0.259773966718291D+02 0.597839188689331D+01 -.233030472666597D+02 -.980061000040870D+01
 0.000000000000000D+00 -.000000000000000D+00 -.000000000000000D+00 -.000000000000000D+00
 0.603440847154824D+02 0.000000000000000D+00 0.000000000000000D+00 0.603440847154824D+02
 0.746154146447102D+02 0.000000000000000D+00 0.000000000000000D+00 -.746154146447102D+02
 0.719150219910729D+02 0.916786003986245D+00 0.493994274318736D+02 0.151863906443384D+02
 0.210030786587543D+02 -.230281878823358D+01 -.201697720767948D+02 -.538578064392967D+01
 0.248609122368177D+02 0.724496247856364D+01 -.216684913999763D+02 -.980061000040870D+01
 0.171804864735477D+02 -.585892969431631D+01 -.756116395510248D+01 -.142713299292278D+02
 0.586949691605541D+02 0.000000000000000D+00 0.000000000000000D+00 0.586949691605541D+02
 0.586949691605541D+02 0.000000000000000D+00 0.000000000000000D+00 -.586949691605541D+02
 0.689257687899505D+02 -.259207980095988D+01 0.448711072382744D+02 0.151863906443384D+02
 0.224867728593285D+02 -.338631208593343D+01 -.215680599716147D+02 -.538578064392967D+01
 0.000000000000000D+00 -.000000000000000D+00 -.000000000000000D+00 -.000000000000000D+00
 0.259773966718291D+02 0.597839188689331D+01 -.233030472666597D+02 -.980061000040870D+01
 0.603440847154824D+02 0.000000000000000D+00 0.000000000000000D+00 0.603440847154824D+02
 0.746154146447102D+02 0.000000000000000D+00 0.000000000000000D+00 -.746154146447102D+02
 0.719150219910729D+02 0.916786003986245D+00 0.493994274318736D+02 0.151863906443384D+02
 0.210030786587543D+02 -.230281878823358D+01 -.201697720767948D+02 -.538578064392967D+01
 0.171804864735477D+02 -.585892969431631D+01 -.756116395510248D+01 -.142713299292278D+02
 0.248609122368177D+02 0.724496247856364D+01 -.216684913999763D+02 -.980061000040870D+01
0.113696001696D-06 0.000000000000D+00 0.000000000000D+00 0.404664873809D-08 0.000000000000D+00  6 22 -1 9900012 -13 -2 21 0 0.12631630D-02 0.64552883D-01 0.31991429D+04 0.31991429D+04 0.31991429D+04 0.12642876D+01  1  2  2  1  6  2       -1 0.232065035436D-04 0.100000000000D+01
0.199629458024D-08 0.000000000000D+00 -.218311291679D-09 0.404664873809D-08 0.000000000000D+00  6 22 -1 9900012 -13 -2 21 2 0.12631630D-02 0.64552883D-01 0.31991429D+04 0.31991429D+04 0.31991429D+04 0.12642876D+01  1  2  3  1  6  2       -1 0.651299770735D-06 0.100000000000D+01
0.214987539089D-08 0.000000000000D+00 0.000000000000D+00 0.404664873809D-08 0.000000000000D+00  6 22 -1 9900012 -13 -2 21 2 0.12631630D-02 0.64552883D-01 0.31991429D+04 0.31991429D+04 0.31991429D+04 0.12642876D+01  1  2 15  1  6  2       -1 0.701406176751D-06 0.100000000000D+01
0.260180806481D-06 0.000000000000D+00 0.000000000000D+00 0.404664873809D-08 0.000000000000D+00  6 22 -1 9900012 -13 -2 21 2 0.12631630D-02 0.84367882D-01 0.37826898D+04 0.37826898D+04 0.37826898D+04 0.12557222D+01  1  2 12  1  6  2       -1 0.512546623177D-04 0.100000000000D+01
-.176666582790D-06 0.000000000000D+00 0.000000000000D+00 0.404664873809D-08 0.000000000000D+00  6 22 -1 9900012 -13 -2 21 2 0.12631630D-02 0.64552883D-01 0.31991429D+04 0.31991429D+04 0.31991429D+04 0.12642876D+01  1  2  4  1  6  2       -1 -.576382393692D-04 0.100000000000D+01
-.361475596653D-06 0.000000000000D+00 -.532541150320D-07 0.404664873809D-08 0.000000000000D+00  6 22 -1 9900012 -13 -2 21 2 0.12631630D-02 0.83433578D-01 0.31991429D+04 0.31991429D+04 0.31991429D+04 0.12642876D+01  1  2  5  1  6  2       -1 -.726992347168D-04 0.100000000000D+01
0.364772931249D-06 0.000000000000D+00 0.515481790183D-07 0.404664873809D-08 0.000000000000D+00  6 22 -1 9900012 -13 -2 21 2 0.12631630D-02 0.64552883D-01 0.31991429D+04 0.31991429D+04 0.31991429D+04 0.12642876D+01  1  2  6  1  6  2       -1 0.119008751937D-03 0.100000000000D+01
0.925887961983D-08 0.000000000000D+00 0.000000000000D+00 0.404664873809D-08 0.000000000000D+00  6 22 21 9900012 -13 1 -2 2 0.12631630D-02 0.84367882D-01 0.37826898D+04 0.37826898D+04 0.37826898D+04 0.12557222D+01  3  4 12  3  5  2       -1 0.149108416833D-04 0.100000000000D+01
-.115381964027D-07 0.000000000000D+00 -.183702510178D-08 0.404664873809D-08 0.000000000000D+00  6 22 21 9900012 -13 1 -2 2 0.12631630D-02 0.83433578D-01 0.31991429D+04 0.31991429D+04 0.31991429D+04 0.12642876D+01  3  4  5  3  5  2       -1 -.191218598214D-04 0.100000000000D+01
  </mgrwgt>
  </event>
  <event>
  6     66 0.16695846E-05 0.84325917E+01 0.78161638E-02 0.13059539E+00
       22 -1    0    0    0    0 0.00000000E+00 0.00000000E+00 0.34992831E+03 0.34992831E+03 0.00000000E+00 0.0000E+00 0.9000E+01
       -1 -1    0    0    0  501 0.00000000E+00 0.00000000E+00 -.18816713E+02 0.18816713E+02 0.00000000E+00 0.0000E+00 0.9000E+01
       24  2    1    2    0    0 -.70551568E+01 0.46188057E+01 0.88174796E+02 0.12566191E+03 0.89134805E+02 0.0000E+00 0.0000E+00
  9900012  1    3    3    0    0 -.25047914E+02 -.17459850E+02 0.72294172E+02 0.93052091E+02 0.50000000E+02 0.0000E+00 0.9000E+01
      -13  1    3    3    0    0 0.17992757E+02 0.22078656E+02 0.15880623E+02 0.32609823E+02 0.00000000E+00 0.0000E+00 0.9000E+01
       -2  1    1    2    0  501 0.70551568E+01 -.46188057E+01 0.24293680E+03 0.24308311E+03 0.00000000E+00 0.0000E+00 0.9000E+01
#aMCatNLO 1  0  0  5  2 0.36907227D+01 0.00000000D+00  -5  6  0 0.00000000D+00 0.00000000D+00 0.00000000D+00 0.00000000D+00 0.00000000D+00
  <mgrwgt>
 0.1172226082D-03    5    2    0
 0.811449359799139D+02 0.000000000000000D+00 0.000000000000000D+00 0.811449359799139D+02
 0.811449359799139D+02 -.000000000000000D+00 -.000000000000000D+00 -.811449359799139D+02
 0.639291694216507D+02 -.250479140751663D+02 -.174598498438762D+02 -.255869956590159D+02
 0.416936140775505D+02 0.179927572745210D+02 0.220786555142222D+02 -.304491561655194D+02
 0.566670884606266D+02 0.705515680064524D+01 -.461880567034599D+01 0.560361518245353D+02
 0.000000000000000D+00 0.000000000000000D+00 0.000000000000000D+00 -.000000000000000D+00
 0.811449359799139D+02 0.000000000000000D+00 0.000000000000000D+00 0.811449359799139D+02
 0.811449359799139D+02 -.000000000000000D+00 -.000000000000000D+00 -.811449359799139D+02
 0.633116831299962D+02 -.248615837477068D+02 -.175818348822454D+02 -.241070520072916D+02
 0.410071079825555D+02 0.181138634468986D+02 0.219993708304799D+02 -.294872606252786D+02
 0.192993252684764D+01 -.767878699605193D+00 -.617798610534423D-01 -.176951550138584D+01
 0.560411483204284D+02 0.751559900041335D+01 -.435575608718107D+01 0.553638281339561D+02
0.981873997975D-06 0.000000000000D+00 0.000000000000D+00 0.650003129155D-07 0.000000000000D+00  6 22 -1 9900012 -13 -2 21 0 0.53835124D-01 0.28948790D-02 0.22800451D+04 0.22800451D+04 0.22800451D+04 0.12821773D+01  1  2  2  2  6  5       -2 0.103253967566D-03 0.100000000000D+01
-.552172287622D-07 0.000000000000D+00 -.188532734279D-08 0.650003129155D-07 0.000000000000D+00  6 22 -1 9900012 -13 -2 21 2 0.53835124D-01 0.28948790D-02 0.22800451D+04 0.22800451D+04 0.22800451D+04 0.12821773D+01  1  2  3  2  6  5       -2 -.954600764971D-05 0.100000000000D+01
0.862086601682D-07 0.000000000000D+00 0.000000000000D+00 0.650003129155D-07 0.000000000000D+00  6 22 -1 9900012 -13 -2 21 2 0.53835124D-01 0.28948790D-02 0.22800451D+04 0.22800451D+04 0.22800451D+04 0.12821773D+01  1  2 15  2  6  5       -2 0.149038361374D-04 0.100000000000D+01
0.845405703901D-08 0.000000000000D+00 0.000000000000D+00 0.650003129155D-07 0.000000000000D+00  6 22 -1 9900012 -13 -2 21 2 0.53835124D-01 0.28948790D-02 0.23278937D+04 0.23278937D+04 0.23278937D+04 0.12810582D+01  1  2 12  2  6  5       -2 0.146279204960D-05 0.100000000000D+01
0.413112512364D-07 0.000000000000D+00 0.000000000000D+00 0.650003129155D-07 0.218234832804D-09  6 22 -1 9900012 -13 -2 21 2 0.53835124D-01 0.28948790D-02 0.23278937D+04 0.23278937D+04 0.23278937D+04 0.12810582D+01  1  2 11  2  6  5       -2 0.714802012677D-05 0.100000000000D+01
  </mgrwgt>
  </event>
  <event>
  7     66 0.16695846E-05 0.80274731E+01 0.78161638E-02 0.13290504E+00
       22 -1    0    0    0    0 0.00000000E+00 0.00000000E+00 0.82090421E+02 0.82090421E+02 0.00000000E+00 0.0000E+00 0.9000E+01
       21 -1    0    0  502  501 0.00000000E+00 0.00000000E+00 -.48413222E+02 0.48413222E+02 0.00000000E+00 0.0000E+00 0.9000E+01
       24  2    1    2    0    0 0.45363551E+00 0.78014725E+01 0.57627560E+02 0.98767504E+02 0.79831168E+02 0.0000E+00 0.0000E+00
  9900012  1    3    3    0    0 0.21647335E+02 0.13663100E+02 0.30739613E+02 0.64032892E+02 0.50000000E+02 0.0000E+00 0.9000E+01
      -13  1    3    3    0    0 -.21193700E+02 -.58616278E+01 0.26887947E+02 0.34734612E+02 0.00000000E+00 0.0000E+00 0.9000E+01
        1  1    1    2  502    0 -.21419957E+00 -.83022457E+01 -.27199894E+02 0.28439540E+02 0.00000000E+00 0.0000E+00 0.9000E+01
       -2  1    1    2    0  501 -.23943595E+00 0.50077319E+00 0.32495338E+01 0.32966002E+01 0.00000000E+00 0.0000E+00 0.9000E+01
#aMCatNLO 2  0  0  2  5 0.53089363D+01 0.00000000D+00  -5  6  0 0.00000000D+00 0.00000000D+00 0.00000000D+00 0.00000000D+00 0.00000000D+00
  <mgrwgt>
 0.6630772588D-03    1    2    0
 0.407495019469404D+02 0.000000000000000D+00 0.000000000000000D+00 0.407495019469404D+02
 0.407495019469404D+02 0.000000000000000D+00 0.000000000000000D+00 -.407495019469404D+02
 0.557804384073722D+02 0.214995964675445D+02 0.793684057851654D+01 -.928607679715177D+01
 0.240677953495750D+02 -.212557785424968D+02 -.826777088411826D+01 0.768730226731604D+01
 0.000000000000000D+00 -.000000000000000D+00 -.000000000000000D+00 -.000000000000000D+00
 0.165077013693357D+01 -.243817925047708D+00 0.330930305601721D+00 0.159877452983573D+01
 0.412721571162084D+02 0.000000000000000D+00 0.000000000000000D+00 0.412721571162084D+02
 0.962940170117835D+02 0.000000000000000D+00 0.000000000000000D+00 -.962940170117835D+02
 0.569343362828589D+02 0.216473350900450D+02 0.136631002772566D+02 -.928607679715177D+01
 0.232943383309463D+02 -.211936995789548D+02 -.586162778454274D+01 0.768730226731604D+01
 0.556451096787872D+02 -.214199565693976D+00 -.830224568065845D+01 -.550218598955751D+02
 0.169238983539946D+01 -.239435945396250D+00 0.500773187944553D+00 0.159877452983573D+01
0.106785965254D-06 0.000000000000D+00 0.000000000000D+00 0.154942308871D-04 0.158242927247D-06  6 22 21 9900012 -13 1 -2 2 0.12629296D-01 0.74481880D-02 0.18931800D+04 0.18931800D+04 0.18931800D+04 0.12923367D+01  1  2  1  3  5  2       -1 0.663077258820D-03 0.100000000000D+01
  </mgrwgt>
  </event>
  <event>
  6     66 0.16695846E-05 0.68704548E+01 0.78161638E-02 0.13193577E+00
       22 -1    0    0    0    0 0.00000000E+00 0.00000000E+00 0.13388602E+02 0.13388602E+02 0.00000000E+00 0.0000E+00 0.9000E+01
       -1 -1    0    0    0  501 -.00000000E+00 -.00000000E+00 -.16079835E+03 0.16079835E+03 0.00000000E+00 0.0000E+00 0.9000E+01
       24  2    1    2    0    0 -.62480965E+01 0.28573484E+01 -.14192256E+03 0.16539420E+03 0.84652391E+02 0.0000E+00 0.0000E+00
  9900012  1    3    3    0    0 -.30855389E+01 -.24953655E+02 -.82273803E+02 0.99504694E+02 0.50000000E+02 0.0000E+00 0.9000E+01
      -13  1    3    3    0    0 -.31625576E+01 0.27811003E+02 -.59648753E+02 0.65889509E+02 0.00000000E+00 0.0000E+00 0.9000E+01
       -2  1    1    2    0  501 0.62480965E+01 -.28573484E+01 -.54871924E+01 0.87927487E+01 0.00000000E+00 0.0000E+00 0.9000E+01
#aMCatNLO 1  0  0  5  2 0.27403884D+00 0.00000000D+00  -5  6  0 0.00000000D+00 0.00000000D+00 0.00000000D+00 0.00000000D+00 0.00000000D+00
  <mgrwgt>
 0.2194994262D-04    7    2    0
 0.463989768871173D+02 0.000000000000000D+00 0.000000000000000D+00 0.463989768871173D+02
 0.463989768871173D+02 -.000000000000000D+00 -.000000000000000D+00 -.463989768871173D+02
 0.560837658305337D+02 -.308553888530261D+01 -.249536549539829D+02 0.363088748916754D+01
 0.289261234822439D+02 -.316255760920820D+01 0.278110033484491D+02 -.729842050247933D+01
 0.778806446145698D+01 0.624809649451082D+01 -.285734839446626D+01 0.366753301331180D+01
 0.000000000000000D+00 0.000000000000000D+00 0.000000000000000D+00 0.000000000000000D+00
 0.463989768871173D+02 0.000000000000000D+00 0.000000000000000D+00 0.463989768871173D+02
 0.463989768871173D+02 -.000000000000000D+00 -.000000000000000D+00 -.463989768871173D+02
 0.560878206577103D+02 -.306382682989278D+01 -.249635842031103D+02 0.364363211948372D+01
 0.289183205288784D+02 -.315136117513038D+01 0.278058830509371D+02 -.729184837420829D+01
 0.959258240187998D+00 0.601018314411256D+00 -.565757260917129D+00 0.488745413104181D+00
 0.683255434745779D+01 0.561416969061192D+01 -.227654158690969D+01 0.315947084162039D+01
0.389543488457D-07 0.000000000000D+00 0.000000000000D+00 0.263356388832D-07 0.000000000000D+00  6 22 -1 9900012 -13 -2 21 0 0.20597849D-02 0.24738208D-01 0.20623772D+04 0.20623772D+04 0.20623772D+04 0.12876276D+01  1  2  2  2  6  5       -2 0.192444903748D-04 0.100000000000D+01
0.350055459293D-08 0.000000000000D+00 -.747974782415D-10 0.263356388832D-07 0.000000000000D+00  6 22 -1 9900012 -13 -2 21 2 0.20597849D-02 0.24738208D-01 0.20623772D+04 0.20623772D+04 0.20623772D+04 0.12876276D+01  1  2  3  2  6  5       -2 0.286726531631D-05 0.100000000000D+01
0.562235519931D-09 0.000000000000D+00 0.000000000000D+00 0.263356388832D-07 0.000000000000D+00  6 22 -1 9900012 -13 -2 21 2 0.20597849D-02 0.24738208D-01 0.20623772D+04 0.20623772D+04 0.20623772D+04 0.12876276D+01  1  2 15  2  6  5       -2 0.460520858368D-06 0.100000000000D+01
-.306772509125D-06 0.000000000000D+00 0.000000000000D+00 0.263356388832D-07 0.000000000000D+00  6 22 -1 9900012 -13 -2 21 2 0.20597849D-02 0.24738208D-01 0.20623772D+04 0.20623772D+04 0.20623772D+04 0.12876276D+01  1  2  4  2  6  5       -2 -.251273948759D-03 0.100000000000D+01
-.746703276420D-07 0.000000000000D+00 0.000000000000D+00 0.263356388832D-07 0.000000000000D+00  6 22 -1 9900012 -13 -2 21 2 0.20597849D-02 0.24738208D-01 0.20623772D+04 0.20623772D+04 0.20623772D+04 0.12876276D+01  1  2  5  2  6  5       -2 -.611616345131D-04 0.100000000000D+01
0.288016577204D-06 0.000000000000D+00 -.000000000000D+00 0.263356388832D-07 0.000000000000D+00  6 22 -1 9900012 -13 -2 21 2 0.20597849D-02 0.24738208D-01 0.20623772D+04 0.20623772D+04 0.20623772D+04 0.12876276D+01  1  2  6  2  6  5       -2 0.235911173621D-03 0.100000000000D+01
0.926656725489D-07 0.000000000000D+00 0.000000000000D+00 0.263356388832D-07 0.239396006473D-06  6 22 -1 9900012 -13 -2 21 2 0.20597849D-02 0.24738208D-01 0.20628323D+04 0.20628323D+04 0.20628323D+04 0.12876155D+01  1  2 11  2  6  5       -2 0.759020757208D-04 0.100000000000D+01
  </mgrwgt>
  </event>
  <event>
  7     66 0.16695846E-05 0.60962139E+01 0.78161638E-02 0.13299136E+00
       22 -1    0    0    0    0 0.00000000E+00 0.00000000E+00 0.34206110E+02 0.34206110E+02 0.00000000E+00 0.0000E+00 0.9000E+01
       21 -1    0    0  502  501 0.00000000E+00 0.00000000E+00 -.89555062E+02 0.89555062E+02 0.00000000E+00 0.0000E+00 0.9000E+01
       24  2    1    2    0    0 -.29264209E+01 0.59085209E+01 -.32756232E+02 0.87606980E+02 0.80984798E+02 0.0000E+00 0.0000E+00
  9900012  1    3    3    0    0 -.25368730E+02 -.23315803E+01 -.15802773E+02 0.58298683E+02 0.50000000E+02 0.0000E+00 0.9000E+01
      -13  1    3    3    0    0 0.22442309E+02 0.82401012E+01 -.16953459E+02 0.29308297E+02 0.00000000E+00 0.0000E+00 0.9000E+01
        1  1    1    2  502    0 0.29880637E+01 -.55316860E+01 -.29031308E+02 0.29704292E+02 0.00000000E+00 0.0000E+00 0.9000E+01
       -2  1    1    2    0  501 -.61642744E-01 -.37683490E+00 0.64385883E+01 0.64499011E+01 0.00000000E+00 0.0000E+00 0.9000E+01
#aMCatNLO 2  0  0  2  5 0.89342288D+01 0.00000000D+00  -5  6  0 0.00000000D+00 0.00000000D+00 0.00000000D+00 0.00000000D+00 0.00000000D+00
  <mgrwgt>
 0.3051096338D-03    1    2    0
 0.450403995214712D+02 0.000000000000000D+00 0.000000000000000D+00 0.450403995214712D+02
 0.450403995214712D+02 0.000000000000000D+00 0.000000000000000D+00 -.450403995214712D+02
 0.555567302854383D+02 -.235187942171222D+02 -.575629481465876D+01 0.530724588015563D+00
 0.258873071201213D+02 0.232949914191964D+02 0.666156393071018D+01 -.911699570626787D+01
 0.000000000000000D+00 0.000000000000000D+00 -.000000000000000D+00 -.000000000000000D+00
 0.863676163738294D+01 0.223802797925818D+00 -.905269116051430D+00 0.858627111825230D+01
 0.455985288483116D+02 0.000000000000000D+00 0.000000000000000D+00 0.455985288483116D+02
 0.671804637087236D+02 0.000000000000000D+00 0.000000000000000D+00 -.671804637087236D+02
 0.561185389030229D+02 -.253687302255770D+02 -.233158031465066D+01 0.530724588015563D+00
 0.255866395580162D+02 0.224423092797294D+02 0.824010117393606D+01 -.911699570626787D+01
 0.224790566191646D+02 0.298806368945854D+01 -.553168595965863D+01 -.215819348604119D+02
 0.859475747683146D+01 -.616427436109303D-01 -.376834899626776D+00 0.858627111825230D+01
0.396894657903D-07 0.000000000000D+00 0.000000000000D+00 0.171932607928D-04 0.120511786628D-05  6 22 21 9900012 -13 1 -2 2 0.52624785D-02 0.13777702D-01 0.18788868D+04 0.18788868D+04 0.18788868D+04 0.12927563D+01  1  2  1  3  5  2       -1 0.305109633789D-03 0.100000000000D+01
  </mgrwgt>
  </event>
  <event>
  7     66 0.16695846E-05 0.60359313E+02 0.78161638E-02 0.11650603E+00
       22 -1    0    0    0    0 0.00000000E+00 0.00000000E+00 0.10920237E+04 0.10920237E+04 0.00000000E+00 0.0000E+00 0.9000E+01
       21 -1    0    0  502  501 0.00000000E+00 0.00000000E+00 -.43989571E+02 0.43989571E+02 0.00000000E+00 0.0000E+00 0.9000E+01
       24  2    1    2    0    0 -.69063898E+02 -.48882047E+02 0.28714204E+03 0.30894771E+03 0.76412394E+02 0.0000E+00 0.0000E+00
  9900012  1    3    3    0    0 -.44662819E+02 -.56897032E+02 0.23243399E+03 0.24851077E+03 0.50000000E+02 0.0000E+00 0.9000E+01
      -13  1    3    3    0    0 -.24401079E+02 0.80149852E+01 0.54708050E+02 0.60436937E+02 0.00000000E+00 0.0000E+00 0.9000E+01
        1  1    1    2  502    0 0.65754132E+02 0.44286625E+02 0.14427562E+02 0.80579561E+02 0.00000000E+00 0.0000E+00 0.9000E+01
       -2  1    1    2    0  501 0.33097661E+01 0.45954226E+01 0.74646456E+03 0.74648604E+03 0.00000000E+00 0.0000E+00 0.9000E+01
#aMCatNLO 2  0  0  2  5 0.81538434D+02 0.00000000D+00  -5  6  0 0.00000000D+00 0.00000000D+00 0.00000000D+00 0.00000000D+00 0.00000000D+00
  <mgrwgt>
 0.7485870362D-03    1    2    0
 0.991373682225564D+02 0.000000000000000D+00 0.000000000000000D+00 0.991373682225564D+02
 0.991373682225564D+02 0.000000000000000D+00 0.000000000000000D+00 -.991373682225564D+02
 0.836455339632216D+02 -.148257991038830D+02 -.368012474867987D+02 -.540595894947340D+02
 0.302159843009738D+02 -.141623707992836D+02 0.149109448399665D+02 -.221381273959603D+02
 0.000000000000000D+00 0.000000000000000D+00 0.000000000000000D+00 -.000000000000000D+00
 0.844132181809174D+02 0.289881699031666D+02 0.218903026468321D+02 0.761977168906943D+02
 0.111623878738299D+03 0.000000000000000D+00 0.000000000000000D+00 0.111623878738299D+03
 0.430352859567952D+03 0.000000000000000D+00 0.000000000000000D+00 -.430352859567952D+03
 0.103220535326916D+03 -.446628190457536D+02 -.568970323630523D+02 -.540595894947340D+02
 0.339079540433688D+02 -.244010793802449D+02 0.801498520812303D+01 -.221381273959603D+02
 0.328440366357792D+03 0.657541323585348D+02 0.442866245079494D+02 -.318728980829653D+03
 0.764078825781745D+02 0.330976606746362D+01 0.459542264697982D+01 0.761977168906943D+02
0.828143042982D-05 0.000000000000D+00 0.000000000000D+00 0.262436462034D-07 0.676918042630D-09  6 22 21 9900012 -13 1 -2 2 0.16800365D+00 0.67676263D-02 0.98561618D+04 0.98561618D+04 0.98561618D+04 0.12099826D+01  1  2  1  3  5  2       -1 0.748587036177D-03 0.100000000000D+01
  </mgrwgt>
  </event>
  <event>
  6     66 -.16695846E-05 0.19897503E+02 0.78161638E-02 0.13514639E+00
       22 -1    0    0    0    0 0.00000000E+00 0.00000000E+00 0.37527243E+03 0.37527243E+03 0.00000000E+00 0.0000E+00 0.9000E+01
       -3 -1    0    0    0  501 0.00000000E+00 0.00000000E+00 -.16014768E+02 0.16014768E+02 0.00000000E+00 0.0000E+00 0.9000E+01
       24  2    1    2    0    0 0.17940510E+01 -.19816458E+02 0.92659627E+02 0.12394767E+03 0.79883091E+02 0.0000E+00 0.0000E+00
  9900012  1    3    3    0    0 -.32367611E+01 -.20261075E+02 0.10079592E+03 0.11437135E+03 0.50000000E+02 0.0000E+00 0.9000E+01
      -13  1    3    3    0    0 0.50308121E+01 0.44461633E+00 -.81362916E+01 0.95763247E+01 0.00000000E+00 0.0000E+00 0.9000E+01
       -4  1    1    2    0  501 -.17940510E+01 0.19816458E+02 0.26659803E+03 0.26733953E+03 0.00000000E+00 0.0000E+00 0.9000E+01
#aMCatNLO 1  0  0  2  5 0.15013036D+01 0.00000000D+00  -5  6  0 0.00000000D+00 0.00000000D+00 0.00000000D+00 0.00000000D+00 0.00000000D+00
  <mgrwgt>
 -.8537925670D-03    9    4    0
 0.775235517457988D+02 0.000000000000000D+00 0.000000000000000D+00 0.775235517457988D+02
 0.775235517457988D+02 0.000000000000000D+00 0.000000000000000D+00 -.775235517457988D+02
 0.550822149077095D+02 -.323676110968547D+01 -.202610747241703D+02 -.106330911629455D+02
 0.430199482151729D+02 0.503081212110932D+01 0.444616332147621D+00 -.427224670420078D+02
 0.569449403687151D+02 -.179405101142385D+01 0.198164583920227D+02 0.533555582049533D+02
 0.000000000000000D+00 0.000000000000000D+00 0.000000000000000D+00 -.000000000000000D+00
 0.780533748359066D+02 0.000000000000000D+00 0.000000000000000D+00 0.780533748359066D+02
 0.780645445973887D+02 0.000000000000000D+00 0.000000000000000D+00 -.780645445973887D+02
 0.552232930797270D+02 -.334938381555743D+01 -.206235568936591D+02 -.106330911629455D+02
 0.430077717431353D+02 0.494297720897780D+01 0.161914995327649D+00 -.427224670420078D+02
 0.568197106431683D+02 -.191020552685382D+01 0.194426089056071D+02 0.533555582049533D+02
 0.106714396726468D+01 0.316612133433448D+00 0.101903299272426D+01 -.111697614820541D-01
 0.775235517457988D+02 0.000000000000000D+00 0.000000000000000D+00 0.775235517457988D+02
 0.775235517457988D+02 0.000000000000000D+00 0.000000000000000D+00 -.775235517457988D+02
 0.550822149077095D+02 -.323676110968547D+01 -.202610747241703D+02 -.106330911629455D+02
 0.430199482151729D+02 0.503081212110932D+01 0.444616332147621D+00 -.427224670420078D+02
 0.000000000000000D+00 0.000000000000000D+00 0.000000000000000D+00 -.000000000000000D+00
 0.569449403687151D+02 -.179405101142385D+01 0.198164583920227D+02 0.533555582049533D+02
 0.780533748359066D+02 0.000000000000000D+00 0.000000000000000D+00 0.780533748359066D+02
 0.780645445973887D+02 0.000000000000000D+00 0.000000000000000D+00 -.780645445973887D+02
 0.552232930797270D+02 -.334938381555743D+01 -.206235568936591D+02 -.106330911629455D+02
 0.430077717431353D+02 0.494297720897780D+01 0.161914995327649D+00 -.427224670420078D+02
 0.106714396726468D+01 0.316612133433448D+00 0.101903299272426D+01 -.111697614820541D-01
 0.568197106431683D+02 -.191020552685382D+01 0.194426089056071D+02 0.533555582049533D+02
0.708736147149D-06 0.000000000000D+00 0.000000000000D+00 0.132516722369D-05 0.000000000000D+00  6 22 -3 9900012 -13 -4 21 0 0.57734220D-01 0.24638105D-02 0.15600165D+04 0.15600165D+04 0.15600165D+04 0.13031883D+01  1  2  2  1  6  2       -3 0.714446606091D-04 0.100000000000D+01
-.348213795785D-07 0.000000000000D+00 -.136086670978D-08 0.132516722369D-05 0.000000000000D+00  6 22 -3 9900012 -13 -4 21 2 0.57734220D-01 0.24638105D-02 0.15600165D+04 0.15600165D+04 0.15600165D+04 0.13031883D+01  1  2  3  1  6  2       -3 -.596136191046D-05 0.100000000000D+01
0.663485049819D-07 0.000000000000D+00 0.000000000000D+00 0.132516722369D-05 0.000000000000D+00  6 22 -3 9900012 -13 -4 21 2 0.57734220D-01 0.24638105D-02 0.15600165D+04 0.15600165D+04 0.15600165D+04 0.13031883D+01  1  2 15  1  6  2       -3 0.113587530191D-04 0.100000000000D+01
0.269941441962D-10 0.000000000000D+00 0.000000000000D+00 0.132516722369D-05 0.000000000000D+00  6 22 -3 9900012 -13 -4 21 2 0.57734220D-01 0.24979601D-02 0.15895720D+04 0.15895720D+04 0.15895720D+04 0.13021242D+01  1  2 12  1  6  2       -3 0.453615661279D-08 0.100000000000D+01
-.430936251490D-05 0.000000000000D+00 0.000000000000D+00 0.132516722369D-05 0.000000000000D+00  6 22 -3 9900012 -13 -4 21 2 0.57734220D-01 0.24638105D-02 0.15600165D+04 0.15600165D+04 0.15600165D+04 0.13031883D+01  1  2  4  1  6  2       -3 -.737755650859D-03 0.100000000000D+01
-.427262609754D-04 0.000000000000D+00 -.566802187982D-05 0.132516722369D-05 0.000000000000D+00  6 22 -3 9900012 -13 -4 21 2 0.57734220D-01 0.24979880D-02 0.15600165D+04 0.15600165D+04 0.15600165D+04 0.13031883D+01  1  2  5  1  6  2       -3 -.717237048151D-02 0.100000000000D+01
0.428008223095D-04 0.000000000000D+00 0.566748405456D-05 0.132516722369D-05 0.000000000000D+00  6 22 -3 9900012 -13 -4 21 2 0.57734220D-01 0.24638105D-02 0.15600165D+04 0.15600165D+04 0.15600165D+04 0.13031883D+01  1  2  6  1  6  2       -3 0.732742915245D-02 0.100000000000D+01
0.279000689534D-11 0.000000000000D+00 0.000000000000D+00 0.132516722369D-05 0.000000000000D+00  6 22 21 9900012 -13 3 -4 2 0.57734220D-01 0.24979601D-02 0.15895720D+04 0.15895720D+04 0.15895720D+04 0.13021242D+01  3  4 12  3  5  2       -3 0.902114365630D-08 0.100000000000D+01
-.107723104263D-06 0.000000000000D+00 -.143430341600D-07 0.132516722369D-05 0.000000000000D+00  6 22 21 9900012 -13 3 -4 2 0.57734220D-01 0.24979880D-02 0.15600165D+04 0.15600165D+04 0.15600165D+04 0.13031883D+01  3  4  5  3  5  2       -3 -.347951196076D-03 0.100000000000D+01
  </mgrwgt>
  </event>
  <event>
  6     66 0.16695846E-05 0.93258810E+01 0.78161638E-02 0.13512503E+00
       22 -1    0    0    0    0 0.00000000E+00 0.00000000E+00 0.14020602E+04 0.14020602E+04 0.00000000E+00 0.0000E+00 0.9000E+01
       -1 -1    0    0    0  501 0.00000000E+00 0.00000000E+00 -.98925224E+02 0.98925224E+02 0.00000000E+00 0.0000E+00 0.9000E+01
       24  2    1    2    0    0 0.80114276E+01 -.47737914E+01 -.81404622E+02 0.11641442E+03 0.82696022E+02 0.0000E+00 0.0000E+00
  9900012  1    3    3    0    0 -.10505659E+01 -.18473794E+02 -.27351655E+02 0.59920762E+02 0.50000000E+02 0.0000E+00 0.9000E+01
      -13  1    3    3    0    0 0.90619935E+01 0.13700002E+02 -.54052967E+02 0.56493655E+02 0.00000000E+00 0.0000E+00 0.9000E+01
       -2  1    1    2    0  501 -.80114276E+01 0.47737914E+01 0.13845396E+04 0.13845710E+04 0.00000000E+00 0.0000E+00 0.9000E+01
#aMCatNLO 1  0  0  2  5 0.15013036D+01 0.00000000D+00  -5  6  0 0.00000000D+00 0.00000000D+00 0.00000000D+00 0.00000000D+00 0.00000000D+00
  <mgrwgt>
 0.1180057937D-03    1    2    0
 0.372423308721982D+03 0.000000000000000D+00 0.000000000000000D+00 0.372423308721982D+03
 0.372423308721982D+03 0.000000000000000D+00 0.000000000000000D+00 -.372423308721982D+03
 0.168602618708254D+03 -.105056592243367D+01 -.184737936910156D+02 -.159951424792607D+03
 0.208411321085210D+03 0.906199350976734D+01 0.137000023219062D+02 -.207763011545585D+03
 0.367832677650501D+03 -.801142758733367D+01 0.477379136910939D+01 0.367714436338193D+03
 0.000000000000000D+00 0.000000000000000D+00 -.000000000000000D+00 0.000000000000000D+00
 0.435412073232626D+03 0.000000000000000D+00 0.000000000000000D+00 0.435412073232626D+03
 0.433531858281330D+03 0.000000000000000D+00 0.000000000000000D+00 -.433531858281330D+03
 0.167812063822844D+03 -.514751559223178D+01 0.706636784528695D+01 -.159951424792607D+03
 0.212760725940570D+03 0.393284556055155D+01 0.456748318230510D+02 -.207763011545585D+03
 0.373133207205935D+03 -.170351120307546D+02 0.610269496728448D+02 0.367714436338193D+03
 0.115237934544607D+03 0.182497820624348D+02 -.113768149341183D+03 0.188021495129596D+01
0.119060055324D-03 0.000000000000D+00 0.000000000000D+00 0.376435625956D-04 0.000000000000D+00  6 22 -1 9900012 -13 -2 21 2 0.21570157D+00 0.15219265D-01 0.15628497D+04 0.15628497D+04 0.15628497D+04 0.13030853D+01  1  2 14  1  6  2       -1 0.118005793725D-03 0.100000000000D+01
  </mgrwgt>
  </event>
  <event>
  6     66 0.16695846E-05 0.72697355E+01 0.78161638E-02 0.13328042E+00
       22 -1    0    0    0    0 0.00000000E+00 0.00000000E+00 0.22011129E+02 0.22011129E+02 0.00000000E+00 0.0000E+00 0.9000E+01
       -1 -1    0    0    0  501 -.00000000E+00 -.00000000E+00 -.22489074E+03 0.22489074E+03 0.00000000E+00 0.0000E+00 0.9000E+01
       24  2    1    2    0    0 -.13865632E+01 -.71362803E+01 -.21705600E+03 0.23097017E+03 0.78619729E+02 0.0000E+00 0.0000E+00
  9900012  1    3    3    0    0 0.10297834E+00 -.28074737E+02 -.17093360E+03 0.18029558E+03 0.50000000E+02 0.0000E+00 0.9000E+01
      -13  1    3    3    0    0 -.14895415E+01 0.20938457E+02 -.46122405E+02 0.50674589E+02 0.00000000E+00 0.0000E+00 0.9000E+01
       -2  1    1    2    0  501 0.13865632E+01 0.71362803E+01 0.14176391E+02 0.15931701E+02 0.00000000E+00 0.0000E+00 0.9000E+01
#aMCatNLO 1  0  0  5  2 0.17653469D+01 0.00000000D+00  -5  6  0 0.00000000D+00 0.00000000D+00 0.00000000D+00 0.00000000D+00 0.00000000D+00
  <mgrwgt>
 0.3754414857D-02    6    2    0
 0.703569412962814D+02 0.000000000000000D+00 0.000000000000000D+00 0.703569412962814D+02
 0.703569412962814D+02 -.000000000000000D+00 -.000000000000000D+00 -.703569412962814D+02
 0.699033663391164D+02 0.102978335908411D+00 -.280747373657445D+02 -.399784834985960D+02
 0.224168014128553D+02 -.148954154368837D+01 0.209384570470316D+02 -.786608340043686D+01
 0.483937148405912D+02 0.138656320777996D+01 0.713628031871286D+01 0.478445668990329D+02
 0.000000000000000D+00 0.000000000000000D+00 0.000000000000000D+00 0.000000000000000D+00
 0.703569412962814D+02 0.000000000000000D+00 0.000000000000000D+00 0.703569412962814D+02
 0.703569412962814D+02 -.000000000000000D+00 -.000000000000000D+00 -.703569412962814D+02
 0.698500223884064D+02 0.105426785747657D+00 -.280621358310282D+02 -.398939976118543D+02
 0.224110313604090D+02 -.148875616953075D+01 0.209424991636206D+02 -.783898338349243D+01
 0.120965556684980D+02 -.359223663409924D-01 0.631529592303992D-01 0.120963374757986D+02
 0.363562731752494D+02 0.141925175012408D+01 0.705648370817715D+01 0.356366435195482D+02
0.256018796814D-08 0.000000000000D+00 0.000000000000D+00 0.633468736591D-06 0.000000000000D+00  6 22 -1 9900012 -13 -2 21 0 0.33863276D-02 0.34598575D-01 0.18320090D+04 0.18320090D+04 0.18320090D+04 0.12941585D+01  1  2  2  2  6  5       -2 0.382236402903D-06 0.100000000000D+01
-.146744645552D-09 0.000000000000D+00 -.491589795532D-11 0.633468736591D-06 0.000000000000D+00  6 22 -1 9900012 -13 -2 21 2 0.33863276D-02 0.34598575D-01 0.18320090D+04 0.18320090D+04 0.18320090D+04 0.12941585D+01  1  2  3  2  6  5       -2 -.366941956782D-07 0.100000000000D+01
0.238142018245D-09 0.000000000000D+00 0.000000000000D+00 0.633468736591D-06 0.000000000000D+00  6 22 -1 9900012 -13 -2 21 2 0.33863276D-02 0.34598575D-01 0.18320090D+04 0.18320090D+04 0.18320090D+04 0.12941585D+01  1  2 15  2  6  5       -2 0.595485428705D-07 0.100000000000D+01
0.942296842466D-11 0.000000000000D+00 0.000000000000D+00 0.633468736591D-06 0.000000000000D+00  6 22 -1 9900012 -13 -2 21 2 0.33863276D-02 0.34598575D-01 0.18319459D+04 0.18319459D+04 0.18319459D+04 0.12941604D+01  1  2 12  2  6  5       -2 0.235625639820D-08 0.100000000000D+01
-.168212500787D-07 0.000000000000D+00 0.000000000000D+00 0.633468736591D-06 0.000000000000D+00  6 22 -1 9900012 -13 -2 21 2 0.33863276D-02 0.34598575D-01 0.18320090D+04 0.18320090D+04 0.18320090D+04 0.12941585D+01  1  2  5  2  6  5       -2 -.420623348551D-05 0.100000000000D+01
0.150295734038D-04 0.000000000000D+00 0.000000000000D+00 0.633468736591D-06 0.213858333520D-03  6 22 -1 9900012 -13 -2 21 2 0.33863276D-02 0.34598575D-01 0.18319459D+04 0.18319459D+04 0.18319459D+04 0.12941604D+01  1  2 11  2  6  5       -2 0.375821364339D-02 0.100000000000D+01
  </mgrwgt>
  </event>
  <event>
  6     66 0.16695846E-05 0.13124832E+02 0.78161638E-02 0.13624832E+00
       22 -1    0    0    0    0 0.00000000E+00 0.00000000E+00 0.29851942E+01 0.29851942E+01 0.00000000E+00 0.0000E+00 0.9000E+01
       -1 -1    0    0    0  501 -.00000000E+00 -.00000000E+00 -.11280156E+04 0.11280156E+04 0.00000000E+00 0.0000E+00 0.9000E+01
       24  2    1    2    0    0 -.56460603E+01 -.11848342E+02 -.10981110E+04 0.11010523E+04 0.79347380E+02 0.0000E+00 0.0000E+00
  9900012  1    3    3    0    0 -.47116003E+01 -.19935994E+02 -.50448878E+03 0.50737419E+03 0.50000000E+02 0.0000E+00 0.9000E+01
      -13  1    3    3    0    0 -.93446002E+00 0.80876516E+01 -.59362227E+03 0.59367810E+03 0.00000000E+00 0.0000E+00 0.9000E+01
       -2  1    1    2    0  501 0.56460603E+01 0.11848342E+02 -.26919364E+02 0.29948512E+02 0.00000000E+00 0.0000E+00 0.9000E+01
#aMCatNLO 1  0  0  5  2 0.21010480D+00 0.00000000D+00  -5  6  0 0.00000000D+00 0.00000000D+00 0.00000000D+00 0.00000000D+00 0.00000000D+00
  <mgrwgt>
 0.1139021439D-03    5    2    0
 0.580288343326446D+02 0.000000000000000D+00 0.000000000000000D+00 0.580288343326446D+02
 0.580288343326446D+02 -.000000000000000D+00 -.000000000000000D+00 -.580288343326446D+02
 0.540713846677942D+02 -.471160030261817D+01 -.199359937789016D+02 0.201782420654813D+01
 0.310819252107415D+02 -.934460021378512D+00 0.808765155925960D+01 -.299967123453651D+02
 0.309043587867536D+02 0.564606032399668D+01 0.118483422196420D+02 0.279788881388170D+02
 0.000000000000000D+00 0.000000000000000D+00 0.000000000000000D+00 0.000000000000000D+00
 0.580288343326446D+02 0.000000000000000D+00 0.000000000000000D+00 0.580288343326446D+02
 0.580288343326446D+02 -.000000000000000D+00 -.000000000000000D+00 -.580288343326446D+02
 0.540646187669866D+02 -.470154971681102D+01 -.199149024739354D+02 0.206762959293992D+01
 0.310572906580029D+02 -.928684558061570D+00 0.809977145559958D+01 -.299680922044488D+02
 0.188515715855934D+00 -.143272254792339D+00 0.105226049034729D+00 0.627591804910412D-01
 0.307472435244438D+02 0.577350652966492D+01 0.117099049693011D+02 0.278377034310179D+02
0.103348042758D-05 0.000000000000D+00 0.000000000000D+00 0.737181330514D-06 0.000000000000D+00  6 22 -1 9900012 -13 -2 21 0 0.45926064D-03 0.17354086D+00 0.14175229D+04 0.14175229D+04 0.14175229D+04 0.13086605D+01  1  2  2  2  6  5       -2 0.784092133637D-04 0.100000000000D+01
-.527841191606D-07 0.000000000000D+00 -.198441848178D-08 0.737181330514D-06 0.000000000000D+00  6 22 -1 9900012 -13 -2 21 2 0.45926064D-03 0.17354086D+00 0.14175229D+04 0.14175229D+04 0.14175229D+04 0.13086605D+01  1  2  3  2  6  5       -2 -.685838853896D-05 0.100000000000D+01
0.100836539746D-06 0.000000000000D+00 0.000000000000D+00 0.737181330514D-06 0.000000000000D+00  6 22 -1 9900012 -13 -2 21 2 0.45926064D-03 0.17354086D+00 0.14175229D+04 0.14175229D+04 0.14175229D+04 0.13086605D+01  1  2 15  2  6  5       -2 0.131019742206D-04 0.100000000000D+01
-.145265373237D-06 0.000000000000D+00 0.000000000000D+00 0.737181330514D-06 0.000000000000D+00  6 22 -1 9900012 -13 -2 21 2 0.45926064D-03 0.17354086D+00 0.14175229D+04 0.14175229D+04 0.14175229D+04 0.13086605D+01  1  2  5  2  6  5       -2 -.188747370754D-04 0.100000000000D+01
0.370384602852D-06 0.000000000000D+00 0.000000000000D+00 0.737181330514D-06 0.986383921984D-06  6 22 -1 9900012 -13 -2 21 2 0.45926064D-03 0.17354086D+00 0.14217243D+04 0.14217243D+04 0.14217243D+04 0.13084903D+01  1  2 11  2  6  5       -2 0.481240819760D-04 0.100000000000D+01
  </mgrwgt>
  </event>
  <event>
  7     66 0.16695846E-05 0.49265540E+01 0.78161638E-02 0.13552134E+00
       22 -1    0    0    0    0 0.00000000E+00 0.00000000E+00 0.17359831E+04 0.17359831E+04 0.00000000E+00 0.0000E+00 0.9000E+01
       -3 -1    0    0    0  501 0.00000000E+00 0.00000000E+00 -.12762411E+01 0.12762411E+01 0.00000000E+00 0.0000E+00 0.9000E+01
       24  2    1    2    0    0 -.32381096E+01 0.36998351E+01 0.12286783E+04 0.12312038E+04 0.78665424E+02 0.0000E+00 0.0000E+00
  9900012  1    3    3    0    0 -.15973462E+02 -.10416791E+02 0.10785029E+04 0.10798297E+04 0.50000000E+02 0.0000E+00 0.9000E+01
      -13  1    3    3    0    0 0.12735353E+02 0.14116626E+02 0.15017541E+03 0.15137411E+03 0.00000000E+00 0.0000E+00 0.9000E+01
       -4  1    1    2    0  502 0.31819902E+01 -.38901360E+01 0.48926767E+03 0.48929348E+03 0.00000000E+00 0.0000E+00 0.9000E+01
       21  1    1    2  502  501 0.56119373E-01 0.19030091E+00 0.16760871E+02 0.16762046E+02 0.00000000E+00 0.0000E+00 0.9000E+01
#aMCatNLO 2  0  0  5  2 0.82540681D+00 0.00000000D+00  -5  6  0 0.00000000D+00 0.00000000D+00 0.00000000D+00 0.00000000D+00 0.00000000D+00
  <mgrwgt>
 0.1648055773D-02    1    2    0
 0.470694474068729D+02 0.000000000000000D+00 0.000000000000000D+00 0.470694474068729D+02
 0.470694474068729D+02 -.000000000000000D+00 -.000000000000000D+00 -.470694474068729D+02
 0.537233023147125D+02 -.159879812516056D+02 -.104002015821042D+02 0.473428707916038D+01
 0.262137976172352D+02 0.127282712602638D+02 0.141247170870757D+02 -.180456826818100D+02
 0.142017948817981D+02 0.325970999134175D+01 -.372451550497154D+01 0.133113956026496D+02
 0.000000000000000D+00 0.000000000000000D+00 0.000000000000000D+00 0.000000000000000D+00
 0.470694474068729D+02 0.000000000000000D+00 0.000000000000000D+00 0.470694474068729D+02
 0.470694474068729D+02 -.000000000000000D+00 -.000000000000000D+00 -.470694474068729D+02
 0.537274549081993D+02 -.159734621970192D+02 -.104167909241217D+02 0.479357728592381D+01
 0.261929792665626D+02 0.127353526143085D+02 0.141166259952283D+02 -.180167651691042D+02
 0.137423367468422D+02 0.318199020948589D+01 -.389013598211624D+01 0.127903713632948D+02
 0.476123892141678D+00 0.561193732247622D-01 0.190300911009655D+00 0.432816519885616D+00
0.775758858121D-05 0.000000000000D+00 0.000000000000D+00 0.935085396227D-06 0.756754136931D-04  6 22 -3 9900012 -13 -4 21 2 0.26707432D+00 0.19634478D-03 0.15112526D+04 0.15112526D+04 0.15112526D+04 0.13049948D+01  1  2  1  2  6  5       -4 0.164805577289D-02 0.100000000000D+01
  </mgrwgt>
  </event>
  <event>
  6     66 -.16695846E-05 0.51359818E+01 0.78161638E-02 0.13495191E+00
       22 -1    0    0    0    0 0.00000000E+00 0.00000000E+00 0.10153135E+02 0.10153135E+02 0.00000000E+00 0.0000E+00 0.9000E+01
       -1 -1    0    0    0  501 -.00000000E+00 -.00000000E+00 -.21818673E+03 0.21818673E+03 0.00000000E+00 0.0000E+00 0.9000E+01
       24  2    1    2    0    0 -.50515748E+01 0.92730895E+00 -.20850878E+03 0.22318195E+03 0.79422262E+02 0.0000E+00 0.0000E+00
  9900012  1    3    3    0    0 -.87980152E+01 -.19023024E+02 -.11038105E+03 0.12297665E+03 0.50000000E+02 0.0000E+00 0.9000E+01
      -13  1    3    3    0    0 0.37464404E+01 0.19950333E+02 -.98127731E+02 0.10020530E+03 0.00000000E+00 0.0000E+00 0.9000E+01
       -2  1    1    2    0  501 0.50515748E+01 -.92730895E+00 0.47517774E+00 0.51579166E+01 0.00000000E+00 0.0000E+00 0.9000E+01
#aMCatNLO 1  0  0  5  2 0.88228596D+00 0.00000000D+00  -5  6  0 0.00000000D+00 0.00000000D+00 0.00000000D+00 0.00000000D+00 0.00000000D+00
  <mgrwgt>
 -.3382006875D-03    7    2    0
 0.470667544500075D+02 0.000000000000000D+00 0.000000000000000D+00 0.470667544500075D+02
 0.470667544500075D+02 -.000000000000000D+00 -.000000000000000D+00 -.470667544500075D+02
 0.543643320449242D+02 -.879801516989584D+01 -.190230241696034D+02 0.402493219865107D+01
 0.262074713361197D+02 0.374644040742825D+01 0.199503331177089D+02 -.165764877642875D+02
 0.135617055189712D+02 0.505157476246760D+01 -.927308948105478D+00 0.125515555656364D+02
 0.000000000000000D+00 0.000000000000000D+00 -.000000000000000D+00 0.000000000000000D+00
 0.470667544500075D+02 0.000000000000000D+00 0.000000000000000D+00 0.470667544500075D+02
 0.470667544500075D+02 -.000000000000000D+00 -.000000000000000D+00 -.470667544500075D+02
 0.543684025755564D+02 -.875246911488834D+01 -.190313849811018D+02 0.413809964981296D+01
 0.261731029742343D+02 0.376838162436895D+01 0.199463054060035D+02 -.165219708232229D+02
 0.113757471156660D+02 0.386670767282926D+01 -.800318667638378D-02 0.106984171801940D+02
 0.221625623455834D+01 0.111737981769014D+01 -.906917238225248D+00 0.168545399321588D+01
0.536799993237D-07 0.000000000000D+00 0.000000000000D+00 0.162653165516D-05 0.000000000000D+00  6 22 -1 9900012 -13 -2 21 0 0.15620208D-02 0.33567190D-01 0.15860373D+04 0.15860373D+04 0.15860373D+04 0.13022502D+01  1  2  2  2  6  5       -2 0.229870049140D-04 0.100000000000D+01
-.102829496735D-10 0.000000000000D+00 -.103072665836D-09 0.162653165516D-05 0.000000000000D+00  6 22 -1 9900012 -13 -2 21 2 0.15620208D-02 0.33567190D-01 0.15860373D+04 0.15860373D+04 0.15860373D+04 0.13022502D+01  1  2  3  2  6  5       -2 -.746752164675D-08 0.100000000000D+01
0.358491646039D-08 0.000000000000D+00 0.000000000000D+00 0.162653165516D-05 0.000000000000D+00  6 22 -1 9900012 -13 -2 21 2 0.15620208D-02 0.33567190D-01 0.15860373D+04 0.15860373D+04 0.15860373D+04 0.13022502D+01  1  2 15  2  6  5       -2 0.260338153152D-05 0.100000000000D+01
0.594496326307D-12 0.000000000000D+00 0.000000000000D+00 0.162653165516D-05 0.000000000000D+00  6 22 -1 9900012 -13 -2 21 2 0.15620208D-02 0.33567190D-01 0.15926356D+04 0.15926356D+04 0.15926356D+04 0.13020151D+01  1  2 12  2  6  5       -2 0.431790048257D-09 0.100000000000D+01
-.623551685029D-06 0.000000000000D+00 0.000000000000D+00 0.162653165516D-05 0.000000000000D+00  6 22 -1 9900012 -13 -2 21 2 0.15620208D-02 0.33567190D-01 0.15860373D+04 0.15860373D+04 0.15860373D+04 0.13022502D+01  1  2  4  2  6  5       -2 -.452825877170D-03 0.100000000000D+01
-.433966971590D-06 0.000000000000D+00 0.000000000000D+00 0.162653165516D-05 0.000000000000D+00  6 22 -1 9900012 -13 -2 21 2 0.15620208D-02 0.33567190D-01 0.15860373D+04 0.15860373D+04 0.15860373D+04 0.13022502D+01  1  2  5  2  6  5       -2 -.315148654540D-03 0.100000000000D+01
0.556579639064D-06 0.000000000000D+00 -.000000000000D+00 0.162653165516D-05 0.000000000000D+00  6 22 -1 9900012 -13 -2 21 2 0.15620208D-02 0.33567190D-01 0.15860373D+04 0.15860373D+04 0.15860373D+04 0.13022502D+01  1  2  6  2  6  5       -2 0.404190493467D-03 0.100000000000D+01
  </mgrwgt>
  </event>
  <event>
  7     66 0.16695846E-05 0.36813290E+02 0.78161638E-02 0.12875751E+00
       22 -1    0    0    0    0 0.00000000E+00 0.00000000E+00 0.23544339E+03 0.23544339E+03 0.00000000E+00 0.0000E+00 0.9000E+01
       21 -1    0    0  502  501 0.00000000E+00 0.00000000E+00 -.12283184E+03 0.12283184E+03 0.00000000E+00 0.0000E+00 0.9000E+01
       24  2    1    2    0    0 0.63467588E+01 -.38727829E+02 0.59344304E+02 0.10705590E+03 0.79994336E+02 0.0000E+00 0.0000E+00
  9900012  1    3    3    0    0 0.47546764E+01 -.33719601E+02 0.71591919E+02 0.93728445E+02 0.50000000E+02 0.0000E+00 0.9000E+01
      -13  1    3    3    0    0 0.15920825E+01 -.50082277E+01 -.12247615E+02 0.13327458E+02 0.00000000E+00 0.0000E+00 0.9000E+01
        3  1    1    2  502    0 -.68212356E+00 0.15132503E+01 -.96641916E+02 0.96656170E+02 0.00000000E+00 0.0000E+00 0.9000E+01
       -4  1    1    2    0  501 -.56646353E+01 0.37214578E+02 0.14990916E+03 0.15456316E+03 0.00000000E+00 0.0000E+00 0.9000E+01
#aMCatNLO 2  0  0  2  5 0.92386965D+01 0.00000000D+00  -5  6  0 0.00000000D+00 0.00000000D+00 0.00000000D+00 0.00000000D+00 0.00000000D+00
  <mgrwgt>
 0.1631524042D-02    1    2    0
 0.785091786634863D+02 0.000000000000000D+00 0.000000000000000D+00 0.785091786634863D+02
 0.785091786634863D+02 0.000000000000000D+00 0.000000000000000D+00 -.785091786634863D+02
 0.604134515345849D+02 0.449149053544105D+01 -.331357389895470D+02 -.562445025831828D+01
 0.384726241519808D+02 0.142483810954462D+01 -.463720607010084D+01 -.381655468369652D+02
 0.000000000000000D+00 -.000000000000000D+00 0.000000000000000D+00 -.000000000000000D+00
 0.581322816404069D+02 -.591632864498567D+01 0.377729450596479D+02 0.437899970952835D+02
 0.785159419951855D+02 0.000000000000000D+00 0.000000000000000D+00 0.785159419951855D+02
 0.368332140440262D+03 0.000000000000000D+00 0.000000000000000D+00 -.368332140440262D+03
 0.607556818684857D+02 0.475467636037398D+01 -.337196009956292D+02 -.562445025831828D+01
 0.385256542666961D+02 0.159208247991263D+01 -.500822769945308D+01 -.381655468369652D+02
 0.289820951796463D+03 -.682123561467097D+00 0.151325030934178D+01 -.289816198445076D+03
 0.577457945038027D+02 -.566463527881952D+01 0.372145783857406D+02 0.437899970952835D+02
0.579684946196D-05 0.000000000000D+00 0.000000000000D+00 0.367513516850D-06 0.545665661821D-06  6 22 21 9900012 -13 3 -4 2 0.36222060D-01 0.18897206D-01 0.27590381D+04 0.27590381D+04 0.27590381D+04 0.12720120D+01  1  2  1  3  5  2       -3 0.163152404250D-02 0.100000000000D+01
  </mgrwgt>
  </event>
  <event>
  7     66 0.16695846E-05 0.12389177E+02 0.78161638E-02 0.13448763E+00
       22 -1    0    0    0    0 0.00000000E+00 0.00000000E+00 0.67015516E+03 0.67015516E+03 0.00000000E+00 0.0000E+00 0.9000E+01
       21 -1    0    0  502  501 0.00000000E+00 0.00000000E+00 -.40047169E+01 0.40047169E+01 0.00000000E+00 0.0000E+00 0.9000E+01
       24  2    1    2    0    0 -.22749066E+01 0.12286151E+02 0.60524341E+03 0.61084830E+03 0.81608444E+02 0.0000E+00 0.0000E+00
  9900012  1    3    3    0    0 -.23322771E+01 0.24596560E+02 0.58088115E+03 0.58355235E+03 0.50000000E+02 0.0000E+00 0.9000E+01
      -13  1    3    3    0    0 0.57370441E-01 -.12310409E+02 0.24362255E+02 0.27295951E+02 0.00000000E+00 0.0000E+00 0.9000E+01
        1  1    1    2  502    0 0.27893811E+01 -.12336202E+02 0.32126961E+02 0.34526862E+02 0.00000000E+00 0.0000E+00 0.9000E+01
       -2  1    1    2    0  501 -.51447453E+00 0.50050953E-01 0.28780076E+02 0.28784718E+02 0.00000000E+00 0.0000E+00 0.9000E+01
#aMCatNLO 2  0  0  2  5 0.35824534D+00 0.00000000D+00  -5  6  0 0.00000000D+00 0.00000000D+00 0.00000000D+00 0.00000000D+00 0.00000000D+00
  <mgrwgt>
 0.9394223014D-04    1    2    0
 0.417871285297060D+02 0.000000000000000D+00 0.000000000000000D+00 0.417871285297060D+02
 0.417871285297060D+02 0.000000000000000D+00 0.000000000000000D+00 -.417871285297060D+02
 0.557243825355211D+02 -.432509658337806D+00 0.161947274271645D+02 0.185135233794212D+02
 0.259071808365827D+02 0.882471719730193D+00 -.159594681814443D+02 -.203886889703272D+02
 0.000000000000000D+00 0.000000000000000D+00 -.000000000000000D+00 -.000000000000000D+00
 0.194269368730822D+01 -.449962061392387D+00 -.235259245720206D+00 0.187516559090601D+01
 0.444746548707118D+02 0.000000000000000D+00 0.000000000000000D+00 0.444746548707118D+02
 0.603440703044809D+02 0.000000000000000D+00 0.000000000000000D+00 -.603440703044809D+02
 0.587637714698313D+02 -.233227705039006D+01 0.245965601903683D+02 0.185135233794212D+02
 0.238169710072188D+02 0.573704409909704D-01 -.123104093620991D+02 -.203886889703272D+02
 0.202928772670109D+02 0.278938114421049D+01 -.123362017816158D+02 -.158694154337691D+02
 0.194510543113174D+01 -.514474534811396D+00 0.500509533466493D-01 0.187516559090601D+01
0.108238232420D-07 0.000000000000D+00 0.000000000000D+00 0.154266797288D-04 0.403353649093D-07  6 22 21 9900012 -13 1 -2 2 0.10310079D+00 0.61611029D-03 0.16502406D+04 0.16502406D+04 0.16502406D+04 0.13000082D+01  1  2  1  3  5  2       -1 0.939422301391D-04 0.100000000000D+01
  </mgrwgt>
  </event>
  <event>
  7     66 0.16695846E-05 0.90842878E+01 0.78161638E-02 0.13257501E+00
       22 -1    0    0    0    0 0.00000000E+00 0.00000000E+00 0.43319967E+03 0.43319967E+03 0.00000000E+00 0.0000E+00 0.9000E+01
       21 -1    0    0  502  501 0.00000000E+00 0.00000000E+00 -.54709748E+02 0.54709748E+02 0.00000000E+00 0.0000E+00 0.9000E+01
       24  2    1    2    0    0 0.69415050E+01 0.59309118E+01 0.31646351E+03 0.32664987E+03 0.80421516E+02 0.0000E+00 0.0000E+00
  9900012  1    3    3    0    0 -.69230020E+01 0.24183038E+02 0.25452277E+03 0.26060428E+03 0.50000000E+02 0.0000E+00 0.9000E+01
      -13  1    3    3    0    0 0.13864507E+02 -.18252126E+02 0.61940739E+02 0.66045589E+02 0.00000000E+00 0.0000E+00 0.9000E+01
        1  1    1    2  502    0 -.71189304E+01 -.58130445E+01 -.49190851E+02 0.50042087E+02 0.00000000E+00 0.0000E+00 0.9000E+01
       -2  1    1    2    0  501 0.17742540E+00 -.11786728E+00 0.11121726E+03 0.11121747E+03 0.00000000E+00 0.0000E+00 0.9000E+01
#aMCatNLO 2  0  0  2  2 0.11448647D+02 0.00000000D+00  -5  6  0 0.00000000D+00 0.00000000D+00 0.00000000D+00 0.00000000D+00 0.00000000D+00
  <mgrwgt>
 0.9086583168D-02    1    2    0
 0.467238838140275D+02 0.000000000000000D+00 0.000000000000000D+00 0.467238838140275D+02
 0.467238838140275D+02 0.000000000000000D+00 0.000000000000000D+00 -.467238838140275D+02
 0.552641371440042D+02 -.111497993941671D+02 0.207315976949580D+02 -.876627375231287D-01
 0.260652832712967D+02 0.118913609237978D+02 -.198633210609179D+02 -.119767693400102D+02
 0.000000000000000D+00 -.000000000000000D+00 -.000000000000000D+00 -.000000000000000D+00
 0.121183472127541D+02 -.741561529630743D+00 -.868276634040070D+00 0.120644320775334D+02
 0.469954965649399D+02 0.000000000000000D+00 0.000000000000000D+00 0.469954965649399D+02
 0.504308849015348D+03 0.000000000000000D+00 0.000000000000000D+00 -.504308849015348D+03
 0.559710188850432D+02 -.692300204190169D+01 0.241830377124575D+02 -.876627375231287D-01
 0.258613158793990D+02 0.138645070013292D+02 -.182521259255008D+02 -.119767693400102D+02
 0.457405698461909D+03 -.711893036406451D+01 -.581304450925609D+01 -.457313352450408D+03
 0.120663123539373D+02 0.177425404637018D+00 -.117867277700581D+00 0.120644320775334D+02
0.230558286791D-04 0.000000000000D+00 0.000000000000D+00 0.264719652417D-04 0.124856259703D-03  6 22 21 9900012 -13 1 -2 2 0.66646103D-01 0.84168843D-02 0.19490276D+04 0.19490276D+04 0.19490276D+04 0.12907311D+01  1  2  1  3  5  2       -1 0.908658316769D-02 0.100000000000D+01
  </mgrwgt>
  </event>
  <event>
  6     66 0.16695846E-05 0.14074132E+02 0.78161638E-02 0.13150317E+00
       22 -1    0    0    0    0 0.00000000E+00 0.00000000E+00 0.42099675E+02 0.42099675E+02 0.00000000E+00 0.0000E+00 0.9000E+01
       -1 -1    0    0    0  501 -.00000000E+00 -.00000000E+00 -.56107905E+03 0.56107905E+03 0.00000000E+00 0.0000E+00 0.9000E+01
       24  2    1    2    0    0 -.14051143E+02 0.80409821E+00 -.55694460E+03 0.56268874E+03 0.78950909E+02 0.0000E+00 0.0000E+00
  9900012  1    3    3    0    0 -.32316839E+02 -.39477966E+01 -.36821455E+03 0.37301732E+03 0.50000000E+02 0.0000E+00 0.9000E+01
      -13  1    3    3    0    0 0.18265696E+02 0.47518948E+01 -.18873005E+03 0.18967142E+03 0.00000000E+00 0.0000E+00 0.9000E+01
       -2  1    1    2    0  501 0.14051143E+02 -.80409821E+00 0.37965223E+02 0.40489991E+02 0.00000000E+00 0.0000E+00 0.9000E+01
#aMCatNLO 1  0  0  5  2 0.85156551D+01 0.00000000D+00  -5  6  0 0.00000000D+00 0.00000000D+00 0.00000000D+00 0.00000000D+00 0.00000000D+00
  <mgrwgt>
 0.1289106531D-04    1    2    0
 0.153692049203880D+03 0.000000000000000D+00 0.000000000000000D+00 0.153692049203880D+03
 0.153692049203880D+03 -.000000000000000D+00 -.000000000000000D+00 -.153692049203880D+03
 0.110286618029621D+03 -.323168387559341D+02 -.394779661697133D+01 -.927533015644487D+02
 0.535446120720879D+02 0.182656960749025D+02 0.475189482767132D+01 -.501079766543854D+02
 0.143552868306050D+03 0.140511426810315D+02 -.804098210699990D+00 0.142861278218834D+03
 0.000000000000000D+00 0.000000000000000D+00 0.000000000000000D+00 0.000000000000000D+00
 0.153692049203880D+03 0.000000000000000D+00 0.000000000000000D+00 0.153692049203880D+03
 0.153692049203880D+03 -.000000000000000D+00 -.000000000000000D+00 -.153692049203880D+03
 0.109211613068603D+03 -.321950558482858D+02 -.395476583081797D+01 -.915151060491948D+02
 0.530026812554036D+02 0.183248110806069D+02 0.474851188071879D+01 -.495069404633396D+02
 0.139310346584154D+03 0.874126584742291D+01 -.278625240056064D+01 0.139007912488254D+03
 0.585945749959948D+01 0.512897892025586D+01 0.199250635065983D+01 0.201413402428037D+01
0.608609145324D-06 0.000000000000D+00 0.000000000000D+00 0.440694644515D-05 0.000000000000D+00  6 22 -1 9900012 -13 -2 21 2 0.64768731D-02 0.86319854D-01 0.21443034D+04 0.21443034D+04 0.21443034D+04 0.12855028D+01  1  2 14  2  6  5       -2 0.128910653118D-04 0.100000000000D+01
  </mgrwgt>
  </event>
  <event>
  7     66 0.16695846E-05 0.12279561E+02 0.78161638E-02 0.13230460E+00
       22 -1    0    0    0    0 0.00000000E+00 0.00000000E+00 0.43887292E+02 0.43887292E+02 0.00000000E+00 0.0000E+00 0.9000E+01
       21 -1    0    0  502  501 0.00000000E+00 0.00000000E+00 -.73897085E+02 0.73897085E+02 0.00000000E+00 0.0000E+00 0.9000E+01
       24  2    1    2    0    0 0.31947709E+01 0.16237705E+02 -.24499062E+02 0.87914592E+02 0.82794335E+02 0.0000E+00 0.0000E+00
  9900012  1    3    3    0    0 0.19370452E+01 -.25180934E+01 0.76417694E+01 0.50680268E+02 0.50000000E+02 0.0000E+00 0.9000E+01
      -13  1    3    3    0    0 0.12577257E+01 0.18755798E+02 -.32140831E+02 0.37234324E+02 0.00000000E+00 0.0000E+00 0.9000E+01
        3  1    1    2  502    0 -.75569247E+01 -.12964677E+02 -.13507698E+02 0.20190292E+02 0.00000000E+00 0.0000E+00 0.9000E+01
       -4  1    1    2    0  501 0.43621538E+01 -.32730277E+01 0.79969673E+01 0.96794929E+01 0.00000000E+00 0.0000E+00 0.9000E+01
#aMCatNLO 2  0  0  2  5 0.17331566D+02 0.00000000D+00  -5  6  0 0.00000000D+00 0.00000000D+00 0.00000000D+00 0.00000000D+00 0.00000000D+00
  <mgrwgt>
 0.2281815132D-04    1    2    0
 0.475055163870907D+02 0.000000000000000D+00 0.000000000000000D+00 0.475055163870907D+02
 0.475055163870907D+02 0.000000000000000D+00 0.000000000000000D+00 -.475055163870907D+02
 0.535749125052274D+02 -.226458546273055D+01 -.972642056951022D+01 0.164480894188283D+02
 0.300048452859164D+02 -.120337882682984D+01 0.145335218380774D+02 -.262224972688156D+02
 0.000000000000000D+00 -.000000000000000D+00 -.000000000000000D+00 -.000000000000000D+00
 0.114312749830376D+02 0.346796428956039D+01 -.480710126856718D+01 0.977440784998738D+01
 0.520577454195725D+02 0.000000000000000D+00 0.000000000000000D+00 0.520577454195725D+02
 0.622989512702428D+02 0.000000000000000D+00 0.000000000000000D+00 -.622989512702428D+02
 0.527317037852752D+02 0.193704516313624D+01 -.251809344628106D+01 0.164480894188283D+02
 0.322642404613378D+02 0.125772572949835D+01 0.187557984507017D+02 -.262224972688156D+02
 0.181678911097636D+02 -.755692471947954D+01 -.129646773536614D+02 -.102412058506703D+02
 0.111928613334387D+02 0.436215382684496D+01 -.327302765075925D+01 0.977440784998738D+01
0.303127801589D-08 0.000000000000D+00 0.000000000000D+00 0.249222756023D-06 0.439433810056D-09  6 22 21 9900012 -13 3 -4 2 0.67518911D-02 0.11368782D-01 0.19962407D+04 0.19962407D+04 0.19962407D+04 0.12894141D+01  1  2  1  3  5  2       -3 0.228181513194D-04 0.100000000000D+01
  </mgrwgt>
  </event>
  <event>
  6     66 0.16695846E-05 0.64025422E+01 0.78161638E-02 0.13218782E+00
       22 -1    0    0    0    0 0.00000000E+00 0.00000000E+00 0.18457524E+03 0.18457524E+03 0.00000000E+00 0.0000E+00 0.9000E+01
       -3 -1    0    0    0  501 0.00000000E+00 0.00000000E+00 -.13734576E+02 0.13734576E+02 0.00000000E+00 0.0000E+00 0.9000E+01
       24  2    1    2    0    0 -.61866452E+01 0.16486260E+01 0.11870341E+03 0.14578092E+03 0.84383544E+02 0.0000E+00 0.0000E+00
  9900012  1    3    3    0    0 -.77363341E+01 0.25205412E+02 0.59624676E+02 0.82160000E+02 0.50000000E+02 0.0000E+00 0.9000E+01
      -13  1    3    3    0    0 0.15496889E+01 -.23556786E+02 0.59078737E+02 0.63620915E+02 0.00000000E+00 0.0000E+00 0.9000E+01
       -4  1    1    2    0  501 0.61866452E+01 -.16486260E+01 0.52137253E+02 0.52528904E+02 0.00000000E+00 0.0000E+00 0.9000E+01
#aMCatNLO 1  0  0  2  5 0.57873482D+01 0.00000000D+00  -5  6  0 0.00000000D+00 0.00000000D+00 0.00000000D+00 0.00000000D+00 0.00000000D+00
  <mgrwgt>
 0.2581136812D-03    8    4    0
 0.503494070183023D+02 0.000000000000000D+00 0.000000000000000D+00 0.503494070183023D+02
 0.503494070183023D+02 0.000000000000000D+00 0.000000000000000D+00 -.503494070183023D+02
 0.606443628936597D+02 -.773633412836258D+01 0.252054119080605D+02 -.219675919385176D+02
 0.250608851810497D+02 0.154968893628972D+01 -.235567858659430D+02 0.840977228732172D+01
 0.149935659618951D+02 0.618664519207286D+01 -.164862604211743D+01 0.135578196511959D+02
 0.000000000000000D+00 -.000000000000000D+00 0.000000000000000D+00 0.000000000000000D+00
 0.528535480761454D+02 0.000000000000000D+00 0.000000000000000D+00 0.528535480761454D+02
 0.513397993868269D+02 0.000000000000000D+00 0.000000000000000D+00 -.513397993868269D+02
 0.598637976820477D+02 -.708305798400740D+01 0.234718867357335D+02 -.219675919385176D+02
 0.257674333584646D+02 0.182522984406659D+01 -.242879576740128D+02 0.840977228732172D+01
 0.151151883807696D+02 0.634986510061969D+01 -.208174429162908D+01 0.135578196511959D+02
 0.344692804169037D+01 -.109203696067888D+01 0.289781522990841D+01 0.151374868931851D+01
 0.503494070183023D+02 0.000000000000000D+00 0.000000000000000D+00 0.503494070183023D+02
 0.503494070183023D+02 0.000000000000000D+00 0.000000000000000D+00 -.503494070183023D+02
 0.606443628936597D+02 -.773633412836258D+01 0.252054119080605D+02 -.219675919385176D+02
 0.250608851810497D+02 0.154968893628972D+01 -.235567858659430D+02 0.840977228732172D+01
 0.000000000000000D+00 -.000000000000000D+00 0.000000000000000D+00 0.000000000000000D+00
 0.149935659618951D+02 0.618664519207286D+01 -.164862604211743D+01 0.135578196511959D+02
 0.528535480761454D+02 0.000000000000000D+00 0.000000000000000D+00 0.528535480761454D+02
 0.513397993868269D+02 0.000000000000000D+00 0.000000000000000D+00 -.513397993868269D+02
 0.598637976820477D+02 -.708305798400740D+01 0.234718867357335D+02 -.219675919385176D+02
 0.257674333584646D+02 0.182522984406659D+01 -.242879576740128D+02 0.840977228732172D+01
 0.344692804169037D+01 -.109203696067888D+01 0.289781522990841D+01 0.151374868931851D+01
 0.151151883807696D+02 0.634986510061969D+01 -.208174429162908D+01 0.135578196511959D+02
0.275316560371D-06 0.000000000000D+00 0.000000000000D+00 0.208028045530D-07 0.000000000000D+00  6 22 -3 9900012 -13 -4 21 0 0.28396191D-01 0.21130118D-02 0.18721209D+04 0.18721209D+04 0.18721209D+04 0.12929562D+01  1  2  2  1  6  2       -3 0.110015046697D-03 0.100000000000D+01
-.591143670140D-09 0.000000000000D+00 -.528644042169D-09 0.208028045530D-07 0.000000000000D+00  6 22 -3 9900012 -13 -4 21 2 0.28396191D-01 0.21130118D-02 0.18721209D+04 0.18721209D+04 0.18721209D+04 0.12929562D+01  1  2  3  1  6  2       -3 -.394893873517D-06 0.100000000000D+01
0.174005106433D-07 0.000000000000D+00 0.000000000000D+00 0.208028045530D-07 0.000000000000D+00  6 22 -3 9900012 -13 -4 21 2 0.28396191D-01 0.21130118D-02 0.18721209D+04 0.18721209D+04 0.18721209D+04 0.12929562D+01  1  2 15  1  6  2       -3 0.116238325744D-04 0.100000000000D+01
0.180451377330D-06 0.000000000000D+00 0.000000000000D+00 0.208028045530D-07 0.000000000000D+00  6 22 -3 9900012 -13 -4 21 2 0.28396191D-01 0.22617339D-02 0.20170477D+04 0.20170477D+04 0.20170477D+04 0.12888449D+01  1  2 12  1  6  2       -3 0.109946821472D-03 0.100000000000D+01
-.421483231820D-07 0.000000000000D+00 0.000000000000D+00 0.208028045530D-07 0.000000000000D+00  6 22 -3 9900012 -13 -4 21 2 0.28396191D-01 0.21130118D-02 0.18721209D+04 0.18721209D+04 0.18721209D+04 0.12929562D+01  1  2  4  1  6  2       -3 -.281557858848D-04 0.100000000000D+01
0.149072119624D-07 0.000000000000D+00 0.000000000000D+00 0.208028045530D-07 0.130488993171D-07  6 22 -3 9900012 -13 -4 21 2 0.29808483D-01 0.21545755D-02 0.20170477D+04 0.20170477D+04 0.20170477D+04 0.12888449D+01  1  2 11  1  6  2       -3 0.903798011687D-05 0.100000000000D+01
0.264920513409D-08 0.000000000000D+00 0.000000000000D+00 0.208028045530D-07 0.000000000000D+00  6 22 21 9900012 -13 3 -4 2 0.28396191D-01 0.22617339D-02 0.20170477D+04 0.20170477D+04 0.20170477D+04 0.12888449D+01  3  4 12  3  5  2       -3 0.312415099944D-04 0.100000000000D+01
0.125739964428D-08 0.000000000000D+00 0.000000000000D+00 0.208028045530D-07 0.804212855165D-10  6 22 21 9900012 -13 3 -4 2 0.29808483D-01 0.21545755D-02 0.20170477D+04 0.20170477D+04 0.20170477D+04 0.12888449D+01  3  4 11  3  5  2       -3 0.147991700795D-04 0.100000000000D+01
  </mgrwgt>
  </event>
  <event>
  7     66 0.16695846E-05 0.40618072E+02 0.78161638E-02 0.12200467E+00
       22 -1    0    0    0    0 0.00000000E+00 0.00000000E+00 0.92846926E+02 0.92846926E+02 0.00000000E+00 0.0000E+00 0.9000E+01
       21 -1    0    0  502  501 0.00000000E+00 0.00000000E+00 -.85380243E+02 0.85380243E+02 0.00000000E+00 0.0000E+00 0.9000E+01
       24  2    1    2    0    0 -.13421078E+02 -.55998053E+02 -.40034981E+01 0.97249056E+02 0.78265214E+02 0.0000E+00 0.0000E+00
  9900012  1    3    3    0    0 -.23524160E+02 -.46132685E+02 -.21159701E+02 0.75028952E+02 0.50000000E+02 0.0000E+00 0.9000E+01
      -13  1    3    3    0    0 0.10103082E+02 -.98653679E+01 0.17156202E+02 0.22220104E+02 0.00000000E+00 0.0000E+00 0.9000E+01
        1  1    1    2  502    0 0.33304033E+01 0.47195864E+02 -.16386282E+02 0.50070464E+02 0.00000000E+00 0.0000E+00 0.9000E+01
       -2  1    1    2    0  501 0.10090675E+02 0.88021889E+01 0.27856463E+02 0.30907649E+02 0.00000000E+00 0.0000E+00 0.9000E+01
#aMCatNLO 2  0  0  2  2 0.57288041D+02 0.00000000D+00  -5  6  0 0.00000000D+00 0.00000000D+00 0.00000000D+00 0.00000000D+00 0.00000000D+00
  <mgrwgt>
 0.1365638277D-03    1    2    0
 0.583451712600981D+02 0.000000000000000D+00 0.000000000000000D+00 0.583451712600981D+02
 0.583451712600981D+02 0.000000000000000D+00 0.000000000000000D+00 -.583451712600981D+02
 0.673969058975283D+02 -.214956632707794D+02 -.173864200117637D+02 -.357490109553270D+02
 0.171948405455641D+02 0.106049624937699D+02 -.275311118787726D+01 0.132520825035273D+02
 0.000000000000000D+00 0.000000000000000D+00 0.000000000000000D+00 -.000000000000000D+00
 0.320985960771037D+02 0.108907007770095D+02 0.201395311996409D+02 0.224969284517997D+02
 0.769098321973834D+02 0.000000000000000D+00 0.000000000000000D+00 0.769098321973834D+02
 0.103072557864393D+03 0.000000000000000D+00 0.000000000000000D+00 -.103072557864393D+03
 0.803716522445720D+02 -.235241599741225D+02 -.461326847013072D+02 -.357490109553270D+02
 0.193653154013585D+02 0.101030820075252D+02 -.986536790307493D+01 0.132520825035273D+02
 0.540650474263514D+02 0.333040327205887D+01 0.471958637269398D+02 -.261627256670099D+02
 0.261803749894948D+02 0.100906746945384D+02 0.880218887744236D+01 0.224969284517997D+02
0.647992533682D-07 0.000000000000D+00 0.000000000000D+00 0.908701592979D-08 0.506424104639D-10  6 22 21 9900012 -13 1 -2 2 0.14284142D-01 0.13135422D-01 0.53881296D+04 0.53881296D+04 0.53881296D+04 0.12382067D+01  1  2  1  3  5  2       -1 0.136563827690D-03 0.100000000000D+01
  </mgrwgt>
  </event>
  <event>
  6     66 0.16695846E-05 0.32101802E+02 0.78161638E-02 0.11747931E+00
       22 -1    0    0    0    0 0.00000000E+00 0.00000000E+00 0.16776042E+03 0.16776042E+03 0.00000000E+00 0.0000E+00 0.9000E+01
       -3 -1    0    0    0  501 0.00000000E+00 0.00000000E+00 -.25324407E+02 0.25324407E+02 0.00000000E+00 0.0000E+00 0.9000E+01
       24  2    1    2    0    0 0.31921276E+02 0.33996871E+01 0.14012273E+03 0.16089978E+03 0.72276092E+02 0.0000E+00 0.0000E+00
  9900012  1    3    3    0    0 0.29851743E+02 -.14351880E+02 0.11877527E+03 0.13305889E+03 0.50000000E+02 0.0000E+00 0.9000E+01
      -13  1    3    3    0    0 0.20695325E+01 0.17751567E+02 0.21347461E+02 0.27840891E+02 0.00000000E+00 0.0000E+00 0.9000E+01
       -4  1    1    2    0  501 -.31921276E+02 -.33996871E+01 0.23132776E+01 0.32185043E+02 0.00000000E+00 0.0000E+00 0.9000E+01
#aMCatNLO 1  0  0  2  5 0.52646810D+01 0.00000000D+00  -5  6  0 0.00000000D+00 0.00000000D+00 0.00000000D+00 0.00000000D+00 0.00000000D+00
  <mgrwgt>
 0.7107729673D-04    3    2    0
 0.651800044056784D+02 0.000000000000000D+00 0.000000000000000D+00 0.651800044056784D+02
 0.651800044056784D+02 0.000000000000000D+00 0.000000000000000D+00 -.651800044056784D+02
 0.673042023292082D+02 0.298517431773516D+02 -.143518802688713D+02 0.305409988898927D+02
 0.179119833091684D+02 0.206953245660705D+01 0.177515673920490D+02 0.119918163950318D+01
 0.451438231729802D+02 -.319212756339586D+02 -.339968712317773D+01 -.317401805293959D+02
 0.000000000000000D+00 0.000000000000000D+00 0.000000000000000D+00 0.000000000000000D+00
 0.117162835865354D+03 0.000000000000000D+00 0.000000000000000D+00 0.117162835865354D+03
 0.923795392168644D+02 0.000000000000000D+00 0.000000000000000D+00 -.923795392168644D+02
 0.802031495909799D+02 0.280758609495223D+02 -.470269988736657D+02 0.305409988898927D+02
 0.114423082394194D+02 0.171612793816744D+01 0.112491460183076D+02 0.119918163950318D+01
 0.522097576981352D+02 -.330933425976317D+02 -.249649837687735D+02 -.317401805293959D+02
 0.656871595536839D+02 0.330135370994197D+01 0.607428366241316D+02 0.247832966484896D+02
0.335098638790D-06 0.000000000000D+00 0.000000000000D+00 0.969947371830D-08 0.000000000000D+00  6 22 -3 9900012 -13 -4 21 0 0.25809295D-01 0.38960626D-02 0.30222205D+04 0.30222205D+04 0.30222205D+04 0.12672390D+01  1  2  2  1  6  2       -3 0.683950752344D-04 0.100000000000D+01
0.558862487432D-08 0.000000000000D+00 -.643433503225D-09 0.969947371830D-08 0.000000000000D+00  6 22 -3 9900012 -13 -4 21 2 0.25809295D-01 0.38960626D-02 0.30222205D+04 0.30222205D+04 0.30222205D+04 0.12672390D+01  1  2  3  1  6  2       -3 0.183178363368D-05 0.100000000000D+01
0.259461767393D-08 0.000000000000D+00 0.000000000000D+00 0.969947371830D-08 0.000000000000D+00  6 22 -3 9900012 -13 -4 21 2 0.25809295D-01 0.38960626D-02 0.30222205D+04 0.30222205D+04 0.30222205D+04 0.12672390D+01  1  2 15  1  6  2       -3 0.850437862198D-06 0.100000000000D+01
  </mgrwgt>
  </event>
  <event>
  6     66 0.16695846E-05 0.15778926E+03 0.78161638E-02 0.94677677E-01
       22 -1    0    0    0    0 0.00000000E+00 0.00000000E+00 0.14095977E+04 0.14095977E+04 0.00000000E+00 0.0000E+00 0.9000E+01
       -3 -1    0    0    0  501 0.00000000E+00 0.00000000E+00 -.21776140E+02 0.21776140E+02 0.00000000E+00 0.0000E+00 0.9000E+01
       24  2    1    2    0    0 0.12416929E+03 -.97362404E+02 0.51465236E+03 0.54406222E+03 0.78988617E+02 0.0000E+00 0.0000E+00
  9900012  1    3    3    0    0 0.12580056E+03 -.78539406E+02 0.47540682E+03 0.50050561E+03 0.50000000E+02 0.0000E+00 0.9000E+01
      -13  1    3    3    0    0 -.16312728E+01 -.18822998E+02 0.39245535E+02 0.43556611E+02 0.00000000E+00 0.0000E+00 0.9000E+01
       -4  1    1    2    0  501 -.12416929E+03 0.97362404E+02 0.87316923E+03 0.88731164E+03 0.00000000E+00 0.0000E+00 0.9000E+01
#aMCatNLO 1  0  0  2  5 0.53955360D+03 0.00000000D+00  -5  6  0 0.00000000D+00 0.00000000D+00 0.00000000D+00 0.00000000D+00 0.00000000D+00
  <mgrwgt>
 0.1923503221D-04    5    4    0
 0.175201589423730D+03 0.000000000000000D+00 0.000000000000000D+00 0.175201589423730D+03
 0.175201589423730D+03 0.000000000000000D+00 0.000000000000000D+00 -.175201589423730D+03
 0.161616118087105D+03 0.125800564882163D+03 -.785394058373182D+02 -.403181005454743D+02
 0.224883609701123D+02 -.163127282038969D+01 -.188229977273423D+02 -.121967243415598D+02
 0.166298699790243D+03 -.124169292061773D+03 0.973624035646605D+02 0.525148248870341D+02
 0.000000000000000D+00 -.000000000000000D+00 0.000000000000000D+00 -.000000000000000D+00
 0.417477911873563D+03 0.000000000000000D+00 0.000000000000000D+00 0.417477911873563D+03
 0.578168172530946D+03 0.000000000000000D+00 0.000000000000000D+00 -.578168172530946D+03
 0.429323190771566D+03 0.352057684059034D+03 -.237167114072911D+03 -.403181005454743D+02
 0.464091702374069D+02 0.247480129975047D+02 -.373173800009588D+02 -.121967243415598D+02
 0.707831982407724D+02 -.333960663626999D+02 0.337217596186021D+02 0.525148248870341D+02
 0.449130525154764D+03 -.343409630693839D+03 0.240762734455267D+03 -.160690260657383D+03
 0.175201589423730D+03 0.000000000000000D+00 0.000000000000000D+00 0.175201589423730D+03
 0.175201589423730D+03 0.000000000000000D+00 0.000000000000000D+00 -.175201589423730D+03
 0.161616118087105D+03 0.125800564882163D+03 -.785394058373182D+02 -.403181005454743D+02
 0.224883609701123D+02 -.163127282038969D+01 -.188229977273423D+02 -.121967243415598D+02
 0.000000000000000D+00 -.000000000000000D+00 0.000000000000000D+00 -.000000000000000D+00
 0.166298699790243D+03 -.124169292061773D+03 0.973624035646605D+02 0.525148248870341D+02
 0.417477911873563D+03 0.000000000000000D+00 0.000000000000000D+00 0.417477911873563D+03
 0.578168172530946D+03 0.000000000000000D+00 0.000000000000000D+00 -.578168172530946D+03
 0.429323190771566D+03 0.352057684059034D+03 -.237167114072911D+03 -.403181005454743D+02
 0.464091702374069D+02 0.247480129975047D+02 -.373173800009588D+02 -.121967243415598D+02
 0.449130525154764D+03 -.343409630693839D+03 0.240762734455267D+03 -.160690260657383D+03
 0.707831982407724D+02 -.333960663626999D+02 0.337217596186021D+02 0.525148248870341D+02
0.279298931612D-05 0.000000000000D+00 0.000000000000D+00 0.502580695897D-07 0.000000000000D+00  6 22 -3 9900012 -13 -4 21 0 0.21686119D+00 0.33501753D-02 0.27753745D+05 0.27753745D+05 0.27753745D+05 0.11659039D+01  1  2  2  1  6  2       -3 0.165362021402D-04 0.100000000000D+01
-.164452168396D-06 0.000000000000D+00 -.536290719244D-08 0.502580695897D-07 0.000000000000D+00  6 22 -3 9900012 -13 -4 21 2 0.21686119D+00 0.33501753D-02 0.27753745D+05 0.27753745D+05 0.27753745D+05 0.11659039D+01  1  2  3  1  6  2       -3 -.132352336528D-05 0.100000000000D+01
0.104838681815D-06 0.000000000000D+00 0.000000000000D+00 0.502580695897D-07 0.000000000000D+00  6 22 -3 9900012 -13 -4 21 2 0.21686119D+00 0.33501753D-02 0.27753745D+05 0.27753745D+05 0.27753745D+05 0.11659039D+01  1  2 15  1  6  2       -3 0.843749561473D-06 0.100000000000D+01
0.405416122072D-05 0.000000000000D+00 -.168862014183D-05 0.502580695897D-07 0.000000000000D+00  6 22 -3 9900012 -13 -4 21 2 0.21686119D+00 0.32950296D-01 0.27753745D+05 0.27753745D+05 0.27753745D+05 0.11659039D+01  1  2  5  1  6  2       -3 0.746807180537D-06 0.100000000000D+01
0.840121103381D-06 0.000000000000D+00 -.460179430477D-06 0.502580695897D-07 0.000000000000D+00  6 22 21 9900012 -13 3 -4 2 0.21686119D+00 0.32950296D-01 0.27753745D+05 0.27753745D+05 0.27753745D+05 0.11659039D+01  3  4  5  3  5  2       -3 0.243179669301D-05 0.100000000000D+01
  </mgrwgt>
  </event>
  <event>
  6     66 -.16695846E-05 0.10902243E+02 0.78161638E-02 0.13582079E+00
       22 -1    0    0    0    0 0.00000000E+00 0.00000000E+00 0.17166434E+03 0.17166434E+03 0.00000000E+00 0.0000E+00 0.9000E+01
       -3 -1    0    0    0  501 0.00000000E+00 0.00000000E+00 -.17989788E+02 0.17989788E+02 0.00000000E+00 0.0000E+00 0.9000E+01
       24  2    1    2    0    0 0.70460894E+00 0.10879450E+02 0.72071810E+02 0.10732633E+03 0.78776497E+02 0.0000E+00 0.0000E+00
  9900012  1    3    3    0    0 0.70286904E+01 -.30619658E+01 0.76208409E+02 0.91468572E+02 0.50000000E+02 0.0000E+00 0.9000E+01
      -13  1    3    3    0    0 -.63240814E+01 0.13941416E+02 -.41365982E+01 0.15857759E+02 0.00000000E+00 0.0000E+00 0.9000E+01
       -4  1    1    2    0  501 -.70460894E+00 -.10879450E+02 0.81602737E+02 0.82327794E+02 0.00000000E+00 0.0000E+00 0.9000E+01
#aMCatNLO 1  0  0  5  2 0.85542438D+00 0.00000000D+00  -5  6  0 0.00000000D+00 0.00000000D+00 0.00000000D+00 0.00000000D+00 0.00000000D+00
  <mgrwgt>
 -.7014913893D-05    8    2    0
 0.555716213354610D+02 0.000000000000000D+00 0.000000000000000D+00 0.555716213354610D+02
 0.555716213354610D+02 -.000000000000000D+00 -.000000000000000D+00 -.555716213354610D+02
 0.507102285295475D+02 0.702869035189767D+01 -.306196584404935D+01 0.357059583626410D+01
 0.327791339107626D+02 -.632408140907896D+01 0.139414155378739D+02 -.289847295497367D+02
 0.276538802306118D+02 -.704608942818707D+00 -.108794496938245D+02 0.254141337134726D+02
 0.000000000000000D+00 0.000000000000000D+00 0.000000000000000D+00 0.000000000000000D+00
 0.555716213354610D+02 0.000000000000000D+00 0.000000000000000D+00 0.555716213354610D+02
 0.555716213354610D+02 -.000000000000000D+00 -.000000000000000D+00 -.555716213354610D+02
 0.507123436787885D+02 0.702805762165909D+01 -.307173545720923D+01 0.359341741843613D+01
 0.327634869218790D+02 -.632449030028743D+01 0.139351020907084D+02 -.289699814884863D+02
 0.115644183810210D+02 -.284330418038194D+00 -.532355331126977D+01 0.102622954959767D+02
 0.161029936892334D+02 -.419236903333472D+00 -.553981332222942D+01 0.151142685740735D+02
0.507179450398D-08 0.000000000000D+00 0.000000000000D+00 0.572168071821D-06 0.000000000000D+00  6 22 -3 9900012 -13 -4 21 0 0.26409898D-01 0.27676598D-02 0.14743809D+04 0.14743809D+04 0.14743809D+04 0.13064052D+01  1  2  2  2  6  5       -4 0.148500000802D-05 0.100000000000D+01
-.244605127522D-09 0.000000000000D+00 -.973851316472D-11 0.572168071821D-06 0.000000000000D+00  6 22 -3 9900012 -13 -4 21 2 0.26409898D-01 0.27676598D-02 0.14743809D+04 0.14743809D+04 0.14743809D+04 0.13064052D+01  1  2  3  2  6  5       -4 -.122232348277D-06 0.100000000000D+01
0.451337012769D-09 0.000000000000D+00 0.000000000000D+00 0.572168071821D-06 0.000000000000D+00  6 22 -3 9900012 -13 -4 21 2 0.26409898D-01 0.27676598D-02 0.14743809D+04 0.14743809D+04 0.14743809D+04 0.13064052D+01  1  2 15  2  6  5       -4 0.225538947175D-06 0.100000000000D+01
0.254486290218D-12 0.000000000000D+00 0.000000000000D+00 0.572168071821D-06 0.000000000000D+00  6 22 -3 9900012 -13 -4 21 2 0.26409898D-01 0.27676598D-02 0.14735929D+04 0.14735929D+04 0.14735929D+04 0.13064358D+01  1  2 12  2  6  5       -4 0.127165846997D-09 0.100000000000D+01
-.186028985446D-06 0.000000000000D+00 0.000000000000D+00 0.572168071821D-06 0.000000000000D+00  6 22 -3 9900012 -13 -4 21 2 0.26409898D-01 0.27676598D-02 0.14743809D+04 0.14743809D+04 0.14743809D+04 0.13064052D+01  1  2  4  2  6  5       -4 -.929610918991D-04 0.100000000000D+01
-.111361300160D-06 0.000000000000D+00 0.000000000000D+00 0.572168071821D-06 0.000000000000D+00  6 22 -3 9900012 -13 -4 21 2 0.26409898D-01 0.27676598D-02 0.14743809D+04 0.14743809D+04 0.14743809D+04 0.13064052D+01  1  2  5  2  6  5       -4 -.556486830982D-04 0.100000000000D+01
0.190162402574D-06 0.000000000000D+00 -.000000000000D+00 0.572168071821D-06 0.000000000000D+00  6 22 -3 9900012 -13 -4 21 2 0.26409898D-01 0.27676598D-02 0.14743809D+04 0.14743809D+04 0.14743809D+04 0.13064052D+01  1  2  6  2  6  5       -4 0.950266139390D-04 0.100000000000D+01
0.900143089937D-07 0.000000000000D+00 0.000000000000D+00 0.572168071821D-06 0.140984209322D-05  6 22 -3 9900012 -13 -4 21 2 0.26409898D-01 0.27676598D-02 0.14735929D+04 0.14735929D+04 0.14735929D+04 0.13064358D+01  1  2 11  2  6  5       -4 0.449798133927D-04 0.100000000000D+01
  </mgrwgt>
  </event>
  <event>
  7     66 0.16695846E-05 0.15679223E+02 0.78161638E-02 0.12695470E+00
       22 -1    0    0    0    0 0.00000000E+00 0.00000000E+00 0.10254567E+02 0.10254567E+02 0.00000000E+00 0.0000E+00 0.9000E+01
       21 -1    0    0  502  501 0.00000000E+00 0.00000000E+00 -.80595712E+03 0.80595712E+03 0.00000000E+00 0.0000E+00 0.9000E+01
       24  2    1    2    0    0 -.21636407E+02 0.10388639E+02 -.24861458E+03 0.26279154E+03 0.81695320E+02 0.0000E+00 0.0000E+00
  9900012  1    3    3    0    0 -.16782739E+02 -.17025475E+02 -.13766029E+03 0.14839771E+03 0.50000000E+02 0.0000E+00 0.9000E+01
      -13  1    3    3    0    0 -.48536680E+01 0.27414115E+02 -.11095429E+03 0.11439382E+03 0.00000000E+00 0.0000E+00 0.9000E+01
        1  1    1    2  502    0 0.13095925E+02 -.16226172E+02 -.54103067E+03 0.54143234E+03 0.00000000E+00 0.0000E+00 0.9000E+01
       -2  1    1    2    0  501 0.85404817E+01 0.58375327E+01 -.60573014E+01 0.11987807E+02 0.00000000E+00 0.0000E+00 0.9000E+01
#aMCatNLO 2  0  0  2  5 0.21153540D+02 0.00000000D+00  -5  6  0 0.00000000D+00 0.00000000D+00 0.00000000D+00 0.00000000D+00 0.00000000D+00
  <mgrwgt>
 0.1056050577D-04    1    2    0
 0.505250669946621D+02 0.000000000000000D+00 0.000000000000000D+00 0.505250669946621D+02
 0.505250669946621D+02 0.000000000000000D+00 0.000000000000000D+00 -.505250669946621D+02
 0.571488153097294D+02 -.956426591132685D+01 -.259693401732641D+02 -.324468562864158D+00
 0.264000840681075D+02 -.118690394955792D+01 0.228709041845033D+02 -.131330666487663D+02
 0.000000000000000D+00 0.000000000000000D+00 -.000000000000000D+00 -.000000000000000D+00
 0.175012346114873D+02 0.107511698608848D+02 0.309843598876088D+01 0.134575352116305D+02
 0.526200960930206D+02 0.000000000000000D+00 0.000000000000000D+00 0.526200960930206D+02
 0.157064345755569D+03 0.000000000000000D+00 0.000000000000000D+00 -.157064345755569D+03
 0.554223097898962D+02 -.167827389813492D+02 -.170254754671592D+02 -.324468562864158D+00
 0.307826120858940D+02 -.485366797890940D+01 0.274141145102336D+02 -.131330666487663D+02
 0.106505366988359D+03 0.130959252906799D+02 -.162261717768986D+02 -.104444249662548D+03
 0.169741529844394D+02 0.854048166957870D+01 0.583753273382418D+01 0.134575352116305D+02
0.223354961153D-07 0.000000000000D+00 0.000000000000D+00 0.135362909413D-06 0.547573260157D-09  6 22 21 9900012 -13 1 -2 2 0.15776256D-02 0.12399340D+00 0.32751801D+04 0.32751801D+04 0.32751801D+04 0.12630755D+01  1  2  1  3  5  2       -1 0.105605057672D-04 0.100000000000D+01
  </mgrwgt>
  </event>
  <event>
  6     66 0.16695846E-05 0.32314819E+02 0.78161638E-02 0.11637494E+00
       22 -1    0    0    0    0 0.00000000E+00 0.00000000E+00 0.10201856E+02 0.10201856E+02 0.00000000E+00 0.0000E+00 0.9000E+01
       -1 -1    0    0    0  501 -.00000000E+00 -.00000000E+00 -.10311979E+04 0.10311979E+04 0.00000000E+00 0.0000E+00 0.9000E+01
       24  2    1    2    0    0 0.50998740E+02 0.69563073E+02 -.53766604E+03 0.55043358E+03 0.80327223E+02 0.0000E+00 0.0000E+00
  9900012  1    3    3    0    0 0.25566604E+02 0.72792157E+02 -.40364689E+03 0.41398450E+03 0.50000000E+02 0.0000E+00 0.9000E+01
      -13  1    3    3    0    0 0.25432136E+02 -.32290843E+01 -.13401914E+03 0.13644908E+03 0.00000000E+00 0.0000E+00 0.9000E+01
       -2  1    1    2    0  501 -.50998740E+02 -.69563073E+02 -.48333002E+03 0.49096619E+03 0.00000000E+00 0.0000E+00 0.9000E+01
#aMCatNLO 1  0  0  5  2 0.20653136D+02 0.00000000D+00  -5  6  0 0.00000000D+00 0.00000000D+00 0.00000000D+00 0.00000000D+00 0.00000000D+00
  <mgrwgt>
 0.1008478486D-03    5    2    0
 0.102567695685166D+03 0.000000000000000D+00 0.000000000000000D+00 0.102567695685166D+03
 0.102567695685166D+03 -.000000000000000D+00 -.000000000000000D+00 -.102567695685166D+03
 0.926289352768638D+02 0.255666042309902D+02 0.727921572253614D+02 0.113035501104563D+02
 0.256660874560393D+02 0.254321359896180D+02 -.322908431970060D+01 -.123592830006403D+01
 0.868403686374283D+02 -.509987402206082D+02 -.695630729056608D+02 -.100676218103922D+02
 0.000000000000000D+00 0.000000000000000D+00 0.000000000000000D+00 -.000000000000000D+00
 0.102567695685166D+03 0.000000000000000D+00 0.000000000000000D+00 0.102567695685166D+03
 0.102567695685166D+03 -.000000000000000D+00 -.000000000000000D+00 -.102567695685166D+03
 0.885942979967696D+02 0.225888146513453D+02 0.687304060383616D+02 0.107157069757218D+02
 0.250227527088029D+02 0.245992367121880D+02 -.436517185653602D+01 -.140035030137312D+01
 0.305140296633583D+02 -.273590071357868D+02 -.977088822122950D+01 0.933383512863369D+01
 0.610043110014006D+02 -.198290442277465D+02 -.545943459605961D+02 -.186491918029824D+02
0.411449869766D-05 0.000000000000D+00 0.000000000000D+00 0.191976379221D-06 0.000000000000D+00  6 22 -1 9900012 -13 -2 21 0 0.15695162D-02 0.15864583D+00 0.10386441D+05 0.10386441D+05 0.10386441D+05 0.12076270D+01  1  2  2  2  6  5       -2 0.926107207140D-04 0.100000000000D+01
-.147004042417D-06 0.000000000000D+00 -.790037918571D-08 0.191976379221D-06 0.000000000000D+00  6 22 -1 9900012 -13 -2 21 2 0.15695162D-02 0.15864583D+00 0.10386441D+05 0.10386441D+05 0.10386441D+05 0.12076270D+01  1  2  3  2  6  5       -2 -.482546600165D-05 0.100000000000D+01
0.194721526957D-06 0.000000000000D+00 0.000000000000D+00 0.191976379221D-06 0.000000000000D+00  6 22 -1 9900012 -13 -2 21 2 0.15695162D-02 0.15864583D+00 0.10386441D+05 0.10386441D+05 0.10386441D+05 0.12076270D+01  1  2 15  2  6  5       -2 0.639181135887D-05 0.100000000000D+01
0.128957041822D-05 0.000000000000D+00 0.000000000000D+00 0.191976379221D-06 0.000000000000D+00  6 22 -1 9900012 -13 -2 21 2 0.15695162D-02 0.15864583D+00 0.10006269D+05 0.10006269D+05 0.10006269D+05 0.12093017D+01  1  2 12  2  6  5       -2 0.423631042716D-04 0.100000000000D+01
-.108733862782D-05 0.000000000000D+00 0.000000000000D+00 0.191976379221D-06 0.000000000000D+00  6 22 -1 9900012 -13 -2 21 2 0.15695162D-02 0.15864583D+00 0.10386441D+05 0.10386441D+05 0.10386441D+05 0.12076270D+01  1  2  5  2  6  5       -2 -.356923217520D-04 0.100000000000D+01
  </mgrwgt>
  </event>
  <event>
  6     66 0.16695846E-05 0.11900669E+02 0.78161638E-02 0.13334557E+00
       22 -1    0    0    0    0 0.00000000E+00 0.00000000E+00 0.17926430E+03 0.17926430E+03 0.00000000E+00 0.0000E+00 0.9000E+01
       -3 -1    0    0    0  501 0.00000000E+00 0.00000000E+00 -.13065383E+02 0.13065383E+02 0.00000000E+00 0.0000E+00 0.9000E+01
       24  2    1    2    0    0 -.11564792E+02 0.28074026E+01 0.12433808E+03 0.14881009E+03 0.80887930E+02 0.0000E+00 0.0000E+00
  9900012  1    3    3    0    0 -.21801555E+02 -.12221965E+02 0.11608061E+03 0.12883863E+03 0.50000000E+02 0.0000E+00 0.9000E+01
      -13  1    3    3    0    0 0.10236763E+02 0.15029368E+02 0.82574698E+01 0.19971455E+02 0.00000000E+00 0.0000E+00 0.9000E+01
       -4  1    1    2    0  501 0.11564792E+02 -.28074026E+01 0.41860838E+02 0.43519601E+02 0.00000000E+00 0.0000E+00 0.9000E+01
#aMCatNLO 1  0  0  5  2 0.15819409D+01 0.00000000D+00  -5  6  0 0.00000000D+00 0.00000000D+00 0.00000000D+00 0.00000000D+00 0.00000000D+00
  <mgrwgt>
 0.1153102221D+00    8    2    0
 0.483958353041113D+02 0.000000000000000D+00 0.000000000000000D+00 0.483958353041113D+02
 0.483958353041113D+02 -.000000000000000D+00 -.000000000000000D+00 -.483958353041113D+02
 0.566889806729146D+02 -.218015549463248D+02 -.122219652766290D+02 0.943166456323272D+01
 0.255055126398489D+02 0.102367630652653D+02 0.150293678616976D+02 -.178845732027601D+02
 0.145971772954591D+02 0.115647918810595D+02 -.280740258506854D+01 0.845290863952740D+01
 0.000000000000000D+00 0.000000000000000D+00 -.000000000000000D+00 0.000000000000000D+00
 0.483958353041113D+02 0.000000000000000D+00 0.000000000000000D+00 0.483958353041113D+02
 0.483958353041113D+02 -.000000000000000D+00 -.000000000000000D+00 -.483958353041113D+02
 0.566097307646824D+02 -.214156454202038D+02 -.123156464610703D+02 0.971373258494669D+01
 0.254622852527259D+02 0.104103657345506D+02 0.149872250728312D+02 -.177576839756872D+02
 0.176538423149439D+01 -.402441096274675D-02 0.938528299496966D-02 0.176535469676451D+01
 0.129542703593199D+02 0.110093040966159D+02 -.268096389475590D+01 0.627859669397598D+01
0.127159732898D-07 0.000000000000D+00 0.000000000000D+00 0.278620327737D-06 0.000000000000D+00  6 22 -3 9900012 -13 -4 21 0 0.27579124D-01 0.20100590D-02 0.18483106D+04 0.18483106D+04 0.18483106D+04 0.12936663D+01  1  2  2  2  6  5       -4 0.569040449232D-05 0.100000000000D+01
0.534475009361D-10 0.000000000000D+00 -.244163428128D-10 0.278620327737D-06 0.000000000000D+00  6 22 -3 9900012 -13 -4 21 2 0.27579124D-01 0.20100590D-02 0.18483106D+04 0.18483106D+04 0.18483106D+04 0.12936663D+01  1  2  3  2  6  5       -4 0.400281423397D-07 0.100000000000D+01
0.553549281849D-09 0.000000000000D+00 0.000000000000D+00 0.278620327737D-06 0.000000000000D+00  6 22 -3 9900012 -13 -4 21 2 0.27579124D-01 0.20100590D-02 0.18483106D+04 0.18483106D+04 0.18483106D+04 0.12936663D+01  1  2 15  2  6  5       -4 0.414566613178D-06 0.100000000000D+01
0.722656343029D-12 0.000000000000D+00 0.000000000000D+00 0.278620327737D-06 0.000000000000D+00  6 22 -3 9900012 -13 -4 21 2 0.27579124D-01 0.20100590D-02 0.18215585D+04 0.18215585D+04 0.18215585D+04 0.12944766D+01  1  2 12  2  6  5       -4 0.540694580218D-09 0.100000000000D+01
-.171912714305D-07 0.000000000000D+00 0.000000000000D+00 0.278620327737D-06 0.000000000000D+00  6 22 -3 9900012 -13 -4 21 2 0.27579124D-01 0.20100590D-02 0.18483106D+04 0.18483106D+04 0.18483106D+04 0.12936663D+01  1  2  4  2  6  5       -4 -.128749641755D-04 0.100000000000D+01
-.246105934196D-08 0.000000000000D+00 0.000000000000D+00 0.278620327737D-06 0.000000000000D+00  6 22 -3 9900012 -13 -4 21 2 0.27579124D-01 0.20100590D-02 0.18483106D+04 0.18483106D+04 0.18483106D+04 0.12936663D+01  1  2  5  2  6  5       -4 -.184314761067D-05 0.100000000000D+01
0.704075421892D-08 0.000000000000D+00 -.000000000000D+00 0.278620327737D-06 0.000000000000D+00  6 22 -3 9900012 -13 -4 21 2 0.27579124D-01 0.20100590D-02 0.18483106D+04 0.18483106D+04 0.18483106D+04 0.12936663D+01  1  2  6  2  6  5       -4 0.527299325727D-05 0.100000000000D+01
0.154120368322D-03 0.000000000000D+00 0.000000000000D+00 0.278620327737D-06 0.349802667495D-02  6 22 -3 9900012 -13 -4 21 2 0.27579124D-01 0.20100590D-02 0.18215585D+04 0.18215585D+04 0.18215585D+04 0.12944766D+01  1  2 11  2  6  5       -4 0.115313521644D+00 0.100000000000D+01
  </mgrwgt>
  </event>
  <event>
  6     66 0.16695846E-05 0.83945935E+01 0.78161638E-02 0.12623537E+00
       22 -1    0    0    0    0 0.00000000E+00 0.00000000E+00 0.47208698E+02 0.47208698E+02 0.00000000E+00 0.0000E+00 0.9000E+01
       -3 -1    0    0    0  501 0.00000000E+00 0.00000000E+00 -.83135083E+02 0.83135083E+02 0.00000000E+00 0.0000E+00 0.9000E+01
       24  2    1    2    0    0 -.81664354E+01 0.19438448E+01 -.52341657E+02 0.11190658E+03 0.98554373E+02 0.0000E+00 0.0000E+00
  9900012  1    3    3    0    0 -.17316420E+02 0.24286408E+02 -.45941180E+01 0.58402003E+02 0.50000000E+02 0.0000E+00 0.9000E+01
      -13  1    3    3    0    0 0.91499843E+01 -.22342563E+02 -.47747539E+02 0.53504578E+02 0.00000000E+00 0.0000E+00 0.9000E+01
       -4  1    1    2    0  501 0.81664354E+01 -.19438448E+01 0.16415273E+02 0.18437201E+02 0.00000000E+00 0.0000E+00 0.9000E+01
#aMCatNLO 1  0  0  2  2 0.20630815D+03 0.00000000D+00  -5  6  0 0.00000000D+00 0.00000000D+00 0.00000000D+00 0.00000000D+00 0.00000000D+00
  <mgrwgt>
 0.9311301717D-04    3    2    0
 0.626474185478466D+02 0.000000000000000D+00 0.000000000000000D+00 0.626474185478466D+02
 0.626474185478466D+02 0.000000000000000D+00 0.000000000000000D+00 -.626474185478466D+02
 0.594381059293139D+02 -.173164197651412D+02 0.242864075313222D+02 0.119666391357097D+02
 0.419697462260565D+02 0.914998433955599D+01 -.223425627771630D+02 -.343299763095460D+02
 0.238869849403229D+02 0.816643542558519D+01 -.194384475415925D+01 0.223633371738363D+02
 0.000000000000000D+00 0.000000000000000D+00 -.000000000000000D+00 0.000000000000000D+00
 0.272992935068858D+03 0.000000000000000D+00 0.000000000000000D+00 0.272992935068858D+03
 0.653746736654917D+02 0.000000000000000D+00 0.000000000000000D+00 -.653746736654917D+02
 0.675682350431539D+02 -.209851223331841D+02 0.384953318637972D+02 0.119666391357097D+02
 0.375029598755149D+02 0.685433737632792D+01 -.134514975055555D+02 -.343299763095460D+02
 0.236144270606686D+02 0.679431060993146D+01 0.337040935031984D+01 0.223633371738363D+02
 0.209681986755012D+03 0.733647434692472D+01 -.284142437085616D+02 0.207618261403366D+03
0.444960792794D-06 0.000000000000D+00 0.000000000000D+00 0.859982882068D-08 0.000000000000D+00  6 22 -3 9900012 -13 -4 21 0 0.72628767D-02 0.12790013D-01 0.20593080D+04 0.20593080D+04 0.20593080D+04 0.12877091D+01  1  2  2  1  6  2       -3 0.858522634112D-04 0.100000000000D+01
-.140631993273D-07 0.000000000000D+00 -.854383302597D-09 0.859982882068D-08 0.000000000000D+00  6 22 -3 9900012 -13 -4 21 2 0.72628767D-02 0.12790013D-01 0.20593080D+04 0.20593080D+04 0.20593080D+04 0.12877091D+01  1  2  3  1  6  2       -3 -.449934859577D-05 0.100000000000D+01
0.367574683229D-07 0.000000000000D+00 0.000000000000D+00 0.859982882068D-08 0.000000000000D+00  6 22 -3 9900012 -13 -4 21 2 0.72628767D-02 0.12790013D-01 0.20593080D+04 0.20593080D+04 0.20593080D+04 0.12877091D+01  1  2 15  1  6  2       -3 0.117601023518D-04 0.100000000000D+01
  </mgrwgt>
  </event>
  <event>
  6     66 0.16695846E-05 0.96535014E+01 0.78161638E-02 0.13295235E+00
       22 -1    0    0    0    0 0.00000000E+00 0.00000000E+00 0.13455639E+03 0.13455639E+03 0.00000000E+00 0.0000E+00 0.9000E+01
       -1 -1    0    0    0  501 0.00000000E+00 0.00000000E+00 -.22482309E+02 0.22482309E+02 0.00000000E+00 0.0000E+00 0.9000E+01
       24  2    1    2    0    0 0.10480290E+01 -.95964433E+01 0.49945805E+02 0.94164915E+02 0.79241767E+02 0.0000E+00 0.0000E+00
  9900012  1    3    3    0    0 -.81026777E+01 0.13437745E+02 0.22065455E+02 0.56860449E+02 0.50000000E+02 0.0000E+00 0.9000E+01
      -13  1    3    3    0    0 0.91507068E+01 -.23034188E+02 0.27880350E+02 0.37304466E+02 0.00000000E+00 0.0000E+00 0.9000E+01
       -2  1    1    2    0  501 -.10480290E+01 0.95964433E+01 0.62128273E+02 0.62873782E+02 0.00000000E+00 0.0000E+00 0.9000E+01
#aMCatNLO 1  0  0  5  2 0.18470740D+01 0.00000000D+00  -5  6  0 0.00000000D+00 0.00000000D+00 0.00000000D+00 0.00000000D+00 0.00000000D+00
  <mgrwgt>
 0.3793126145D-03    8    2    0
 0.550012575017780D+02 0.000000000000000D+00 0.000000000000000D+00 0.550012575017780D+02
 0.550012575017780D+02 -.000000000000000D+00 -.000000000000000D+00 -.550012575017780D+02
 0.586925245321079D+02 -.810267774892752D+01 0.134377450277972D+02 -.264307786078471D+02
 0.248501609106029D+02 0.915070676051445D+01 -.230341883398386D+02 0.179477870245192D+01
 0.264598295608454D+02 -.104802901158693D+01 0.959644331204140D+01 0.246359999053952D+02
 0.000000000000000D+00 -.000000000000000D+00 0.000000000000000D+00 0.000000000000000D+00
 0.550012575017780D+02 0.000000000000000D+00 0.000000000000000D+00 0.550012575017780D+02
 0.550012575017780D+02 -.000000000000000D+00 -.000000000000000D+00 -.550012575017780D+02
 0.586288683113024D+02 -.811033402034171D+01 0.135078508872682D+02 -.262508027677223D+02
 0.248270796229702D+02 0.914746487574463D+01 -.230045035094820D+02 0.187098563183989D+01
 0.618898763635474D+01 0.273160859805861D+00 0.505908130925589D+00 0.616222427948588D+01
 0.203575794329287D+02 -.131029171520879D+01 0.899074449128823D+01 0.182175928563965D+02
0.195458304051D-07 0.000000000000D+00 0.000000000000D+00 0.269262578973D-06 0.000000000000D+00  6 22 -1 9900012 -13 -2 21 0 0.20700983D-01 0.34588168D-02 0.18854360D+04 0.18854360D+04 0.18854360D+04 0.12925635D+01  1  2  2  2  6  5       -2 0.693044873524D-05 0.100000000000D+01
-.872112309145D-09 0.000000000000D+00 -.375305676455D-10 0.269262578973D-06 0.000000000000D+00  6 22 -1 9900012 -13 -2 21 2 0.20700983D-01 0.34588168D-02 0.18854360D+04 0.18854360D+04 0.18854360D+04 0.12925635D+01  1  2  3  2  6  5       -2 -.516634555406D-06 0.100000000000D+01
0.145888429353D-08 0.000000000000D+00 0.000000000000D+00 0.269262578973D-06 0.000000000000D+00  6 22 -1 9900012 -13 -2 21 2 0.20700983D-01 0.34588168D-02 0.18854360D+04 0.18854360D+04 0.18854360D+04 0.12925635D+01  1  2 15  2  6  5       -2 0.864235065226D-06 0.100000000000D+01
0.234880043811D-10 0.000000000000D+00 0.000000000000D+00 0.269262578973D-06 0.000000000000D+00  6 22 -1 9900012 -13 -2 21 2 0.20700983D-01 0.34588168D-02 0.18853311D+04 0.18853311D+04 0.18853311D+04 0.12925666D+01  1  2 12  2  6  5       -2 0.139141260950D-07 0.100000000000D+01
-.678466569147D-07 0.000000000000D+00 0.000000000000D+00 0.269262578973D-06 0.000000000000D+00  6 22 -1 9900012 -13 -2 21 2 0.20700983D-01 0.34588168D-02 0.18854360D+04 0.18854360D+04 0.18854360D+04 0.12925635D+01  1  2  4  2  6  5       -2 -.401919879622D-04 0.100000000000D+01
-.310633167966D-07 0.000000000000D+00 0.000000000000D+00 0.269262578973D-06 0.000000000000D+00  6 22 -1 9900012 -13 -2 21 2 0.20700983D-01 0.34588168D-02 0.18854360D+04 0.18854360D+04 0.18854360D+04 0.12925635D+01  1  2  5  2  6  5       -2 -.184017387375D-04 0.100000000000D+01
0.607401750822D-07 0.000000000000D+00 -.000000000000D+00 0.269262578973D-06 0.000000000000D+00  6 22 -1 9900012 -13 -2 21 2 0.20700983D-01 0.34588168D-02 0.18854360D+04 0.18854360D+04 0.18854360D+04 0.12925635D+01  1  2  6  2  6  5       -2 0.359821470467D-04 0.100000000000D+01
0.666166419747D-06 0.000000000000D+00 0.000000000000D+00 0.269262578973D-06 0.182153394321D-05  6 22 -1 9900012 -13 -2 21 2 0.20700983D-01 0.34588168D-02 0.18853311D+04 0.18853311D+04 0.18853311D+04 0.12925666D+01  1  2 11  2  6  5       -2 0.394632230745D-03 0.100000000000D+01
  </mgrwgt>
  </event>
  <event>
  7     66 0.16695846E-05 0.83802138E+01 0.78161638E-02 0.13250206E+00
       22 -1    0    0    0    0 0.00000000E+00 0.00000000E+00 0.31490465E+03 0.31490465E+03 0.00000000E+00 0.0000E+00 0.9000E+01
       -3 -1    0    0    0  502 0.00000000E+00 0.00000000E+00 -.17112109E+03 0.17112109E+03 0.00000000E+00 0.0000E+00 0.9000E+01
       24  2    1    2    0    0 -.51790442E+00 -.40095226E+01 -.14818579E+03 0.16562888E+03 0.73875255E+02 0.0000E+00 0.0000E+00
  9900012  1    3    3    0    0 -.63734991E+01 -.13911851E+02 -.74313244E+02 0.90865942E+02 0.50000000E+02 0.0000E+00 0.9000E+01
      -13  1    3    3    0    0 0.58555947E+01 0.99023280E+01 -.73872544E+02 0.74762938E+02 0.00000000E+00 0.0000E+00 0.9000E+01
       -4  1    1    2    0  501 -.70125543E+01 0.11942613E+02 0.30389746E+03 0.30421287E+03 0.00000000E+00 0.0000E+00 0.9000E+01
       21  1    1    2  501  502 0.75304587E+01 -.79330899E+01 -.11928117E+02 0.16183995E+02 0.00000000E+00 0.0000E+00 0.9000E+01
#aMCatNLO 2  0  0  2  5 0.23759206D+02 0.00000000D+00  -5  6  0 0.00000000D+00 0.00000000D+00 0.00000000D+00 0.00000000D+00 0.00000000D+00
  <mgrwgt>
 0.1844454769D-03    2    2    0
 0.221577019317085D+03 0.000000000000000D+00 0.000000000000000D+00 0.221577019317085D+03
 0.221577019317085D+03 0.000000000000000D+00 0.000000000000000D+00 -.221577019317085D+03
 0.122590378741273D+03 -.429216634084076D+01 -.161044660854719D+02 -.110682539002921D+03
 0.105144266179175D+03 0.764241390987245D+01 0.801997287308807D+01 -.104559027611691D+03
 0.215419393713722D+03 -.335024756903169D+01 0.808449321238382D+01 0.215241566614612D+03
 0.000000000000000D+00 0.000000000000000D+00 -.000000000000000D+00 -.000000000000000D+00
 0.223152435441575D+03 0.000000000000000D+00 0.000000000000000D+00 0.223152435441575D+03
 0.241479901569394D+03 0.000000000000000D+00 0.000000000000000D+00 -.241479901569394D+03
 0.122412358521696D+03 -.637349914681026D+01 -.139118506079066D+02 -.110682539002921D+03
 0.105189991652040D+03 0.585559472599747D+01 0.990232796158629D+01 -.104559027611691D+03
 0.215686656774631D+03 -.701255426714126D+01 0.119426125515088D+02 0.215241566614612D+03
 0.213433300626013D+02 0.753045868795405D+01 -.793308990518858D+01 -.183274661278190D+02
-.123897608364D-05 0.000000000000D+00 0.000000000000D+00 0.247539238771D-05 0.000000000000D+00  6 22 -3 9900012 -13 -4 21 2 0.48104843D-01 0.24156495D-01 0.13152951D+04 0.13152951D+04 0.13152951D+04 0.13129867D+01  1  2  8  1  6  2       -3 -.839853581864D-05 0.100000000000D+01
0.334072696792D-04 0.000000000000D+00 0.000000000000D+00 0.247539238771D-05 0.752524115886D-07  6 22 -3 9900012 -13 -4 21 2 0.48446869D-01 0.26326322D-01 0.19616324D+04 0.19616324D+04 0.19616324D+04 0.12903759D+01  1  2  1  1  6  2       -3 0.192844012733D-03 0.100000000000D+01
  </mgrwgt>
  </event>
  <event>
  7     66 0.16695846E-05 0.11161120E+02 0.78161638E-02 0.13481955E+00
       22 -1    0    0    0    0 0.00000000E+00 0.00000000E+00 0.63626604E+01 0.63626604E+01 0.00000000E+00 0.0000E+00 0.9000E+01
       -1 -1    0    0    0  501 -.00000000E+00 -.00000000E+00 -.49441920E+03 0.49441920E+03 0.00000000E+00 0.0000E+00 0.9000E+01
       24  2    1    2    0    0 0.55759187E+01 -.89186856E+01 -.43734229E+03 0.44445025E+03 0.78467268E+02 0.0000E+00 0.0000E+00
  9900012  1    3    3    0    0 -.79112634E+01 -.14118504E+02 -.20400010E+03 0.21066078E+03 0.50000000E+02 0.0000E+00 0.9000E+01
      -13  1    3    3    0    0 0.13487182E+02 0.51998185E+01 -.23334219E+03 0.23378947E+03 0.00000000E+00 0.0000E+00 0.9000E+01
       -2  1    1    2    0  502 0.72249559E+00 -.10654316E+01 0.19632276E+01 0.23476386E+01 0.00000000E+00 0.0000E+00 0.9000E+01
       21  1    1    2  502  501 -.62984143E+01 0.99841172E+01 -.52677481E+02 0.53983976E+02 0.00000000E+00 0.0000E+00 0.9000E+01
#aMCatNLO 2  0  0  5  2 0.10768212D+02 0.00000000D+00  -5  6  0 0.00000000D+00 0.00000000D+00 0.00000000D+00 0.00000000D+00 0.00000000D+00
  <mgrwgt>
 0.1768223786D-03    2    2    0
 0.560876231408862D+02 0.000000000000000D+00 0.000000000000000D+00 0.560876231408862D+02
 0.560876231408862D+02 -.000000000000000D+00 -.000000000000000D+00 -.560876231408862D+02
 0.529678996758867D+02 -.670947960318462D+01 -.160407580736259D+02 0.180979555548327D+01
 0.305638896746435D+02 0.141574349192773D+02 0.412774874348647D+01 -.267708811745309D+02
 0.286434569312423D+02 -.744795531609268D+01 0.119130093301394D+02 0.249610856190477D+02
 0.000000000000000D+00 0.000000000000000D+00 0.000000000000000D+00 -.000000000000000D+00
 0.560876231408862D+02 0.000000000000000D+00 0.000000000000000D+00 0.560876231408862D+02
 0.560876231408862D+02 -.000000000000000D+00 -.000000000000000D+00 -.560876231408862D+02
 0.528771796634718D+02 -.791126341778712D+01 -.141185040873223D+02 0.583745515046807D+01
 0.284674897314363D+02 0.134871821615045D+02 0.519981846168773D+01 -.245245953466580D+02
 0.190222083176232D+02 0.722495592701141D+00 -.106543157064319D+01 0.189786001845726D+02
 0.118083685692410D+02 -.629841433641852D+01 0.998411719627777D+01 -.291459988382616D+00
-.512565305431D-08 0.000000000000D+00 0.000000000000D+00 0.248272961068D-06 0.000000000000D+00  6 22 -1 9900012 -13 -2 21 2 0.97887082D-03 0.76064493D-01 0.16040377D+04 0.16040377D+04 0.16040377D+04 0.13016115D+01  1  2 13  2  6  5       -2 -.170547906442D-05 0.100000000000D+01
0.536548280305D-06 0.000000000000D+00 0.000000000000D+00 0.248272961068D-06 0.988340954007D-06  6 22 -1 9900012 -13 -2 21 2 0.97887082D-03 0.76064493D-01 0.16040377D+04 0.16040377D+04 0.16040377D+04 0.13016115D+01  1  2  1  2  6  5       -2 0.178527857702D-03 0.100000000000D+01
  </mgrwgt>
  </event>
  <event>
  7     66 0.16695846E-05 0.16370019E+02 0.78161638E-02 0.13070646E+00
       22 -1    0    0    0    0 0.00000000E+00 0.00000000E+00 0.39853024E+03 0.39853024E+03 0.00000000E+00 0.0000E+00 0.9000E+01
       -3 -1    0    0    0  501 0.00000000E+00 0.00000000E+00 -.10006471E+02 0.10006471E+02 0.00000000E+00 0.0000E+00 0.9000E+01
       24  2    1    2    0    0 -.91916852E+01 0.13475886E+02 0.17039365E+03 0.18905775E+03 0.80266747E+02 0.0000E+00 0.0000E+00
  9900012  1    3    3    0    0 -.14014856E+01 0.31252744E+02 0.14858579E+03 0.15986380E+03 0.50000000E+02 0.0000E+00 0.9000E+01
      -13  1    3    3    0    0 -.77901997E+01 -.17776858E+02 0.21807858E+02 0.29193947E+02 0.00000000E+00 0.0000E+00 0.9000E+01
       -4  1    1    2    0  502 -.83348015E+00 -.11390767E-01 0.11410790E+03 0.11411094E+03 0.00000000E+00 0.0000E+00 0.9000E+01
       21  1    1    2  502  501 0.10025165E+02 -.13464495E+02 0.10402222E+03 0.10536802E+03 0.00000000E+00 0.0000E+00 0.9000E+01
#aMCatNLO 2  0  0  5  2 0.89800625D+01 0.00000000D+00  -5  6  0 0.00000000D+00 0.00000000D+00 0.00000000D+00 0.00000000D+00 0.00000000D+00
  <mgrwgt>
 0.1591900478D-02    2    2    0
 0.631496736594152D+02 0.000000000000000D+00 0.000000000000000D+00 0.631496736594152D+02
 0.631496736594152D+02 -.000000000000000D+00 -.000000000000000D+00 -.631496736594152D+02
 0.608601189887460D+02 -.197409857902768D+01 0.320922492011412D+02 -.130439472299013D+02
 0.277954297192411D+02 -.805140101145765D+01 -.173939120642665D+02 -.201298951346135D+02
 0.376437986108433D+02 0.100254995904853D+02 -.146983371368747D+02 0.331738423645148D+02
 0.000000000000000D+00 0.000000000000000D+00 0.000000000000000D+00 0.000000000000000D+00
 0.631496736594152D+02 0.000000000000000D+00 0.000000000000000D+00 0.631496736594152D+02
 0.631496736594152D+02 -.000000000000000D+00 -.000000000000000D+00 -.631496736594152D+02
 0.600250186459460D+02 -.140148558566756D+01 0.312527440224318D+02 -.111492014363221D+02
 0.273471570804952D+02 -.779019965695834D+01 -.177768581243993D+02 -.192655938116369D+02
 0.180909768730130D+02 -.833480152904619D+00 -.113907667521520D-01 0.180717632040993D+02
 0.208361947193762D+02 0.100251653955305D+02 -.134644951312803D+02 0.123430320438597D+02
-.311419685009D-07 0.000000000000D+00 0.000000000000D+00 0.422461752331D-06 0.000000000000D+00  6 22 -3 9900012 -13 -4 21 2 0.61312345D-01 0.15394571D-02 0.23044659D+04 0.23044659D+04 0.23044659D+04 0.12816029D+01  1  2 13  2  6  5       -4 -.958032037685D-05 0.100000000000D+01
0.520580342047D-05 0.000000000000D+00 0.000000000000D+00 0.422461752331D-06 0.214125575844D-05  6 22 -3 9900012 -13 -4 21 2 0.61312345D-01 0.15394571D-02 0.23044659D+04 0.23044659D+04 0.23044659D+04 0.12816029D+01  1  2  1  2  6  5       -4 0.160148079867D-02 0.100000000000D+01
  </mgrwgt>
  </event>
  <event>
  7     66 0.16695846E-05 0.61197884E+01 0.78161638E-02 0.13105859E+00
       22 -1    0    0    0    0 0.00000000E+00 0.00000000E+00 0.15103652E+03 0.15103652E+03 0.00000000E+00 0.0000E+00 0.9000E+01
       21 -1    0    0  502  501 0.00000000E+00 0.00000000E+00 -.22957174E+02 0.22957174E+02 0.00000000E+00 0.0000E+00 0.9000E+01
       24  2    1    2    0    0 -.28936966E+00 0.78444529E+01 0.56991447E+02 0.99914085E+02 0.81689535E+02 0.0000E+00 0.0000E+00
  9900012  1    3    3    0    0 0.19292519E+02 0.11418874E+02 0.20802104E+02 0.58611599E+02 0.50000000E+02 0.0000E+00 0.9000E+01
      -13  1    3    3    0    0 -.19581888E+02 -.35744206E+01 0.36189343E+02 0.41302486E+02 0.00000000E+00 0.0000E+00 0.9000E+01
        1  1    1    2  502    0 0.91107529E+01 -.55641405E+01 0.49669328E+02 0.50803618E+02 0.00000000E+00 0.0000E+00 0.9000E+01
       -2  1    1    2    0  501 -.88213832E+01 -.22803124E+01 0.21418573E+02 0.23275994E+02 0.00000000E+00 0.0000E+00 0.9000E+01
#aMCatNLO 2  0  0  2  5 0.68915686D+01 0.00000000D+00  -5  6  0 0.00000000D+00 0.00000000D+00 0.00000000D+00 0.00000000D+00 0.00000000D+00
  <mgrwgt>
 0.2389851831D-04    1    2    0
 0.472061933107669D+02 0.000000000000000D+00 0.000000000000000D+00 0.472061933107669D+02
 0.472061933107669D+02 0.000000000000000D+00 0.000000000000000D+00 -.472061933107669D+02
 0.603893977869575D+02 0.250263551636629D+02 0.791709143426293D+01 -.213981442072699D+02
 0.221573920411821D+02 -.173770069951729D+02 -.492099100172628D+01 0.128364129536751D+02
 0.000000000000000D+00 0.000000000000000D+00 -.000000000000000D+00 0.000000000000000D+00
 0.118655967933943D+02 -.764934816848994D+01 -.299610043253665D+01 0.856173125359477D+01
 0.711834341427808D+02 0.000000000000000D+00 0.000000000000000D+00 0.711834341427808D+02
 0.487103751725254D+02 0.000000000000000D+00 0.000000000000000D+00 -.487103751725254D+02
 0.588257811444909D+02 0.192925187450906D+02 0.114188735090092D+02 -.213981442072699D+02
 0.236854456153485D+02 -.195818884074372D+02 -.357442063543550D+01 0.128364129536751D+02
 0.248797881146310D+02 0.911075288856348D+01 -.556414045041040D+01 0.224730589702553D+02
 0.125027944408358D+02 -.882138322621686D+01 -.228031242316328D+01 0.856173125359477D+01
0.291239734769D-08 0.000000000000D+00 0.000000000000D+00 0.373608687936D-07 0.633568431398D-10  6 22 21 9900012 -13 1 -2 2 0.23236388D-01 0.35318730D-02 0.22320034D+04 0.22320034D+04 0.22320034D+04 0.12833280D+01  1  2  1  3  5  2       -1 0.238985183150D-04 0.100000000000D+01
  </mgrwgt>
  </event>
  <event>
  6     66 0.16695846E-05 0.24806076E+02 0.78161638E-02 0.12777528E+00
       22 -1    0    0    0    0 0.00000000E+00 0.00000000E+00 0.17155448E+02 0.17155448E+02 0.00000000E+00 0.0000E+00 0.9000E+01
       -1 -1    0    0    0  501 0.00000000E+00 0.00000000E+00 -.18040783E+03 0.18040783E+03 0.00000000E+00 0.0000E+00 0.9000E+01
       24  2    1    2    0    0 0.11739066E+02 0.21852591E+02 -.10872352E+03 0.13765720E+03 0.80705388E+02 0.0000E+00 0.0000E+00
  9900012  1    3    3    0    0 0.10639290E+02 0.39814404E+02 -.95148799E+02 0.11511592E+03 0.50000000E+02 0.0000E+00 0.9000E+01
      -13  1    3    3    0    0 0.10997766E+01 -.17961813E+02 -.13574721E+02 0.22541280E+02 0.00000000E+00 0.0000E+00 0.9000E+01
       -2  1    1    2    0  501 -.11739066E+02 -.21852591E+02 -.54528863E+02 0.59906079E+02 0.00000000E+00 0.0000E+00 0.9000E+01
#aMCatNLO 1  0  0  2  5 0.51525432D+01 0.00000000D+00  -5  6  0 0.00000000D+00 0.00000000D+00 0.00000000D+00 0.00000000D+00 0.00000000D+00
  <mgrwgt>
 0.1395849939D-03    8    4    0
 0.556325193585845D+02 0.000000000000000D+00 0.000000000000000D+00 0.556325193585845D+02
 0.556325193585845D+02 0.000000000000000D+00 0.000000000000000D+00 -.556325193585845D+02
 0.647949321396366D+02 0.106392895569223D+02 0.398144039409536D+02 -.445817301179137D-01
 0.201071570831498D+02 0.109977656242232D+01 -.179618132206529D+02 0.897003474383370D+01
 0.263629494943825D+02 -.117390661193446D+02 -.218525907203007D+02 -.892545301371578D+01
 0.000000000000000D+00 0.000000000000000D+00 -.000000000000000D+00 0.000000000000000D+00
 0.579472422378024D+02 0.000000000000000D+00 0.000000000000000D+00 0.579472422378024D+02
 0.562943405095445D+02 0.000000000000000D+00 0.000000000000000D+00 -.562943405095445D+02
 0.650209361166169D+02 0.938580779826071D+01 0.404923049223507D+02 -.445817301179137D-01
 0.199031461015382D+02 0.713443320776346D+00 -.177528786415508D+02 0.897003474383370D+01
 0.263677756750658D+02 -.122482257699231D+02 -.215772298509223D+02 -.892545301371578D+01
 0.294972485412602D+01 0.214897465088607D+01 -.116219642987757D+01 0.165290172825782D+01
 0.556325193585845D+02 0.000000000000000D+00 0.000000000000000D+00 0.556325193585845D+02
 0.556325193585845D+02 0.000000000000000D+00 0.000000000000000D+00 -.556325193585845D+02
 0.647949321396366D+02 0.106392895569223D+02 0.398144039409536D+02 -.445817301179137D-01
 0.201071570831498D+02 0.109977656242232D+01 -.179618132206529D+02 0.897003474383370D+01
 0.000000000000000D+00 0.000000000000000D+00 -.000000000000000D+00 0.000000000000000D+00
 0.263629494943825D+02 -.117390661193446D+02 -.218525907203007D+02 -.892545301371578D+01
 0.579472422378024D+02 0.000000000000000D+00 0.000000000000000D+00 0.579472422378024D+02
 0.562943405095445D+02 0.000000000000000D+00 0.000000000000000D+00 -.562943405095445D+02
 0.650209361166169D+02 0.938580779826071D+01 0.404923049223507D+02 -.445817301179137D-01
 0.199031461015382D+02 0.713443320776346D+00 -.177528786415508D+02 0.897003474383370D+01
 0.294972485412602D+01 0.214897465088607D+01 -.116219642987757D+01 0.165290172825782D+01
 0.263677756750658D+02 -.122482257699231D+02 -.215772298509223D+02 -.892545301371578D+01
0.256396357934D-06 0.000000000000D+00 0.000000000000D+00 0.820014456357D-07 0.000000000000D+00  6 22 -1 9900012 -13 -2 21 0 0.26392997D-02 0.27755051D-01 0.28942486D+04 0.28942486D+04 0.28942486D+04 0.12694987D+01  1  2  2  1  6  2       -1 0.793901241665D-04 0.100000000000D+01
0.242055314371D-08 0.000000000000D+00 -.492314762588D-09 0.820014456357D-07 0.000000000000D+00  6 22 -1 9900012 -13 -2 21 2 0.26392997D-02 0.27755051D-01 0.28942486D+04 0.28942486D+04 0.28942486D+04 0.12694987D+01  1  2  3  1  6  2       -1 0.120790783208D-05 0.100000000000D+01
0.274823113602D-08 0.000000000000D+00 0.000000000000D+00 0.820014456357D-07 0.000000000000D+00  6 22 -1 9900012 -13 -2 21 2 0.26392997D-02 0.27755051D-01 0.28942486D+04 0.28942486D+04 0.28942486D+04 0.12694987D+01  1  2 15  1  6  2       -1 0.137142616438D-05 0.100000000000D+01
0.853653523631D-07 0.000000000000D+00 0.000000000000D+00 0.820014456357D-07 0.000000000000D+00  6 22 -1 9900012 -13 -2 21 2 0.26392997D-02 0.29253786D-01 0.30273350D+04 0.30273350D+04 0.30273350D+04 0.12671509D+01  1  2 12  1  6  2       -1 0.392808513046D-04 0.100000000000D+01
-.276399452426D-07 0.000000000000D+00 0.000000000000D+00 0.820014456357D-07 0.000000000000D+00  6 22 -1 9900012 -13 -2 21 2 0.26392997D-02 0.27755051D-01 0.28942486D+04 0.28942486D+04 0.28942486D+04 0.12694987D+01  1  2  4  1  6  2       -1 -.137929243254D-04 0.100000000000D+01
0.185295959796D-07 0.000000000000D+00 0.000000000000D+00 0.820014456357D-07 0.143154481364D-07  6 22 -1 9900012 -13 -2 21 2 0.27491141D-02 0.28085233D-01 0.30273350D+04 0.30273350D+04 0.30273350D+04 0.12671509D+01  1  2 11  1  6  2       -1 0.860759261487D-05 0.100000000000D+01
0.148524432027D-08 0.000000000000D+00 0.000000000000D+00 0.820014456357D-07 0.000000000000D+00  6 22 21 9900012 -13 1 -2 2 0.26392997D-02 0.29253786D-01 0.30273350D+04 0.30273350D+04 0.30273350D+04 0.12671509D+01  3  4 12  3  5  2       -1 0.783680056736D-05 0.100000000000D+01
0.291243364892D-08 0.000000000000D+00 0.000000000000D+00 0.820014456357D-07 0.456849085209D-09  6 22 21 9900012 -13 1 -2 2 0.27491141D-02 0.28085233D-01 0.30273350D+04 0.30273350D+04 0.30273350D+04 0.12671509D+01  3  4 11  3  5  2       -1 0.156832155348D-04 0.100000000000D+01
  </mgrwgt>
  </event>
  <event>
  6     66 0.16695846E-05 0.10018579E+02 0.78161638E-02 0.13768472E+00
       22 -1    0    0    0    0 0.00000000E+00 0.00000000E+00 0.14803266E+03 0.14803266E+03 0.00000000E+00 0.0000E+00 0.9000E+01
       -1 -1    0    0    0  501 0.00000000E+00 0.00000000E+00 -.13276308E+02 0.13276308E+02 0.00000000E+00 0.0000E+00 0.9000E+01
       24  2    1    2    0    0 0.78500710E+01 -.62248139E+01 0.10176701E+03 0.12683190E+03 0.75029550E+02 0.0000E+00 0.0000E+00
  9900012  1    3    3    0    0 0.13784236E+02 -.13447446E+02 0.10420360E+03 0.11717179E+03 0.50000000E+02 0.0000E+00 0.9000E+01
      -13  1    3    3    0    0 -.59341648E+01 0.72226319E+01 -.24365838E+01 0.96601068E+01 0.00000000E+00 0.0000E+00 0.9000E+01
       -2  1    1    2    0  501 -.78500710E+01 0.62248139E+01 0.32989344E+02 0.34477076E+02 0.00000000E+00 0.0000E+00 0.9000E+01
#aMCatNLO 1  0  0  5  2 0.41214657D+01 0.00000000D+00  -5  6  0 0.00000000D+00 0.00000000D+00 0.00000000D+00 0.00000000D+00 0.00000000D+00
  <mgrwgt>
 0.3129692686D-02    8    2    0
 0.443320117766818D+02 0.000000000000000D+00 0.000000000000000D+00 0.443320117766818D+02
 0.443320117766818D+02 -.000000000000000D+00 -.000000000000000D+00 -.443320117766818D+02
 0.547997254786751D+02 0.137842358756294D+02 -.134474457488144D+02 0.114965628209417D+02
 0.212781576312562D+02 -.593416484144507D+01 0.722263187233725D+01 -.191148965116696D+02
 0.125861404434324D+02 -.785007103418435D+01 0.622481387647717D+01 0.761833369072797D+01
 0.000000000000000D+00 -.000000000000000D+00 0.000000000000000D+00 0.000000000000000D+00
 0.443320117766818D+02 0.000000000000000D+00 0.000000000000000D+00 0.443320117766818D+02
 0.443320117766818D+02 -.000000000000000D+00 -.000000000000000D+00 -.443320117766818D+02
 0.545357845122968D+02 0.125516246784191D+02 -.124700309902366D+02 0.126927868258435D+02
 0.211366827626301D+02 -.641233526568976D+01 0.760180320457076D+01 -.186508418761040D+02
 0.497399429048034D+01 0.115960264294838D+00 -.492545769922064D-01 0.497239845602512D+01
 0.801756198795644D+01 -.625524967702418D+01 0.491748236265807D+01 0.985656594235354D+00
0.596432912036D-08 0.000000000000D+00 0.000000000000D+00 0.253021602023D-07 0.000000000000D+00  6 22 -1 9900012 -13 -2 21 0 0.22774256D-01 0.20425089D-02 0.13303000D+04 0.13303000D+04 0.13303000D+04 0.13123282D+01  1  2  2  2  6  5       -2 0.362514936574D-05 0.100000000000D+01
0.212771774448D-10 0.000000000000D+00 -.114522971331D-10 0.253021602023D-07 0.000000000000D+00  6 22 -1 9900012 -13 -2 21 2 0.22774256D-01 0.20425089D-02 0.13303000D+04 0.13303000D+04 0.13303000D+04 0.13123282D+01  1  2  3  2  6  5       -2 0.222722059829D-07 0.100000000000D+01
0.165643546162D-09 0.000000000000D+00 0.000000000000D+00 0.253021602023D-07 0.000000000000D+00  6 22 -1 9900012 -13 -2 21 2 0.22774256D-01 0.20425089D-02 0.13303000D+04 0.13303000D+04 0.13303000D+04 0.13123282D+01  1  2 15  2  6  5       -2 0.173389876991D-06 0.100000000000D+01
0.143534246285D-09 0.000000000000D+00 0.000000000000D+00 0.253021602023D-07 0.000000000000D+00  6 22 -1 9900012 -13 -2 21 2 0.22774256D-01 0.20425089D-02 0.12625941D+04 0.12625941D+04 0.12625941D+04 0.13153696D+01  1  2 12  2  6  5       -2 0.149746176648D-06 0.100000000000D+01
-.770348623753D-08 0.000000000000D+00 0.000000000000D+00 0.253021602023D-07 0.000000000000D+00  6 22 -1 9900012 -13 -2 21 2 0.22774256D-01 0.20425089D-02 0.13303000D+04 0.13303000D+04 0.13303000D+04 0.13123282D+01  1  2  4  2  6  5       -2 -.806374025473D-05 0.100000000000D+01
-.103360827628D-08 0.000000000000D+00 0.000000000000D+00 0.253021602023D-07 0.000000000000D+00  6 22 -1 9900012 -13 -2 21 2 0.22774256D-01 0.20425089D-02 0.13303000D+04 0.13303000D+04 0.13303000D+04 0.13123282D+01  1  2  5  2  6  5       -2 -.108194503216D-05 0.100000000000D+01
0.248507605234D-08 0.000000000000D+00 -.000000000000D+00 0.253021602023D-07 0.000000000000D+00  6 22 -1 9900012 -13 -2 21 2 0.22774256D-01 0.20425089D-02 0.13303000D+04 0.13303000D+04 0.13303000D+04 0.13123282D+01  1  2  6  2  6  5       -2 0.260129078984D-05 0.100000000000D+01
0.300233050778D-05 0.000000000000D+00 0.000000000000D+00 0.253021602023D-07 0.904370377636D-05  6 22 -1 9900012 -13 -2 21 2 0.22774256D-01 0.20425089D-02 0.12625941D+04 0.12625941D+04 0.12625941D+04 0.13153696D+01  1  2 11  2  6  5       -2 0.313226652321D-02 0.100000000000D+01
  </mgrwgt>
  </event>
  <event>
  6     66 0.16695846E-05 0.79375420E+02 0.78161638E-02 0.10679340E+00
       22 -1    0    0    0    0 0.00000000E+00 0.00000000E+00 0.47807351E+03 0.47807351E+03 0.00000000E+00 0.0000E+00 0.9000E+01
       -1 -1    0    0    0  501 0.00000000E+00 0.00000000E+00 -.36235431E+02 0.36235431E+02 0.00000000E+00 0.0000E+00 0.9000E+01
       24  2    1    2    0    0 -.75785451E+02 0.23601329E+02 0.60076214E+02 0.12438256E+03 0.74574885E+02 0.0000E+00 0.0000E+00
  9900012  1    3    3    0    0 -.35409994E+02 0.26902600E+02 0.27284890E+02 0.72263980E+02 0.50000000E+02 0.0000E+00 0.9000E+01
      -13  1    3    3    0    0 -.40375457E+02 -.33012707E+01 0.32791324E+02 0.52118584E+02 0.00000000E+00 0.0000E+00 0.9000E+01
       -2  1    1    2    0  501 0.75785451E+02 -.23601329E+02 0.38176187E+03 0.38992638E+03 0.00000000E+00 0.0000E+00 0.9000E+01
#aMCatNLO 1  0  0  2  5 0.38593664D+03 0.00000000D+00  -5  6  0 0.00000000D+00 0.00000000D+00 0.00000000D+00 0.00000000D+00 0.00000000D+00
  <mgrwgt>
 0.6222696572D-04    3    2    0
 0.131617626687035D+03 0.000000000000000D+00 0.000000000000000D+00 0.131617626687035D+03
 0.131617626687035D+03 0.000000000000000D+00 0.000000000000000D+00 -.131617626687035D+03
 0.953918878838831D+02 -.354099940862529D+02 0.269026001364008D+02 -.679852535390123D+02
 0.467893191434408D+02 -.403754567230976D+02 -.330127074551755D+01 -.234129129279724D+02
 0.121054046346746D+03 0.757854508093505D+02 -.236013293908833D+02 0.913981664669847D+02
 0.000000000000000D+00 0.000000000000000D+00 0.000000000000000D+00 0.000000000000000D+00
 0.442266388202655D+03 0.000000000000000D+00 0.000000000000000D+00 0.442266388202655D+03
 0.166276062497584D+03 0.000000000000000D+00 0.000000000000000D+00 -.166276062497584D+03
 0.115376331897903D+03 -.785901611690579D+02 -.364552203022932D+01 -.679852535390123D+02
 0.717555345196030D+02 -.646617869548399D+02 -.204828110919379D+02 -.234129129279724D+02
 0.111488264866812D+03 0.281444171543764D+02 -.573053239457405D+02 0.913981664669847D+02
 0.309922319415921D+03 0.115107530969521D+03 0.814336570679077D+02 0.275990325705071D+03
0.215039439327D-05 0.000000000000D+00 0.000000000000D+00 0.860008388040D-08 0.000000000000D+00  6 22 -1 9900012 -13 -2 21 0 0.73549771D-01 0.55746817D-02 0.87236177D+04 0.87236177D+04 0.87236177D+04 0.12155269D+01  1  2  2  1  6  2       -1 0.599846407853D-04 0.100000000000D+01
-.141323817503D-06 0.000000000000D+00 -.412904034101D-08 0.860008388040D-08 0.000000000000D+00  6 22 -1 9900012 -13 -2 21 2 0.73549771D-01 0.55746817D-02 0.87236177D+04 0.87236177D+04 0.87236177D+04 0.12155269D+01  1  2  3  1  6  2       -1 -.582460467678D-05 0.100000000000D+01
0.195729899443D-06 0.000000000000D+00 0.000000000000D+00 0.860008388040D-08 0.000000000000D+00  6 22 -1 9900012 -13 -2 21 2 0.73549771D-01 0.55746817D-02 0.87236177D+04 0.87236177D+04 0.87236177D+04 0.12155269D+01  1  2 15  1  6  2       -1 0.806692960765D-05 0.100000000000D+01
  </mgrwgt>
  </event>
  <event>
  7     66 0.16695846E-05 0.13462842E+02 0.78161638E-02 0.13130562E+00
       22 -1    0    0    0    0 0.00000000E+00 0.00000000E+00 0.12368193E+04 0.12368193E+04 0.00000000E+00 0.0000E+00 0.9000E+01
       -3 -1    0    0    0  501 0.00000000E+00 0.00000000E+00 -.22122193E+01 0.22122193E+01 0.00000000E+00 0.0000E+00 0.9000E+01
       24  2    1    2    0    0 -.13595361E+02 0.13537748E+01 0.82905703E+03 0.83311761E+03 0.81010715E+02 0.0000E+00 0.0000E+00
  9900012  1    3    3    0    0 0.59017169E+01 -.16624312E+02 0.44532857E+03 0.44847379E+03 0.50000000E+02 0.0000E+00 0.9000E+01
      -13  1    3    3    0    0 -.19497078E+02 0.17978087E+02 0.38372845E+03 0.38464383E+03 0.00000000E+00 0.0000E+00 0.9000E+01
       -4  1    1    2    0  502 0.85397301E-01 0.27771958E+00 0.15106414E+03 0.15106442E+03 0.00000000E+00 0.0000E+00 0.9000E+01
       21  1    1    2  502  501 0.13509963E+02 -.16314944E+01 0.25448590E+03 0.25484948E+03 0.00000000E+00 0.0000E+00 0.9000E+01
#aMCatNLO 2  0  0  5  2 0.47654379D+01 0.00000000D+00  -5  6  0 0.00000000D+00 0.00000000D+00 0.00000000D+00 0.00000000D+00 0.00000000D+00
  <mgrwgt>
 0.5427020954D-03    2    2    0
 0.523078915719928D+02 0.000000000000000D+00 0.000000000000000D+00 0.523078915719928D+02
 0.523078915719928D+02 -.000000000000000D+00 -.000000000000000D+00 -.523078915719928D+02
 0.562883271127554D+02 0.483729400918025D+01 -.165183209508797D+02 -.192904491597534D+02
 0.273854623681366D+02 -.200128929276346D+02 0.180294499429177D+02 0.493827910708615D+01
 0.209419936630936D+02 0.151755989184544D+02 -.151112899203803D+01 0.143521700526673D+02
 0.000000000000000D+00 0.000000000000000D+00 -.000000000000000D+00 0.000000000000000D+00
 0.523078915719928D+02 0.000000000000000D+00 0.000000000000000D+00 0.523078915719928D+02
 0.523078915719928D+02 -.000000000000000D+00 -.000000000000000D+00 -.523078915719928D+02
 0.560847100285132D+02 0.590171688923653D+01 -.166243121728726D+02 -.182837819260839D+02
 0.270700992435226D+02 -.194970775042881D+02 0.179780869855183D+02 0.542610635604277D+01
 0.639215416380600D+01 0.853973006262674D-01 0.277719581854111D+00 0.638554727402147D+01
 0.150688197081437D+02 0.135099633144253D+02 -.163149439449977D+01 0.647212829601971D+01
-.424479338011D-08 0.000000000000D+00 0.000000000000D+00 0.716724335757D-07 0.000000000000D+00  6 22 -3 9900012 -13 -4 21 2 0.19027989D+00 0.34034143D-03 0.21827633D+04 0.21827633D+04 0.21827633D+04 0.12845369D+01  1  2 13  2  6  5       -4 -.108798563325D-05 0.100000000000D+01
0.212160571409D-05 0.000000000000D+00 0.000000000000D+00 0.716724335757D-07 0.221955845877D-05  6 22 -3 9900012 -13 -4 21 2 0.19027989D+00 0.34034143D-03 0.21827633D+04 0.21827633D+04 0.21827633D+04 0.12845369D+01  1  2  1  2  6  5       -4 0.543790081082D-03 0.100000000000D+01
  </mgrwgt>
  </event>
  <event>
  7     66 0.16695846E-05 0.18222911E+02 0.78161638E-02 0.13390545E+00
       22 -1    0    0    0    0 0.00000000E+00 0.00000000E+00 0.19700717E+02 0.19700717E+02 0.00000000E+00 0.0000E+00 0.9000E+01
       -3 -1    0    0    0  502 0.00000000E+00 0.00000000E+00 -.23876322E+03 0.23876322E+03 0.00000000E+00 0.0000E+00 0.9000E+01
       24  2    1    2    0    0 -.18972146E+01 -.18005017E+02 -.15113493E+03 0.17225102E+03 0.80627964E+02 0.0000E+00 0.0000E+00
  9900012  1    3    3    0    0 -.93120980E+01 -.22814071E+02 -.64849059E+02 0.85513727E+02 0.50000000E+02 0.0000E+00 0.9000E+01
      -13  1    3    3    0    0 0.74148834E+01 0.48090541E+01 -.86285867E+02 0.86737295E+02 0.00000000E+00 0.0000E+00 0.9000E+01
       -4  1    1    2    0  501 -.20787956E+00 -.26570298E+00 0.80418667E+01 0.80489398E+01 0.00000000E+00 0.0000E+00 0.9000E+01
       21  1    1    2  501  502 0.21050941E+01 0.18270720E+02 -.75969440E+02 0.78163971E+02 0.00000000E+00 0.0000E+00 0.9000E+01
#aMCatNLO 2  0  0  2  5 0.80073237D+01 0.00000000D+00  -5  6  0 0.00000000D+00 0.00000000D+00 0.00000000D+00 0.00000000D+00 0.00000000D+00
  <mgrwgt>
 0.8159511215D-03    1    2    0
 0.540698663671384D+02 0.000000000000000D+00 0.000000000000000D+00 0.540698663671384D+02
 0.540698663671384D+02 0.000000000000000D+00 0.000000000000000D+00 -.540698663671384D+02
 0.527302858866578D+02 -.826170909793085D+01 -.136974421237233D+02 0.496057373063664D+01
 0.313973046809281D+02 0.800830875807023D+01 0.995956366592786D+01 -.286786475212269D+02
 0.240121421666909D+02 0.253400339860625D+00 0.373787845779548D+01 0.237180737905902D+02
 0.000000000000000D+00 0.000000000000000D+00 0.000000000000000D+00 -.000000000000000D+00
 0.580812015515224D+02 0.000000000000000D+00 0.000000000000000D+00 0.580812015515224D+02
 0.809867280398182D+02 0.000000000000000D+00 0.000000000000000D+00 -.809867280398182D+02
 0.559625257016392D+02 -.931209801224768D+01 -.228140706972656D+02 0.496057373063664D+01
 0.300095371703112D+02 0.741488344317394D+01 0.480905407056953D+01 -.286786475212269D+02
 0.237204729363077D+02 -.207879564696930D+00 -.265702978538855D+00 0.237180737905902D+02
 0.293753937830826D+02 0.210509413377068D+01 0.182707196052349D+02 -.229055264882958D+02
0.488166140461D-05 0.000000000000D+00 0.000000000000D+00 0.641346379712D-05 0.210053886635D-04  6 22 -3 9900012 -13 -4 21 2 0.30308795D-02 0.36732802D-01 0.17350987D+04 0.17350987D+04 0.17350987D+04 0.12971914D+01  1  2  1  1  6  2       -3 0.815951121479D-03 0.100000000000D+01
  </mgrwgt>
  </event>
  <event>
  7     66 0.16695846E-05 0.45899668E+02 0.78161638E-02 0.11598150E+00
       22 -1    0    0    0    0 0.00000000E+00 0.00000000E+00 0.12369363E+04 0.12369363E+04 0.00000000E+00 0.0000E+00 0.9000E+01
       21 -1    0    0  502  501 0.00000000E+00 0.00000000E+00 -.12450383E+02 0.12450383E+02 0.00000000E+00 0.0000E+00 0.9000E+01
       24  2    1    2    0    0 -.81529932E+02 -.25314114E+02 0.63965798E+03 0.64989418E+03 0.76890674E+02 0.0000E+00 0.0000E+00
  9900012  1    3    3    0    0 -.77758463E+02 -.91432179E+01 0.59578529E+03 0.60298432E+03 0.50000000E+02 0.0000E+00 0.9000E+01
      -13  1    3    3    0    0 -.37714682E+01 -.16170896E+02 0.43872689E+02 0.46909857E+02 0.00000000E+00 0.0000E+00 0.9000E+01
        1  1    1    2  502    0 0.85740885E+02 0.19394303E+02 0.25764486E+03 0.27222879E+03 0.00000000E+00 0.0000E+00 0.9000E+01
       -2  1    1    2    0  501 -.42109532E+01 0.59198106E+01 0.32718309E+03 0.32726373E+03 0.00000000E+00 0.0000E+00 0.9000E+01
#aMCatNLO 2  0  0  2  2 0.10273115D+03 0.00000000D+00  -5  6  0 0.00000000D+00 0.00000000D+00 0.00000000D+00 0.00000000D+00 0.00000000D+00
  <mgrwgt>
 0.2001809311D-04    1    2    0
 0.555164104433526D+02 0.000000000000000D+00 0.000000000000000D+00 0.555164104433526D+02
 0.555164104433526D+02 0.000000000000000D+00 0.000000000000000D+00 -.555164104433526D+02
 0.570714448395083D+02 -.268041204031880D+02 0.238248531212643D+01 -.574566873548576D+01
 0.250685159501622D+02 0.129322921086894D+02 -.123925610270432D+02 -.175388353076844D+02
 0.000000000000000D+00 0.000000000000000D+00 0.000000000000000D+00 -.000000000000000D+00
 0.288928600970348D+02 0.138718282944986D+02 0.100100757149168D+02 0.232845040431701D+02
 0.901099324182140D+02 0.000000000000000D+00 0.000000000000000D+00 0.901099324182140D+02
 0.170906030318691D+03 0.000000000000000D+00 0.000000000000000D+00 -.170906030318691D+03
 0.930751835254882D+02 -.777584634968445D+02 -.914321790702086D+01 -.574566873548576D+01
 0.241522793652659D+02 -.377146820318490D+01 -.161708961464768D+02 -.175388353076844D+02
 0.119397017469355D+03 0.857408848672050D+02 0.193943034632019D+02 -.807960979004770D+02
 0.243914823767956D+02 -.421095316717560D+01 0.591981059029577D+01 0.232845040431701D+02
0.411268432720D-07 0.000000000000D+00 0.000000000000D+00 0.377108514693D-07 0.612368357848D-10  6 22 21 9900012 -13 1 -2 2 0.19029790D+00 0.19154435D-02 0.10472888D+05 0.10472888D+05 0.10472888D+05 0.12072558D+01  1  2  1  3  5  2       -1 0.200180931132D-04 0.100000000000D+01
  </mgrwgt>
  </event>
  <event>
  6     66 0.16695846E-05 0.65085777E+01 0.78161638E-02 0.13719600E+00
       22 -1    0    0    0    0 0.00000000E+00 0.00000000E+00 0.28609382E+02 0.28609382E+02 0.00000000E+00 0.0000E+00 0.9000E+01
       -1 -1    0    0    0  501 -.00000000E+00 -.00000000E+00 -.90603437E+02 0.90603437E+02 0.00000000E+00 0.0000E+00 0.9000E+01
       24  2    1    2    0    0 0.62452421E+01 0.18326308E+01 -.71530624E+02 0.10766692E+03 0.80207071E+02 0.0000E+00 0.0000E+00
  9900012  1    3    3    0    0 -.43957102E+01 -.63218687E+01 -.19963972E+02 0.54386105E+02 0.50000000E+02 0.0000E+00 0.9000E+01
      -13  1    3    3    0    0 0.10640952E+02 0.81544995E+01 -.51566652E+02 0.53280816E+02 0.00000000E+00 0.0000E+00 0.9000E+01
       -2  1    1    2    0  501 -.62452421E+01 -.18326308E+01 0.95365701E+01 0.11545898E+02 0.00000000E+00 0.0000E+00 0.9000E+01
#aMCatNLO 1  0  0  5  2 0.36562855D+01 0.00000000D+00  -5  6  0 0.00000000D+00 0.00000000D+00 0.00000000D+00 0.00000000D+00 0.00000000D+00
  <mgrwgt>
 0.5073847567D-04    6    2    0
 0.509127525948459D+02 0.000000000000000D+00 0.000000000000000D+00 0.509127525948459D+02
 0.509127525948459D+02 -.000000000000000D+00 -.000000000000000D+00 -.509127525948459D+02
 0.515182653864175D+02 -.439571016306446D+01 -.632186868103882D+01 0.973875643844618D+01
 0.309836955597380D+02 0.106409522400876D+02 0.815449946576128D+01 -.279332000391220D+02
 0.193235442435363D+02 -.624524207702317D+01 -.183263078472245D+01 0.181944436006758D+02
 0.000000000000000D+00 0.000000000000000D+00 0.000000000000000D+00 -.000000000000000D+00
 0.509127525948459D+02 0.000000000000000D+00 0.000000000000000D+00 0.509127525948459D+02
 0.509127525948459D+02 -.000000000000000D+00 -.000000000000000D+00 -.509127525948459D+02
 0.518543633280237D+02 -.486676921038629D+01 -.646009828061193D+01 0.111111063271106D+02
 0.301353893129617D+02 0.103624384956723D+02 0.807277119074985D+01 -.271217979265567D+02
 0.168417080984400D+02 -.556276938106348D+01 0.137556850728717D+01 0.158368727900404D+02
 0.299404445026644D+01 0.671000957774864D-01 -.298824141742509D+01 0.173818809405695D+00
0.162908410488D-06 0.000000000000D+00 0.000000000000D+00 0.241007710930D-05 0.000000000000D+00  6 22 -1 9900012 -13 -2 21 0 0.44014435D-02 0.13938990D-01 0.12427095D+04 0.12427095D+04 0.12427095D+04 0.13162984D+01  1  2  2  2  6  5       -2 0.647655355604D-04 0.100000000000D+01
-.528278540094D-08 0.000000000000D+00 -.312805595521D-09 0.241007710930D-05 0.000000000000D+00  6 22 -1 9900012 -13 -2 21 2 0.44014435D-02 0.13938990D-01 0.12427095D+04 0.12427095D+04 0.12427095D+04 0.13162984D+01  1  2  3  2  6  5       -2 -.363891692450D-05 0.100000000000D+01
0.133305022022D-07 0.000000000000D+00 0.000000000000D+00 0.241007710930D-05 0.000000000000D+00  6 22 -1 9900012 -13 -2 21 2 0.44014435D-02 0.13938990D-01 0.12427095D+04 0.12427095D+04 0.12427095D+04 0.13162984D+01  1  2 15  2  6  5       -2 0.918238890928D-05 0.100000000000D+01
0.614463445959D-08 0.000000000000D+00 0.000000000000D+00 0.241007710930D-05 0.000000000000D+00  6 22 -1 9900012 -13 -2 21 2 0.44014435D-02 0.13938990D-01 0.13142472D+04 0.13142472D+04 0.13142472D+04 0.13130331D+01  1  2 12  2  6  5       -2 0.424287830793D-05 0.100000000000D+01
-.308456416337D-06 0.000000000000D+00 0.000000000000D+00 0.241007710930D-05 0.000000000000D+00  6 22 -1 9900012 -13 -2 21 2 0.44014435D-02 0.13938990D-01 0.12427095D+04 0.12427095D+04 0.12427095D+04 0.13162984D+01  1  2  4  2  6  5       -2 -.212472623567D-03 0.100000000000D+01
0.273220634569D-06 0.000000000000D+00 0.000000000000D+00 0.241007710930D-05 0.255320324814D-05  6 22 -1 9900012 -13 -2 21 2 0.44014435D-02 0.13938990D-01 0.13142472D+04 0.13142472D+04 0.13142472D+04 0.13130331D+01  1  2 11  2  6  5       -2 0.188659213386D-03 0.100000000000D+01
  </mgrwgt>
  </event>
  <event>
  6     66 -.16695846E-05 0.56582386E+01 0.78161638E-02 0.13349525E+00
       22 -1    0    0    0    0 0.00000000E+00 0.00000000E+00 0.11495367E+03 0.11495367E+03 0.00000000E+00 0.0000E+00 0.9000E+01
       -3 -1    0    0    0  501 0.00000000E+00 0.00000000E+00 -.49271619E+02 0.49271619E+02 0.00000000E+00 0.0000E+00 0.9000E+01
       24  2    1    2    0    0 0.26793976E+01 0.49836224E+01 -.17369911E+02 0.80980805E+02 0.78893354E+02 0.0000E+00 0.0000E+00
  9900012  1    3    3    0    0 0.10490785E+02 -.73645044E+01 0.74775895E+01 0.52155602E+02 0.50000000E+02 0.0000E+00 0.9000E+01
      -13  1    3    3    0    0 -.78113869E+01 0.12348127E+02 -.24847501E+02 0.28825203E+02 0.00000000E+00 0.0000E+00 0.9000E+01
       -4  1    1    2    0  501 -.26793976E+01 -.49836224E+01 0.83051959E+02 0.83244481E+02 0.00000000E+00 0.0000E+00 0.9000E+01
#aMCatNLO 1  0  0  2  5 0.36638360D+02 0.00000000D+00  -5  6  0 0.00000000D+00 0.00000000D+00 0.00000000D+00 0.00000000D+00 0.00000000D+00
  <mgrwgt>
 -.5772529746D-04    5    4    0
 0.752592401636101D+02 0.000000000000000D+00 0.000000000000000D+00 0.752592401636101D+02
 0.752592401636101D+02 0.000000000000000D+00 0.000000000000000D+00 -.752592401636101D+02
 0.536420857965763D+02 0.104907845349309D+02 -.736450437153621D+01 -.146007151814744D+02
 0.422928920657331D+02 -.781138692950648D+01 0.123481267918962D+02 -.396887228095405D+02
 0.545835024649107D+02 -.267939760542441D+01 -.498362242036000D+01 0.542894379910149D+02
 0.000000000000000D+00 -.000000000000000D+00 0.000000000000000D+00 -.000000000000000D+00
 0.758855828177099D+02 0.000000000000000D+00 0.000000000000000D+00 0.758855828177099D+02
 0.158376544285016D+03 0.000000000000000D+00 0.000000000000000D+00 -.158376544285016D+03
 0.545859745669606D+02 0.117584546373453D+02 -.113219468359386D+02 -.146007151814744D+02
 0.413301468794077D+02 -.683191426790914D+01 0.929038590462287D+01 -.396887228095405D+02
 0.550468175179256D+02 -.139530290305655D+01 -.899233958879839D+01 0.542894379910149D+02
 0.832991881384319D+02 -.353123746637963D+01 0.110239005201141D+02 -.824909614673058D+02
 0.752592401636101D+02 0.000000000000000D+00 0.000000000000000D+00 0.752592401636101D+02
 0.752592401636101D+02 0.000000000000000D+00 0.000000000000000D+00 -.752592401636101D+02
 0.536420857965763D+02 0.104907845349309D+02 -.736450437153621D+01 -.146007151814744D+02
 0.422928920657331D+02 -.781138692950648D+01 0.123481267918962D+02 -.396887228095405D+02
 0.000000000000000D+00 -.000000000000000D+00 0.000000000000000D+00 -.000000000000000D+00
 0.545835024649107D+02 -.267939760542441D+01 -.498362242036000D+01 0.542894379910149D+02
 0.758855828177099D+02 0.000000000000000D+00 0.000000000000000D+00 0.758855828177099D+02
 0.158376544285016D+03 0.000000000000000D+00 0.000000000000000D+00 -.158376544285016D+03
 0.545859745669606D+02 0.117584546373453D+02 -.113219468359386D+02 -.146007151814744D+02
 0.413301468794077D+02 -.683191426790914D+01 0.929038590462287D+01 -.396887228095405D+02
 0.832991881384319D+02 -.353123746637963D+01 0.110239005201141D+02 -.824909614673058D+02
 0.550468175179256D+02 -.139530290305655D+01 -.899233958879839D+01 0.542894379910149D+02
0.323517143820D-07 0.000000000000D+00 0.000000000000D+00 0.703211705019D-05 0.000000000000D+00  6 22 -3 9900012 -13 -4 21 0 0.17685179D-01 0.75802490D-02 0.12919157D+04 0.12919157D+04 0.12919157D+04 0.13140301D+01  1  2  2  1  6  2       -3 0.381090959316D-05 0.100000000000D+01
-.143151338349D-08 0.000000000000D+00 -.621195508144D-10 0.703211705019D-05 0.000000000000D+00  6 22 -3 9900012 -13 -4 21 2 0.17685179D-01 0.75802490D-02 0.12919157D+04 0.12919157D+04 0.12919157D+04 0.13140301D+01  1  2  3  1  6  2       -3 -.291163818504D-06 0.100000000000D+01
0.353671426560D-08 0.000000000000D+00 0.000000000000D+00 0.703211705019D-05 0.000000000000D+00  6 22 -3 9900012 -13 -4 21 2 0.17685179D-01 0.75802490D-02 0.12919157D+04 0.12919157D+04 0.12919157D+04 0.13140301D+01  1  2 15  1  6  2       -3 0.719352848813D-06 0.100000000000D+01
-.413020692893D-06 0.000000000000D+00 -.864446283359D-08 0.703211705019D-05 0.000000000000D+00  6 22 -3 9900012 -13 -4 21 2 0.17685179D-01 0.16020881D-01 0.12919157D+04 0.12919157D+04 0.12919157D+04 0.13140301D+01  1  2  5  1  6  2       -3 -.257818879192D-04 0.100000000000D+01
-.328961373350D-07 0.000000000000D+00 -.699751171856D-09 0.703211705019D-05 0.000000000000D+00  6 22 21 9900012 -13 3 -4 2 0.17685179D-01 0.16020881D-01 0.12919157D+04 0.12919157D+04 0.12919157D+04 0.13140301D+01  3  4  5  3  5  2       -3 -.361825081688D-04 0.100000000000D+01
  </mgrwgt>
  </event>
  <event>
  6     66 0.16695846E-05 0.15165332E+02 0.78161638E-02 0.12852559E+00
       22 -1    0    0    0    0 0.00000000E+00 0.00000000E+00 0.75427136E+01 0.75427136E+01 0.00000000E+00 0.0000E+00 0.9000E+01
       -3 -1    0    0    0  501 0.00000000E+00 0.00000000E+00 -.43406305E+03 0.43406305E+03 0.00000000E+00 0.0000E+00 0.9000E+01
       24  2    1    2    0    0 0.12969581E+02 0.78598522E+01 -.41309840E+03 0.42135396E+03 0.81601969E+02 0.0000E+00 0.0000E+00
  9900012  1    3    3    0    0 -.48649175E+01 0.97200394E+01 -.16846327E+03 0.17606255E+03 0.50000000E+02 0.0000E+00 0.9000E+01
      -13  1    3    3    0    0 0.17834499E+02 -.18601872E+01 -.24463513E+03 0.24529141E+03 0.00000000E+00 0.0000E+00 0.9000E+01
       -4  1    1    2    0  501 -.12969581E+02 -.78598522E+01 -.13421936E+02 0.20251807E+02 0.00000000E+00 0.0000E+00 0.9000E+01
#aMCatNLO 1  0  0  2  5 0.21659391D+02 0.00000000D+00  -5  6  0 0.00000000D+00 0.00000000D+00 0.00000000D+00 0.00000000D+00 0.00000000D+00
  <mgrwgt>
 0.8261268786D-05    7    4    0
 0.572189939525452D+02 0.000000000000000D+00 0.000000000000000D+00 0.572189939525452D+02
 0.572189939525452D+02 0.000000000000000D+00 0.000000000000000D+00 -.572189939525452D+02
 0.515320510762038D+02 -.486491753436769D+01 0.972003939548745D+01 0.611601991939601D+01
 0.347807845166675D+02 0.178344986067990D+02 -.186018721299929D+01 -.298022370732724D+02
 0.281251523122191D+02 -.129695810724313D+02 -.785985218248816D+01 0.236862171538764D+02
 0.000000000000000D+00 -.000000000000000D+00 0.000000000000000D+00 -.000000000000000D+00
 0.627166468089826D+02 0.000000000000000D+00 0.000000000000000D+00 0.627166468089826D+02
 0.770667751742407D+02 0.000000000000000D+00 0.000000000000000D+00 -.770667751742407D+02
 0.508854038852143D+02 0.295511214330617D+01 0.657160110836162D+01 0.611601991939601D+01
 0.381124944162711D+02 0.234002257064743D+02 -.410101608687691D+01 -.298022370732724D+02
 0.270013078021477D+02 -.876042986591240D+01 -.955450723638665D+01 0.236862171538764D+02
 0.237842158795902D+02 -.175949079838681D+02 0.708392221490194D+01 -.143501283652581D+02
 0.572189939525452D+02 0.000000000000000D+00 0.000000000000000D+00 0.572189939525452D+02
 0.572189939525452D+02 0.000000000000000D+00 0.000000000000000D+00 -.572189939525452D+02
 0.515320510762038D+02 -.486491753436769D+01 0.972003939548745D+01 0.611601991939601D+01
 0.347807845166675D+02 0.178344986067990D+02 -.186018721299929D+01 -.298022370732724D+02
 0.000000000000000D+00 -.000000000000000D+00 0.000000000000000D+00 -.000000000000000D+00
 0.281251523122191D+02 -.129695810724313D+02 -.785985218248816D+01 0.236862171538764D+02
 0.627166468089826D+02 0.000000000000000D+00 0.000000000000000D+00 0.627166468089826D+02
 0.770667751742407D+02 0.000000000000000D+00 0.000000000000000D+00 -.770667751742407D+02
 0.508854038852143D+02 0.295511214330617D+01 0.657160110836162D+01 0.611601991939601D+01
 0.381124944162711D+02 0.234002257064743D+02 -.410101608687691D+01 -.298022370732724D+02
 0.237842158795902D+02 -.175949079838681D+02 0.708392221490194D+01 -.143501283652581D+02
 0.270013078021477D+02 -.876042986591240D+01 -.955450723638665D+01 0.236862171538764D+02
0.130894061692D-06 0.000000000000D+00 0.000000000000D+00 0.221380603748D-06 0.000000000000D+00  6 22 -3 9900012 -13 -4 21 0 0.11604175D-02 0.66778931D-01 0.17751226D+04 0.17751226D+04 0.17751226D+04 0.12959161D+01  1  2  2  1  6  2       -3 0.140469153746D-04 0.100000000000D+01
-.608218446321D-08 0.000000000000D+00 -.251333831048D-09 0.221380603748D-06 0.000000000000D+00  6 22 -3 9900012 -13 -4 21 2 0.11604175D-02 0.66778931D-01 0.17751226D+04 0.17751226D+04 0.17751226D+04 0.12959161D+01  1  2  3  1  6  2       -3 -.109616111473D-05 0.100000000000D+01
0.895336437500D-08 0.000000000000D+00 0.000000000000D+00 0.221380603748D-06 0.000000000000D+00  6 22 -3 9900012 -13 -4 21 2 0.11604175D-02 0.66778931D-01 0.17751226D+04 0.17751226D+04 0.17751226D+04 0.12959161D+01  1  2 15  1  6  2       -3 0.161361924046D-05 0.100000000000D+01
-.854765426441D-07 0.000000000000D+00 0.000000000000D+00 0.221380603748D-06 0.000000000000D+00  6 22 -3 9900012 -13 -4 21 2 0.11604175D-02 0.66778931D-01 0.17751226D+04 0.17751226D+04 0.17751226D+04 0.12959161D+01  1  2  4  1  6  2       -3 -.154050017448D-04 0.100000000000D+01
-.130367073808D-06 0.000000000000D+00 -.468175183163D-07 0.221380603748D-06 0.000000000000D+00  6 22 -3 9900012 -13 -4 21 2 0.11604175D-02 0.96137128D-01 0.17751226D+04 0.17751226D+04 0.17751226D+04 0.12959161D+01  1  2  5  1  6  2       -3 -.103632661636D-04 0.100000000000D+01
0.140912776470D-06 0.000000000000D+00 0.438724837128D-07 0.221380603748D-06 0.000000000000D+00  6 22 -3 9900012 -13 -4 21 2 0.11604175D-02 0.66778931D-01 0.17751226D+04 0.17751226D+04 0.17751226D+04 0.12959161D+01  1  2  6  1  6  2       -3 0.253959916983D-04 0.100000000000D+01
-.439475047105D-08 0.000000000000D+00 -.208219439277D-08 0.221380603748D-06 0.000000000000D+00  6 22 21 9900012 -13 3 -4 2 0.11604175D-02 0.96137128D-01 0.17751226D+04 0.17751226D+04 0.17751226D+04 0.12959161D+01  3  4  5  3  5  2       -3 -.593082850465D-05 0.100000000000D+01
  </mgrwgt>
  </event>
  <event>
  6     66 0.16695846E-05 0.40404737E+02 0.78161638E-02 0.11399856E+00
       22 -1    0    0    0    0 0.00000000E+00 0.00000000E+00 0.36177358E+03 0.36177358E+03 0.00000000E+00 0.0000E+00 0.9000E+01
       -1 -1    0    0    0  501 0.00000000E+00 0.00000000E+00 -.26131387E+02 0.26131387E+02 0.00000000E+00 0.0000E+00 0.9000E+01
       24  2    1    2    0    0 0.27807320E+02 0.74934792E+02 0.20656043E+03 0.23608082E+03 0.81721920E+02 0.0000E+00 0.0000E+00
  9900012  1    3    3    0    0 0.30783284E+01 0.26286735E+02 0.13261981E+03 0.14418212E+03 0.50000000E+02 0.0000E+00 0.9000E+01
      -13  1    3    3    0    0 0.24728991E+02 0.48648058E+02 0.73940616E+02 0.91898701E+02 0.00000000E+00 0.0000E+00 0.9000E+01
       -2  1    1    2    0  501 -.27807320E+02 -.74934792E+02 0.12908177E+03 0.15182415E+03 0.00000000E+00 0.0000E+00 0.9000E+01
#aMCatNLO 1  0  0  2  5 0.66225066D+02 0.00000000D+00  -5  6  0 0.00000000D+00 0.00000000D+00 0.00000000D+00 0.00000000D+00 0.00000000D+00
  <mgrwgt>
 0.7471508254D-05    6    4    0
 0.972298589893017D+02 0.000000000000000D+00 0.000000000000000D+00 0.972298589893017D+02
 0.972298589893017D+02 0.000000000000000D+00 0.000000000000000D+00 -.972298589893017D+02
 0.587070430558589D+02 0.307832838665827D+01 0.262867346249258D+02 0.156859294103056D+02
 0.556946815507062D+02 0.247289912965052D+02 0.486480577511885D+02 -.111238940811648D+02
 0.800579933720384D+02 -.278073196831634D+02 -.749347923761143D+02 -.456203532914078D+01
 0.000000000000000D+00 0.000000000000000D+00 -.000000000000000D+00 0.000000000000000D+00
 0.129100908014465D+03 0.000000000000000D+00 0.000000000000000D+00 0.129100908014465D+03
 0.109493203596060D+03 0.000000000000000D+00 0.000000000000000D+00 -.109493203596060D+03
 0.591974360486434D+02 -.769681465496060D+01 0.264394988121053D+02 0.156859294103056D+02
 0.522021662722119D+02 0.148684331746947D+02 0.487878554448986D+02 -.111238940811648D+02
 0.863363545769421D+02 -.430138912577518D+02 -.747192017767685D+02 -.456203532914078D+01
 0.408581547127274D+02 0.358422727380176D+02 -.508152480235341D+00 0.196077044184056D+02
 0.972298589893017D+02 0.000000000000000D+00 0.000000000000000D+00 0.972298589893017D+02
 0.972298589893017D+02 0.000000000000000D+00 0.000000000000000D+00 -.972298589893017D+02
 0.587070430558589D+02 0.307832838665827D+01 0.262867346249258D+02 0.156859294103056D+02
 0.556946815507062D+02 0.247289912965052D+02 0.486480577511885D+02 -.111238940811648D+02
 0.000000000000000D+00 0.000000000000000D+00 -.000000000000000D+00 0.000000000000000D+00
 0.800579933720384D+02 -.278073196831634D+02 -.749347923761143D+02 -.456203532914078D+01
 0.129100908014465D+03 0.000000000000000D+00 0.000000000000000D+00 0.129100908014465D+03
 0.109493203596060D+03 0.000000000000000D+00 0.000000000000000D+00 -.109493203596060D+03
 0.591974360486434D+02 -.769681465496060D+01 0.264394988121053D+02 0.156859294103056D+02
 0.522021662722119D+02 0.148684331746947D+02 0.487878554448986D+02 -.111238940811648D+02
 0.408581547127274D+02 0.358422727380176D+02 -.508152480235341D+00 0.196077044184056D+02
 0.863363545769421D+02 -.430138912577518D+02 -.747192017767685D+02 -.456203532914078D+01
0.106685207532D-06 0.000000000000D+00 0.000000000000D+00 0.106670045358D-06 0.000000000000D+00  6 22 -1 9900012 -13 -2 21 0 0.55657474D-01 0.40202134D-02 0.91272303D+04 0.91272303D+04 0.91272303D+04 0.12134630D+01  1  2  2  1  6  2       -1 0.778582019965D-05 0.100000000000D+01
-.410712145676D-08 0.000000000000D+00 -.204849643892D-09 0.106670045358D-06 0.000000000000D+00  6 22 -1 9900012 -13 -2 21 2 0.55657474D-01 0.40202134D-02 0.91272303D+04 0.91272303D+04 0.91272303D+04 0.12134630D+01  1  2  3  1  6  2       -1 -.441357786515D-06 0.100000000000D+01
0.268900606685D-08 0.000000000000D+00 0.000000000000D+00 0.106670045358D-06 0.000000000000D+00  6 22 -1 9900012 -13 -2 21 2 0.55657474D-01 0.40202134D-02 0.91272303D+04 0.91272303D+04 0.91272303D+04 0.12134630D+01  1  2 15  1  6  2       -1 0.288964857282D-06 0.100000000000D+01
0.573425563906D-08 0.000000000000D+00 0.000000000000D+00 0.106670045358D-06 0.000000000000D+00  6 22 -1 9900012 -13 -2 21 2 0.55657474D-01 0.60112702D-02 0.13241821D+05 0.13241821D+05 0.13241821D+05 0.11968911D+01  1  2 12  1  6  2       -1 0.346646282513D-06 0.100000000000D+01
-.712805100178D-08 0.000000000000D+00 0.000000000000D+00 0.106670045358D-06 0.000000000000D+00  6 22 -1 9900012 -13 -2 21 2 0.55657474D-01 0.40202134D-02 0.91272303D+04 0.91272303D+04 0.91272303D+04 0.12134630D+01  1  2  4  1  6  2       -1 -.765991667261D-06 0.100000000000D+01
0.274101566176D-09 0.000000000000D+00 0.000000000000D+00 0.106670045358D-06 0.000000000000D+00  6 22 21 9900012 -13 1 -2 2 0.55657474D-01 0.60112702D-02 0.13241821D+05 0.13241821D+05 0.13241821D+05 0.11968911D+01  3  4 12  3  5  2       -1 0.257426368358D-06 0.100000000000D+01
  </mgrwgt>
  </event>
  <event>
  7     66 0.16695846E-05 0.94024860E+01 0.78161638E-02 0.13378629E+00
       22 -1    0    0    0    0 0.00000000E+00 0.00000000E+00 0.14283287E+03 0.14283287E+03 0.00000000E+00 0.0000E+00 0.9000E+01
       -3 -1    0    0    0  501 0.00000000E+00 0.00000000E+00 -.20156157E+02 0.20156157E+02 0.00000000E+00 0.0000E+00 0.9000E+01
       24  2    1    2    0    0 0.76407752E+01 -.14492766E+02 0.87097777E+02 0.12080102E+03 0.82088019E+02 0.0000E+00 0.0000E+00
  9900012  1    3    3    0    0 0.18998883E+02 -.81686231E+01 0.92143954E+02 0.10685594E+03 0.50000000E+02 0.0000E+00 0.9000E+01
      -13  1    3    3    0    0 -.11358108E+02 -.63241429E+01 -.50461775E+01 0.13945082E+02 0.00000000E+00 0.0000E+00 0.9000E+01
       -4  1    1    2    0  502 -.66205267E+01 0.97825050E+01 0.35450660E+02 0.37366805E+02 0.00000000E+00 0.0000E+00 0.9000E+01
       21  1    1    2  502  501 -.10202485E+01 0.47102610E+01 0.12827184E+00 0.48211948E+01 0.00000000E+00 0.0000E+00 0.9000E+01
#aMCatNLO 2  0  0  5  2 0.72252223D+01 0.00000000D+00  -5  6  0 0.00000000D+00 0.00000000D+00 0.00000000D+00 0.00000000D+00 0.00000000D+00
  <mgrwgt>
 0.4370639562D-04    2    2    0
 0.536559566455013D+02 0.000000000000000D+00 0.000000000000000D+00 0.536559566455013D+02
 0.536559566455013D+02 -.000000000000000D+00 -.000000000000000D+00 -.536559566455013D+02
 0.575866414360385D+02 0.204519174221159D+02 -.109246897472678D+02 0.166910604686388D+02
 0.274658426876366D+02 -.106678481945950D+02 -.763340450021520D+01 -.241309068452715D+02
 0.222594291673276D+02 -.978406922752093D+01 0.185580942474830D+02 0.743984637663264D+01
 0.000000000000000D+00 0.000000000000000D+00 0.000000000000000D+00 -.000000000000000D+00
 0.536559566455013D+02 0.000000000000000D+00 0.000000000000000D+00 0.536559566455013D+02
 0.536559566455013D+02 -.000000000000000D+00 -.000000000000000D+00 -.536559566455013D+02
 0.569594586653370D+02 0.189988831399828D+02 -.816862307136966D+01 0.177959536973829D+02
 0.269489531491037D+02 -.113581079567002D+02 -.632414294221617D+01 -.236060304905960D+02
 0.162275427546558D+02 -.662052672937353D+01 0.978250503131316D+01 0.111267409870171D+02
 0.717595872190621D+01 -.102024845390901D+01 0.471026098227267D+01 -.531666419380402D+01
-.191830380463D-07 0.000000000000D+00 0.000000000000D+00 0.661601170883D-07 0.000000000000D+00  6 22 -3 9900012 -13 -4 21 2 0.21974287D-01 0.31009472D-02 0.17530906D+04 0.17530906D+04 0.17530906D+04 0.12966141D+01  1  2 13  2  6  5       -4 -.108230654217D-04 0.100000000000D+01
0.966492102725D-07 0.000000000000D+00 0.000000000000D+00 0.661601170883D-07 0.661197926332D-07  6 22 -3 9900012 -13 -4 21 2 0.21974287D-01 0.31009472D-02 0.17530906D+04 0.17530906D+04 0.17530906D+04 0.12966141D+01  1  2  1  2  6  5       -4 0.545294610380D-04 0.100000000000D+01
  </mgrwgt>
  </event>
  <event>
  7     66 0.16695846E-05 0.90850500E+01 0.78161638E-02 0.13430741E+00
       22 -1    0    0    0    0 0.00000000E+00 0.00000000E+00 0.27463472E+03 0.27463472E+03 0.00000000E+00 0.0000E+00 0.9000E+01
       -1 -1    0    0    0  502 0.00000000E+00 0.00000000E+00 -.21360840E+02 0.21360840E+02 0.00000000E+00 0.0000E+00 0.9000E+01
       24  2    1    2    0    0 -.50600388E+01 -.70047948E+01 0.76112322E+02 0.11017664E+03 0.79190506E+02 0.0000E+00 0.0000E+00
  9900012  1    3    3    0    0 0.38641365E+01 0.10978977E+02 0.73896190E+02 0.89978422E+02 0.50000000E+02 0.0000E+00 0.9000E+01
      -13  1    3    3    0    0 -.89241752E+01 -.17983772E+02 0.22161318E+01 0.20198223E+02 0.00000000E+00 0.0000E+00 0.9000E+01
       -2  1    1    2    0  501 -.67348182E+00 -.62608932E+00 0.17622595E+03 0.17622835E+03 0.00000000E+00 0.0000E+00 0.9000E+01
       21  1    1    2  501  502 0.57335206E+01 0.76308841E+01 0.93561098E+00 0.95905692E+01 0.00000000E+00 0.0000E+00 0.9000E+01
#aMCatNLO 2  0  0  2  5 0.63551051D+02 0.00000000D+00  -5  6  0 0.00000000D+00 0.00000000D+00 0.00000000D+00 0.00000000D+00 0.00000000D+00
  <mgrwgt>
 0.6217413547D-03    1    2    0
 0.675686929984540D+02 0.000000000000000D+00 0.000000000000000D+00 0.675686929984540D+02
 0.675686929984540D+02 0.000000000000000D+00 0.000000000000000D+00 -.675686929984540D+02
 0.534964232751695D+02 0.611163990299545D+01 0.139702350237764D+02 -.113731127802665D+02
 0.372750876151863D+02 -.731715783186955D+01 -.158449528530178D+02 -.329367397759548D+02
 0.443658751065522D+02 0.120551792887410D+01 0.187471782924146D+01 0.443098525562213D+02
 0.000000000000000D+00 0.000000000000000D+00 0.000000000000000D+00 -.000000000000000D+00
 0.690604951626855D+02 0.000000000000000D+00 0.000000000000000D+00 0.690604951626855D+02
 0.849462243830520D+02 0.000000000000000D+00 0.000000000000000D+00 -.849462243830520D+02
 0.525815289378196D+02 0.386413646111307D+01 0.109789772081009D+02 -.113731127802665D+02
 0.385731225655385D+02 -.892417521753251D+01 -.179837719645759D+02 -.329367397759548D+02
 0.443193930368265D+02 -.673481818371205D+00 -.626089321866690D+00 0.443098525562213D+02
 0.185326750055529D+02 0.573352057479065D+01 0.763088407834165D+01 -.158857292203666D+02
0.292658284704D-05 0.000000000000D+00 0.000000000000D+00 0.370761445867D-04 0.188772962025D-04  6 22 -1 9900012 -13 -2 21 2 0.42251496D-01 0.32862831D-02 0.16759801D+04 0.16759801D+04 0.16759801D+04 0.12991369D+01  1  2  1  1  6  2       -1 0.621741354733D-03 0.100000000000D+01
  </mgrwgt>
  </event>
  <event>
  6     66 0.16695846E-05 0.19644833E+02 0.78161638E-02 0.13132345E+00
       22 -1    0    0    0    0 0.00000000E+00 0.00000000E+00 0.86758704E+03 0.86758704E+03 0.00000000E+00 0.0000E+00 0.9000E+01
       -3 -1    0    0    0  501 0.00000000E+00 0.00000000E+00 -.44369854E+02 0.44369854E+02 0.00000000E+00 0.0000E+00 0.9000E+01
       24  2    1    2    0    0 0.18352211E+02 0.14874178E+02 -.97167990E+01 0.78687988E+02 0.74426732E+02 0.0000E+00 0.0000E+00
  9900012  1    3    3    0    0 0.66580482E+01 -.19945405E+01 0.85636083E+01 0.51201984E+02 0.50000000E+02 0.0000E+00 0.9000E+01
      -13  1    3    3    0    0 0.11694163E+02 0.16868719E+02 -.18280407E+02 0.27486004E+02 0.00000000E+00 0.0000E+00 0.9000E+01
       -4  1    1    2    0  501 -.18352211E+02 -.14874178E+02 0.83293398E+03 0.83326890E+03 0.00000000E+00 0.0000E+00 0.9000E+01
#aMCatNLO 1  0  0  5  2 0.20081221D+02 0.00000000D+00  -5  6  0 0.00000000D+00 0.00000000D+00 0.00000000D+00 0.00000000D+00 0.00000000D+00
  <mgrwgt>
 0.5786374402D-04    4    2    0
 0.196200688152417D+03 0.000000000000000D+00 0.000000000000000D+00 0.196200688152417D+03
 0.196200688152417D+03 -.000000000000000D+00 -.000000000000000D+00 -.196200688152417D+03
 0.101029953817872D+03 0.665804819381596D+01 -.199454054329681D+01 -.875142489581630D+02
 0.102228989997388D+03 0.116941632851131D+02 0.168687188938973D+02 -.100147187997596D+03
 0.189142432489574D+03 -.183522114789291D+02 -.148741783506005D+02 0.187661436955759D+03
 0.000000000000000D+00 0.000000000000000D+00 0.000000000000000D+00 0.000000000000000D+00
 0.196200688152417D+03 0.000000000000000D+00 0.000000000000000D+00 0.196200688152417D+03
 0.196200688152417D+03 -.000000000000000D+00 -.000000000000000D+00 -.196200688152417D+03
 0.975959532960874D+02 0.627020423189540D+01 -.230888196576970D+01 -.835483315376826D+02
 0.982118739525376D+02 0.113027753743683D+02 0.165515051567206D+02 -.961450317549106D+02
 0.146486282336976D+02 -.122325631628997D+02 -.779155955979201D+01 -.205871494407529D+01
 0.181944920822511D+03 -.534041644336408D+01 -.645106363115902D+01 0.181752078236668D+03
0.780461983672D-05 0.000000000000D+00 0.000000000000D+00 0.363499143477D-06 0.000000000000D+00  6 22 -3 9900012 -13 -4 21 0 0.13347493D+00 0.68261313D-02 0.22386859D+04 0.22386859D+04 0.22386859D+04 0.12831663D+01  1  2  2  2  6  5       -4 0.386562585378D-04 0.100000000000D+01
0.421489490495D-06 0.000000000000D+00 -.149858975883D-07 0.363499143477D-06 0.000000000000D+00  6 22 -3 9900012 -13 -4 21 2 0.13347493D+00 0.68261313D-02 0.22386859D+04 0.22386859D+04 0.22386859D+04 0.12831663D+01  1  2  3  2  6  5       -4 0.343732585057D-05 0.100000000000D+01
0.764050137507D-06 0.000000000000D+00 0.000000000000D+00 0.363499143477D-06 0.000000000000D+00  6 22 -3 9900012 -13 -4 21 2 0.13347493D+00 0.68261313D-02 0.22386859D+04 0.22386859D+04 0.22386859D+04 0.12831663D+01  1  2 15  2  6  5       -4 0.623097217845D-05 0.100000000000D+01
0.117037163617D-05 0.000000000000D+00 0.000000000000D+00 0.363499143477D-06 0.000000000000D+00  6 22 -3 9900012 -13 -4 21 2 0.13347493D+00 0.68261313D-02 0.21792582D+04 0.21792582D+04 0.21792582D+04 0.12846241D+01  1  2 12  2  6  5       -4 0.953918745630D-05 0.100000000000D+01
  </mgrwgt>
  </event>
</LesHouchesEvents>
