<LesHouchesEvents version="3.0">
  <!--
  <scalesfunctionalform>
    muR  H_T/2 := sum_i mT(i)/2, i=final state
    muF1 H_T/2 := sum_i mT(i)/2, i=final state
    muF2 H_T/2 := sum_i mT(i)/2, i=final state
    QES  H_T/2 := sum_i mT(i)/2, i=final state
  </scalesfunctionalform>
PYTHIA8   
  -->
  <header>
        5
  </header>
  <init>
   2212   2212 0.65000000D+04 0.65000000D+04 -1 -1  82200  82200 -4   1
 0.22681845D-05 0.31721538D-07 0.60667847D-06     66
  </init>
  <event>
  6     66 0.60667847E-06 0.26816886E+02 0.78161638E-02 0.12639320E+00
       -2 -1    0    0    0  501 0.00000000E+00 0.00000000E+00 0.10947127E+03 0.10947127E+03 0.00000000E+00 0.0000E+00 0.9000E+01
       22 -1    0    0    0    0 0.00000000E+00 0.00000000E+00 -.42016219E+02 0.42016219E+02 0.00000000E+00 0.0000E+00 0.9000E+01
      -24  2    1    2    0    0 -.26252930E+02 0.54707452E+01 0.29175045E+01 0.81600149E+02 0.77012513E+02 0.0000E+00 0.0000E+00
  9900012  1    3    3    0    0 0.42876752E+01 -.65088859E+00 0.46583907E+01 0.50403456E+02 0.50000000E+02 0.0000E+00 0.9000E+01
       11  1    3    3    0    0 -.30540605E+02 0.61216337E+01 -.17408862E+01 0.31196693E+02 0.00000000E+00 0.0000E+00 0.9000E+01
       -1  1    1    2    0  501 0.26252930E+02 -.54707452E+01 0.64537547E+02 0.69887340E+02 0.00000000E+00 0.0000E+00 0.9000E+01
#aMCatNLO 1  0  0  1  5 0.89019162D+01 0.00000000D+00  -5  6  0 0.00000000D+00 0.00000000D+00 0.00000000D+00 0.00000000D+00 0.00000000D+00
  <mgrwgt>
 0.7444949962D-05   11    4    0
 0.678201213893625D+02 0.000000000000000D+00 0.000000000000000D+00 0.678201213893625D+02
 0.678201213893625D+02 0.000000000000000D+00 0.000000000000000D+00 -.678201213893625D+02
 0.539755822193827D+02 0.428767524893372D+01 -.650888587939485D+00 -.198634252063210D+02
 0.357072512186828D+02 -.305406050255718D+02 0.612163373973390D+01 -.174586607339365D+02
 0.459574093406595D+02 0.262529297766381D+02 -.547074515179442D+01 0.373220859402575D+02
 0.000000000000000D+00 -.000000000000000D+00 0.000000000000000D+00 0.000000000000000D+00
 0.921472880227288D+02 0.000000000000000D+00 0.000000000000000D+00 0.921472880227288D+02
 0.687448669053535D+02 0.000000000000000D+00 0.000000000000000D+00 -.687448669053535D+02
 0.541924393994728D+02 0.510595292935210D+01 -.402418585824091D+01 -.198634252063210D+02
 0.349361112214326D+02 -.300061967421501D+02 0.391856985710285D+01 -.174586607339365D+02
 0.467913383378465D+02 0.269545625603041D+02 -.836318131439907D+01 0.373220859402575D+02
 0.249722659693303D+02 -.205431874750604D+01 0.846879731553713D+01 0.234024211173752D+02
 0.678201213893625D+02 0.000000000000000D+00 0.000000000000000D+00 0.678201213893625D+02
 0.678201213893625D+02 0.000000000000000D+00 0.000000000000000D+00 -.678201213893625D+02
 0.539755822193827D+02 0.428767524893372D+01 -.650888587939485D+00 -.198634252063210D+02
 0.357072512186828D+02 -.305406050255718D+02 0.612163373973390D+01 -.174586607339365D+02
 0.000000000000000D+00 -.000000000000000D+00 0.000000000000000D+00 0.000000000000000D+00
 0.459574093406595D+02 0.262529297766381D+02 -.547074515179442D+01 0.373220859402575D+02
 0.921472880227288D+02 0.000000000000000D+00 0.000000000000000D+00 0.921472880227288D+02
 0.687448669053535D+02 0.000000000000000D+00 0.000000000000000D+00 -.687448669053535D+02
 0.541924393994728D+02 0.510595292935210D+01 -.402418585824091D+01 -.198634252063210D+02
 0.349361112214326D+02 -.300061967421501D+02 0.391856985710285D+01 -.174586607339365D+02
 0.249722659693303D+02 -.205431874750604D+01 0.846879731553713D+01 0.234024211173752D+02
 0.467913383378465D+02 0.269545625603041D+02 -.836318131439907D+01 0.373220859402575D+02
0.848920241938D-08 0.000000000000D+00 0.000000000000D+00 0.406340120959D-07 0.000000000000D+00  6 -2 22 9900012 11 -1 21 0 0.16841734D-01 0.64640337D-02 0.29242512D+04 0.29242512D+04 0.29242512D+04 0.12689589D+01  1  2  2  1  6  1       -2 0.159869698950D-05 0.100000000000D+01
0.344661922739D-09 0.000000000000D+00 -.163003862744D-10 0.406340120959D-07 0.000000000000D+00  6 -2 22 9900012 11 -1 21 2 0.16841734D-01 0.64640337D-02 0.29242512D+04 0.29242512D+04 0.29242512D+04 0.12689589D+01  1  2  3  1  6  1       -2 0.104517179578D-06 0.100000000000D+01
-.480889007203D-09 0.000000000000D+00 0.000000000000D+00 0.406340120959D-07 0.000000000000D+00  6 -2 22 9900012 11 -1 21 2 0.16841734D-01 0.64640337D-02 0.29242512D+04 0.29242512D+04 0.29242512D+04 0.12689589D+01  1  2 15  1  6  1       -2 -.145827430902D-06 0.100000000000D+01
0.334401342894D-07 0.000000000000D+00 0.000000000000D+00 0.406340120959D-07 0.000000000000D+00  6 -2 22 9900012 11 -1 21 2 0.23194900D-01 0.64640337D-02 0.34585240D+04 0.34585240D+04 0.34585240D+04 0.12602793D+01  1  2 12  1  6  1       -2 0.614111674587D-05 0.100000000000D+01
-.139623051746D-07 0.000000000000D+00 0.000000000000D+00 0.406340120959D-07 0.000000000000D+00  6 -2 22 9900012 11 -1 21 2 0.16841734D-01 0.64640337D-02 0.29242512D+04 0.29242512D+04 0.29242512D+04 0.12689589D+01  1  2  4  1  6  1       -2 -.423400631453D-05 0.100000000000D+01
-.364774835628D-07 0.000000000000D+00 -.278517693105D-08 0.406340120959D-07 0.000000000000D+00  6 -2 22 9900012 11 -1 21 2 0.23097782D-01 0.64640337D-02 0.29242512D+04 0.29242512D+04 0.29242512D+04 0.12689589D+01  1  2  5  1  6  1       -2 -.672215693364D-05 0.100000000000D+01
0.356950089112D-07 0.000000000000D+00 0.265177862898D-08 0.406340120959D-07 0.000000000000D+00  6 -2 22 9900012 11 -1 21 2 0.16841734D-01 0.64640337D-02 0.29242512D+04 0.29242512D+04 0.29242512D+04 0.12689589D+01  1  2  6  1  6  1       -2 0.108243510822D-04 0.100000000000D+01
0.384512973885D-11 0.000000000000D+00 0.000000000000D+00 0.406340120959D-07 0.216257326182D-08  6 -2 22 9900012 11 -1 21 2 0.22882886D-01 0.65521725D-02 0.34585240D+04 0.34585240D+04 0.34585240D+04 0.12602793D+01  1  2 11  1  6  1       -2 0.708397212848D-09 0.100000000000D+01
0.135445798000D-08 0.000000000000D+00 0.000000000000D+00 0.406340120959D-07 0.000000000000D+00  6 21 22 9900012 11 2 -1 2 0.23194900D-01 0.64640337D-02 0.34585240D+04 0.34585240D+04 0.34585240D+04 0.12602793D+01  3  4 12  3  5  1       -2 0.323973383947D-05 0.100000000000D+01
-.139590185836D-08 0.000000000000D+00 -.111743105121D-09 0.406340120959D-07 0.000000000000D+00  6 21 22 9900012 11 2 -1 2 0.23097782D-01 0.64640337D-02 0.29242512D+04 0.29242512D+04 0.29242512D+04 0.12689589D+01  3  4  5  3  5  1       -2 -.336304364946D-05 0.100000000000D+01
0.357580778678D-12 0.000000000000D+00 0.000000000000D+00 0.406340120959D-07 0.178721661877D-09  6 21 22 9900012 11 2 -1 2 0.22882886D-01 0.65521725D-02 0.34585240D+04 0.34585240D+04 0.34585240D+04 0.12602793D+01  3  4 11  3  5  1       -2 0.860056852587D-09 0.100000000000D+01
  </mgrwgt>
  </event>
  <event>
  7     66 0.60667847E-06 0.17981549E+02 0.78161638E-02 0.12014425E+00
       21 -1    0    0  502  501 0.00000000E+00 0.00000000E+00 0.97862817E+03 0.97862817E+03 0.00000000E+00 0.0000E+00 0.9000E+01
       22 -1    0    0    0    0 0.00000000E+00 0.00000000E+00 -.95569457E+02 0.95569457E+02 0.00000000E+00 0.0000E+00 0.9000E+01
      -24  2    1    2    0    0 -.34014811E+02 0.47725960E+02 -.50190109E+01 0.99367325E+02 0.80086828E+02 0.0000E+00 0.0000E+00
  9900012  1    3    3    0    0 -.12781490E+01 0.38019537E+02 0.68946132E+01 0.63203280E+02 0.50000000E+02 0.0000E+00 0.9000E+01
       11  1    3    3    0    0 -.32736662E+02 0.97064233E+01 -.11913624E+02 0.36164045E+02 0.00000000E+00 0.0000E+00 0.9000E+01
        4  1    1    2  502    0 0.47282702E+01 -.31066128E+02 0.92460354E+03 0.92513737E+03 0.00000000E+00 0.0000E+00 0.9000E+01
       -3  1    1    2    0  501 0.29286541E+02 -.16659833E+02 -.36525816E+02 0.49692925E+02 0.00000000E+00 0.0000E+00 0.9000E+01
#aMCatNLO 2  0  0  1  5 0.31470288D+02 0.00000000D+00  -5  6  0 0.00000000D+00 0.00000000D+00 0.00000000D+00 0.00000000D+00 0.00000000D+00
  <mgrwgt>
 0.7444122372D-06    2    2    0
 0.698310899662041D+02 0.000000000000000D+00 0.000000000000000D+00 0.698310899662041D+02
 0.698310899662041D+02 0.000000000000000D+00 0.000000000000000D+00 -.698310899662041D+02
 0.610069879823917D+02 0.875516201946173D+00 0.238693227427196D+02 0.255213927101894D+02
 0.317862956675452D+02 -.316334890095869D+02 0.245825014463065D+01 -.190996637964471D+01
 0.000000000000000D+00 0.000000000000000D+00 -.000000000000000D+00 0.000000000000000D+00
 0.468688962824712D+02 0.307579728076407D+02 -.263275728873502D+02 -.236114263305447D+02
 0.130301543765597D+04 0.000000000000000D+00 0.000000000000000D+00 0.130301543765597D+04
 0.717773250708861D+02 0.000000000000000D+00 0.000000000000000D+00 -.717773250708861D+02
 0.678119484818879D+02 -.127814896152223D+01 0.380195371654452D+02 0.255213927101894D+02
 0.341987087722779D+02 -.327366622640312D+02 0.970642333356943D+01 -.190996637964471D+01
 0.123163905049505D+04 0.472827017010962D+01 -.310661275905483D+02 0.123123811258508D+04
 0.411430549776381D+02 0.292865410554438D+02 -.166598329084663D+02 -.236114263305447D+02
-.645258997119D-07 0.000000000000D+00 0.000000000000D+00 0.596081160768D-07 0.000000000000D+00  6 21 22 9900012 11 4 -3 2 0.15475433D+00 0.14304323D-01 0.65681960D+04 0.65681960D+04 0.65681960D+04 0.12287299D+01  1  2 13  3  5  1       -4 -.785849726350D-06 0.100000000000D+01
0.121096704972D-06 0.000000000000D+00 0.000000000000D+00 0.596081160768D-07 0.194022927573D-08  6 21 22 9900012 11 4 -3 2 0.15055818D+00 0.14702993D-01 0.65681960D+04 0.65681960D+04 0.65681960D+04 0.12287299D+01  1  2  1  3  5  1       -4 0.153026196360D-05 0.100000000000D+01
  </mgrwgt>
  </event>
  <event>
  6     66 0.60667847E-06 0.25621327E+02 0.78161638E-02 0.12630144E+00
       -4 -1    0    0    0  501 0.00000000E+00 0.00000000E+00 0.19356360E+02 0.19356360E+02 0.00000000E+00 0.0000E+00 0.9000E+01
       22 -1    0    0    0    0 -.00000000E+00 -.00000000E+00 -.34434998E+03 0.34434998E+03 0.00000000E+00 0.0000E+00 0.9000E+01
      -24  2    1    2    0    0 0.17406085E+02 -.18801081E+02 -.86330542E+02 0.12367193E+03 0.84766335E+02 0.0000E+00 0.0000E+00
  9900012  1    3    3    0    0 -.75492633E+01 0.10584679E+01 -.73663041E+02 0.89355220E+02 0.50000000E+02 0.0000E+00 0.9000E+01
       11  1    3    3    0    0 0.24955348E+02 -.19859548E+02 -.12667501E+02 0.34316711E+02 0.00000000E+00 0.0000E+00 0.9000E+01
       -3  1    1    2    0  501 -.17406085E+02 0.18801081E+02 -.23866308E+03 0.24003441E+03 0.00000000E+00 0.0000E+00 0.9000E+01
#aMCatNLO 1  0  0  5  1 0.96355567D+01 0.00000000D+00  -5  6  0 0.00000000D+00 0.00000000D+00 0.00000000D+00 0.00000000D+00 0.00000000D+00
  <mgrwgt>
 0.4510408017D-06    6    2    0
 0.816416684565376D+02 0.000000000000000D+00 0.000000000000000D+00 0.816416684565376D+02
 0.816416684565376D+02 -.000000000000000D+00 -.000000000000000D+00 -.816416684565376D+02
 0.524183408197545D+02 -.754926331939129D+01 0.105846793001278D+01 0.137684684432062D+02
 0.512259755827970D+02 0.249553481034780D+02 -.198595484560444D+02 0.400865252992271D+02
 0.596390205105237D+02 -.174060847840867D+02 0.188010805260316D+02 -.538549937424333D+02
 0.000000000000000D+00 0.000000000000000D+00 0.000000000000000D+00 0.000000000000000D+00
 0.816416684565376D+02 0.000000000000000D+00 0.000000000000000D+00 0.816416684565376D+02
 0.816416684565376D+02 -.000000000000000D+00 -.000000000000000D+00 -.816416684565376D+02
 0.520302838455357D+02 -.822629973218943D+01 0.178976484565866D+01 0.116736957113178D+02
 0.490659180104599D+02 0.243052556385106D+02 -.191573548878278D+02 0.380751180202720D+02
 0.795643891553167D+01 0.283085898971885D+01 -.588089225824458D+01 -.455041359041498D+01
 0.542306961415479D+02 -.189098148960400D+02 0.232484823004137D+02 -.451984001411748D+02
0.582356534027D-08 0.000000000000D+00 0.000000000000D+00 0.774371428435D-09 0.000000000000D+00  6 -4 22 9900012 11 -3 21 0 0.29779015D-02 0.52976920D-01 0.29209823D+04 0.29209823D+04 0.29209823D+04 0.12690174D+01  1  2  2  2  6  5       -3 0.435986935427D-06 0.100000000000D+01
-.355803649307D-09 0.000000000000D+00 -.111820121433D-10 0.774371428435D-09 0.000000000000D+00  6 -4 22 9900012 11 -3 21 2 0.29779015D-02 0.52976920D-01 0.29209823D+04 0.29209823D+04 0.29209823D+04 0.12690174D+01  1  2  3  2  6  5       -3 -.428973118795D-07 0.100000000000D+01
-.473687635585D-10 0.000000000000D+00 0.000000000000D+00 0.774371428435D-09 0.000000000000D+00  6 -4 22 9900012 11 -3 21 2 0.29779015D-02 0.52976920D-01 0.29209823D+04 0.29209823D+04 0.29209823D+04 0.12690174D+01  1  2 15  2  6  5       -3 -.571099432980D-08 0.100000000000D+01
0.155950936195D-08 0.000000000000D+00 0.000000000000D+00 0.774371428435D-09 0.000000000000D+00  6 -4 22 9900012 11 -3 21 2 0.29779015D-02 0.52976920D-01 0.34896171D+04 0.34896171D+04 0.34896171D+04 0.12598217D+01  1  2 12  2  6  5       -3 0.190443764364D-06 0.100000000000D+01
-.105157033020D-08 0.000000000000D+00 0.000000000000D+00 0.774371428435D-09 0.000000000000D+00  6 -4 22 9900012 11 -3 21 2 0.29779015D-02 0.52976920D-01 0.29209823D+04 0.29209823D+04 0.29209823D+04 0.12690174D+01  1  2  5  2  6  5       -3 -.126782118468D-06 0.100000000000D+01
0.431178288099D-14 0.000000000000D+00 0.000000000000D+00 0.774371428435D-09 0.486163080593D-11  6 -4 22 9900012 11 -3 21 2 0.29779015D-02 0.52976920D-01 0.34896171D+04 0.34896171D+04 0.34896171D+04 0.12598217D+01  1  2 11  2  6  5       -3 0.526545196208D-12 0.100000000000D+01
  </mgrwgt>
  </event>
  <event>
  7     66 0.60667847E-06 0.27655263E+02 0.78161638E-02 0.12933240E+00
       21 -1    0    0  502  501 0.00000000E+00 0.00000000E+00 0.17511485E+02 0.17511485E+02 0.00000000E+00 0.0000E+00 0.9000E+01
       22 -1    0    0    0    0 0.00000000E+00 0.00000000E+00 -.25047350E+03 0.25047350E+03 0.00000000E+00 0.0000E+00 0.9000E+01
      -24  2    1    2    0    0 0.77184565E+00 -.27846516E+02 -.18259131E+03 0.20122856E+03 0.79858141E+02 0.0000E+00 0.0000E+00
  9900012  1    3    3    0    0 -.73391366E+01 -.58998764E+01 -.71836338E+02 0.88029149E+02 0.50000000E+02 0.0000E+00 0.9000E+01
       11  1    3    3    0    0 0.81109823E+01 -.21946640E+02 -.11075497E+03 0.11319941E+03 0.00000000E+00 0.0000E+00 0.9000E+01
        4  1    1    2  502    0 -.97745785E+00 0.27751340E+02 -.15337958E+02 0.31722945E+02 0.00000000E+00 0.0000E+00 0.9000E+01
       -3  1    1    2    0  501 0.20561219E+00 0.95175819E-01 -.35032745E+02 0.35033477E+02 0.00000000E+00 0.0000E+00 0.9000E+01
#aMCatNLO 2  0  0  1  5 0.49476985D+01 0.00000000D+00  -5  6  0 0.00000000D+00 0.00000000D+00 0.00000000D+00 0.00000000D+00 0.00000000D+00
  <mgrwgt>
 0.5672763315D-02    1    2    0
 0.999046914218172D+02 0.000000000000000D+00 0.000000000000000D+00 0.999046914218172D+02
 0.438418432288692D+02 0.000000000000000D+00 0.000000000000000D+00 -.438418432288692D+02
 0.571152421873242D+02 -.795538121630314D+01 0.115961353697313D+02 0.237569451804489D+02
 0.230921041096460D+02 0.782907838642838D+01 -.139430105006204D+02 -.166596297080541D+02
 0.560628481929481D+02 -.000000000000000D+00 0.000000000000000D+00 0.560628481929481D+02
 0.747634016076813D+01 0.126302829874759D+00 0.234687513088903D+01 -.709731547239480D+01
 0.864165593325732D+02 0.000000000000000D+00 0.000000000000000D+00 0.864165593325732D+02
 0.507560475681713D+02 0.000000000000000D+00 0.000000000000000D+00 -.507560475681713D+02
 0.561521496627256D+02 -.733913660806213D+01 -.589987637891546D+01 0.237569451804489D+02
 0.287225747281556D+02 0.811098225955549D+01 -.219466399202744D+02 -.166596297080541D+02
 0.451969514634884D+02 -.977457845144777D+00 0.277513404803237D+02 0.356605117644019D+02
 0.710093104637481D+01 0.205612193651416D+00 0.951758188661480D-01 -.709731547239480D+01
0.989362410683D-06 0.000000000000D+00 0.000000000000D+00 0.193565379416D-05 0.245920551680D-06  6 21 22 9900012 11 4 -3 2 0.26940746D-02 0.38534385D-01 0.26148706D+04 0.26148706D+04 0.26148706D+04 0.12748486D+01  1  2  1  3  5  1       -4 0.567276331543D-02 0.100000000000D+01
  </mgrwgt>
  </event>
  <event>
  7     66 0.60667847E-06 0.22347170E+02 0.78161638E-02 0.12828618E+00
       -4 -1    0    0    0  502 0.00000000E+00 0.00000000E+00 0.35757741E+02 0.35757741E+02 0.00000000E+00 0.0000E+00 0.9000E+01
       22 -1    0    0    0    0 0.00000000E+00 0.00000000E+00 -.99177835E+02 0.99177835E+02 0.00000000E+00 0.0000E+00 0.9000E+01
      -24  2    1    2    0    0 0.72325407E+01 -.20590148E+02 -.40168261E+02 0.92358308E+02 0.80251505E+02 0.0000E+00 0.0000E+00
  9900012  1    3    3    0    0 -.10114924E+02 0.44063506E+01 -.16452495E+02 0.53781151E+02 0.50000000E+02 0.0000E+00 0.9000E+01
       11  1    3    3    0    0 0.17347465E+02 -.24996499E+02 -.23715766E+02 0.38577157E+02 0.00000000E+00 0.0000E+00 0.9000E+01
       -3  1    1    2    0  501 0.20668121E+01 -.98215616E+00 -.18461149E+02 0.18602429E+02 0.00000000E+00 0.0000E+00 0.9000E+01
       21  1    1    2  501  502 -.92993528E+01 0.21572304E+02 -.47906842E+01 0.23974839E+02 0.00000000E+00 0.0000E+00 0.9000E+01
#aMCatNLO 2  0  0  1  5 0.49950932D+02 0.00000000D+00  -5  6  0 0.00000000D+00 0.00000000D+00 0.00000000D+00 0.00000000D+00 0.00000000D+00
  <mgrwgt>
 0.2603916541D-05    1    2    0
 0.456153350320456D+02 0.000000000000000D+00 0.000000000000000D+00 0.456153350320456D+02
 0.456153350320456D+02 0.000000000000000D+00 0.000000000000000D+00 -.456153350320456D+02
 0.569119295424539D+02 -.156321636949062D+02 0.172050445581417D+02 0.140921830889771D+02
 0.240002197240248D+02 0.146054268824619D+02 -.186356176857917D+02 -.392502303834437D+01
 0.103185207976126D+02 0.102673681244437D+01 0.143057312765006D+01 -.101671600506327D+02
 0.000000000000000D+00 -.000000000000000D+00 0.000000000000000D+00 0.000000000000000D+00
 0.643708893669532D+02 0.000000000000000D+00 0.000000000000000D+00 0.643708893669532D+02
 0.550928437713710D+02 0.000000000000000D+00 0.000000000000000D+00 -.550928437713710D+02
 0.531066590891261D+02 -.101149241035431D+02 0.440635061870637D+01 0.140921830889771D+02
 0.306784172014902D+02 0.173474647889601D+02 -.249964985854608D+02 -.392502303834437D+01
 0.104214915702425D+02 0.206681211957703D+01 -.982156156536430D+00 -.101671600506327D+02
 0.252571652774654D+02 -.929935280499404D+01 0.215723041232909D+02 0.927804559558220D+01
0.804419113241D-08 0.000000000000D+00 0.000000000000D+00 0.256972538717D-05 0.202667350306D-07  6 -4 22 9900012 11 -3 21 2 0.55011909D-02 0.15258128D-01 0.28841590D+04 0.28841590D+04 0.28841590D+04 0.12696817D+01  1  2  1  1  6  1       -4 0.260391654132D-05 0.100000000000D+01
  </mgrwgt>
  </event>
</LesHouchesEvents>
