<LesHouchesEvents version="3.0">
  <!--
  <scalesfunctionalform>
    muR  H_T/2 := sum_i mT(i)/2, i=final state
    muF1 H_T/2 := sum_i mT(i)/2, i=final state
    muF2 H_T/2 := sum_i mT(i)/2, i=final state
    QES  H_T/2 := sum_i mT(i)/2, i=final state
  </scalesfunctionalform>
PYTHIA8   
  -->
  <header>
        8
  </header>
  <init>
   2212   2212 0.65000000D+04 0.65000000D+04 -1 -1  82200  82200 -4   1
 0.72164095D-05 0.10992512D-06 0.12148968D-05     66
  </init>
  <event>
  6     66 0.12148968E-05 0.40887718E+02 0.78161638E-02 0.12363583E+00
        2 -1    0    0  501    0 0.00000000E+00 0.00000000E+00 0.19044977E+04 0.19044977E+04 0.00000000E+00 0.0000E+00 0.9000E+01
       22 -1    0    0    0    0 0.00000000E+00 0.00000000E+00 -.28575315E+01 0.28575315E+01 0.00000000E+00 0.0000E+00 0.9000E+01
       24  2    1    2    0    0 -.22796851E+02 0.34546885E+02 0.84970088E+03 0.85460196E+03 0.81484606E+02 0.0000E+00 0.0000E+00
  9900012  1    3    3    0    0 -.20376326E+02 0.24989757E+01 0.65890025E+03 0.66111344E+03 0.50000000E+02 0.0000E+00 0.9000E+01
      -11  1    3    3    0    0 -.24205248E+01 0.32047910E+02 0.19080063E+03 0.19348852E+03 0.00000000E+00 0.0000E+00 0.9000E+01
        1  1    1    2  501    0 0.22796851E+02 -.34546885E+02 0.10519393E+04 0.10527533E+04 0.00000000E+00 0.0000E+00 0.9000E+01
#aMCatNLO 1  0  0  1  5 0.78955575D+01 0.00000000D+00  -5  6  0 0.00000000D+00 0.00000000D+00 0.00000000D+00 0.00000000D+00 0.00000000D+00
  <mgrwgt>
 0.3211788258D-04   11    2    0
 0.737710113549558D+02 0.000000000000000D+00 0.000000000000000D+00 0.737710113549558D+02
 0.737710113549558D+02 0.000000000000000D+00 0.000000000000000D+00 -.737710113549558D+02
 0.541336870670586D+02 -.203763261611766D+02 0.249897567178662D+01 -.300275344299062D+01
 0.421385104209347D+02 -.242052476479169D+01 0.320479096756191D+02 -.272530109489137D+02
 0.512698252219183D+02 0.227968509259683D+02 -.345468853474058D+02 0.302557643919043D+02
 0.000000000000000D+00 -.000000000000000D+00 -.000000000000000D+00 0.000000000000000D+00
 0.804782649686479D+02 0.000000000000000D+00 0.000000000000000D+00 0.804782649686479D+02
 0.756730651038571D+02 0.000000000000000D+00 0.000000000000000D+00 -.756730651038571D+02
 0.533052961375962D+02 -.179491488250100D+02 0.320407935842447D+01 -.300275344299062D+01
 0.424966350812513D+02 -.508513864476602D+00 0.326033556723394D+02 -.272530109489137D+02
 0.519034914041461D+02 0.251276616647009D+02 -.338697765015680D+02 0.302557643919043D+02
 0.844590744951136D+01 -.666999897521434D+01 -.193765852919595D+01 0.480519986479078D+01
0.234063819539D-07 0.000000000000D+00 0.000000000000D+00 0.119307325323D-06 0.000000000000D+00  6 2 22 9900012 -11 1 21 0 0.29299964D+00 0.43962023D-03 0.40691740D+04 0.40691740D+04 0.40691740D+04 0.12520465D+01  1  2  2  1  6  1        2 0.870260620518D-05 0.100000000000D+01
0.122073662590D-11 0.000000000000D+00 -.449433348723D-10 0.119307325323D-06 0.000000000000D+00  6 2 22 9900012 -11 1 21 2 0.29299964D+00 0.43962023D-03 0.40691740D+04 0.40691740D+04 0.40691740D+04 0.12520465D+01  1  2  3  1  6  1        2 0.711504954581D-09 0.100000000000D+01
-.110355551021D-08 0.000000000000D+00 0.000000000000D+00 0.119307325323D-06 0.000000000000D+00  6 2 22 9900012 -11 1 21 2 0.29299964D+00 0.43962023D-03 0.40691740D+04 0.40691740D+04 0.40691740D+04 0.12520465D+01  1  2 15  1  6  1        2 -.643206074526D-06 0.100000000000D+01
0.391192075112D-07 0.000000000000D+00 0.000000000000D+00 0.119307325323D-06 0.000000000000D+00  6 2 22 9900012 -11 1 21 2 0.32788047D+00 0.43962023D-03 0.45526539D+04 0.45526539D+04 0.45526539D+04 0.12464565D+01  1  2 12  1  6  1        2 0.174490460610D-04 0.100000000000D+01
-.111577349654D-07 0.000000000000D+00 0.000000000000D+00 0.119307325323D-06 0.000000000000D+00  6 2 22 9900012 -11 1 21 2 0.29299964D+00 0.43962023D-03 0.40691740D+04 0.40691740D+04 0.40691740D+04 0.12520465D+01  1  2  4  1  6  1        2 -.650327313967D-05 0.100000000000D+01
-.104587578478D-06 0.000000000000D+00 -.177791413504D-07 0.119307325323D-06 0.000000000000D+00  6 2 22 9900012 -11 1 21 2 0.32292779D+00 0.43962023D-03 0.40691740D+04 0.40691740D+04 0.40691740D+04 0.12520465D+01  1  2  5  1  6  1        2 -.485303874005D-04 0.100000000000D+01
0.105899241953D-06 0.000000000000D+00 0.176953851019D-07 0.119307325323D-06 0.000000000000D+00  6 2 22 9900012 -11 1 21 2 0.29299964D+00 0.43962023D-03 0.40691740D+04 0.40691740D+04 0.40691740D+04 0.12520465D+01  1  2  6  1  6  1        2 0.617232527782D-04 0.100000000000D+01
0.693368845133D-10 0.000000000000D+00 0.000000000000D+00 0.119307325323D-06 0.707083930724D-08  6 2 22 9900012 -11 1 21 2 0.31963914D+00 0.45095505D-03 0.45526539D+04 0.45526539D+04 0.45526539D+04 0.12464565D+01  1  2 11  1  6  1        2 0.318758076131D-07 0.100000000000D+01
0.702723359065D-09 0.000000000000D+00 0.000000000000D+00 0.119307325323D-06 0.000000000000D+00  6 21 22 9900012 -11 1 -2 2 0.32788047D+00 0.43962023D-03 0.45526539D+04 0.45526539D+04 0.45526539D+04 0.12464565D+01  1  2 12  3  6  1        2 0.780427945936D-07 0.100000000000D+01
-.160267576131D-08 0.000000000000D+00 -.281906493769D-09 0.119307325323D-06 0.000000000000D+00  6 21 22 9900012 -11 1 -2 2 0.32292779D+00 0.43962023D-03 0.40691740D+04 0.40691740D+04 0.40691740D+04 0.12520465D+01  1  2  5  3  6  1        2 -.191319871066D-06 0.100000000000D+01
0.446778744449D-11 0.000000000000D+00 0.000000000000D+00 0.119307325323D-06 0.297166098888D-09  6 21 22 9900012 -11 1 -2 2 0.31963914D+00 0.45095505D-03 0.45526539D+04 0.45526539D+04 0.45526539D+04 0.12464565D+01  1  2 11  3  6  1        2 0.533918458905D-09 0.100000000000D+01
  </mgrwgt>
  </event>
  <event>
  7     66 0.12148968E-05 0.16844543E+02 0.78161638E-02 0.12922024E+00
       21 -1    0    0  501  502 0.00000000E+00 0.00000000E+00 0.36560785E+03 0.36560785E+03 0.00000000E+00 0.0000E+00 0.9000E+01
       22 -1    0    0    0    0 0.00000000E+00 0.00000000E+00 -.28164023E+03 0.28164023E+03 0.00000000E+00 0.0000E+00 0.9000E+01
       24  2    1    2    0    0 -.62352268E+01 -.10850674E+02 0.21199225E+03 0.22636483E+03 0.78381790E+02 0.0000E+00 0.0000E+00
  9900012  1    3    3    0    0 -.63153512E+01 0.69481260E+01 0.92614116E+02 0.10566709E+03 0.50000000E+02 0.0000E+00 0.9000E+01
      -11  1    3    3    0    0 0.80124339E-01 -.17798800E+02 0.11937814E+03 0.12069773E+03 0.00000000E+00 0.0000E+00 0.9000E+01
        1  1    1    2  501    0 0.19851360E+01 -.11353797E+02 -.27345921E+03 0.27370201E+03 0.00000000E+00 0.0000E+00 0.9000E+01
       -2  1    1    2    0  502 0.42500908E+01 0.22204471E+02 0.14543458E+03 0.14718124E+03 0.00000000E+00 0.0000E+00 0.9000E+01
#aMCatNLO 2  0  0  1  5 0.17260730D+03 0.00000000D+00  -5  6  0 0.00000000D+00 0.00000000D+00 0.00000000D+00 0.00000000D+00 0.00000000D+00
  <mgrwgt>
 0.2594955136D-03    1    2    0
 0.247879787232786D+03 0.000000000000000D+00 0.000000000000000D+00 0.247879787232786D+03
 0.247879787232786D+03 0.000000000000000D+00 0.000000000000000D+00 -.247879787232786D+03
 0.118325009782830D+03 -.530311745253902D+01 0.122365103459675D+02 0.106409363779436D+03
 0.135751032024896D+03 0.124610326568342D+01 -.117071784865110D+02 0.135239535248982D+03
 0.241683532657846D+03 0.405701418685559D+01 -.529331859456495D+00 -.241648899028418D+03
 0.000000000000000D+00 0.000000000000000D+00 0.000000000000000D+00 0.000000000000000D+00
 0.413684464426969D+03 0.000000000000000D+00 0.000000000000000D+00 0.413684464426969D+03
 0.248909227635445D+03 0.000000000000000D+00 0.000000000000000D+00 -.248909227635445D+03
 0.117945380645346D+03 -.631535116747977D+01 0.694812602523787D+01 0.106409363779436D+03
 0.136405775522088D+03 0.801243385294297D-01 -.177988000020255D+02 0.135239535248982D+03
 0.241923624028884D+03 0.198513599721949D+01 -.113537965762581D+02 -.241648899028418D+03
 0.166318911866096D+03 0.425009083173085D+01 0.222044705530458D+02 0.164775236791525D+03
0.950769111584D-05 0.000000000000D+00 0.000000000000D+00 0.194312010713D-05 0.173023459501D-08  6 21 22 9900012 -11 1 -2 2 0.56247362D-01 0.43329267D-01 0.26422961D+04 0.26422961D+04 0.26422961D+04 0.12742956D+01  1  2  1  3  6  1        2 0.259495513607D-03 0.100000000000D+01
  </mgrwgt>
  </event>
  <event>
  7     66 0.12148968E-05 0.10682728E+02 0.78161638E-02 0.13006669E+00
        2 -1    0    0  501    0 0.00000000E+00 0.00000000E+00 0.12437917E+02 0.12437917E+02 0.00000000E+00 0.0000E+00 0.9000E+01
       22 -1    0    0    0    0 -.00000000E+00 -.00000000E+00 -.27515022E+03 0.27515022E+03 0.00000000E+00 0.0000E+00 0.9000E+01
       24  2    1    2    0    0 -.10172358E+02 -.25011798E+02 -.16767961E+03 0.18766639E+03 0.79832035E+02 0.0000E+00 0.0000E+00
  9900012  1    3    3    0    0 -.12682380E+01 -.67469990E+01 -.61487704E+02 0.79547898E+02 0.50000000E+02 0.0000E+00 0.9000E+01
      -11  1    3    3    0    0 -.89041199E+01 -.18264799E+02 -.10619191E+03 0.10811849E+03 0.00000000E+00 0.0000E+00 0.9000E+01
        1  1    1    2  502    0 0.76252165E+01 0.87310879E+01 -.61213690E+02 0.62301618E+02 0.00000000E+00 0.0000E+00 0.9000E+01
       21  1    1    2  501  502 0.25471414E+01 0.16280710E+02 -.33818999E+02 0.37620129E+02 0.00000000E+00 0.0000E+00 0.9000E+01
#aMCatNLO 2  0  0  5  1 0.74820265D+01 0.00000000D+00  -5  6  0 0.00000000D+00 0.00000000D+00 0.00000000D+00 0.00000000D+00 0.00000000D+00
  <mgrwgt>
 0.1305170116D-04    2    2    0
 0.585003897837856D+02 0.000000000000000D+00 0.000000000000000D+00 0.585003897837856D+02
 0.585003897837856D+02 -.000000000000000D+00 -.000000000000000D+00 -.585003897837856D+02
 0.579831341094759D+02 -.192729516657868D+01 -.836748902192417D+01 0.280769389707341D+02
 0.277527740682462D+02 -.921847455361044D+01 -.190377341981968D+02 -.179666600119878D+02
 0.312648713898492D+02 0.111457697201891D+02 0.274052232201210D+02 -.101102789587463D+02
 0.000000000000000D+00 0.000000000000000D+00 0.000000000000000D+00 0.000000000000000D+00
 0.585003897837856D+02 0.000000000000000D+00 0.000000000000000D+00 0.585003897837856D+02
 0.585003897837856D+02 -.000000000000000D+00 -.000000000000000D+00 -.585003897837856D+02
 0.574650499754393D+02 -.126823798832085D+01 -.674699895812331D+01 0.274791110872205D+02
 0.273132712777564D+02 -.890411991259798D+01 -.182647988762314D+02 -.182518097317829D+02
 0.156889289175167D+02 0.762521653430822D+01 0.873108788666959D+01 -.105719755816525D+02
 0.165335293968589D+02 0.254714136661061D+01 0.162807099476851D+02 0.134467422621490D+01
-.172002870041D-07 0.000000000000D+00 0.000000000000D+00 0.100511834502D-06 0.000000000000D+00  6 2 22 9900012 -11 1 21 2 0.19135257D-02 0.42330803D-01 0.24433013D+04 0.24433013D+04 0.24433013D+04 0.12784625D+01  1  2 13  2  6  5        1 -.871813404377D-05 0.100000000000D+01
0.429504079341D-07 0.000000000000D+00 0.000000000000D+00 0.100511834502D-06 0.119317125908D-07  6 2 22 9900012 -11 1 21 2 0.19135257D-02 0.42330803D-01 0.24433013D+04 0.24433013D+04 0.24433013D+04 0.12784625D+01  1  2  1  2  6  5        1 0.217698352077D-04 0.100000000000D+01
  </mgrwgt>
  </event>
  <event>
  6     66 -.12148968E-05 0.15174029E+02 0.78161638E-02 0.13010169E+00
        2 -1    0    0  501    0 0.00000000E+00 0.00000000E+00 0.20563979E+04 0.20563979E+04 0.00000000E+00 0.0000E+00 0.9000E+01
       22 -1    0    0    0    0 0.00000000E+00 0.00000000E+00 -.12641696E+01 0.12641696E+01 0.00000000E+00 0.0000E+00 0.9000E+01
       24  2    1    2    0    0 0.14846633E+02 -.31350709E+01 0.15061037E+04 0.15084224E+04 0.82216183E+02 0.0000E+00 0.0000E+00
  9900012  1    3    3    0    0 -.11135982E+02 0.13119633E+02 0.92168998E+03 0.92320558E+03 0.50000000E+02 0.0000E+00 0.9000E+01
      -11  1    3    3    0    0 0.25982615E+02 -.16254704E+02 0.58441373E+03 0.58521682E+03 0.00000000E+00 0.0000E+00 0.9000E+01
        1  1    1    2  501    0 -.14846633E+02 0.31350709E+01 0.54903006E+03 0.54923971E+03 0.00000000E+00 0.0000E+00 0.9000E+01
#aMCatNLO 1  0  0  5  1 0.13741607D+01 0.00000000D+00  -5  6  0 0.00000000D+00 0.00000000D+00 0.00000000D+00 0.00000000D+00 0.00000000D+00
  <mgrwgt>
 -.5419180101D-04    7    2    0
 0.509866224788902D+02 0.000000000000000D+00 0.000000000000000D+00 0.509866224788902D+02
 0.509866224788902D+02 -.000000000000000D+00 -.000000000000000D+00 -.509866224788902D+02
 0.534350941389929D+02 -.111359819583151D+02 0.131196327278187D+02 -.769249169997969D+01
 0.306950292952058D+02 0.259826146249043D+02 -.162547035846469D+02 -.169504338071878D+01
 0.178431215235818D+02 -.148466326665891D+02 0.313507085682820D+01 0.938753508069847D+01
 0.000000000000000D+00 0.000000000000000D+00 0.000000000000000D+00 0.000000000000000D+00
 0.509866224788902D+02 0.000000000000000D+00 0.000000000000000D+00 0.509866224788902D+02
 0.509866224788902D+02 -.000000000000000D+00 -.000000000000000D+00 -.509866224788902D+02
 0.534599627773871D+02 -.112812882938219D+02 0.131503161607553D+02 -.760061441355048D+01
 0.306123093016165D+02 0.258992773315985D+02 -.162371057679974D+02 -.164234915826396D+01
 0.358157194815477D+01 -.345272655927638D+01 0.749143365046371D+00 0.587470122885958D+00
 0.143194009306221D+02 -.111652624785002D+02 0.233764624219567D+01 0.865549344892849D+01
0.605115784951D-08 0.000000000000D+00 0.000000000000D+00 0.149152849480D-07 0.000000000000D+00  6 2 22 9900012 -11 1 21 0 0.31636891D+00 0.19448762D-03 0.24354577D+04 0.24354577D+04 0.24354577D+04 0.12786345D+01  1  2  2  2  6  5        1 0.521185520187D-05 0.100000000000D+01
0.331166783771D-09 0.000000000000D+00 -.116190197243D-10 0.149152849480D-07 0.000000000000D+00  6 2 22 9900012 -11 1 21 2 0.31636891D+00 0.19448762D-03 0.24354577D+04 0.24354577D+04 0.24354577D+04 0.12786345D+01  1  2  3  2  6  5        1 0.466330088112D-06 0.100000000000D+01
-.253254121444D-09 0.000000000000D+00 0.000000000000D+00 0.149152849480D-07 0.000000000000D+00  6 2 22 9900012 -11 1 21 2 0.31636891D+00 0.19448762D-03 0.24354577D+04 0.24354577D+04 0.24354577D+04 0.12786345D+01  1  2 15  2  6  5        1 -.356617941640D-06 0.100000000000D+01
0.775209312702D-12 0.000000000000D+00 0.000000000000D+00 0.149152849480D-07 0.000000000000D+00  6 2 22 9900012 -11 1 21 2 0.31636891D+00 0.19448762D-03 0.24218966D+04 0.24218966D+04 0.24218966D+04 0.12789333D+01  1  2 12  2  6  5        1 0.109157555540D-08 0.100000000000D+01
-.529284944354D-07 0.000000000000D+00 0.000000000000D+00 0.149152849480D-07 0.000000000000D+00  6 2 22 9900012 -11 1 21 2 0.31636891D+00 0.19448762D-03 0.24354577D+04 0.24354577D+04 0.24354577D+04 0.12786345D+01  1  2  4  2  6  5        1 -.745308729114D-04 0.100000000000D+01
-.722440683650D-08 0.000000000000D+00 0.000000000000D+00 0.149152849480D-07 0.000000000000D+00  6 2 22 9900012 -11 1 21 2 0.31636891D+00 0.19448762D-03 0.24354577D+04 0.24354577D+04 0.24354577D+04 0.12786345D+01  1  2  5  2  6  5        1 -.101729957282D-04 0.100000000000D+01
0.178883921029D-07 0.000000000000D+00 -.000000000000D+00 0.149152849480D-07 0.000000000000D+00  6 2 22 9900012 -11 1 21 2 0.31636891D+00 0.19448762D-03 0.24354577D+04 0.24354577D+04 0.24354577D+04 0.12786345D+01  1  2  6  2  6  5        1 0.251894087038D-04 0.100000000000D+01
  </mgrwgt>
  </event>
  <event>
  7     66 0.12148968E-05 0.21159425E+02 0.78161638E-02 0.12920455E+00
        2 -1    0    0  501    0 0.00000000E+00 0.00000000E+00 0.44484281E+02 0.44484281E+02 0.00000000E+00 0.0000E+00 0.9000E+01
       22 -1    0    0    0    0 -.00000000E+00 -.00000000E+00 -.15985699E+04 0.15985699E+04 0.00000000E+00 0.0000E+00 0.9000E+01
       24  2    1    2    0    0 0.61332135E+01 -.20395949E+02 0.54902885E+01 0.81732758E+02 0.78717783E+02 0.0000E+00 0.0000E+00
  9900012  1    3    3    0    0 0.77677799E+01 -.38214075E+02 0.16377882E+01 0.63429775E+02 0.50000000E+02 0.0000E+00 0.9000E+01
      -11  1    3    3    0    0 -.16345663E+01 0.17818126E+02 0.38525003E+01 0.18302983E+02 0.00000000E+00 0.0000E+00 0.9000E+01
        1  1    1    2  502    0 -.26866779E+00 -.80431807E-01 -.14304922E+04 0.14304922E+04 0.00000000E+00 0.0000E+00 0.9000E+01
       21  1    1    2  501  502 -.58645457E+01 0.20476381E+02 -.12908369E+03 0.13082918E+03 0.00000000E+00 0.0000E+00 0.9000E+01
#aMCatNLO 2  0  0  5  1 0.21326361D+02 0.00000000D+00  -5  6  0 0.00000000D+00 0.00000000D+00 0.00000000D+00 0.00000000D+00 0.00000000D+00
  <mgrwgt>
 0.3573284602D-01    2    2    0
 0.266666892636971D+03 0.000000000000000D+00 0.000000000000000D+00 0.266666892636971D+03
 0.266666892636971D+03 -.000000000000000D+00 -.000000000000000D+00 -.266666892636971D+03
 0.203701851240046D+03 0.785544823669475D+01 -.385056158964612D+02 0.193520163487056D+03
 0.687742452797600D+02 -.160496182304288D+01 0.177196768195542D+02 0.664329283168951D+02
 0.260857688754135D+03 -.625048641365190D+01 0.207859390769071D+02 -.259953091803951D+03
 0.000000000000000D+00 0.000000000000000D+00 0.000000000000000D+00 0.000000000000000D+00
 0.266666892636971D+03 0.000000000000000D+00 0.000000000000000D+00 0.266666892636971D+03
 0.266666892636971D+03 -.000000000000000D+00 -.000000000000000D+00 -.266666892636971D+03
 0.200181987527658D+03 0.776777986162490D+01 -.382140754654328D+02 0.189874100821747D+03
 0.676122691295835D+02 -.163456633541007D+01 0.178181263720757D+02 0.652016986154127D+02
 0.238628944875649D+03 -.268667793672540D+00 -.804318072244712D-01 -.238628780076516D+03
 0.269105837410518D+02 -.586454573254231D+01 0.204763809005817D+02 -.164470193606433D+02
-.428985124540D-05 0.000000000000D+00 0.000000000000D+00 0.136866819119D-05 0.000000000000D+00  6 2 22 9900012 -11 1 21 2 0.68437356D-02 0.24593382D+00 0.26461595D+04 0.26461595D+04 0.26461595D+04 0.12742183D+01  1  2 13  2  6  5        1 -.123298689191D-04 0.100000000000D+01
0.124365869838D-01 0.000000000000D+00 0.000000000000D+00 0.136866819119D-05 0.581565495151D-04  6 2 22 9900012 -11 1 21 2 0.68437356D-02 0.24593382D+00 0.26461595D+04 0.26461595D+04 0.26461595D+04 0.12742183D+01  1  2  1  2  6  5        1 0.357451758904D-01 0.100000000000D+01
  </mgrwgt>
  </event>
  <event>
  5     66 0.12148968E-05 0.23830774E+03 0.78161638E-02 0.98385386E-01
        2 -1    0    0  501    0 0.00000000E+00 0.00000000E+00 0.13089845E+03 0.13089845E+03 0.00000000E+00 0.0000E+00 0.9000E+01
       22 -1    0    0    0    0 0.00000000E+00 0.00000000E+00 -.51045839E+03 0.51045839E+03 0.00000000E+00 0.0000E+00 0.9000E+01
  9900012  1    1    2    0    0 0.22829251E+02 0.57271645E+02 -.47162118E+02 0.92333533E+02 0.50000000E+02 0.0000E+00 0.9000E+01
      -11  1    1    2    0    0 -.64980255E+02 0.17727872E+03 -.20536634E+03 0.27897224E+03 0.00000000E+00 0.0000E+00 0.9000E+01
        1  1    1    2  501    0 0.42151003E+02 -.23455036E+03 -.12703148E+03 0.27005107E+03 0.00000000E+00 0.0000E+00 0.9000E+01
#aMCatNLO 1  0  0  1  1 0.25638383D+03 0.00000000D+00  -5  6  0 0.00000000D+00 0.00000000D+00 0.00000000D+00 0.00000000D+00 0.00000000D+00
  <mgrwgt>
 0.4956217545D-05    4    2    0
 0.258492187984882D+03 0.000000000000000D+00 0.000000000000000D+00 0.258492187984882D+03
 0.258492187984882D+03 0.000000000000000D+00 0.000000000000000D+00 -.258492187984882D+03
 0.799209692399900D+02 0.228292512271751D+02 0.572716451055794D+02 0.928144813951539D+01
 0.195309418667625D+03 -.649802545272996D+02 0.177278718045757D+03 -.499558972485327D+02
 0.241753988062148D+03 0.421510033001245D+02 -.234550363151337D+03 0.406744491090174D+02
 0.000000000000000D+00 -.000000000000000D+00 -.000000000000000D+00 -.000000000000000D+00
 0.325756689301272D+03 0.000000000000000D+00 0.000000000000000D+00 0.325756689301272D+03
 0.379751026644024D+03 0.000000000000000D+00 0.000000000000000D+00 -.379751026644024D+03
 0.952639794618678D+02 0.475520613024178D+02 0.650221652149154D+02 0.928144813951539D+01
 0.201331023789279D+03 -.900474750066046D+01 0.194826856445878D+03 -.499558972485327D+02
 0.243511487837324D+03 0.110633634288889D+03 -.213081282290251D+03 0.406744491090174D+02
 0.165401224856825D+03 -.149180948090646D+03 -.467677393705422D+02 -.539943373427525D+02
0.801331971543D-06 0.000000000000D+00 0.000000000000D+00 0.210351403863D-09 0.000000000000D+00  6 2 22 9900012 -11 1 21 0 0.20138223D-01 0.78532060D-01 0.64135686D+05 0.64135686D+05 0.64135686D+05 0.11336544D+01  1  2  2  1  6  1        2 0.577294106073D-05 0.100000000000D+01
-.297140963915D-07 0.000000000000D+00 -.153866288314D-08 0.210351403863D-09 0.000000000000D+00  6 2 22 9900012 -11 1 21 2 0.20138223D-01 0.78532060D-01 0.64135686D+05 0.64135686D+05 0.64135686D+05 0.11336544D+01  1  2  3  1  6  1        2 -.275111354820D-06 0.100000000000D+01
-.140130643539D-07 0.000000000000D+00 0.000000000000D+00 0.210351403863D-09 0.000000000000D+00  6 2 22 9900012 -11 1 21 2 0.20138223D-01 0.78532060D-01 0.64135686D+05 0.64135686D+05 0.64135686D+05 0.11336544D+01  1  2 15  1  6  1        2 -.129741556627D-06 0.100000000000D+01
-.444851243659D-07 0.000000000000D+00 0.000000000000D+00 0.210351403863D-09 0.000000000000D+00  6 2 22 9900012 -11 1 21 2 0.20138223D-01 0.78532060D-01 0.64135686D+05 0.64135686D+05 0.64135686D+05 0.11336544D+01  1  2  4  1  6  1        2 -.411870604187D-06 0.100000000000D+01
  </mgrwgt>
  </event>
  <event>
  7     66 0.12148968E-05 0.10506923E+02 0.78161638E-02 0.12801429E+00
        2 -1    0    0  502    0 0.00000000E+00 0.00000000E+00 0.94237092E+02 0.94237092E+02 0.00000000E+00 0.0000E+00 0.9000E+01
       22 -1    0    0    0    0 0.00000000E+00 0.00000000E+00 -.70998189E+03 0.70998189E+03 0.00000000E+00 0.0000E+00 0.9000E+01
       24  2    1    2    0    0 -.79351366E+01 0.99208628E+00 0.41947846E+02 0.95068959E+02 0.84938416E+02 0.0000E+00 0.0000E+00
  9900012  1    3    3    0    0 0.89728847E+01 -.21082384E+02 0.38307862E+02 0.67025904E+02 0.50000000E+02 0.0000E+00 0.9000E+01
      -11  1    3    3    0    0 -.16908021E+02 0.22074470E+02 0.36399841E+01 0.28043054E+02 0.00000000E+00 0.0000E+00 0.9000E+01
        1  1    1    2  501    0 0.11445517E+02 -.10701674E+02 -.68229195E+03 0.68247185E+03 0.00000000E+00 0.0000E+00 0.9000E+01
       21  1    1    2  502  501 -.35103799E+01 0.97095879E+01 0.24599306E+02 0.26678170E+02 0.00000000E+00 0.0000E+00 0.9000E+01
#aMCatNLO 2  0  0  1  1 0.43402988D+03 0.00000000D+00  -5  6  0 0.00000000D+00 0.00000000D+00 0.00000000D+00 0.00000000D+00 0.00000000D+00
  <mgrwgt>
 0.2302126242D-03    1    2    0
 0.220466859007159D+03 0.000000000000000D+00 0.000000000000000D+00 0.220466859007159D+03
 0.220466859007159D+03 0.000000000000000D+00 0.000000000000000D+00 -.220466859007159D+03
 0.173289968454660D+03 0.759152798806430D+01 -.172615991381223D+02 0.164844833297917D+03
 0.553578644144450D+02 -.173461481657827D+02 0.232863132130960D+02 0.471312201548017D+02
 0.212285885145213D+03 0.975462017771837D+01 -.602471407497373D+01 -.211976053452719D+03
 0.000000000000000D+00 -.000000000000000D+00 0.000000000000000D+00 0.000000000000000D+00
 0.302949696405899D+03 0.000000000000000D+00 0.000000000000000D+00 0.302949696405899D+03
 0.220850620968569D+03 0.000000000000000D+00 0.000000000000000D+00 -.220850620968569D+03
 0.173778015351655D+03 0.897288472338303D+01 -.210823835057283D+02 0.164844833297917D+03
 0.547221647571453D+02 -.169080213525497D+02 0.220744697868261D+02 0.471312201548017D+02
 0.212554399899728D+03 0.114455165339466D+02 -.107016741968122D+02 -.211976053452719D+03
 0.827457373659403D+02 -.351037990477989D+01 0.970958791571432D+01 0.820990754373294D+02
0.306192808087D-04 0.000000000000D+00 0.000000000000D+00 0.431497227018D-06 0.169153656666D-07  6 2 22 9900012 -11 1 21 2 0.14498014D-01 0.10922798D+00 0.29593362D+04 0.29593362D+04 0.29593362D+04 0.12683355D+01  1  2  1  1  6  1        2 0.230212624203D-03 0.100000000000D+01
  </mgrwgt>
  </event>
  <event>
  6     66 0.12148968E-05 0.35959079E+02 0.78161638E-02 0.12004861E+00
        2 -1    0    0  501    0 0.00000000E+00 0.00000000E+00 0.55460754E+03 0.55460754E+03 0.00000000E+00 0.0000E+00 0.9000E+01
       22 -1    0    0    0    0 0.00000000E+00 0.00000000E+00 -.14392968E+02 0.14392968E+02 0.00000000E+00 0.0000E+00 0.9000E+01
       24  2    1    2    0    0 -.35595924E+02 -.50975987E+01 0.52081950E+03 0.52814437E+03 0.79940415E+02 0.0000E+00 0.0000E+00
  9900012  1    3    3    0    0 -.10451004E+02 -.14157770E+02 0.43608254E+03 0.43929222E+03 0.50000000E+02 0.0000E+00 0.9000E+01
      -11  1    3    3    0    0 -.25144921E+02 0.90601713E+01 0.84736953E+02 0.88852152E+02 0.00000000E+00 0.0000E+00 0.9000E+01
        1  1    1    2  501    0 0.35595924E+02 0.50975987E+01 0.19395079E+02 0.40856143E+02 0.00000000E+00 0.0000E+00 0.9000E+01
#aMCatNLO 1  0  0  5  1 0.21392875D+02 0.00000000D+00  -5  6  0 0.00000000D+00 0.00000000D+00 0.00000000D+00 0.00000000D+00 0.00000000D+00
  <mgrwgt>
 0.4660503957D-05    4    2    0
 0.893445495152262D+02 0.000000000000000D+00 0.000000000000000D+00 0.893445495152262D+02
 0.893445495152262D+02 -.000000000000000D+00 -.000000000000000D+00 -.893445495152262D+02
 0.804713280529695D+02 -.104510038169256D+02 -.141577700409557D+02 0.605472435813115D+02
 0.267547540452662D+02 -.251449206262187D+02 0.906017131407001D+01 0.120959765358241D+01
 0.714630169322166D+02 0.355959244431444D+02 0.509759872688572D+01 -.617568412348939D+02
 0.000000000000000D+00 0.000000000000000D+00 -.000000000000000D+00 0.000000000000000D+00
 0.893445495152262D+02 0.000000000000000D+00 0.000000000000000D+00 0.893445495152262D+02
 0.893445495152262D+02 -.000000000000000D+00 -.000000000000000D+00 -.893445495152262D+02
 0.595979287190991D+02 0.753493245019195D+01 -.115820514087974D+02 0.293426990193784D+02
 0.234263283600348D+02 -.187012957312468D+02 0.998294588938981D+01 -.996971362548267D+01
 0.559013417019428D+02 0.470518163092828D+02 0.180308909516816D+02 -.242068907041662D+02
 0.397635002493757D+02 -.358854530282279D+02 -.164317854322739D+02 0.483390531027050D+01
0.227591929587D-07 0.000000000000D+00 0.000000000000D+00 0.133207331258D-06 0.000000000000D+00  6 2 22 9900012 -11 1 21 0 0.85324238D-01 0.22143027D-02 0.33462035D+04 0.33462035D+04 0.33462035D+04 0.12619718D+01  1  2  2  2  6  5        1 0.561980076897D-05 0.100000000000D+01
-.140651294414D-08 0.000000000000D+00 -.437006467973D-10 0.133207331258D-06 0.000000000000D+00  6 2 22 9900012 -11 1 21 2 0.85324238D-01 0.22143027D-02 0.33462035D+04 0.33462035D+04 0.33462035D+04 0.12619718D+01  1  2  3  2  6  5        1 -.553104389356D-06 0.100000000000D+01
0.122473688036D-08 0.000000000000D+00 0.000000000000D+00 0.133207331258D-06 0.000000000000D+00  6 2 22 9900012 -11 1 21 2 0.85324238D-01 0.22143027D-02 0.33462035D+04 0.33462035D+04 0.33462035D+04 0.12619718D+01  1  2 15  2  6  5        1 0.481621834447D-06 0.100000000000D+01
-.225766106478D-08 0.000000000000D+00 0.000000000000D+00 0.133207331258D-06 0.000000000000D+00  6 2 22 9900012 -11 1 21 2 0.85324238D-01 0.22143027D-02 0.33462035D+04 0.33462035D+04 0.33462035D+04 0.12619718D+01  1  2  4  2  6  5        1 -.887814257102D-06 0.100000000000D+01
  </mgrwgt>
  </event>
</LesHouchesEvents>
