<LesHouchesEvents version="3.0">
  <!--
  <scalesfunctionalform>
    muR  H_T/2 := sum_i mT(i)/2, i=final state
    muF1 H_T/2 := sum_i mT(i)/2, i=final state
    muF2 H_T/2 := sum_i mT(i)/2, i=final state
    QES  H_T/2 := sum_i mT(i)/2, i=final state
  </scalesfunctionalform>
PYTHIA8   
  -->
  <header>
       11
  </header>
  <init>
   2212   2212 0.65000000D+04 0.65000000D+04 -1 -1  82200  82200 -4   1
 0.16543424D-04 0.37720015D-06 0.18847021D-05     66
  </init>
  <event>
  6     66 -.18847021E-05 0.94961427E+01 0.78161638E-02 0.13150212E+00
       -2 -1    0    0    0  501 0.00000000E+00 0.00000000E+00 0.21467134E+02 0.21467134E+02 0.00000000E+00 0.0000E+00 0.9000E+01
       22 -1    0    0    0    0 0.00000000E+00 0.00000000E+00 -.11972358E+03 0.11972358E+03 0.00000000E+00 0.0000E+00 0.9000E+01
      -24  2    1    2    0    0 0.79707695E+01 0.51617401E+01 -.10263452E+03 0.13073393E+03 0.80419770E+02 0.0000E+00 0.0000E+00
  9900012  1    3    3    0    0 -.50953500E+01 -.18511739E+02 -.74011739E+02 0.91358550E+02 0.50000000E+02 0.0000E+00 0.9000E+01
       13  1    3    3    0    0 0.13066119E+02 0.23673479E+02 -.28622783E+02 0.39375383E+02 0.00000000E+00 0.0000E+00 0.9000E+01
       -1  1    1    2    0  501 -.79707695E+01 -.51617401E+01 0.43780756E+01 0.10456781E+02 0.00000000E+00 0.0000E+00 0.9000E+01
#aMCatNLO 1  0  0  1  5 0.23437559D+01 0.00000000D+00  -5  6  0 0.00000000D+00 0.00000000D+00 0.00000000D+00 0.00000000D+00 0.00000000D+00
  <mgrwgt>
 -.4057371276D-04    9    4    0
 0.506963717553646D+02 0.000000000000000D+00 0.000000000000000D+00 0.506963717553646D+02
 0.506963717553646D+02 0.000000000000000D+00 0.000000000000000D+00 -.506963717553646D+02
 0.554955727723215D+02 -.509535003154352D+01 -.185117390053898D+02 -.145296773667007D+02
 0.270933147154162D+02 0.130661194970310D+02 0.236734790644340D+02 -.170018015036660D+01
 0.188038560229915D+02 -.797076946548752D+01 -.516174005904412D+01 0.162298575170673D+02
 0.000000000000000D+00 0.000000000000000D+00 -.000000000000000D+00 0.000000000000000D+00
 0.136766566345918D+03 0.000000000000000D+00 0.000000000000000D+00 0.136766566345918D+03
 0.507258576216280D+02 0.000000000000000D+00 0.000000000000000D+00 -.507258576216280D+02
 0.555284568782242D+02 -.634489484202894D+01 -.182219732284949D+02 -.145296773667007D+02
 0.269299872410689D+02 0.124581021442337D+02 0.238144765053585D+02 -.170018015036660D+01
 0.189613709305764D+02 -.839580667144344D+01 -.506317517752920D+01 0.162298575170673D+02
 0.860726089176765D+02 0.228259936923863D+01 -.529328099334371D+00 0.860407087242899D+02
 0.506963717553646D+02 0.000000000000000D+00 0.000000000000000D+00 0.506963717553646D+02
 0.506963717553646D+02 0.000000000000000D+00 0.000000000000000D+00 -.506963717553646D+02
 0.554955727723215D+02 -.509535003154352D+01 -.185117390053898D+02 -.145296773667007D+02
 0.270933147154162D+02 0.130661194970310D+02 0.236734790644340D+02 -.170018015036660D+01
 0.000000000000000D+00 0.000000000000000D+00 -.000000000000000D+00 0.000000000000000D+00
 0.188038560229915D+02 -.797076946548752D+01 -.516174005904412D+01 0.162298575170673D+02
 0.136766566345918D+03 0.000000000000000D+00 0.000000000000000D+00 0.136766566345918D+03
 0.507258576216280D+02 0.000000000000000D+00 0.000000000000000D+00 -.507258576216280D+02
 0.555284568782242D+02 -.634489484202894D+01 -.182219732284949D+02 -.145296773667007D+02
 0.269299872410689D+02 0.124581021442337D+02 0.238144765053585D+02 -.170018015036660D+01
 0.860726089176765D+02 0.228259936923863D+01 -.529328099334371D+00 0.860407087242899D+02
 0.189613709305764D+02 -.839580667144344D+01 -.506317517752920D+01 0.162298575170673D+02
0.156247371039D-08 0.000000000000D+00 0.000000000000D+00 0.758875292928D-07 0.000000000000D+00  6 -2 22 9900012 13 -1 21 0 0.33026360D-02 0.18419012D-01 0.20293138D+04 0.20293138D+04 0.20293138D+04 0.12885124D+01  1  2  2  1  6  1       -2 0.709578442596D-06 0.100000000000D+01
0.195612058460D-09 0.000000000000D+00 -.300015522834D-11 0.758875292928D-07 0.000000000000D+00  6 -2 22 9900012 13 -1 21 2 0.33026360D-02 0.18419012D-01 0.20293138D+04 0.20293138D+04 0.20293138D+04 0.12885124D+01  1  2  3  1  6  1       -2 0.147489308960D-06 0.100000000000D+01
-.120538969362D-09 0.000000000000D+00 0.000000000000D+00 0.758875292928D-07 0.000000000000D+00  6 -2 22 9900012 13 -1 21 2 0.33026360D-02 0.18419012D-01 0.20293138D+04 0.20293138D+04 0.20293138D+04 0.12885124D+01  1  2 15  1  6  1       -2 -.908850376298D-07 0.100000000000D+01
0.121871782495D-08 0.000000000000D+00 0.000000000000D+00 0.758875292928D-07 0.000000000000D+00  6 -2 22 9900012 13 -1 21 2 0.89148962D-02 0.18419012D-01 0.21445055D+04 0.21445055D+04 0.21445055D+04 0.12854977D+01  1  2 12  1  6  1       -2 0.219082767449D-06 0.100000000000D+01
-.362987887027D-06 0.000000000000D+00 -.363093206055D-09 0.758875292928D-07 0.000000000000D+00  6 -2 22 9900012 13 -1 21 2 0.89112443D-02 0.18419012D-01 0.20293138D+04 0.20293138D+04 0.20293138D+04 0.12885124D+01  1  2  5  1  6  1       -2 -.651854668997D-04 0.100000000000D+01
0.268023852867D-06 0.000000000000D+00 0.000000000000D+00 0.758875292928D-07 0.138539674791D-06  6 -2 22 9900012 13 -1 21 2 0.89097141D-02 0.18429725D-01 0.21445055D+04 0.21445055D+04 0.21445055D+04 0.12854977D+01  1  2 11  1  6  1       -2 0.481818667150D-04 0.100000000000D+01
0.134985145911D-09 0.000000000000D+00 0.000000000000D+00 0.758875292928D-07 0.000000000000D+00  6 21 22 9900012 13 2 -1 2 0.89148962D-02 0.18419012D-01 0.21445055D+04 0.21445055D+04 0.21445055D+04 0.12854977D+01  3  4 12  3  5  1       -2 0.367587845046D-06 0.100000000000D+01
-.401637813021D-07 0.000000000000D+00 -.401965919149D-10 0.758875292928D-07 0.000000000000D+00  6 21 22 9900012 13 2 -1 2 0.89112443D-02 0.18419012D-01 0.20293138D+04 0.20293138D+04 0.20293138D+04 0.12885124D+01  3  4  5  3  5  1       -2 -.109308042257D-03 0.100000000000D+01
0.309851273036D-07 0.000000000000D+00 0.000000000000D+00 0.758875292928D-07 0.159997872381D-07  6 21 22 9900012 13 2 -1 2 0.89097141D-02 0.18429725D-01 0.21445055D+04 0.21445055D+04 0.21445055D+04 0.12854977D+01  3  4 11  3  5  1       -2 0.843850763538D-04 0.100000000000D+01
  </mgrwgt>
  </event>
  <event>
  7     66 0.18847021E-05 0.12032562E+02 0.78161638E-02 0.13095421E+00
       21 -1    0    0  502  501 0.00000000E+00 0.00000000E+00 0.44944294E+01 0.44944294E+01 0.00000000E+00 0.0000E+00 0.9000E+01
       22 -1    0    0    0    0 0.00000000E+00 0.00000000E+00 -.97303294E+03 0.97303294E+03 0.00000000E+00 0.0000E+00 0.9000E+01
      -24  2    1    2    0    0 -.10222856E+02 0.17447631E+02 -.75777484E+03 0.76189275E+03 0.76478258E+02 0.0000E+00 0.0000E+00
  9900012  1    3    3    0    0 -.26212323E+02 0.11254375E+02 -.66934480E+03 0.67181561E+03 0.50000000E+02 0.0000E+00 0.9000E+01
       13  1    3    3    0    0 0.15989467E+02 0.61932559E+01 -.88430038E+02 0.90077139E+02 0.00000000E+00 0.0000E+00 0.9000E+01
        2  1    1    2  502    0 0.73627261E+01 -.12795857E+02 -.20340856E+02 0.25133526E+02 0.00000000E+00 0.0000E+00 0.9000E+01
       -1  1    1    2    0  501 0.28601301E+01 -.46517733E+01 -.19042282E+03 0.19050110E+03 0.00000000E+00 0.0000E+00 0.9000E+01
#aMCatNLO 2  0  0  1  5 0.15082951D+02 0.00000000D+00  -5  6  0 0.00000000D+00 0.00000000D+00 0.00000000D+00 0.00000000D+00 0.00000000D+00
  <mgrwgt>
 0.6596192151D-05    1    2    0
 0.440377611908142D+02 0.000000000000000D+00 0.000000000000000D+00 0.440377611908142D+02
 0.440377611908142D+02 0.000000000000000D+00 0.000000000000000D+00 -.440377611908142D+02
 0.547811002314495D+02 -.215392325939137D+02 0.313289859650019D+01 -.521683315982451D+01
 0.224606873057619D+02 0.178233643816834D+02 0.300608232194309D+01 0.133331776197069D+02
 0.000000000000000D+00 0.000000000000000D+00 -.000000000000000D+00 0.000000000000000D+00
 0.108337348444171D+02 0.371586821223032D+01 -.613898091844329D+01 -.811634445988238D+01
 0.956514226134503D+02 0.000000000000000D+00 0.000000000000000D+00 0.956514226134503D+02
 0.457204690914530D+02 0.000000000000000D+00 0.000000000000000D+00 -.457204690914530D+02
 0.578010570495761D+02 -.262123234453110D+02 0.112543745907670D+02 -.521683315982451D+01
 0.217207989320220D+02 0.159894672160469D+02 0.619325592508800D+01 0.133331776197069D+02
 0.520676849672919D+02 0.736272611388429D+01 -.127958572362004D+02 0.499309535219974D+02
 0.978235075601332D+01 0.286013011537978D+01 -.465177327965464D+01 -.811634445988238D+01
0.187292499236D-08 0.000000000000D+00 0.000000000000D+00 0.398871542871D-08 0.513860067613D-10  6 21 22 9900012 13 2 -1 2 0.69145068D-03 0.14969738D+00 0.22532003D+04 0.22532003D+04 0.22532003D+04 0.12828169D+01  1  2  1  3  5  1       -2 0.659619215137D-05 0.100000000000D+01
  </mgrwgt>
  </event>
  <event>
  7     66 0.18847021E-05 0.78496447E+01 0.78161638E-02 0.13275915E+00
       -4 -1    0    0    0  502 0.00000000E+00 0.00000000E+00 0.10725408E+03 0.10725408E+03 0.00000000E+00 0.0000E+00 0.9000E+01
       22 -1    0    0    0    0 0.00000000E+00 0.00000000E+00 -.33169436E+02 0.33169436E+02 0.00000000E+00 0.0000E+00 0.9000E+01
      -24  2    1    2    0    0 0.18467428E+01 -.77964150E+01 0.17723951E+02 0.82192931E+02 0.79858280E+02 0.0000E+00 0.0000E+00
  9900012  1    3    3    0    0 0.44215408E+00 0.18440097E+02 0.16887791E+02 0.55905547E+02 0.50000000E+02 0.0000E+00 0.9000E+01
       13  1    3    3    0    0 0.14045887E+01 -.26236512E+02 0.83615932E+00 0.26287384E+02 0.00000000E+00 0.0000E+00 0.9000E+01
       -3  1    1    2    0  501 -.75651408E-02 0.10905791E+00 -.65780102E+00 0.66682310E+00 0.00000000E+00 0.0000E+00 0.9000E+01
       21  1    1    2  501  502 -.18391776E+01 0.76873570E+01 0.57018497E+02 0.57563765E+02 0.00000000E+00 0.0000E+00 0.9000E+01
#aMCatNLO 2  0  0  1  5 0.36667356D+01 0.00000000D+00  -5  6  0 0.00000000D+00 0.00000000D+00 0.00000000D+00 0.00000000D+00 0.00000000D+00
  <mgrwgt>
 0.1190820723D-03    1    2    0
 0.403485048541287D+02 0.000000000000000D+00 0.000000000000000D+00 0.403485048541287D+02
 0.403485048541287D+02 0.000000000000000D+00 0.000000000000000D+00 -.403485048541287D+02
 0.555789206757716D+02 -.798759212294552D+00 0.236268407152949D+02 0.549097486959874D+01
 0.242837184655145D+02 0.825130549871726D+00 -.238145043817068D+02 -.467841032207582D+01
 0.834370566971231D+00 -.263713375771739D-01 0.187663666411898D+00 -.812564547522925D+00
 0.000000000000000D+00 -.000000000000000D+00 0.000000000000000D+00 0.000000000000000D+00
 0.870295282566853D+02 0.000000000000000D+00 0.000000000000000D+00 0.870295282566853D+02
 0.408775908943737D+02 0.000000000000000D+00 0.000000000000000D+00 -.408775908943737D+02
 0.535759598242451D+02 0.442154076403785D+00 0.184400966874710D+02 0.549097486959874D+01
 0.266873553477953D+02 0.140458867894870D+01 -.262365116385689D+02 -.467841032207582D+01
 0.819885359535751D+00 -.756514079781710D-02 0.109057909088009D+00 -.812564547522925D+00
 0.468239186194828D+02 -.183917761455467D+01 0.768735704200989D+01 0.461519373623115D+02
0.478809815735D-06 0.000000000000D+00 0.000000000000D+00 0.221568838569D-04 0.136511446272D-04  6 -4 22 9900012 13 -3 21 2 0.16500628D-01 0.51029902D-02 0.19176316D+04 0.19176316D+04 0.19176316D+04 0.12916271D+01  1  2  1  1  6  1       -4 0.119082072284D-03 0.100000000000D+01
  </mgrwgt>
  </event>
  <event>
  6     66 0.18847021E-05 0.83859989E+01 0.78161638E-02 0.13464711E+00
       -2 -1    0    0    0  501 0.00000000E+00 0.00000000E+00 0.14868901E+02 0.14868901E+02 0.00000000E+00 0.0000E+00 0.9000E+01
       22 -1    0    0    0    0 -.00000000E+00 -.00000000E+00 -.20780111E+03 0.20780111E+03 0.00000000E+00 0.0000E+00 0.9000E+01
      -24  2    1    2    0    0 0.45844831E+00 -.83734583E+01 -.97236444E+02 0.12660751E+03 0.80648684E+02 0.0000E+00 0.0000E+00
  9900012  1    3    3    0    0 0.16851272E+02 0.22382652E+01 -.40345788E+02 0.66458692E+02 0.50000000E+02 0.0000E+00 0.9000E+01
       13  1    3    3    0    0 -.16392823E+02 -.10611723E+02 -.56890656E+02 0.60148816E+02 0.00000000E+00 0.0000E+00 0.9000E+01
       -1  1    1    2    0  501 -.45844831E+00 0.83734583E+01 -.95695769E+02 0.96062507E+02 0.00000000E+00 0.0000E+00 0.9000E+01
#aMCatNLO 1  0  0  5  1 0.17077684D+01 0.00000000D+00  -5  6  0 0.00000000D+00 0.00000000D+00 0.00000000D+00 0.00000000D+00 0.00000000D+00
  <mgrwgt>
 0.2717656585D-04    8    2    0
 0.555857376342570D+02 0.000000000000000D+00 0.000000000000000D+00 0.555857376342570D+02
 0.555857376342570D+02 -.000000000000000D+00 -.000000000000000D+00 -.555857376342570D+02
 0.630949252908204D+02 0.168512718062698D+02 0.223826517438145D+01 0.345252719753888D+02
 0.217438658312569D+02 -.163928234918715D+02 -.106117234311922D+02 -.956359582332575D+01
 0.263326841464368D+02 -.458448314398274D+00 0.837345825681076D+01 -.249616761520631D+02
 0.000000000000000D+00 0.000000000000000D+00 0.000000000000000D+00 -.000000000000000D+00
 0.555857376342570D+02 0.000000000000000D+00 0.000000000000000D+00 0.555857376342570D+02
 0.555857376342570D+02 -.000000000000000D+00 -.000000000000000D+00 -.555857376342570D+02
 0.627524074754545D+02 0.168395358506550D+02 0.245261983849029D+01 0.338862705564927D+02
 0.218091432537224D+02 -.163968850493974D+02 -.105375399707395D+02 -.978474023688423D+01
 0.132496078369052D+01 -.823887007591796D+00 0.102292570694274D+01 0.174224783297772D+00
 0.252849637556466D+02 0.381236206334197D+00 0.706199442530651D+01 -.242757551029063D+02
0.924873086923D-07 0.000000000000D+00 0.000000000000D+00 0.317308025029D-06 0.000000000000D+00  6 -2 22 9900012 13 -1 21 0 0.22875233D-02 0.31969402D-01 0.16291115D+04 0.16291115D+04 0.16291115D+04 0.13007350D+01  1  2  2  2  6  5       -1 0.299398516201D-04 0.100000000000D+01
-.419739243260D-08 0.000000000000D+00 -.177587808923D-09 0.317308025029D-06 0.000000000000D+00  6 -2 22 9900012 13 -1 21 2 0.22875233D-02 0.31969402D-01 0.16291115D+04 0.16291115D+04 0.16291115D+04 0.13007350D+01  1  2  3  2  6  5       -1 -.229892478554D-05 0.100000000000D+01
0.708382517380D-08 0.000000000000D+00 0.000000000000D+00 0.317308025029D-06 0.000000000000D+00  6 -2 22 9900012 13 -1 21 2 0.22875233D-02 0.31969402D-01 0.16291115D+04 0.16291115D+04 0.16291115D+04 0.13007350D+01  1  2 15  2  6  5       -1 0.387983290340D-05 0.100000000000D+01
0.686599080343D-11 0.000000000000D+00 0.000000000000D+00 0.317308025029D-06 0.000000000000D+00  6 -2 22 9900012 13 -1 21 2 0.22875233D-02 0.31969402D-01 0.16278489D+04 0.16278489D+04 0.16278489D+04 0.13007788D+01  1  2 12  2  6  5       -1 0.376036933923D-08 0.100000000000D+01
-.311713532845D-07 0.000000000000D+00 0.000000000000D+00 0.317308025029D-06 0.000000000000D+00  6 -2 22 9900012 13 -1 21 2 0.22875233D-02 0.31969402D-01 0.16291115D+04 0.16291115D+04 0.16291115D+04 0.13007350D+01  1  2  4  2  6  5       -1 -.170726463668D-04 0.100000000000D+01
-.120587872605D-07 0.000000000000D+00 0.000000000000D+00 0.317308025029D-06 0.000000000000D+00  6 -2 22 9900012 13 -1 21 2 0.22875233D-02 0.31969402D-01 0.16291115D+04 0.16291115D+04 0.16291115D+04 0.13007350D+01  1  2  5  2  6  5       -1 -.660463498756D-05 0.100000000000D+01
0.253272829056D-07 0.000000000000D+00 -.000000000000D+00 0.317308025029D-06 0.000000000000D+00  6 -2 22 9900012 13 -1 21 2 0.22875233D-02 0.31969402D-01 0.16291115D+04 0.16291115D+04 0.16291115D+04 0.13007350D+01  1  2  6  2  6  5       -1 0.138718309896D-04 0.100000000000D+01
0.996474407961D-08 0.000000000000D+00 0.000000000000D+00 0.317308025029D-06 0.158566164524D-07  6 -2 22 9900012 13 -1 21 2 0.22875233D-02 0.31969402D-01 0.16278489D+04 0.16278489D+04 0.16278489D+04 0.13007788D+01  1  2 11  2  6  5       -1 0.545749611134D-05 0.100000000000D+01
  </mgrwgt>
  </event>
  <event>
  6     66 0.18847021E-05 0.60859705E+01 0.78161638E-02 0.13972960E+00
       -2 -1    0    0    0  501 0.00000000E+00 0.00000000E+00 0.71633124E+03 0.71633124E+03 0.00000000E+00 0.0000E+00 0.9000E+01
       22 -1    0    0    0    0 0.00000000E+00 0.00000000E+00 -.33010535E+01 0.33010535E+01 0.00000000E+00 0.0000E+00 0.9000E+01
      -24  2    1    2    0    0 -.49086911E+01 0.35977476E+01 0.70439324E+03 0.70906650E+03 0.81045875E+02 0.0000E+00 0.0000E+00
  9900012  1    3    3    0    0 -.80665517E+01 -.46572305E+01 0.69187889E+03 0.69374575E+03 0.50000000E+02 0.0000E+00 0.9000E+01
       13  1    3    3    0    0 0.31578605E+01 0.82549781E+01 0.12514344E+02 0.15320756E+02 0.00000000E+00 0.0000E+00 0.9000E+01
       -1  1    1    2    0  501 0.49086911E+01 -.35977476E+01 0.86369491E+01 0.10565790E+02 0.00000000E+00 0.0000E+00 0.9000E+01
#aMCatNLO 1  0  0  5  1 0.24349623D+01 0.00000000D+00  -5  6  0 0.00000000D+00 0.00000000D+00 0.00000000D+00 0.00000000D+00 0.00000000D+00
  <mgrwgt>
 0.2824455164D+00    8    2    0
 0.486276436750478D+02 0.000000000000000D+00 0.000000000000000D+00 0.486276436750478D+02
 0.486276436750478D+02 -.000000000000000D+00 -.000000000000000D+00 -.486276436750478D+02
 0.607813427318866D+02 -.806655168147593D+01 -.465723051107403D+01 0.332808138756831D+02
 0.216153330504297D+02 0.315786054534632D+01 0.825497812018010D+01 -.197257668011282D+02
 0.148586115677793D+02 0.490869113612961D+01 -.359774760910607D+01 -.135550470745549D+02
 0.000000000000000D+00 0.000000000000000D+00 -.000000000000000D+00 0.000000000000000D+00
 0.486276436750478D+02 0.000000000000000D+00 0.000000000000000D+00 0.486276436750478D+02
 0.486276436750478D+02 -.000000000000000D+00 -.000000000000000D+00 -.486276436750478D+02
 0.605036674438330D+02 -.789068883264351D+01 -.478612640742824D+01 0.327951794919992D+02
 0.217657474853961D+02 0.322076296335664D+01 0.820887478678071D+01 -.198994679392905D+02
 0.595899286060794D+01 0.133611358621157D-01 -.475787284803686D-02 -.595897598211898D+01
 0.902687956025860D+01 0.465656473342476D+01 -.341799050650443D+01 -.693673557058973D+01
0.185723083429D-07 0.000000000000D+00 0.000000000000D+00 0.317807129746D-06 0.000000000000D+00  6 -2 22 9900012 13 -1 21 0 0.11020481D+00 0.50785438D-03 0.10819011D+04 0.10819011D+04 0.10819011D+04 0.13244978D+01  1  2  2  2  6  5       -1 0.286491219322D-05 0.100000000000D+01
-.312302245620D-09 0.000000000000D+00 -.356612771190D-10 0.317807129746D-06 0.000000000000D+00  6 -2 22 9900012 13 -1 21 2 0.11020481D+00 0.50785438D-03 0.10819011D+04 0.10819011D+04 0.10819011D+04 0.13244978D+01  1  2  3  2  6  5       -1 -.845128981585D-07 0.100000000000D+01
0.486363581249D-09 0.000000000000D+00 0.000000000000D+00 0.317807129746D-06 0.000000000000D+00  6 -2 22 9900012 13 -1 21 2 0.11020481D+00 0.50785438D-03 0.10819011D+04 0.10819011D+04 0.10819011D+04 0.13244978D+01  1  2 15  2  6  5       -1 0.131616075089D-06 0.100000000000D+01
0.770573736471D-10 0.000000000000D+00 0.000000000000D+00 0.317807129746D-06 0.000000000000D+00  6 -2 22 9900012 13 -1 21 2 0.11020481D+00 0.50785438D-03 0.10710305D+04 0.10710305D+04 0.10710305D+04 0.13251015D+01  1  2 12  2  6  5       -1 0.208486004212D-07 0.100000000000D+01
-.521230399743D-07 0.000000000000D+00 0.000000000000D+00 0.317807129746D-06 0.000000000000D+00  6 -2 22 9900012 13 -1 21 2 0.11020481D+00 0.50785438D-03 0.10819011D+04 0.10819011D+04 0.10819011D+04 0.13244978D+01  1  2  4  2  6  5       -1 -.141051472759D-04 0.100000000000D+01
-.176326145495D-07 0.000000000000D+00 0.000000000000D+00 0.317807129746D-06 0.000000000000D+00  6 -2 22 9900012 13 -1 21 2 0.11020481D+00 0.50785438D-03 0.10819011D+04 0.10819011D+04 0.10819011D+04 0.13244978D+01  1  2  5  2  6  5       -1 -.477160628394D-05 0.100000000000D+01
0.397004179783D-07 0.000000000000D+00 -.000000000000D+00 0.317807129746D-06 0.000000000000D+00  6 -2 22 9900012 13 -1 21 2 0.11020481D+00 0.50785438D-03 0.10819011D+04 0.10819011D+04 0.10819011D+04 0.13244978D+01  1  2  6  2  6  5       -1 0.107434302139D-04 0.100000000000D+01
0.104395067227D-02 0.000000000000D+00 0.000000000000D+00 0.317807129746D-06 0.665841637973D-02  6 -2 22 9900012 13 -1 21 2 0.11020481D+00 0.50785438D-03 0.10710305D+04 0.10710305D+04 0.10710305D+04 0.13251015D+01  1  2 11  2  6  5       -1 0.282450716857D+00 0.100000000000D+01
  </mgrwgt>
  </event>
  <event>
  6     66 0.18847021E-05 0.69102825E+02 0.78161638E-02 0.10319774E+00
       -2 -1    0    0    0  501 0.00000000E+00 0.00000000E+00 0.56264983E+03 0.56264983E+03 0.00000000E+00 0.0000E+00 0.9000E+01
       22 -1    0    0    0    0 0.00000000E+00 0.00000000E+00 -.38123560E+02 0.38123560E+02 0.00000000E+00 0.0000E+00 0.9000E+01
      -24  2    1    2    0    0 -.38921916E+02 0.57098904E+02 0.44042665E+02 0.11534606E+03 0.81177314E+02 0.0000E+00 0.0000E+00
  9900012  1    3    3    0    0 -.16892801E+02 0.95494301E+01 0.16326274E+02 0.56063407E+02 0.50000000E+02 0.0000E+00 0.9000E+01
       13  1    3    3    0    0 -.22029115E+02 0.47549474E+02 0.27716391E+02 0.59282651E+02 0.00000000E+00 0.0000E+00 0.9000E+01
       -1  1    1    2    0  501 0.38921916E+02 -.57098904E+02 0.48048361E+03 0.48542734E+03 0.00000000E+00 0.0000E+00 0.9000E+01
#aMCatNLO 1  0  0  1  5 0.99287696D+01 0.00000000D+00  -5  6  0 0.00000000D+00 0.00000000D+00 0.00000000D+00 0.00000000D+00 0.00000000D+00
  <mgrwgt>
 0.1038559807D-04    5    4    0
 0.146458917900183D+03 0.000000000000000D+00 0.000000000000000D+00 0.146458917900183D+03
 0.146458917900183D+03 0.000000000000000D+00 0.000000000000000D+00 -.146458917900183D+03
 0.857504739638843D+02 -.168928011008001D+02 0.954943013792673D+01 -.669072898871301D+02
 0.719569161562709D+02 -.220291146560367D+02 0.475494740986023D+02 -.493108852398549D+02
 0.135210445680211D+03 0.389219157568368D+02 -.570989042365290D+02 0.116218175126985D+03
 0.000000000000000D+00 0.000000000000000D+00 0.000000000000000D+00 0.000000000000000D+00
 0.364010679518708D+03 0.000000000000000D+00 0.000000000000000D+00 0.364010679518708D+03
 0.236958053489556D+03 0.000000000000000D+00 0.000000000000000D+00 -.236958053489556D+03
 0.115316379005656D+03 -.794572828355369D+02 -.279678946814297D+01 -.669072898871301D+02
 0.968027394109417D+02 -.745408053318480D+02 0.371870312717225D+02 -.493108852398549D+02
 0.146320416903371D+03 -.486799552116391D+02 -.743859000988937D+02 0.116218175126985D+03
 0.242529197688296D+03 0.202678043379024D+03 0.399956582953141D+02 0.127052626029152D+03
 0.146458917900183D+03 0.000000000000000D+00 0.000000000000000D+00 0.146458917900183D+03
 0.146458917900183D+03 0.000000000000000D+00 0.000000000000000D+00 -.146458917900183D+03
 0.857504739638843D+02 -.168928011008001D+02 0.954943013792673D+01 -.669072898871301D+02
 0.719569161562709D+02 -.220291146560367D+02 0.475494740986023D+02 -.493108852398549D+02
 0.000000000000000D+00 0.000000000000000D+00 0.000000000000000D+00 0.000000000000000D+00
 0.135210445680211D+03 0.389219157568368D+02 -.570989042365290D+02 0.116218175126985D+03
 0.364010679518708D+03 0.000000000000000D+00 0.000000000000000D+00 0.364010679518708D+03
 0.236958053489556D+03 0.000000000000000D+00 0.000000000000000D+00 -.236958053489556D+03
 0.115316379005656D+03 -.794572828355369D+02 -.279678946814297D+01 -.669072898871301D+02
 0.968027394109417D+02 -.745408053318480D+02 0.371870312717225D+02 -.493108852398549D+02
 0.242529197688296D+03 0.202678043379024D+03 0.399956582953141D+02 0.127052626029152D+03
 0.146320416903371D+03 -.486799552116391D+02 -.743859000988937D+02 0.116218175126985D+03
0.845817157233D-06 0.000000000000D+00 0.000000000000D+00 0.159579882368D-05 0.000000000000D+00  6 -2 22 9900012 13 -1 21 0 0.86561513D-01 0.58651631D-02 0.76685843D+04 0.76685843D+04 0.76685843D+04 0.12214714D+01  1  2  2  1  6  1       -2 0.103836411408D-04 0.100000000000D+01
0.122741479924D-07 0.000000000000D+00 -.162408029627D-08 0.159579882368D-05 0.000000000000D+00  6 -2 22 9900012 13 -1 21 2 0.86561513D-01 0.58651631D-02 0.76685843D+04 0.76685843D+04 0.76685843D+04 0.12214714D+01  1  2  3  1  6  1       -2 0.224818022359D-06 0.100000000000D+01
-.302426259723D-07 0.000000000000D+00 0.000000000000D+00 0.159579882368D-05 0.000000000000D+00  6 -2 22 9900012 13 -1 21 2 0.86561513D-01 0.58651631D-02 0.76685843D+04 0.76685843D+04 0.76685843D+04 0.12214714D+01  1  2 15  1  6  1       -2 -.553935586098D-06 0.100000000000D+01
0.209364974568D-06 0.000000000000D+00 -.190966526470D-06 0.159579882368D-05 0.000000000000D+00  6 -2 22 9900012 13 -1 21 2 0.28559051D+00 0.58651631D-02 0.76685843D+04 0.76685843D+04 0.76685843D+04 0.12214714D+01  1  2  5  1  6  1       -2 0.120556679903D-06 0.100000000000D+01
0.365089822481D-07 0.000000000000D+00 -.263982191939D-07 0.159579882368D-05 0.000000000000D+00  6 21 22 9900012 13 2 -1 2 0.28559051D+00 0.58651631D-02 0.76685843D+04 0.76685843D+04 0.76685843D+04 0.12214714D+01  3  4  5  3  5  1       -2 0.210517814051D-06 0.100000000000D+01
  </mgrwgt>
  </event>
  <event>
  6     66 0.18847021E-05 0.29340074E+02 0.78161638E-02 0.11628260E+00
       -4 -1    0    0    0  501 0.00000000E+00 0.00000000E+00 0.92660922E+02 0.92660922E+02 0.00000000E+00 0.0000E+00 0.9000E+01
       22 -1    0    0    0    0 -.00000000E+00 -.00000000E+00 -.14073172E+03 0.14073172E+03 0.00000000E+00 0.0000E+00 0.9000E+01
      -24  2    1    2    0    0 0.69619470E+02 0.62940020E+02 -.55554207E+02 0.13924214E+03 0.86566656E+02 0.0000E+00 0.0000E+00
  9900012  1    3    3    0    0 0.56856727E+02 0.49914908E+02 -.11313236E+02 0.91390233E+02 0.50000000E+02 0.0000E+00 0.9000E+01
       13  1    3    3    0    0 0.12762743E+02 0.13025112E+02 -.44240970E+02 0.47851903E+02 0.00000000E+00 0.0000E+00 0.9000E+01
       -3  1    1    2    0  501 -.69619470E+02 -.62940020E+02 0.74834067E+01 0.94150507E+02 0.00000000E+00 0.0000E+00 0.9000E+01
#aMCatNLO 1  0  0  5  1 0.11883251D+02 0.00000000D+00  -5  6  0 0.00000000D+00 0.00000000D+00 0.00000000D+00 0.00000000D+00 0.00000000D+00
  <mgrwgt>
 0.1046277565D-04    7    2    0
 0.114194268949981D+03 0.000000000000000D+00 0.000000000000000D+00 0.114194268949981D+03
 0.114194268949981D+03 -.000000000000000D+00 -.000000000000000D+00 -.114194268949981D+03
 0.910114491160179D+02 0.568567268545236D+02 0.499149077677206D+02 0.767453347947368D+01
 0.395886035266047D+02 0.127627429460508D+02 0.130251121060998D+02 -.351385312200618D+02
 0.977884852573401D+02 -.696194698005744D+02 -.629400198738204D+02 0.274639977405881D+02
 0.000000000000000D+00 -.000000000000000D+00 0.000000000000000D+00 0.000000000000000D+00
 0.114194268949981D+03 0.000000000000000D+00 0.000000000000000D+00 0.114194268949981D+03
 0.114194268949981D+03 -.000000000000000D+00 -.000000000000000D+00 -.114194268949981D+03
 0.898083045490316D+02 0.557451629048875D+02 0.489099897859904D+02 0.811303135785127D+01
 0.391223560576455D+02 0.122788784160881D+02 0.125876706372215D+02 -.349476528006238D+02
 0.750495345648916D+02 -.451027780664193D+02 -.531621211473415D+02 0.277841847858377D+02
 0.244083427283940D+02 -.229212632545563D+02 -.833553927587046D+01 -.949563343065194D+00
0.914318338543D-07 0.000000000000D+00 0.000000000000D+00 0.174170585257D-07 0.000000000000D+00  6 -4 22 9900012 13 -3 21 0 0.14255526D-01 0.21651034D-01 0.10279490D+05 0.10279490D+05 0.10279490D+05 0.12080911D+01  1  2  2  2  6  5       -3 0.282024765599D-05 0.100000000000D+01
-.310998816730D-08 0.000000000000D+00 -.175561158278D-09 0.174170585257D-07 0.000000000000D+00  6 -4 22 9900012 13 -3 21 2 0.14255526D-01 0.21651034D-01 0.10279490D+05 0.10279490D+05 0.10279490D+05 0.12080911D+01  1  2  3  2  6  5       -3 -.140006421368D-06 0.100000000000D+01
0.225507282239D-09 0.000000000000D+00 0.000000000000D+00 0.174170585257D-07 0.000000000000D+00  6 -4 22 9900012 13 -3 21 2 0.14255526D-01 0.21651034D-01 0.10279490D+05 0.10279490D+05 0.10279490D+05 0.12080911D+01  1  2 15  2  6  5       -3 0.101519574611D-07 0.100000000000D+01
0.324731909032D-06 0.000000000000D+00 0.000000000000D+00 0.174170585257D-07 0.000000000000D+00  6 -4 22 9900012 13 -3 21 2 0.14255526D-01 0.21651034D-01 0.10113592D+05 0.10113592D+05 0.10113592D+05 0.12088218D+01  1  2 12  2  6  5       -3 0.146101444787D-04 0.100000000000D+01
-.240313190448D-06 0.000000000000D+00 0.000000000000D+00 0.174170585257D-07 0.000000000000D+00  6 -4 22 9900012 13 -3 21 2 0.14255526D-01 0.21651034D-01 0.10279490D+05 0.10279490D+05 0.10279490D+05 0.12080911D+01  1  2  4  2  6  5       -3 -.108184944740D-04 0.100000000000D+01
-.316353117656D-06 0.000000000000D+00 0.000000000000D+00 0.174170585257D-07 0.000000000000D+00  6 -4 22 9900012 13 -3 21 2 0.14255526D-01 0.21651034D-01 0.10279490D+05 0.10279490D+05 0.10279490D+05 0.12080911D+01  1  2  5  2  6  5       -3 -.142416837329D-04 0.100000000000D+01
0.404777853557D-06 0.000000000000D+00 -.000000000000D+00 0.174170585257D-07 0.000000000000D+00  6 -4 22 9900012 13 -3 21 2 0.14255526D-01 0.21651034D-01 0.10279490D+05 0.10279490D+05 0.10279490D+05 0.12080911D+01  1  2  6  2  6  5       -3 0.182224161885D-04 0.100000000000D+01
  </mgrwgt>
  </event>
  <event>
  7     66 0.18847021E-05 0.23408866E+02 0.78161638E-02 0.12803669E+00
       -2 -1    0    0    0  502 0.00000000E+00 0.00000000E+00 0.14546878E+02 0.14546878E+02 0.00000000E+00 0.0000E+00 0.9000E+01
       22 -1    0    0    0    0 0.00000000E+00 0.00000000E+00 -.63446510E+03 0.63446510E+03 0.00000000E+00 0.0000E+00 0.9000E+01
      -24  2    1    2    0    0 0.22868169E+02 -.35332841E+00 -.24946379E+03 0.26266678E+03 0.78984658E+02 0.0000E+00 0.0000E+00
  9900012  1    3    3    0    0 0.10997030E+02 -.23411132E+02 -.17138477E+03 0.18039333E+03 0.50000000E+02 0.0000E+00 0.9000E+01
       13  1    3    3    0    0 0.11871139E+02 0.23057804E+02 -.78079028E+02 0.82273452E+02 0.00000000E+00 0.0000E+00 0.9000E+01
       -1  1    1    2    0  501 0.14951025E+01 -.13750366E+01 -.35961964E+03 0.35962537E+03 0.00000000E+00 0.0000E+00 0.9000E+01
       21  1    1    2  501  502 -.24363272E+02 0.17283650E+01 -.10834794E+02 0.26719824E+02 0.00000000E+00 0.0000E+00 0.9000E+01
#aMCatNLO 2  0  0  1  5 0.25077728D+02 0.00000000D+00  -5  6  0 0.00000000D+00 0.00000000D+00 0.00000000D+00 0.00000000D+00 0.00000000D+00
  <mgrwgt>
 0.4486204502D-05    1    2    0
 0.625866310827385D+02 0.000000000000000D+00 0.000000000000000D+00 0.625866310827385D+02
 0.625866310827385D+02 0.000000000000000D+00 0.000000000000000D+00 -.625866310827385D+02
 0.604070449902705D+02 -.775872667234757D+00 -.225759459098708D+02 0.252732224367094D+02
 0.270993496140694D+02 0.650574208909867D+01 0.234384327565669D+02 0.119452894184939D+02
 0.376668675611372D+02 -.572986942186391D+01 -.862486846696055D+00 -.372185118552034D+02
 0.000000000000000D+00 -.000000000000000D+00 0.000000000000000D+00 0.000000000000000D+00
 0.140454161889680D+03 0.000000000000000D+00 0.000000000000000D+00 0.140454161889680D+03
 0.657117334027552D+02 0.000000000000000D+00 0.000000000000000D+00 -.657117334027552D+02
 0.617069815162544D+02 0.109970304651870D+02 -.234111323190425D+02 0.252732224367094D+02
 0.285530418757037D+02 0.118711389467783D+02 0.230578039103985D+02 0.119452894184939D+02
 0.372739008105991D+02 0.149510245032775D+01 -.137503657605584D+01 -.372185118552034D+02
 0.786319710898779D+02 -.243632718622931D+02 0.172836498469980D+01 0.747424284869247D+02
0.513048738730D-07 0.000000000000D+00 0.000000000000D+00 0.349428968791D-06 0.506926950421D-07  6 -2 22 9900012 13 -1 21 2 0.22379812D-02 0.97610016D-01 0.29530557D+04 0.29530557D+04 0.29530557D+04 0.12684465D+01  1  2  1  1  6  1       -2 0.448620450206D-05 0.100000000000D+01
  </mgrwgt>
  </event>
  <event>
  7     66 0.18847021E-05 0.17312659E+02 0.78161638E-02 0.12523451E+00
       21 -1    0    0  502  501 0.00000000E+00 0.00000000E+00 0.10445758E+02 0.10445758E+02 0.00000000E+00 0.0000E+00 0.9000E+01
       22 -1    0    0    0    0 0.00000000E+00 0.00000000E+00 -.49412828E+03 0.49412828E+03 0.00000000E+00 0.0000E+00 0.9000E+01
      -24  2    1    2    0    0 -.92747693E+01 -.19671397E+02 -.19659593E+03 0.21245392E+03 0.77548207E+02 0.0000E+00 0.0000E+00
  9900012  1    3    3    0    0 -.16310476E+02 0.68409184E+01 -.13383781E+03 0.14396315E+03 0.50000000E+02 0.0000E+00 0.9000E+01
       13  1    3    3    0    0 0.70357071E+01 -.26512315E+02 -.62758115E+02 0.68490766E+02 0.00000000E+00 0.0000E+00 0.9000E+01
        2  1    1    2  502    0 0.16990577E+02 -.53936157E+01 -.41892725E+02 0.45527697E+02 0.00000000E+00 0.0000E+00 0.9000E+01
       -1  1    1    2    0  501 -.77158079E+01 0.25065012E+02 -.24519387E+03 0.24659242E+03 0.00000000E+00 0.0000E+00 0.9000E+01
#aMCatNLO 2  0  0  1  5 0.21893559D+02 0.00000000D+00  -5  6  0 0.00000000D+00 0.00000000D+00 0.00000000D+00 0.00000000D+00 0.00000000D+00
  <mgrwgt>
 0.3928675631D-05    2    2    0
 0.616999760528573D+02 0.000000000000000D+00 0.000000000000000D+00 0.616999760528573D+02
 0.616999760528573D+02 0.000000000000000D+00 0.000000000000000D+00 -.616999760528573D+02
 0.538376035057193D+02 -.880139572778684D+01 0.445717973087108D+01 0.173538622020760D+02
 0.322291746132620D+02 0.112834442887513D+02 -.278607483858463D+02 0.116267915013273D+02
 0.000000000000000D+00 0.000000000000000D+00 -.000000000000000D+00 0.000000000000000D+00
 0.373331739867335D+02 -.248204856096442D+01 0.234035686549752D+02 -.289806537034034D+02
 0.754720172789279D+02 0.000000000000000D+00 0.000000000000000D+00 0.754720172789279D+02
 0.683901772352795D+02 0.000000000000000D+00 0.000000000000000D+00 -.683901772352795D+02
 0.558031033081481D+02 -.163104764208204D+02 0.684091838988486D+01 0.173538622020760D+02
 0.297923866092540D+02 0.703570709823463D+01 -.265123149665918D+02 0.116267915013273D+02
 0.191813259480403D+02 0.169905772678176D+02 -.539361574710894D+01 0.708184004364843D+01
 0.390853786487650D+02 -.771580794523185D+01 0.250650123238159D+02 -.289806537034034D+02
-.558617953978D-09 0.000000000000D+00 0.000000000000D+00 0.569530474251D-08 0.000000000000D+00  6 21 22 9900012 13 2 -1 2 0.17812930D-02 0.68583180D-01 0.38761801D+04 0.38761801D+04 0.38761801D+04 0.12544893D+01  1  2 13  3  5  1       -2 -.232686118246D-05 0.100000000000D+01
0.154688380073D-08 0.000000000000D+00 0.000000000000D+00 0.569530474251D-08 0.105258674395D-10  6 21 22 9900012 13 2 -1 2 0.16070398D-02 0.76019735D-01 0.38761801D+04 0.38761801D+04 0.38761801D+04 0.12544893D+01  1  2  1  3  5  1       -2 0.625553681314D-05 0.100000000000D+01
  </mgrwgt>
  </event>
  <event>
  6     66 0.18847021E-05 0.53017503E+01 0.78161638E-02 0.13548203E+00
       -4 -1    0    0    0  501 0.00000000E+00 0.00000000E+00 0.10047554E+02 0.10047554E+02 0.00000000E+00 0.0000E+00 0.9000E+01
       22 -1    0    0    0    0 0.00000000E+00 0.00000000E+00 -.66655392E+03 0.66655392E+03 0.00000000E+00 0.0000E+00 0.9000E+01
      -24  2    1    2    0    0 -.61439989E+00 -.52660297E+01 -.14581518E+03 0.16588276E+03 0.78910821E+02 0.0000E+00 0.0000E+00
  9900012  1    3    3    0    0 0.17457400E+02 0.16659956E+01 -.70925789E+02 0.88532502E+02 0.50000000E+02 0.0000E+00 0.9000E+01
       13  1    3    3    0    0 -.18071800E+02 -.69320253E+01 -.74889387E+02 0.77350263E+02 0.00000000E+00 0.0000E+00 0.9000E+01
       -3  1    1    2    0  501 0.61439989E+00 0.52660297E+01 -.51069119E+03 0.51071871E+03 0.00000000E+00 0.0000E+00 0.9000E+01
#aMCatNLO 1  0  0  1  5 0.30001871D+00 0.00000000D+00  -5  6  0 0.00000000D+00 0.00000000D+00 0.00000000D+00 0.00000000D+00 0.00000000D+00
  <mgrwgt>
 0.1037489242D-04    9    4    0
 0.818366464909031D+02 0.000000000000000D+00 0.000000000000000D+00 0.818366464909031D+02
 0.818366464909031D+02 0.000000000000000D+00 0.000000000000000D+00 -.818366464909031D+02
 0.814915442357922D+02 0.174574004287581D+02 0.166599561722106D+01 0.619139355138040D+02
 0.193675022829537D+02 -.180718003236341D+02 -.693202533003548D+01 0.676167558127434D+00
 0.628142464630602D+02 0.614399894875993D+00 0.526602971281442D+01 -.625901030719314D+02
 0.000000000000000D+00 -.000000000000000D+00 0.000000000000000D+00 0.000000000000000D+00
 0.843180206424767D+02 0.000000000000000D+00 0.000000000000000D+00 0.843180206424767D+02
 0.818458187559806D+02 0.000000000000000D+00 0.000000000000000D+00 -.818458187559806D+02
 0.815090940407436D+02 0.175498596650303D+02 0.154900815783445D+01 0.619139355138040D+02
 0.193569832611081D+02 -.180498345424182D+02 -.695981834500618D+01 0.676167558127434D+00
 0.628074896242923D+02 0.685656608350446D+00 0.517586952752936D+01 -.625901030719314D+02
 0.249027247231329D+01 -.185681730962570D+00 0.234940659642372D+00 0.247220188649610D+01
 0.818366464909031D+02 0.000000000000000D+00 0.000000000000000D+00 0.818366464909031D+02
 0.818366464909031D+02 0.000000000000000D+00 0.000000000000000D+00 -.818366464909031D+02
 0.814915442357922D+02 0.174574004287581D+02 0.166599561722106D+01 0.619139355138040D+02
 0.193675022829537D+02 -.180718003236341D+02 -.693202533003548D+01 0.676167558127434D+00
 0.000000000000000D+00 -.000000000000000D+00 0.000000000000000D+00 0.000000000000000D+00
 0.628142464630602D+02 0.614399894875993D+00 0.526602971281442D+01 -.625901030719314D+02
 0.843180206424767D+02 0.000000000000000D+00 0.000000000000000D+00 0.843180206424767D+02
 0.818458187559806D+02 0.000000000000000D+00 0.000000000000000D+00 -.818458187559806D+02
 0.815090940407436D+02 0.175498596650303D+02 0.154900815783445D+01 0.619139355138040D+02
 0.193569832611081D+02 -.180498345424182D+02 -.695981834500618D+01 0.676167558127434D+00
 0.249027247231329D+01 -.185681730962570D+00 0.234940659642372D+00 0.247220188649610D+01
 0.628074896242923D+02 0.685656608350446D+00 0.517586952752936D+01 -.625901030719314D+02
0.101874926228D-07 0.000000000000D+00 0.000000000000D+00 0.215262113890D-05 0.000000000000D+00  6 -4 22 9900012 13 -3 21 0 0.15457776D-02 0.10254676D+00 0.15071336D+04 0.15071336D+04 0.15071336D+04 0.13051504D+01  1  2  2  1  6  1       -4 0.544953916832D-06 0.100000000000D+01
-.443575214505D-09 0.000000000000D+00 -.195613270499D-10 0.215262113890D-05 0.000000000000D+00  6 -4 22 9900012 13 -3 21 2 0.15457776D-02 0.10254676D+00 0.15071336D+04 0.15071336D+04 0.15071336D+04 0.13051504D+01  1  2  3  1  6  1       -4 -.404185630690D-07 0.100000000000D+01
0.723409655758D-09 0.000000000000D+00 0.000000000000D+00 0.215262113890D-05 0.000000000000D+00  6 -4 22 9900012 13 -3 21 2 0.15457776D-02 0.10254676D+00 0.15071336D+04 0.15071336D+04 0.15071336D+04 0.13051504D+01  1  2 15  1  6  1       -4 0.659170707466D-07 0.100000000000D+01
-.444153760506D-05 0.000000000000D+00 0.000000000000D+00 0.215262113890D-05 0.000000000000D+00  6 -4 22 9900012 13 -3 21 2 0.15457776D-02 0.10254676D+00 0.15071336D+04 0.15071336D+04 0.15071336D+04 0.13051504D+01  1  2  4  1  6  1       -4 -.404712801669D-03 0.100000000000D+01
-.457158861026D-05 0.000000000000D+00 -.329808715914D-07 0.215262113890D-05 0.000000000000D+00  6 -4 22 9900012 13 -3 21 2 0.15927777D-02 0.10254676D+00 0.15071336D+04 0.15071336D+04 0.15071336D+04 0.13051504D+01  1  2  5  1  6  1       -4 -.399109039713D-03 0.100000000000D+01
0.457054088395D-05 0.000000000000D+00 0.329660828227D-07 0.215262113890D-05 0.000000000000D+00  6 -4 22 9900012 13 -3 21 2 0.15457776D-02 0.10254676D+00 0.15071336D+04 0.15071336D+04 0.15071336D+04 0.13051504D+01  1  2  6  1  6  1       -4 0.416467577396D-03 0.100000000000D+01
0.454514420842D-05 0.000000000000D+00 0.000000000000D+00 0.215262113890D-05 0.223868393238D-03  6 -4 22 9900012 13 -3 21 2 0.15926472D-02 0.10255825D+00 0.15162805D+04 0.15162805D+04 0.15162805D+04 0.13048055D+01  1  2 11  1  6  1       -4 0.396979208936D-03 0.100000000000D+01
-.245482801321D-07 0.000000000000D+00 -.177176062659D-09 0.215262113890D-05 0.000000000000D+00  6 21 22 9900012 13 4 -3 2 0.15927777D-02 0.10254676D+00 0.15071336D+04 0.15071336D+04 0.15071336D+04 0.13051504D+01  3  4  5  3  5  1       -4 -.546835521464D-04 0.100000000000D+01
0.246219625151D-07 0.000000000000D+00 0.000000000000D+00 0.215262113890D-05 0.121232467884D-05  6 21 22 9900012 13 4 -3 2 0.15926472D-02 0.10255825D+00 0.15162805D+04 0.15162805D+04 0.15162805D+04 0.13048055D+01  3  4 11  3  5  1       -4 0.548630471876D-04 0.100000000000D+01
  </mgrwgt>
  </event>
  <event>
  6     66 0.18847021E-05 0.19311054E+02 0.78161638E-02 0.13209333E+00
       -2 -1    0    0    0  501 0.00000000E+00 0.00000000E+00 0.41760928E+03 0.41760928E+03 0.00000000E+00 0.0000E+00 0.9000E+01
       22 -1    0    0    0    0 0.00000000E+00 0.00000000E+00 -.59131341E+01 0.59131341E+01 0.00000000E+00 0.0000E+00 0.9000E+01
      -24  2    1    2    0    0 0.13333438E+02 -.13969117E+02 0.32178131E+03 0.33155723E+03 0.77550439E+02 0.0000E+00 0.0000E+00
  9900012  1    3    3    0    0 0.17969451E+02 -.25913400E+02 0.30368223E+03 0.30938213E+03 0.50000000E+02 0.0000E+00 0.9000E+01
       13  1    3    3    0    0 -.46360132E+01 0.11944283E+02 0.18099081E+02 0.22175104E+02 0.00000000E+00 0.0000E+00 0.9000E+01
       -1  1    1    2    0  501 -.13333438E+02 0.13969117E+02 0.89914839E+02 0.91965184E+02 0.00000000E+00 0.0000E+00 0.9000E+01
#aMCatNLO 1  0  0  5  1 0.14648825D+01 0.00000000D+00  -5  6  0 0.00000000D+00 0.00000000D+00 0.00000000D+00 0.00000000D+00 0.00000000D+00
  <mgrwgt>
 0.2159048210D-02    6    2    0
 0.496928536583071D+02 0.000000000000000D+00 0.000000000000000D+00 0.496928536583071D+02
 0.496928536583071D+02 -.000000000000000D+00 -.000000000000000D+00 -.496928536583071D+02
 0.604258205177266D+02 0.179694513849964D+02 -.259134004457268D+02 0.125249462873964D+02
 0.195232476773350D+02 -.463601315172182D+01 0.119442829862461D+02 -.147308752581814D+02
 0.194366391215526D+02 -.133334382332746D+02 0.139691174594807D+02 0.220592897078500D+01
 0.000000000000000D+00 0.000000000000000D+00 -.000000000000000D+00 0.000000000000000D+00
 0.496928536583071D+02 0.000000000000000D+00 0.000000000000000D+00 0.496928536583071D+02
 0.496928536583071D+02 -.000000000000000D+00 -.000000000000000D+00 -.496928536583071D+02
 0.600857168154663D+02 0.174876459350024D+02 -.254086246477793D+02 0.126046578052982D+02
 0.196422201670429D+02 -.479259679737572D+01 0.121083318459704D+02 -.147049695319721D+02
 0.101177650120084D+01 0.316737863763755D-01 0.328542926308469D-01 -.101074678089748D+01
 0.186459938329042D+02 -.127267229240031D+02 0.132674385091781D+02 0.311105850757146D+01
0.359672458743D-07 0.000000000000D+00 0.000000000000D+00 0.197796089673D-07 0.000000000000D+00  6 -2 22 9900012 13 -1 21 0 0.64247582D-01 0.90971294D-03 0.20810469D+04 0.20810469D+04 0.20810469D+04 0.12871351D+01  1  2  2  2  6  5       -1 0.895387176129D-05 0.100000000000D+01
0.161507240503D-09 0.000000000000D+00 -.690618472753D-10 0.197796089673D-07 0.000000000000D+00  6 -2 22 9900012 13 -1 21 2 0.64247582D-01 0.90971294D-03 0.20810469D+04 0.20810469D+04 0.20810469D+04 0.12871351D+01  1  2  3  2  6  5       -1 0.666106902532D-07 0.100000000000D+01
-.352004778486D-09 0.000000000000D+00 0.000000000000D+00 0.197796089673D-07 0.000000000000D+00  6 -2 22 9900012 13 -1 21 2 0.64247582D-01 0.90971294D-03 0.20810469D+04 0.20810469D+04 0.20810469D+04 0.12871351D+01  1  2 15  2  6  5       -1 -.145177895395D-06 0.100000000000D+01
0.775471549590D-12 0.000000000000D+00 0.000000000000D+00 0.197796089673D-07 0.000000000000D+00  6 -2 22 9900012 13 -1 21 2 0.64247582D-01 0.90971294D-03 0.20340699D+04 0.20340699D+04 0.20340699D+04 0.12883841D+01  1  2 12  2  6  5       -1 0.319640814347D-09 0.100000000000D+01
-.512641723901D-08 0.000000000000D+00 0.000000000000D+00 0.197796089673D-07 0.000000000000D+00  6 -2 22 9900012 13 -1 21 2 0.64247582D-01 0.90971294D-03 0.20810469D+04 0.20810469D+04 0.20810469D+04 0.12871351D+01  1  2  4  2  6  5       -1 -.211429648449D-05 0.100000000000D+01
0.522160240036D-05 0.000000000000D+00 0.000000000000D+00 0.197796089673D-07 0.230057603333D-05  6 -2 22 9900012 13 -1 21 2 0.64247582D-01 0.90971294D-03 0.20340699D+04 0.20340699D+04 0.20340699D+04 0.12883841D+01  1  2 11  2  6  5       -1 0.215228688188D-02 0.100000000000D+01
  </mgrwgt>
  </event>
</LesHouchesEvents>
