<LesHouchesEvents version="3.0">
  <!--
  <scalesfunctionalform>
    muR  H_T/2 := sum_i mT(i)/2, i=final state
    muF1 H_T/2 := sum_i mT(i)/2, i=final state
    muF2 H_T/2 := sum_i mT(i)/2, i=final state
    QES  H_T/2 := sum_i mT(i)/2, i=final state
  </scalesfunctionalform>
PYTHIA8   
  -->
  <header>
        4
  </header>
  <init>
   2212   2212 0.65000000D+04 0.65000000D+04 -1 -1  82200  82200 -4   1
 0.16583980D-05 0.41381598D-07 0.79331273D-06     66
  </init>
  <event>
  5     66 0.79331273E-06 0.56316468E+02 0.78161638E-02 0.11883192E+00
       22 -1    0    0    0    0 0.00000000E+00 0.00000000E+00 0.25704112E+02 0.25704112E+02 0.00000000E+00 0.0000E+00 0.9000E+01
       -2 -1    0    0    0  501 -.00000000E+00 -.00000000E+00 -.26737574E+04 0.26737574E+04 0.00000000E+00 0.0000E+00 0.9000E+01
  9900012  1    1    2    0    0 -.17824262E+02 -.12403359E+02 -.10981281E+03 0.12259853E+03 0.50000000E+02 0.0000E+00 0.9000E+01
       11  1    1    2    0    0 -.45748190E+02 0.24681791E+02 -.16854475E+02 0.54645778E+02 0.00000000E+00 0.0000E+00 0.9000E+01
       -1  1    1    2    0  501 0.63572452E+02 -.12278432E+02 -.25213860E+04 0.25222172E+04 0.00000000E+00 0.0000E+00 0.9000E+01
#aMCatNLO 1  0  0  5  2 0.31870016D+02 0.00000000D+00  -5  6  0 0.00000000D+00 0.00000000D+00 0.00000000D+00 0.00000000D+00 0.00000000D+00
  <mgrwgt>
 0.2331866957D-05    7    2    0
 0.262157508457319D+03 0.000000000000000D+00 0.000000000000000D+00 0.262157508457319D+03
 0.262157508457319D+03 -.000000000000000D+00 -.000000000000000D+00 -.262157508457319D+03
 0.765948992099167D+02 -.178242623118441D+02 -.124033592571231D+02 0.538073502149531D+02
 0.196222926452084D+03 -.457481901148568D+02 0.246817914286603D+02 0.189212444459943D+03
 0.251497191252636D+03 0.635724524267010D+02 -.122784321715372D+02 -.243019794674896D+03
 0.000000000000000D+00 0.000000000000000D+00 -.000000000000000D+00 0.000000000000000D+00
 0.262157508457319D+03 0.000000000000000D+00 0.000000000000000D+00 0.262157508457319D+03
 0.262157508457319D+03 -.000000000000000D+00 -.000000000000000D+00 -.262157508457319D+03
 0.744850848637933D+02 -.170841083374648D+02 -.125463131628481D+02 0.509779475410691D+02
 0.188785506384010D+03 -.438620003361092D+02 0.243174912895756D+02 0.182002065824989D+03
 0.231133437933877D+03 0.394053188167149D+02 0.827152955896754D+01 -.227599360233814D+03
 0.299109877329571D+02 0.215407898568591D+02 -.200427076856951D+02 -.538065313224371D+01
0.557789458829D-05 0.000000000000D+00 0.000000000000D+00 0.203813140965D-06 0.000000000000D+00  6 22 -2 9900012 11 -1 21 0 0.39544788D-02 0.41134729D+00 0.73308565D+04 0.73308565D+04 0.73308565D+04 0.12235688D+01  1  2  2  2  6  5       -1 0.640901956696D-06 0.100000000000D+01
0.164135158606D-06 0.000000000000D+00 -.107102919562D-07 0.203813140965D-06 0.000000000000D+00  6 22 -2 9900012 11 -1 21 2 0.39544788D-02 0.41134729D+00 0.73308565D+04 0.73308565D+04 0.73308565D+04 0.12235688D+01  1  2  3  2  6  5       -1 0.282344762750D-07 0.100000000000D+01
-.921930596582D-06 0.000000000000D+00 0.000000000000D+00 0.203813140965D-06 0.000000000000D+00  6 22 -2 9900012 11 -1 21 2 0.39544788D-02 0.41134729D+00 0.73308565D+04 0.73308565D+04 0.73308565D+04 0.12235688D+01  1  2 15  2  6  5       -1 -.158590199549D-06 0.100000000000D+01
0.953658298410D-05 0.000000000000D+00 0.000000000000D+00 0.203813140965D-06 0.000000000000D+00  6 22 -2 9900012 11 -1 21 2 0.39544788D-02 0.41134729D+00 0.75817344D+04 0.75817344D+04 0.75817344D+04 0.12220008D+01  1  2 12  2  6  5       -1 0.163656037025D-05 0.100000000000D+01
-.262284878355D-06 0.000000000000D+00 0.000000000000D+00 0.203813140965D-06 0.000000000000D+00  6 22 -2 9900012 11 -1 21 2 0.39544788D-02 0.41134729D+00 0.73308565D+04 0.73308565D+04 0.73308565D+04 0.12235688D+01  1  2  4  2  6  5       -1 -.451181589495D-07 0.100000000000D+01
-.106103530820D-04 0.000000000000D+00 0.000000000000D+00 0.203813140965D-06 0.000000000000D+00  6 22 -2 9900012 11 -1 21 2 0.39544788D-02 0.41134729D+00 0.73308565D+04 0.73308565D+04 0.73308565D+04 0.12235688D+01  1  2  5  2  6  5       -1 -.182518946524D-05 0.100000000000D+01
0.119467032115D-04 0.000000000000D+00 -.000000000000D+00 0.203813140965D-06 0.000000000000D+00  6 22 -2 9900012 11 -1 21 2 0.39544788D-02 0.41134729D+00 0.73308565D+04 0.73308565D+04 0.73308565D+04 0.12235688D+01  1  2  6  2  6  5       -1 0.205506797722D-05 0.100000000000D+01
  </mgrwgt>
  </event>
  <event>
  5     66 -.79331273E-06 0.19177556E+02 0.78161638E-02 0.12421580E+00
       22 -1    0    0    0    0 0.00000000E+00 0.00000000E+00 0.27719936E+03 0.27719936E+03 0.00000000E+00 0.0000E+00 0.9000E+01
       -4 -1    0    0    0  501 0.00000000E+00 0.00000000E+00 -.66027298E+02 0.66027298E+02 0.00000000E+00 0.0000E+00 0.9000E+01
  9900012  1    1    2    0    0 0.18264132E+02 0.27345730E+02 0.54770109E+02 0.81124178E+02 0.50000000E+02 0.0000E+00 0.9000E+01
       11  1    1    2    0    0 -.30304534E+02 -.42272463E+02 0.20413706E+03 0.21065912E+03 0.00000000E+00 0.0000E+00 0.9000E+01
       -3  1    1    2    0  501 0.12040402E+02 0.14926734E+02 -.47735107E+02 0.51443358E+02 0.00000000E+00 0.0000E+00 0.9000E+01
#aMCatNLO 1  0  0  5  2 0.31870016D+02 0.00000000D+00  -5  6  0 0.00000000D+00 0.00000000D+00 0.00000000D+00 0.00000000D+00 0.00000000D+00
  <mgrwgt>
 -.8790887158D-07    1    2    0
 0.135287562175215D+03 0.000000000000000D+00 0.000000000000000D+00 0.135287562175215D+03
 0.135287562175215D+03 -.000000000000000D+00 -.000000000000000D+00 -.135287562175215D+03
 0.601609761726924D+02 0.182641320871102D+02 0.273457297919785D+02 0.616243420248506D+01
 0.107902682578225D+03 -.303045342684337D+02 -.422724633109330D+02 0.945392138531751D+02
 0.102511465599512D+03 0.120404021813235D+02 0.149267335189545D+02 -.100701648055660D+03
 0.000000000000000D+00 0.000000000000000D+00 0.000000000000000D+00 -.000000000000000D+00
 0.135287562175215D+03 0.000000000000000D+00 0.000000000000000D+00 0.135287562175215D+03
 0.135287562175215D+03 -.000000000000000D+00 -.000000000000000D+00 -.135287562175215D+03
 0.602457790421447D+02 0.186309297359379D+02 0.278004563598271D+02 0.309466892491087D+01
 0.102723036134637D+03 -.296629006801132D+02 -.414770169923268D+02 0.891728183774517D+02
 0.799583625248833D+02 0.272853121395791D+02 0.224952192315889D+02 -.717134338239995D+02
 0.276479466487642D+02 -.162533411954038D+02 -.881865859908921D+01 -.205540534783631D+02
-.329970033259D-08 0.000000000000D+00 0.000000000000D+00 0.533079493597D-08 0.000000000000D+00  6 22 -4 9900012 11 -3 21 2 0.42646055D-01 0.10158046D-01 0.42925318D+04 0.42925318D+04 0.42925318D+04 0.12493766D+01  1  2 14  2  6  5       -3 -.879088715813D-07 0.100000000000D+01
  </mgrwgt>
  </event>
  <event>
  6     66 -.79331273E-06 0.57443401E+01 0.78161638E-02 0.11636079E+00
       22 -1    0    0    0    0 0.00000000E+00 0.00000000E+00 0.24767639E+04 0.24767639E+04 0.00000000E+00 0.0000E+00 0.9000E+01
       -4 -1    0    0    0  501 0.00000000E+00 0.00000000E+00 -.68518856E+01 0.68518856E+01 0.00000000E+00 0.0000E+00 0.9000E+01
  9900012  1    1    2    0    0 0.74271603E+02 -.40793632E+02 0.48473621E+03 0.49462065E+03 0.50000000E+02 0.0000E+00 0.9000E+01
       11  1    1    2    0    0 -.73184939E+02 0.52016088E+02 0.11321182E+04 0.11356731E+04 0.00000000E+00 0.0000E+00 0.9000E+01
       -3  1    1    2    0  502 -.65511967E+01 -.35020955E+01 0.65178956E+03 0.65183189E+03 0.00000000E+00 0.0000E+00 0.9000E+01
       21  1    1    2  502  501 0.54645323E+01 -.77203605E+01 0.20126803E+03 0.20149016E+03 0.00000000E+00 0.0000E+00 0.9000E+01
#aMCatNLO 2  0  0  5  2 0.79749716D+01 0.00000000D+00  -5  6  0 0.00000000D+00 0.00000000D+00 0.00000000D+00 0.00000000D+00 0.00000000D+00
  <mgrwgt>
 -.3010132567D-05    2    2    0
 0.130270882394188D+03 0.000000000000000D+00 0.000000000000000D+00 0.130270882394188D+03
 0.130270882394188D+03 -.000000000000000D+00 -.000000000000000D+00 -.130270882394188D+03
 0.120517515390320D+03 0.743124907964365D+02 -.403713678875765D+02 -.698017040076493D+02
 0.932568802797800D+02 -.731531646138623D+02 0.523442332441287D+02 0.246077522861929D+02
 0.467673691182759D+02 -.115932618257415D+01 -.119728653565522D+02 0.451939517214564D+02
 0.000000000000000D+00 0.000000000000000D+00 -.000000000000000D+00 0.000000000000000D+00
 0.130270882394188D+03 0.000000000000000D+00 0.000000000000000D+00 0.130270882394188D+03
 0.130270882394188D+03 -.000000000000000D+00 -.000000000000000D+00 -.130270882394188D+03
 0.119719226726840D+03 0.742716031725671D+02 -.407936321499525D+02 -.682077839125675D+02
 0.934331050801216D+02 -.731849387289886D+02 0.520160881474784D+02 0.258464009483137D+02
 0.346858303390607D+02 -.655119669884665D+01 -.350209550047577D+01 0.338810267735302D+02
 0.127036026423539D+02 0.546453225526816D+01 -.772036049705012D+01 0.848035619072348D+01
-.515530120783D-06 0.000000000000D+00 0.000000000000D+00 0.216562637816D-09 0.000000000000D+00  6 22 -4 9900012 11 -3 21 2 0.38104060D+00 0.10541362D-02 0.10512720D+05 0.10512720D+05 0.10512720D+05 0.12070859D+01  1  2 13  2  6  5       -3 -.300693291813D-05 0.100000000000D+01
-.549804879257D-09 0.000000000000D+00 0.000000000000D+00 0.216562637816D-09 0.000000000000D+00  6 22 -4 9900012 11 -3 21 2 0.38104060D+00 0.10541362D-02 0.10022625D+05 0.10022625D+05 0.10022625D+05 0.12092282D+01  1  2  8  2  6  5       -3 -.319964850384D-08 0.100000000000D+01
  </mgrwgt>
  </event>
  <event>
  5     66 0.79331273E-06 0.29332825E+02 0.78161638E-02 0.12358934E+00
       22 -1    0    0    0    0 0.00000000E+00 0.00000000E+00 0.11142757E+04 0.11142757E+04 0.00000000E+00 0.0000E+00 0.9000E+01
       -2 -1    0    0    0  501 0.00000000E+00 0.00000000E+00 -.90349120E+01 0.90349120E+01 0.00000000E+00 0.0000E+00 0.9000E+01
  9900012  1    1    2    0    0 0.14372831E+02 -.20289793E+01 0.49783779E+03 0.50055285E+03 0.50000000E+02 0.0000E+00 0.9000E+01
       11  1    1    2    0    0 0.29474293E+02 0.17360163E+02 0.53893993E+03 0.54002440E+03 0.00000000E+00 0.0000E+00 0.9000E+01
       -1  1    1    2    0  501 -.43847124E+02 -.15331184E+02 0.68463049E+02 0.82733334E+02 0.00000000E+00 0.0000E+00 0.9000E+01
#aMCatNLO 1  0  0  2  5 0.59109562D+01 0.00000000D+00  -5  6  0 0.00000000D+00 0.00000000D+00 0.00000000D+00 0.00000000D+00 0.00000000D+00
  <mgrwgt>
 0.1756826510D-05    8    4    0
 0.100336347906308D+03 0.000000000000000D+00 0.000000000000000D+00 0.100336347906308D+03
 0.100336347906308D+03 0.000000000000000D+00 0.000000000000000D+00 -.100336347906308D+03
 0.600266116803682D+02 0.143728313460653D+02 -.202897933556243D+01 0.298747229573622D+02
 0.546001099998538D+02 0.294742926834083D+02 0.173601633578954D+02 0.425565836386816D+02
 0.860459741323949D+02 -.438471240294736D+02 -.153311840223330D+02 -.724313065960438D+02
 0.000000000000000D+00 0.000000000000000D+00 0.000000000000000D+00 0.000000000000000D+00
 0.103086101898687D+03 0.000000000000000D+00 0.000000000000000D+00 0.103086101898687D+03
 0.100844470020136D+03 0.000000000000000D+00 0.000000000000000D+00 -.100844470020136D+03
 0.599056262833623D+02 0.137950049299506D+02 -.242545410291811D+01 0.298747229573622D+02
 0.542050346675991D+02 0.289500759434767D+02 0.170004727930268D+02 0.425565836386816D+02
 0.865757376703906D+02 -.446788052085138D+02 -.159018408714802D+02 -.724313065960438D+02
 0.324417329747042D+01 0.193372433508652D+01 0.132682218137145D+01 0.224163187855076D+01
 0.100336347906308D+03 0.000000000000000D+00 0.000000000000000D+00 0.100336347906308D+03
 0.100336347906308D+03 0.000000000000000D+00 0.000000000000000D+00 -.100336347906308D+03
 0.600266116803682D+02 0.143728313460653D+02 -.202897933556243D+01 0.298747229573622D+02
 0.546001099998538D+02 0.294742926834083D+02 0.173601633578954D+02 0.425565836386816D+02
 0.000000000000000D+00 0.000000000000000D+00 0.000000000000000D+00 0.000000000000000D+00
 0.860459741323949D+02 -.438471240294736D+02 -.153311840223330D+02 -.724313065960438D+02
 0.103086101898687D+03 0.000000000000000D+00 0.000000000000000D+00 0.103086101898687D+03
 0.100844470020136D+03 0.000000000000000D+00 0.000000000000000D+00 -.100844470020136D+03
 0.599056262833623D+02 0.137950049299506D+02 -.242545410291811D+01 0.298747229573622D+02
 0.542050346675991D+02 0.289500759434767D+02 0.170004727930268D+02 0.425565836386816D+02
 0.324417329747042D+01 0.193372433508652D+01 0.132682218137145D+01 0.224163187855076D+01
 0.865757376703906D+02 -.446788052085138D+02 -.159018408714802D+02 -.724313065960438D+02
0.361680318445D-07 0.000000000000D+00 0.000000000000D+00 0.932280808604D-07 0.000000000000D+00  6 22 -2 9900012 11 -1 21 0 0.17142703D+00 0.13899865D-02 0.44037381D+04 0.44037381D+04 0.44037381D+04 0.12481046D+01  1  2  2  1  6  2       -2 0.123700532986D-05 0.100000000000D+01
0.715923201870D-09 0.000000000000D+00 -.694473827722D-10 0.932280808604D-07 0.000000000000D+00  6 22 -2 9900012 11 -1 21 2 0.17142703D+00 0.13899865D-02 0.44037381D+04 0.44037381D+04 0.44037381D+04 0.12481046D+01  1  2  3  1  6  2       -2 0.381430240963D-07 0.100000000000D+01
-.508756332138D-08 0.000000000000D+00 0.000000000000D+00 0.932280808604D-07 0.000000000000D+00  6 22 -2 9900012 11 -1 21 2 0.17142703D+00 0.13899865D-02 0.44037381D+04 0.44037381D+04 0.44037381D+04 0.12481046D+01  1  2 15  1  6  2       -2 -.271055680067D-06 0.100000000000D+01
0.860605162309D-08 0.000000000000D+00 0.000000000000D+00 0.932280808604D-07 0.000000000000D+00  6 22 -2 9900012 11 -1 21 2 0.17142703D+00 0.14353116D-02 0.45742840D+04 0.45742840D+04 0.45742840D+04 0.12462221D+01  1  2 12  1  6  2       -2 0.439061812945D-06 0.100000000000D+01
-.990546708616D-09 0.000000000000D+00 0.000000000000D+00 0.932280808604D-07 0.000000000000D+00  6 22 -2 9900012 11 -1 21 2 0.17142703D+00 0.13899865D-02 0.44037381D+04 0.44037381D+04 0.44037381D+04 0.12481046D+01  1  2  4  1  6  2       -2 -.527744412760D-07 0.100000000000D+01
0.619069359944D-09 0.000000000000D+00 0.000000000000D+00 0.932280808604D-07 0.171880310853D-08  6 22 -2 9900012 11 -1 21 2 0.17612505D+00 0.13970256D-02 0.45742840D+04 0.45742840D+04 0.45742840D+04 0.12462221D+01  1  2 11  1  6  2       -2 0.307965452085D-07 0.100000000000D+01
0.281166213718D-09 0.000000000000D+00 0.000000000000D+00 0.932280808604D-07 0.000000000000D+00  6 22 21 9900012 11 2 -1 2 0.17142703D+00 0.14353116D-02 0.45742840D+04 0.45742840D+04 0.45742840D+04 0.12462221D+01  3  4 12  3  5  2       -2 0.262969899469D-06 0.100000000000D+01
0.795009764717D-10 0.000000000000D+00 0.000000000000D+00 0.932280808604D-07 0.136558521805D-09  6 22 21 9900012 11 2 -1 2 0.17612505D+00 0.13970256D-02 0.45742840D+04 0.45742840D+04 0.45742840D+04 0.12462221D+01  3  4 11  3  5  2       -2 0.726800201058D-07 0.100000000000D+01
  </mgrwgt>
  </event>
</LesHouchesEvents>
