<LesHouchesEvents version="3.0">
  <!--
  <scalesfunctionalform>
    muR  H_T/2 := sum_i mT(i)/2, i=final state
    muF1 H_T/2 := sum_i mT(i)/2, i=final state
    muF2 H_T/2 := sum_i mT(i)/2, i=final state
    QES  H_T/2 := sum_i mT(i)/2, i=final state
  </scalesfunctionalform>
PYTHIA8   
  -->
  <header>
       26
  </header>
  <init>
   2212   2212 0.65000000D+04 0.65000000D+04 -1 -1  82200  82200 -4   1
 0.21349036D-04 0.39065924D-06 0.11047279D-05     66
  </init>
  <event>
  7     66 0.11047279E-05 0.14777700E+02 0.78161638E-02 0.13029714E+00
       22 -1    0    0    0    0 0.00000000E+00 0.00000000E+00 0.73568044E+03 0.73568044E+03 0.00000000E+00 0.0000E+00 0.9000E+01
       -3 -1    0    0    0  502 0.00000000E+00 0.00000000E+00 -.48986447E+01 0.48986447E+01 0.00000000E+00 0.0000E+00 0.9000E+01
       24  2    1    2    0    0 0.17871802E+02 -.48503036E+01 0.50561209E+03 0.51190942E+03 0.77876498E+02 0.0000E+00 0.0000E+00
  9900012  1    3    3    0    0 0.65004005E+01 -.19722357E+02 0.44967640E+03 0.45292394E+03 0.50000000E+02 0.0000E+00 0.9000E+01
      -11  1    3    3    0    0 0.11371401E+02 0.14872054E+02 0.55935685E+02 0.58985486E+02 0.00000000E+00 0.0000E+00 0.9000E+01
       -4  1    1    2    0  501 0.19615151E+00 0.67840434E+01 0.17787287E+03 0.17800231E+03 0.00000000E+00 0.0000E+00 0.9000E+01
       21  1    1    2  501  502 -.18067953E+02 -.19337398E+01 0.47296834E+02 0.50667355E+02 0.00000000E+00 0.0000E+00 0.9000E+01
#aMCatNLO 2  0  0  2  5 0.24747896D+02 0.00000000D+00  -5  6  0 0.00000000D+00 0.00000000D+00 0.00000000D+00 0.00000000D+00 0.00000000D+00
  <mgrwgt>
 0.1960069795D-03    1    2    0
 0.460877236515553D+02 0.000000000000000D+00 0.000000000000000D+00 0.460877236515553D+02
 0.460877236515553D+02 0.000000000000000D+00 0.000000000000000D+00 -.460877236515553D+02
 0.547994970447523D+02 -.412034910539174D+01 -.208590530068792D+02 0.713494970295662D+01
 0.241860812577325D+02 0.647803261512211D+01 0.143483362174741D+02 -.183610148911593D+02
 0.131898690006258D+02 -.235768350973037D+01 0.651071678940503D+01 0.112260651882026D+02
 0.000000000000000D+00 -.000000000000000D+00 -.000000000000000D+00 -.000000000000000D+00
 0.503254374224791D+02 0.000000000000000D+00 0.000000000000000D+00 0.503254374224791D+02
 0.716106461238679D+02 0.000000000000000D+00 0.000000000000000D+00 -.716106461238679D+02
 0.546089194948164D+02 0.650040052954849D+01 -.197223572141634D+02 0.713494970295662D+01
 0.262223877035606D+02 0.113714013819110D+02 0.148720536461495D+02 -.183610148911593D+02
 0.131181652643006D+02 0.196151507287363D+00 0.678404340183022D+01 0.112260651882026D+02
 0.279866110836694D+02 -.180679534187468D+02 -.193373983381630D+01 -.212852087013888D+02
0.724771007983D-06 0.000000000000D+00 0.000000000000D+00 0.241865166153D-06 0.626782924565D-08  6 22 -3 9900012 -11 -4 21 2 0.11318161D+00 0.75363765D-03 0.23921936D+04 0.23921936D+04 0.23921936D+04 0.12795945D+01  1  2  1  1  6  2       -3 0.196006979480D-03 0.100000000000D+01
  </mgrwgt>
  </event>
  <event>
  7     66 -.11047279E-05 0.22767664E+02 0.78161638E-02 0.12820805E+00
       22 -1    0    0    0    0 0.00000000E+00 0.00000000E+00 0.21407096E+03 0.21407096E+03 0.00000000E+00 0.0000E+00 0.9000E+01
       -3 -1    0    0    0  502 0.00000000E+00 0.00000000E+00 -.16276533E+02 0.16276533E+02 0.00000000E+00 0.0000E+00 0.9000E+01
       24  2    1    2    0    0 0.17491101E+02 -.78486626E+01 0.12777936E+03 0.15153468E+03 0.79168505E+02 0.0000E+00 0.0000E+00
  9900012  1    3    3    0    0 -.17444494E+01 -.17070510E+02 0.11525054E+03 0.12679563E+03 0.50000000E+02 0.0000E+00 0.9000E+01
      -11  1    3    3    0    0 0.19235550E+02 0.92218477E+01 0.12528824E+02 0.24739044E+02 0.00000000E+00 0.0000E+00 0.9000E+01
       -4  1    1    2    0  501 -.23817020E+02 0.11347863E+02 0.64602630E+02 0.69781976E+02 0.00000000E+00 0.0000E+00 0.9000E+01
       21  1    1    2  501  502 0.63259194E+01 -.34992008E+01 0.54124339E+01 0.90308417E+01 0.00000000E+00 0.0000E+00 0.9000E+01
#aMCatNLO 2  0  0  2  5 0.82536564D+01 0.00000000D+00  -5  6  0 0.00000000D+00 0.00000000D+00 0.00000000D+00 0.00000000D+00 0.00000000D+00
  <mgrwgt>
 -.1088352377D-04    2    2    0
 0.545847221254657D+02 0.000000000000000D+00 0.000000000000000D+00 0.545847221254657D+02
 0.545847221254657D+02 0.000000000000000D+00 0.000000000000000D+00 -.545847221254657D+02
 0.543975853757780D+02 0.138789615788084D+01 -.188031764034254D+02 0.101789781467328D+02
 0.288932101443905D+02 0.208824816178985D+02 0.831084274055937D+01 -.181568016695599D+02
 0.258786487307628D+02 -.222703777757794D+02 0.104923336628661D+02 0.797782352282707D+01
 0.000000000000000D+00 0.000000000000000D+00 -.000000000000000D+00 -.000000000000000D+00
 0.566141370959090D+02 0.000000000000000D+00 0.000000000000000D+00 0.566141370959090D+02
 0.615452839423597D+02 0.000000000000000D+00 0.000000000000000D+00 -.615452839423597D+02
 0.538336049483203D+02 -.174444938326597D+01 -.170705103019616D+02 0.101789781467328D+02
 0.280128240107888D+02 0.192355500650203D+02 0.922184774802686D+01 -.181568016695599D+02
 0.275621137611576D+02 -.238170200478064D+02 0.113478633611799D+02 0.797782352282707D+01
 0.875087831800203D+01 0.632591936605203D+01 -.349920080724518D+01 -.493114684645069D+01
-.501918700572D-07 0.000000000000D+00 0.000000000000D+00 0.159903983837D-06 0.000000000000D+00  6 22 -3 9900012 -11 -4 21 2 0.31753428D-01 0.25971818D-02 0.29055273D+04 0.29055273D+04 0.29055273D+04 0.12692951D+01  1  2 13  1  6  2       -3 -.215890199981D-04 0.100000000000D+01
0.249883150442D-07 0.000000000000D+00 0.000000000000D+00 0.159903983837D-06 0.137500148235D-07  6 22 -3 9900012 -11 -4 21 2 0.32933994D-01 0.25040821D-02 0.29055273D+04 0.29055273D+04 0.29055273D+04 0.12692951D+01  1  2  1  1  6  2       -3 0.107054962322D-04 0.100000000000D+01
  </mgrwgt>
  </event>
  <event>
  7     66 0.11047279E-05 0.27653440E+02 0.78161638E-02 0.12748709E+00
       22 -1    0    0    0    0 0.00000000E+00 0.00000000E+00 0.42796268E+03 0.42796268E+03 0.00000000E+00 0.0000E+00 0.9000E+01
       21 -1    0    0  502  501 0.00000000E+00 0.00000000E+00 -.20259255E+02 0.20259255E+02 0.00000000E+00 0.0000E+00 0.9000E+01
       24  2    1    2    0    0 -.27616239E+02 -.53815282E+01 0.40251224E+03 0.41118175E+03 0.79137291E+02 0.0000E+00 0.0000E+00
  9900012  1    3    3    0    0 -.15142480E+02 -.25124008E+02 0.32840133E+03 0.33347855E+03 0.50000000E+02 0.0000E+00 0.9000E+01
      -11  1    3    3    0    0 -.12473758E+02 0.19742480E+02 0.74110910E+02 0.77703199E+02 0.00000000E+00 0.0000E+00 0.9000E+01
        3  1    1    2  502    0 0.28265117E+02 0.37811401E+01 -.29950737E+01 0.28673757E+02 0.00000000E+00 0.0000E+00 0.9000E+01
       -4  1    1    2    0  501 -.64887817E+00 0.16003881E+01 0.81862616E+01 0.83664308E+01 0.00000000E+00 0.0000E+00 0.9000E+01
#aMCatNLO 2  0  0  2  5 0.73866457D+00 0.00000000D+00  -5  6  0 0.00000000D+00 0.00000000D+00 0.00000000D+00 0.00000000D+00 0.00000000D+00
  <mgrwgt>
 0.1863021093D-03    1    2    0
 0.404172087924008D+02 0.000000000000000D+00 0.000000000000000D+00 0.404172087924008D+02
 0.404172087924008D+02 0.000000000000000D+00 0.000000000000000D+00 -.404172087924008D+02
 0.558349290807132D+02 0.430450040370498D+01 -.225225061866358D+02 0.957848092318015D+01
 0.233201776662784D+02 -.423370441114578D+01 0.208447856863595D+02 -.956040496190291D+01
 0.000000000000000D+00 0.000000000000000D+00 0.000000000000000D+00 -.000000000000000D+00
 0.167931083780992D+01 -.707959925591979D-01 0.167772050027629D+01 -.180759612772412D-01
 0.441841082453039D+02 0.000000000000000D+00 0.000000000000000D+00 0.441841082453039D+02
 0.196229036464939D+03 0.000000000000000D+00 0.000000000000000D+00 -.196229036464939D+03
 0.587559170919099D+02 -.151424802380416D+02 -.251240082143790D+02 0.957848092318015D+01
 0.252341337844748D+02 -.124737583630444D+02 0.197424800143643D+02 -.956040496190291D+01
 0.154696069905322D+03 0.282651167744911D+02 0.378114011413095D+01 -.152044928219635D+03
 0.172702392853601D+01 -.648878173405018D+00 0.160038808588368D+01 -.180759612772412D-01
0.976459490068D-07 0.000000000000D+00 0.000000000000D+00 0.952210396684D-06 0.541075867316D-08  6 22 21 9900012 -11 3 -4 2 0.65840412D-01 0.31168084D-02 0.31117817D+04 0.31117817D+04 0.31117817D+04 0.12657212D+01  1  2  1  3  5  2       -3 0.186302109332D-03 0.100000000000D+01
  </mgrwgt>
  </event>
  <event>
  7     66 0.11047279E-05 0.36042081E+02 0.78161638E-02 0.12586094E+00
       22 -1    0    0    0    0 0.00000000E+00 0.00000000E+00 0.53977158E+02 0.53977158E+02 0.00000000E+00 0.0000E+00 0.9000E+01
       -1 -1    0    0    0  501 -.00000000E+00 -.00000000E+00 -.16510112E+03 0.16510112E+03 0.00000000E+00 0.0000E+00 0.9000E+01
       24  2    1    2    0    0 -.20562585E+02 0.28758430E+02 -.13311569E+03 0.15940853E+03 0.80258491E+02 0.0000E+00 0.0000E+00
  9900012  1    3    3    0    0 -.24902672E+02 0.25867278E+01 -.61927010E+02 0.83437335E+02 0.50000000E+02 0.0000E+00 0.9000E+01
      -11  1    3    3    0    0 0.43400869E+01 0.26171702E+02 -.71188685E+02 0.75971200E+02 0.00000000E+00 0.0000E+00 0.9000E+01
       -2  1    1    2    0  502 -.11674508E+01 0.92417743E+00 0.22825223E+02 0.22873737E+02 0.00000000E+00 0.0000E+00 0.9000E+01
       21  1    1    2  502  501 0.21730036E+02 -.29682607E+02 -.83349377E+00 0.36796010E+02 0.00000000E+00 0.0000E+00 0.9000E+01
#aMCatNLO 2  0  0  5  2 0.21363697D+02 0.00000000D+00  -5  6  0 0.00000000D+00 0.00000000D+00 0.00000000D+00 0.00000000D+00 0.00000000D+00
  <mgrwgt>
 0.1804570704D-02    2    2    0
 0.944017447201888D+02 0.000000000000000D+00 0.000000000000000D+00 0.944017447201888D+02
 0.944017447201888D+02 -.000000000000000D+00 -.000000000000000D+00 -.944017447201888D+02
 0.623371592813987D+02 -.260815174666493D+02 0.423543791667879D+01 -.262247390752568D+02
 0.491231297939513D+02 0.342378969462775D+01 0.274532171471075D+02 -.405916298410659D+02
 0.773432003650276D+02 0.226577277720216D+02 -.316886550637863D+02 0.668163689163227D+02
 0.000000000000000D+00 0.000000000000000D+00 0.000000000000000D+00 0.000000000000000D+00
 0.944017447201888D+02 0.000000000000000D+00 0.000000000000000D+00 0.944017447201888D+02
 0.944017447201888D+02 -.000000000000000D+00 -.000000000000000D+00 -.944017447201888D+02
 0.603682324525529D+02 -.249026720741521D+02 0.258672779921909D+01 -.227483901035975D+02
 0.462537578880585D+02 0.434008687607880D+01 0.261717018243408D+02 -.378895208242729D+02
 0.399757884515607D+02 -.116745075188341D+01 0.924177428845319D+00 0.399480489779648D+02
 0.422057106482057D+02 0.217300359499567D+02 -.296826070524053D+02 0.206898619499057D+02
-.116460703410D-06 0.000000000000D+00 0.000000000000D+00 0.567217126532D-06 0.000000000000D+00  6 22 -1 9900012 -11 -2 21 2 0.83041781D-02 0.25400173D-01 0.36434967D+04 0.36434967D+04 0.36434967D+04 0.12576229D+01  1  2 13  2  6  5       -2 -.141136825171D-04 0.100000000000D+01
0.150070871098D-04 0.000000000000D+00 0.000000000000D+00 0.567217126532D-06 0.375481025863D-06  6 22 -1 9900012 -11 -2 21 2 0.83041781D-02 0.25400173D-01 0.36434967D+04 0.36434967D+04 0.36434967D+04 0.12576229D+01  1  2  1  2  6  5       -2 0.181868438686D-02 0.100000000000D+01
  </mgrwgt>
  </event>
  <event>
  6     66 -.11047279E-05 0.15442849E+02 0.78161638E-02 0.13062590E+00
       22 -1    0    0    0    0 0.00000000E+00 0.00000000E+00 0.21459019E+03 0.21459019E+03 0.00000000E+00 0.0000E+00 0.9000E+01
       -1 -1    0    0    0  501 0.00000000E+00 0.00000000E+00 -.17982751E+02 0.17982751E+02 0.00000000E+00 0.0000E+00 0.9000E+01
       24  2    1    2    0    0 -.68597181E+01 -.14153603E+02 0.74799584E+02 0.10975383E+03 0.78762590E+02 0.0000E+00 0.0000E+00
  9900012  1    3    3    0    0 -.14168510E+02 -.31796485E+02 0.60826895E+02 0.86091081E+02 0.50000000E+02 0.0000E+00 0.9000E+01
      -11  1    3    3    0    0 0.73087915E+01 0.17642882E+02 0.13972689E+02 0.23662750E+02 0.00000000E+00 0.0000E+00 0.9000E+01
       -2  1    1    2    0  501 0.68597181E+01 0.14153603E+02 0.12180786E+03 0.12281911E+03 0.00000000E+00 0.0000E+00 0.9000E+01
#aMCatNLO 1  0  0  2  5 0.56628989D+00 0.00000000D+00  -5  6  0 0.00000000D+00 0.00000000D+00 0.00000000D+00 0.00000000D+00 0.00000000D+00
  <mgrwgt>
 -.8171661169D-05   11    4    0
 0.621202228475467D+02 0.000000000000000D+00 0.000000000000000D+00 0.621202228475467D+02
 0.621202228475467D+02 0.000000000000000D+00 0.000000000000000D+00 -.621202228475467D+02
 0.649018602555190D+02 -.141685095523615D+02 -.317964847950324D+02 -.223715970903026D+02
 0.221842486143026D+02 0.730879147365144D+01 0.176428821612250D+02 -.112894270368782D+02
 0.371543368252718D+02 0.685971807871003D+01 0.141536026338073D+02 0.336610241271808D+02
 0.000000000000000D+00 0.000000000000000D+00 -.000000000000000D+00 -.000000000000000D+00
 0.621251974321189D+02 0.000000000000000D+00 0.000000000000000D+00 0.621251974321189D+02
 0.806326681535778D+02 0.000000000000000D+00 0.000000000000000D+00 -.806326681535778D+02
 0.648280918277210D+02 -.143504917893037D+02 -.315635314731688D+02 -.223715970903026D+02
 0.222273358942617D+02 0.724649190932393D+01 0.177226311010370D+02 -.112894270368782D+02
 0.371863081538574D+02 0.675543470658370D+01 0.142870945523602D+02 0.336610241271808D+02
 0.185161297098565D+02 0.348565173396024D+00 -.446194180228338D+00 -.185074707214589D+02
 0.621202228475467D+02 0.000000000000000D+00 0.000000000000000D+00 0.621202228475467D+02
 0.621202228475467D+02 0.000000000000000D+00 0.000000000000000D+00 -.621202228475467D+02
 0.649018602555190D+02 -.141685095523615D+02 -.317964847950324D+02 -.223715970903026D+02
 0.221842486143026D+02 0.730879147365144D+01 0.176428821612250D+02 -.112894270368782D+02
 0.000000000000000D+00 0.000000000000000D+00 -.000000000000000D+00 -.000000000000000D+00
 0.371543368252718D+02 0.685971807871003D+01 0.141536026338073D+02 0.336610241271808D+02
 0.621251974321189D+02 0.000000000000000D+00 0.000000000000000D+00 0.621251974321189D+02
 0.806326681535778D+02 0.000000000000000D+00 0.000000000000000D+00 -.806326681535778D+02
 0.648280918277210D+02 -.143504917893037D+02 -.315635314731688D+02 -.223715970903026D+02
 0.222273358942617D+02 0.724649190932393D+01 0.177226311010370D+02 -.112894270368782D+02
 0.185161297098565D+02 0.348565173396024D+00 -.446194180228338D+00 -.185074707214589D+02
 0.371863081538574D+02 0.675543470658370D+01 0.142870945523602D+02 0.336610241271808D+02
0.398041847584D-08 0.000000000000D+00 0.000000000000D+00 0.149780467798D-06 0.000000000000D+00  6 22 -1 9900012 -11 -2 21 0 0.33013876D-01 0.27665771D-02 0.22919877D+04 0.22919877D+04 0.22919877D+04 0.12818955D+01  1  2  2  1  6  2       -1 0.978849177896D-06 0.100000000000D+01
-.223670473188D-09 0.000000000000D+00 -.764292750774D-11 0.149780467798D-06 0.000000000000D+00  6 22 -1 9900012 -11 -2 21 2 0.33013876D-01 0.27665771D-02 0.22919877D+04 0.22919877D+04 0.22919877D+04 0.12818955D+01  1  2  3  1  6  2       -1 -.903859579571D-07 0.100000000000D+01
0.104482833624D-09 0.000000000000D+00 0.000000000000D+00 0.149780467798D-06 0.000000000000D+00  6 22 -1 9900012 -11 -2 21 2 0.33013876D-01 0.27665771D-02 0.22919877D+04 0.22919877D+04 0.22919877D+04 0.12818955D+01  1  2 15  1  6  2       -1 0.422218492794D-07 0.100000000000D+01
0.670689023091D-14 0.000000000000D+00 0.000000000000D+00 0.149780467798D-06 0.000000000000D+00  6 22 -1 9900012 -11 -2 21 2 0.33013876D-01 0.35913322D-02 0.23214301D+04 0.23214301D+04 0.23214301D+04 0.12812078D+01  1  2 12  1  6  2       -1 0.188200710892D-11 0.100000000000D+01
-.265146496140D-05 0.000000000000D+00 0.000000000000D+00 0.149780467798D-06 0.000000000000D+00  6 22 -1 9900012 -11 -2 21 2 0.33013876D-01 0.27665771D-02 0.22919877D+04 0.22919877D+04 0.22919877D+04 0.12818955D+01  1  2  4  1  6  2       -1 -.107146552296D-02 0.100000000000D+01
-.275318340439D-05 0.000000000000D+00 -.166950265253D-08 0.149780467798D-06 0.000000000000D+00  6 22 -1 9900012 -11 -2 21 2 0.33013876D-01 0.35911738D-02 0.22919877D+04 0.22919877D+04 0.22919877D+04 0.12818955D+01  1  2  5  1  6  2       -1 -.772196992004D-03 0.100000000000D+01
0.266256254364D-05 0.000000000000D+00 0.161426333128D-08 0.149780467798D-06 0.000000000000D+00  6 22 -1 9900012 -11 -2 21 2 0.33013876D-01 0.27665771D-02 0.22919877D+04 0.22919877D+04 0.22919877D+04 0.12818955D+01  1  2  6  1  6  2       -1 0.107595009166D-02 0.100000000000D+01
0.271889872570D-05 0.000000000000D+00 0.000000000000D+00 0.149780467798D-06 0.417993340970D-05  6 22 -1 9900012 -11 -2 21 2 0.33016520D-01 0.35910447D-02 0.23214301D+04 0.23214301D+04 0.23214301D+04 0.12812078D+01  1  2 11  1  6  2       -1 0.762935864026D-03 0.100000000000D+01
0.234227710152D-15 0.000000000000D+00 0.000000000000D+00 0.149780467798D-06 0.000000000000D+00  6 22 21 9900012 -11 1 -2 2 0.33013876D-01 0.35913322D-02 0.23214301D+04 0.23214301D+04 0.23214301D+04 0.12812078D+01  3  4 12  3  5  2       -1 0.110114286666D-11 0.100000000000D+01
-.961087394169D-07 0.000000000000D+00 -.582975545987D-10 0.149780467798D-06 0.000000000000D+00  6 22 21 9900012 -11 1 -2 2 0.33013876D-01 0.35911738D-02 0.22919877D+04 0.22919877D+04 0.22919877D+04 0.12818955D+01  3  4  5  3  5  2       -1 -.451598434680D-03 0.100000000000D+01
0.951410402834D-07 0.000000000000D+00 0.000000000000D+00 0.149780467798D-06 0.146264693207D-06  6 22 21 9900012 -11 1 -2 2 0.33016520D-01 0.35910447D-02 0.23214301D+04 0.23214301D+04 0.23214301D+04 0.12812078D+01  3  4 11  3  5  2       -1 0.447272644744D-03 0.100000000000D+01
  </mgrwgt>
  </event>
  <event>
  6     66 0.11047279E-05 0.27861437E+02 0.78161638E-02 0.12671359E+00
       22 -1    0    0    0    0 0.00000000E+00 0.00000000E+00 0.19117055E+03 0.19117055E+03 0.00000000E+00 0.0000E+00 0.9000E+01
       -1 -1    0    0    0  501 0.00000000E+00 0.00000000E+00 -.18281896E+02 0.18281896E+02 0.00000000E+00 0.0000E+00 0.9000E+01
       24  2    1    2    0    0 -.27254294E+02 -.57847325E+01 0.94562942E+02 0.12631896E+03 0.78981452E+02 0.0000E+00 0.0000E+00
  9900012  1    3    3    0    0 -.43193547E+02 -.51475247E+00 0.67393218E+02 0.94381107E+02 0.50000000E+02 0.0000E+00 0.9000E+01
      -11  1    3    3    0    0 0.15939254E+02 -.52699800E+01 0.27169724E+02 0.31937852E+02 0.00000000E+00 0.0000E+00 0.9000E+01
       -2  1    1    2    0  501 0.27254294E+02 0.57847325E+01 0.78325717E+02 0.83133492E+02 0.00000000E+00 0.0000E+00 0.9000E+01
#aMCatNLO 1  0  0  5  2 0.18125118D+02 0.00000000D+00  -5  6  0 0.00000000D+00 0.00000000D+00 0.00000000D+00 0.00000000D+00 0.00000000D+00
  <mgrwgt>
 0.1805690561D-04    5    2    0
 0.591181890882644D+02 0.000000000000000D+00 0.000000000000000D+00 0.591181890882644D+02
 0.591181890882644D+02 -.000000000000000D+00 -.000000000000000D+00 -.591181890882644D+02
 0.686491862814152D+02 -.431935474664132D+02 -.514752470820630D+00 -.186215806058704D+02
 0.168486581177120D+02 0.159392539343506D+02 -.526998002816622D+01 0.142995625337249D+01
 0.327385337774016D+02 0.272542935320626D+02 0.578473249898685D+01 0.171916243524979D+02
 0.000000000000000D+00 0.000000000000000D+00 0.000000000000000D+00 -.000000000000000D+00
 0.591181890882644D+02 0.000000000000000D+00 0.000000000000000D+00 0.591181890882644D+02
 0.591181890882644D+02 -.000000000000000D+00 -.000000000000000D+00 -.591181890882644D+02
 0.587090940048670D+02 -.290871870836120D+02 0.247932702174861D+01 -.972348723218665D+01
 0.210016167919880D+02 0.201315971197653D+02 -.438015384929116D+01 0.407442726545781D+01
 0.154215496077217D+02 -.141381553712230D+02 0.131468998013014D+01 0.601733705709802D+01
 0.231041177719521D+02 0.230937453350696D+02 0.586136847412408D+00 -.368277090369178D+00
0.569098086435D-07 0.000000000000D+00 0.000000000000D+00 0.485544477146D-07 0.000000000000D+00  6 22 -1 9900012 -11 -2 21 0 0.29410855D-01 0.28125994D-02 0.30649854D+04 0.30649854D+04 0.30649854D+04 0.12665080D+01  1  2  2  2  6  5       -2 0.169733471530D-04 0.100000000000D+01
-.230758003873D-08 0.000000000000D+00 -.109274324944D-09 0.485544477146D-07 0.000000000000D+00  6 22 -1 9900012 -11 -2 21 2 0.29410855D-01 0.28125994D-02 0.30649854D+04 0.30649854D+04 0.30649854D+04 0.12665080D+01  1  2  3  2  6  5       -2 -.110395911311D-05 0.100000000000D+01
0.136660326185D-08 0.000000000000D+00 0.000000000000D+00 0.485544477146D-07 0.000000000000D+00  6 22 -1 9900012 -11 -2 21 2 0.29410855D-01 0.28125994D-02 0.30649854D+04 0.30649854D+04 0.30649854D+04 0.12665080D+01  1  2 15  2  6  5       -2 0.653790594304D-06 0.100000000000D+01
0.908810907790D-08 0.000000000000D+00 0.000000000000D+00 0.485544477146D-07 0.000000000000D+00  6 22 -1 9900012 -11 -2 21 2 0.29410855D-01 0.28125994D-02 0.33524803D+04 0.33524803D+04 0.33524803D+04 0.12618755D+01  1  2 12  2  6  5       -2 0.436591730075D-05 0.100000000000D+01
-.592006151487D-08 0.000000000000D+00 0.000000000000D+00 0.485544477146D-07 0.000000000000D+00  6 22 -1 9900012 -11 -2 21 2 0.29410855D-01 0.28125994D-02 0.30649854D+04 0.30649854D+04 0.30649854D+04 0.12665080D+01  1  2  4  2  6  5       -2 -.283219032486D-05 0.100000000000D+01
  </mgrwgt>
  </event>
  <event>
  7     66 0.11047279E-05 0.14431218E+02 0.78161638E-02 0.12986829E+00
       22 -1    0    0    0    0 0.00000000E+00 0.00000000E+00 0.18150828E+04 0.18150828E+04 0.00000000E+00 0.0000E+00 0.9000E+01
       21 -1    0    0  502  501 0.00000000E+00 0.00000000E+00 -.98189014E+01 0.98189014E+01 0.00000000E+00 0.0000E+00 0.9000E+01
       24  2    1    2    0    0 -.76413618E+01 0.20832432E+02 0.11666932E+04 0.11720829E+04 0.11005826E+03 0.0000E+00 0.0000E+00
  9900012  1    3    3    0    0 0.12094559E+02 0.47286201E+01 0.10909268E+04 0.10921492E+04 0.50000000E+02 0.0000E+00 0.9000E+01
      -11  1    3    3    0    0 -.19735921E+02 0.16103812E+02 0.75766468E+02 0.79933704E+02 0.00000000E+00 0.0000E+00 0.9000E+01
        3  1    1    2  502    0 0.40926177E+01 -.16670825E+02 0.32453112E+01 0.17469916E+02 0.00000000E+00 0.0000E+00 0.9000E+01
       -4  1    1    2    0  501 0.35487440E+01 -.41616065E+01 0.63532538E+03 0.63534892E+03 0.00000000E+00 0.0000E+00 0.9000E+01
#aMCatNLO 2  0  0  2  5 0.68299085D+02 0.00000000D+00  -5  6  0 0.00000000D+00 0.00000000D+00 0.00000000D+00 0.00000000D+00 0.00000000D+00
  <mgrwgt>
 0.4209703675D-03    1    2    0
 0.693613764466457D+02 0.000000000000000D+00 0.000000000000000D+00 0.693613764466457D+02
 0.693613764466457D+02 0.000000000000000D+00 0.000000000000000D+00 -.693613764466457D+02
 0.582854157619140D+02 0.138041713425456D+02 -.223529641588136D+01 0.264884502003791D+02
 0.547343361706372D+02 -.180966486949596D+02 0.942641824665219D+01 -.507887930658992D+02
 0.000000000000000D+00 0.000000000000000D+00 -.000000000000000D+00 -.000000000000000D+00
 0.257030009607401D+02 0.429247735241397D+01 -.719112183077084D+01 0.243003428655200D+02
 0.702915053650846D+02 0.000000000000000D+00 0.000000000000000D+00 0.702915053650846D+02
 0.253545845623606D+03 0.000000000000000D+00 0.000000000000000D+00 -.253545845623606D+03
 0.580540799590643D+02 0.120945590109148D+02 0.472862011658453D+01 0.264884502003791D+02
 0.568184900966061D+02 -.197359207773497D+02 0.161038115624088D+02 -.507887930658992D+02
 0.184056565100837D+03 0.409261774217241D+01 -.166708252090055D+02 -.183254340258522D+03
 0.249082158321831D+02 0.354874402426254D+01 -.416160646998783D+01 0.243003428655200D+02
0.178702997157D-05 0.000000000000D+00 0.000000000000D+00 0.597894274634D-08 0.114892717247D-09  6 22 21 9900012 -11 3 -4 2 0.27924351D+00 0.15106002D-02 0.24883267D+04 0.24883267D+04 0.24883267D+04 0.12774870D+01  1  2  1  3  5  2       -3 0.420970367502D-03 0.100000000000D+01
  </mgrwgt>
  </event>
  <event>
  6     66 0.11047279E-05 0.18941261E+02 0.78161638E-02 0.12786165E+00
       22 -1    0    0    0    0 0.00000000E+00 0.00000000E+00 0.50621828E+02 0.50621828E+02 0.00000000E+00 0.0000E+00 0.9000E+01
       -3 -1    0    0    0  501 -.00000000E+00 -.00000000E+00 -.12556971E+03 0.12556971E+03 0.00000000E+00 0.0000E+00 0.9000E+01
       24  2    1    2    0    0 -.12827697E+02 0.13936340E+02 -.10956107E+03 0.13673468E+03 0.79586261E+02 0.0000E+00 0.0000E+00
  9900012  1    3    3    0    0 0.37771474E+01 0.29928913E+02 -.72563273E+02 0.93142017E+02 0.50000000E+02 0.0000E+00 0.9000E+01
      -11  1    3    3    0    0 -.16604844E+02 -.15992573E+02 -.36997797E+02 0.43592662E+02 0.00000000E+00 0.0000E+00 0.9000E+01
       -4  1    1    2    0  501 0.12827697E+02 -.13936340E+02 0.34613185E+02 0.39456862E+02 0.00000000E+00 0.0000E+00 0.9000E+01
#aMCatNLO 1  0  0  5  2 0.83560555D+01 0.00000000D+00  -5  6  0 0.00000000D+00 0.00000000D+00 0.00000000D+00 0.00000000D+00 0.00000000D+00
  <mgrwgt>
 0.4183818610D-05    6    2    0
 0.797280903282764D+02 0.000000000000000D+00 0.000000000000000D+00 0.797280903282764D+02
 0.797280903282764D+02 -.000000000000000D+00 -.000000000000000D+00 -.797280903282764D+02
 0.688112028472494D+02 0.377714736338807D+01 0.299289131515641D+02 -.364002053929191D+02
 0.307780586427569D+02 -.166048438788836D+02 -.159925727579218D+02 -.203913135956824D+02
 0.598669191665465D+02 0.128276965154955D+02 -.139363403936422D+02 0.567915189886015D+02
 0.000000000000000D+00 -.000000000000000D+00 0.000000000000000D+00 0.000000000000000D+00
 0.797280903282764D+02 0.000000000000000D+00 0.000000000000000D+00 0.797280903282764D+02
 0.797280903282764D+02 -.000000000000000D+00 -.000000000000000D+00 -.797280903282764D+02
 0.672399948266427D+02 0.435945424407577D+01 0.292962799353806D+02 -.338221827345392D+02
 0.300361275222201D+02 -.163445556958117D+02 -.162753565543229D+02 -.192389507163784D+02
 0.555978130491851D+02 0.182198504299234D+02 -.126192928033646D+02 0.509892862796324D+02
 0.658224525850491D+01 -.623474897818750D+01 -.401630577693124D+00 0.207184717128513D+01
0.918673017003D-07 0.000000000000D+00 0.000000000000D+00 0.635700476081D-06 0.000000000000D+00  6 22 -3 9900012 -11 -4 21 0 0.77879735D-02 0.19318417D-01 0.25195603D+04 0.25195603D+04 0.25195603D+04 0.12768220D+01  1  2  2  2  6  5       -4 0.834407765155D-05 0.100000000000D+01
-.551927358013D-08 0.000000000000D+00 -.176397313873D-09 0.635700476081D-06 0.000000000000D+00  6 22 -3 9900012 -11 -4 21 2 0.77879735D-02 0.19318417D-01 0.25195603D+04 0.25195603D+04 0.25195603D+04 0.12768220D+01  1  2  3  2  6  5       -4 -.817259563146D-06 0.100000000000D+01
0.377580063754D-08 0.000000000000D+00 0.000000000000D+00 0.635700476081D-06 0.000000000000D+00  6 22 -3 9900012 -11 -4 21 2 0.77879735D-02 0.19318417D-01 0.25195603D+04 0.25195603D+04 0.25195603D+04 0.12768220D+01  1  2 15  2  6  5       -4 0.559096978027D-06 0.100000000000D+01
0.181567464601D-06 0.000000000000D+00 0.000000000000D+00 0.635700476081D-06 0.000000000000D+00  6 22 -3 9900012 -11 -4 21 2 0.77879735D-02 0.19318417D-01 0.30025509D+04 0.30025509D+04 0.30025509D+04 0.12675792D+01  1  2 12  2  6  5       -4 0.270416048325D-04 0.100000000000D+01
-.209292869073D-06 0.000000000000D+00 0.000000000000D+00 0.635700476081D-06 0.000000000000D+00  6 22 -3 9900012 -11 -4 21 2 0.77879735D-02 0.19318417D-01 0.25195603D+04 0.25195603D+04 0.25195603D+04 0.12768220D+01  1  2  4  2  6  5       -4 -.309907809904D-04 0.100000000000D+01
0.316110754912D-09 0.000000000000D+00 0.000000000000D+00 0.635700476081D-06 0.730550850855D-07  6 22 -3 9900012 -11 -4 21 2 0.77879735D-02 0.19318417D-01 0.30025509D+04 0.30025509D+04 0.30025509D+04 0.12675792D+01  1  2 11  2  6  5       -4 0.470797019523D-07 0.100000000000D+01
  </mgrwgt>
  </event>
  <event>
  6     66 0.11047279E-05 0.33280090E+02 0.78161638E-02 0.12569477E+00
       22 -1    0    0    0    0 0.00000000E+00 0.00000000E+00 0.47766805E+01 0.47766805E+01 0.00000000E+00 0.0000E+00 0.9000E+01
       -1 -1    0    0    0  501 0.00000000E+00 0.00000000E+00 -.78242271E+03 0.78242271E+03 0.00000000E+00 0.0000E+00 0.9000E+01
       24  2    1    2    0    0 -.33278797E+02 -.29329656E+00 -.57011367E+03 0.57701556E+03 0.82521451E+02 0.0000E+00 0.0000E+00
  9900012  1    3    3    0    0 -.45446425E+02 0.14676519E+02 -.47020057E+03 0.47525714E+03 0.50000000E+02 0.0000E+00 0.9000E+01
      -11  1    3    3    0    0 0.12167627E+02 -.14969816E+02 -.99913109E+02 0.10175842E+03 0.00000000E+00 0.0000E+00 0.9000E+01
       -2  1    1    2    0  501 0.33278797E+02 0.29329656E+00 -.20753236E+03 0.21018383E+03 0.00000000E+00 0.0000E+00 0.9000E+01
#aMCatNLO 1  0  0  2  2 0.11284951D+03 0.00000000D+00  -5  6  0 0.00000000D+00 0.00000000D+00 0.00000000D+00 0.00000000D+00 0.00000000D+00
  <mgrwgt>
 0.6025787800D-06    1    2    0
 0.611341418670684D+02 0.000000000000000D+00 0.000000000000000D+00 0.611341418670684D+02
 0.611341418670684D+02 0.000000000000000D+00 0.000000000000000D+00 -.611341418670684D+02
 0.692945724667804D+02 -.454464247773351D+02 0.146765189489023D+02 -.457821360952152D+01
 0.196873057224001D+02 0.121676273974398D+02 -.149698155111275D+02 0.392981853106818D+01
 0.332864055449564D+02 0.332787973798954D+02 0.293296562225191D+00 0.648395078453343D+00
 0.000000000000000D+00 -.000000000000000D+00 0.000000000000000D+00 -.000000000000000D+00
 0.111657881073920D+03 0.000000000000000D+00 0.000000000000000D+00 0.111657881073920D+03
 0.158975897752862D+03 0.000000000000000D+00 0.000000000000000D+00 -.158975897752862D+03
 0.613238037499150D+02 -.229559168234098D+02 -.266959687837016D+02 -.457821360952152D+01
 0.412855207341521D+02 0.226662255129101D+02 -.342825461364946D+02 0.392981853106818D+01
 0.561904770771790D+02 0.486853626626168D+02 -.280479011762502D+02 0.648395078453343D+00
 0.111833977265536D+03 -.483956713521171D+02 0.890264160964464D+02 -.473180166789417D+02
0.322282468366D-08 0.000000000000D+00 0.000000000000D+00 0.162602201127D-07 0.000000000000D+00  6 22 -1 9900012 -11 -2 21 2 0.73487392D-03 0.12037272D+00 0.37035962D+04 0.37035962D+04 0.37035962D+04 0.12567924D+01  1  2 14  1  6  2       -1 0.602578779958D-06 0.100000000000D+01
  </mgrwgt>
  </event>
  <event>
  7     66 0.11047279E-05 0.10555669E+02 0.78161638E-02 0.12723519E+00
       22 -1    0    0    0    0 0.00000000E+00 0.00000000E+00 0.43559056E+02 0.43559056E+02 0.00000000E+00 0.0000E+00 0.9000E+01
       -3 -1    0    0    0  502 0.00000000E+00 0.00000000E+00 -.10725693E+03 0.10725693E+03 0.00000000E+00 0.0000E+00 0.9000E+01
       24  2    1    2    0    0 0.66277516E+01 0.15640873E+02 -.73850779E+02 0.10938051E+03 0.78877081E+02 0.0000E+00 0.0000E+00
  9900012  1    3    3    0    0 0.45106718E+01 -.13084817E+02 -.47144102E+02 0.70100820E+02 0.50000000E+02 0.0000E+00 0.9000E+01
      -11  1    3    3    0    0 0.21170799E+01 0.28725690E+02 -.26706676E+02 0.39279688E+02 0.00000000E+00 0.0000E+00 0.9000E+01
       -4  1    1    2    0  501 0.78238205E+01 -.15969800E+02 0.17732508E+02 0.25113513E+02 0.00000000E+00 0.0000E+00 0.9000E+01
       21  1    1    2  501  502 -.14451572E+02 0.32892783E+00 -.75796005E+01 0.16321963E+02 0.00000000E+00 0.0000E+00 0.9000E+01
#aMCatNLO 2  0  0  2  2 0.19928612D+02 0.00000000D+00  -5  6  0 0.00000000D+00 0.00000000D+00 0.00000000D+00 0.00000000D+00 0.00000000D+00
  <mgrwgt>
 0.4389773738D-05    1    2    0
 0.606844812634487D+02 0.000000000000000D+00 0.000000000000000D+00 0.606844812634487D+02
 0.606844812634487D+02 0.000000000000000D+00 0.000000000000000D+00 -.606844812634487D+02
 0.553107254977210D+02 -.206276200057183D+01 -.129352013847796D+02 -.196901481240858D+02
 0.310046659747166D+02 -.155904389783341D+01 0.288093610734211D+02 -.113525067218490D+02
 0.350535710544597D+02 0.362180589840524D+01 -.158741596886415D+02 0.310426548459349D+02
 0.000000000000000D+00 -.000000000000000D+00 0.000000000000000D+00 -.000000000000000D+00
 0.679302254922262D+02 0.000000000000000D+00 0.000000000000000D+00 0.679302254922262D+02
 0.687766081501348D+02 0.000000000000000D+00 0.000000000000000D+00 -.687766081501348D+02
 0.554910852015205D+02 0.451067176009123D+01 -.130848173073484D+02 -.196901481240858D+02
 0.309600823412618D+02 0.211707985845490D+01 0.287256899409050D+02 -.113525067218490D+02
 0.357755938245319D+02 0.782382047485404D+01 -.159698004618497D+02 0.310426548459349D+02
 0.144800722750467D+02 -.144515720934002D+02 0.328927828293175D+00 -.846382657908660D+00
0.183241981589D-07 0.000000000000D+00 0.000000000000D+00 0.228627685169D-06 0.708457996166D-08  6 22 -3 9900012 -11 -4 21 2 0.67013932D-02 0.16501066D-01 0.31878712D+04 0.31878712D+04 0.31878712D+04 0.12644701D+01  1  2  1  1  6  2       -3 0.438977373794D-05 0.100000000000D+01
  </mgrwgt>
  </event>
  <event>
  7     66 0.11047279E-05 0.47719292E+02 0.78161638E-02 0.12048059E+00
       22 -1    0    0    0    0 0.00000000E+00 0.00000000E+00 0.35837358E+03 0.35837358E+03 0.00000000E+00 0.0000E+00 0.9000E+01
       21 -1    0    0  502  501 0.00000000E+00 0.00000000E+00 -.45251780E+02 0.45251780E+02 0.00000000E+00 0.0000E+00 0.9000E+01
       24  2    1    2    0    0 -.59792397E+01 -.55052883E+02 0.85958156E+02 0.13056639E+03 0.81192406E+02 0.0000E+00 0.0000E+00
  9900012  1    3    3    0    0 0.16489647E+02 -.45971894E+02 0.78724616E+02 0.10527530E+03 0.50000000E+02 0.0000E+00 0.9000E+01
      -11  1    3    3    0    0 -.22468887E+02 -.90809894E+01 0.72335398E+01 0.25291092E+02 0.00000000E+00 0.0000E+00 0.9000E+01
        3  1    1    2  502    0 0.95688023E+01 0.58965163E+02 0.16018324E+02 0.61846901E+02 0.00000000E+00 0.0000E+00 0.9000E+01
       -4  1    1    2    0  501 -.35895626E+01 -.39122801E+01 0.21114532E+03 0.21121207E+03 0.00000000E+00 0.0000E+00 0.9000E+01
#aMCatNLO 2  0  0  2  5 0.65833318D+02 0.00000000D+00  -5  6  0 0.00000000D+00 0.00000000D+00 0.00000000D+00 0.00000000D+00 0.00000000D+00
  <mgrwgt>
 0.4442191488D-04    1    2    0
 0.790151676672121D+02 0.000000000000000D+00 0.000000000000000D+00 0.790151676672121D+02
 0.790151676672121D+02 0.000000000000000D+00 0.000000000000000D+00 -.790151676672121D+02
 0.635227308614843D+02 0.205297334685564D+02 -.210759528018930D+02 -.258741491319614D+02
 0.363498463274732D+02 -.202800742852387D+02 0.440697881467577D+01 -.298430637291668D+02
 0.000000000000000D+00 0.000000000000000D+00 0.000000000000000D+00 -.000000000000000D+00
 0.581577581454668D+02 -.249659183317711D+00 0.166689739872172D+02 0.557172128611282D+02
 0.947671625527564D+02 0.000000000000000D+00 0.000000000000000D+00 0.947671625527564D+02
 0.171125123234961D+03 0.000000000000000D+00 0.000000000000000D+00 -.171125123234961D+03
 0.745304977983891D+02 0.164896473218476D+02 -.459718940220412D+02 -.258741491319614D+02
 0.384437732974646D+02 -.224688870311789D+02 -.908098938353414D+01 -.298430637291668D+02
 0.969483916434733D+02 0.956880232118410D+01 0.589651634853090D+02 -.763579606822050D+02
 0.559696230483908D+02 -.358956261185287D+01 -.391228007973369D+01 0.557172128611282D+02
0.594165816054D-07 0.000000000000D+00 0.000000000000D+00 0.524548327243D-06 0.146829211174D-08  6 22 21 9900012 -11 3 -4 2 0.55134397D-01 0.69618123D-02 0.63342269D+04 0.63342269D+04 0.63342269D+04 0.12304486D+01  1  2  1  3  5  2       -3 0.444219148806D-04 0.100000000000D+01
  </mgrwgt>
  </event>
  <event>
  7     66 0.11047279E-05 0.71695812E+02 0.78161638E-02 0.11129092E+00
       22 -1    0    0    0    0 0.00000000E+00 0.00000000E+00 0.13255003E+04 0.13255003E+04 0.00000000E+00 0.0000E+00 0.9000E+01
       21 -1    0    0  502  501 0.00000000E+00 0.00000000E+00 -.12265423E+03 0.12265423E+03 0.00000000E+00 0.0000E+00 0.9000E+01
       24  2    1    2    0    0 -.65516155E+02 -.11031803E+03 0.13335834E+03 0.20181966E+03 0.80525116E+02 0.0000E+00 0.0000E+00
  9900012  1    3    3    0    0 -.44806808E+02 -.92279438E+02 0.13175948E+03 0.17430923E+03 0.50000000E+02 0.0000E+00 0.9000E+01
      -11  1    3    3    0    0 -.20709346E+02 -.18038589E+02 0.15988602E+01 0.27510435E+02 0.00000000E+00 0.0000E+00 0.9000E+01
        3  1    1    2  502    0 0.67197706E+02 0.10961455E+03 -.41684654E+02 0.13516099E+03 0.00000000E+00 0.0000E+00 0.9000E+01
       -4  1    1    2    0  501 -.16815510E+01 0.70347199E+00 0.11111724E+04 0.11111738E+04 0.00000000E+00 0.0000E+00 0.9000E+01
#aMCatNLO 2  0  0  2  5 0.30884144D+02 0.00000000D+00  -5  6  0 0.00000000D+00 0.00000000D+00 0.00000000D+00 0.00000000D+00 0.00000000D+00
  <mgrwgt>
 0.5599026690D-02    1    2    0
 0.199100739840091D+03 0.000000000000000D+00 0.000000000000000D+00 0.199100739840091D+03
 0.199100739840091D+03 0.000000000000000D+00 0.000000000000000D+00 -.199100739840091D+03
 0.129989663161208D+03 -.213506473754671D+02 -.540171693584291D+02 -.104993370266486D+03
 0.772530533648730D+02 -.764083444797729D+01 0.327908978060342D+01 -.768042933262540D+02
 0.000000000000000D+00 0.000000000000000D+00 0.000000000000000D+00 -.000000000000000D+00
 0.190958763154101D+03 0.289914818234444D+02 0.507380795778256D+02 0.181797663592740D+03
 0.216868918052474D+03 0.000000000000000D+00 0.000000000000000D+00 0.216868918052474D+03
 0.749661189924547D+03 0.000000000000000D+00 0.000000000000000D+00 -.749661189924547D+03
 0.155070153520271D+03 -.448068084604510D+02 -.922794377338388D+02 -.104993370266486D+03
 0.815669490648022D+02 -.207093461865876D+02 -.180385888283658D+02 -.768042933262540D+02
 0.548086204159084D+03 0.671977056873093D+02 0.109614554568591D+03 -.532792271872073D+03
 0.181806801232864D+03 -.168155104027074D+01 0.703471993613931D+00 0.181797663592740D+03
0.572162452104D-03 0.000000000000D+00 0.000000000000D+00 0.879814632603D-06 0.192470059468D-06  6 22 21 9900012 -11 3 -4 2 0.20392312D+00 0.18869881D-01 0.18493032D+05 0.18493032D+05 0.18493032D+05 0.11825916D+01  1  2  1  3  5  2       -3 0.559902669037D-02 0.100000000000D+01
  </mgrwgt>
  </event>
  <event>
  7     66 0.11047279E-05 0.15351804E+02 0.78161638E-02 0.12800045E+00
       22 -1    0    0    0    0 0.00000000E+00 0.00000000E+00 0.25560893E+03 0.25560893E+03 0.00000000E+00 0.0000E+00 0.9000E+01
       -1 -1    0    0    0  502 0.00000000E+00 0.00000000E+00 -.48630511E+02 0.48630511E+02 0.00000000E+00 0.0000E+00 0.9000E+01
       24  2    1    2    0    0 -.15188105E+02 -.14492319E+02 0.92910837E+02 0.12516055E+03 0.81191345E+02 0.0000E+00 0.0000E+00
  9900012  1    3    3    0    0 -.27421364E+02 0.90579977E+00 0.88042149E+02 0.10490077E+03 0.50000000E+02 0.0000E+00 0.9000E+01
      -11  1    3    3    0    0 0.12233258E+02 -.15398119E+02 0.48686882E+01 0.20259783E+02 0.00000000E+00 0.0000E+00 0.9000E+01
       -2  1    1    2    0  501 -.52616765E+01 0.99023921E+01 0.14295235E+03 0.14339148E+03 0.00000000E+00 0.0000E+00 0.9000E+01
       21  1    1    2  501  502 0.20449782E+02 0.45899268E+01 -.28884769E+02 0.35687405E+02 0.00000000E+00 0.0000E+00 0.9000E+01
#aMCatNLO 2  0  0  2  5 0.13163743D+02 0.00000000D+00  -5  6  0 0.00000000D+00 0.00000000D+00 0.00000000D+00 0.00000000D+00 0.00000000D+00
  <mgrwgt>
 0.1260300228D-04    1    2    0
 0.633432937645638D+02 0.000000000000000D+00 0.000000000000000D+00 0.633432937645638D+02
 0.633432937645638D+02 0.000000000000000D+00 0.000000000000000D+00 -.633432937645638D+02
 0.540610520236810D+02 -.184643501425932D+02 0.291618974605430D+01 -.855341785977216D+01
 0.352993390540480D+02 0.177428204747021D+02 -.141615046455851D+02 -.270312309269889D+02
 0.373261964513985D+02 0.721529667891111D+00 0.112453148995308D+02 0.355846487867611D+02
 0.000000000000000D+00 0.000000000000000D+00 0.000000000000000D+00 -.000000000000000D+00
 0.650701391837467D+02 0.000000000000000D+00 0.000000000000000D+00 0.650701391837467D+02
 0.191030679634226D+03 0.000000000000000D+00 0.000000000000000D+00 -.191030679634226D+03
 0.576707257802083D+02 -.274213636005711D+02 0.905799766721148D+00 -.855341785977216D+01
 0.334281634982929D+02 0.122332584020838D+02 -.153981186613249D+02 -.270312309269889D+02
 0.373096480545681D+02 -.526167651415728D+01 0.990239208166222D+01 0.355846487867611D+02
 0.127692281484904D+03 0.204497817126446D+02 0.458992681294156D+01 -.125960540450479D+03
0.166652399474D-06 0.000000000000D+00 0.000000000000D+00 0.668894418126D-06 0.242777868151D-07  6 22 -1 9900012 -11 -2 21 2 0.39324451D-01 0.74816170D-02 0.29632255D+04 0.29632255D+04 0.29632255D+04 0.12682669D+01  1  2  1  1  6  2       -1 0.126030022836D-04 0.100000000000D+01
  </mgrwgt>
  </event>
  <event>
  6     66 0.11047279E-05 0.78234388E+02 0.78161638E-02 0.10872176E+00
       22 -1    0    0    0    0 0.00000000E+00 0.00000000E+00 0.18836821E+03 0.18836821E+03 0.00000000E+00 0.0000E+00 0.9000E+01
       -3 -1    0    0    0  501 0.00000000E+00 0.00000000E+00 -.59128271E+02 0.59128271E+02 0.00000000E+00 0.0000E+00 0.9000E+01
       24  2    1    2    0    0 0.35406504E+02 0.69763880E+02 0.20986113E+02 0.11393185E+03 0.80121348E+02 0.0000E+00 0.0000E+00
  9900012  1    3    3    0    0 0.50822525E+02 0.51295085E+02 0.18393139E+02 0.89735290E+02 0.50000000E+02 0.0000E+00 0.9000E+01
      -11  1    3    3    0    0 -.15416020E+02 0.18468794E+02 0.25929744E+01 0.24196561E+02 0.00000000E+00 0.0000E+00 0.9000E+01
       -4  1    1    2    0  501 -.35406504E+02 -.69763880E+02 0.10825383E+03 0.13356463E+03 0.00000000E+00 0.0000E+00 0.9000E+01
#aMCatNLO 1  0  0  2  5 0.30963847D+02 0.00000000D+00  -5  6  0 0.00000000D+00 0.00000000D+00 0.00000000D+00 0.00000000D+00 0.00000000D+00
  <mgrwgt>
 0.1424725168D-05    5    4    0
 0.105536186271611D+03 0.000000000000000D+00 0.000000000000000D+00 0.105536186271611D+03
 0.105536186271611D+03 0.000000000000000D+00 0.000000000000000D+00 -.105536186271611D+03
 0.939584857447206D+02 0.508225246406596D+02 0.512950851900592D+02 -.333778709317262D+02
 0.267844050018124D+02 -.154160204038936D+02 0.184687944983975D+02 -.117751558793850D+02
 0.903294817966897D+02 -.354065042367660D+02 -.697638796884566D+02 0.451530268111111D+02
 0.000000000000000D+00 0.000000000000000D+00 0.000000000000000D+00 -.000000000000000D+00
 0.128497975413895D+03 0.000000000000000D+00 0.000000000000000D+00 0.128497975413895D+03
 0.368169601408665D+03 0.000000000000000D+00 0.000000000000000D+00 -.368169601408665D+03
 0.758069620983494D+02 0.117897964611094D+02 0.446499040766183D+02 -.333778709317262D+02
 0.358336742584080D+02 -.298132637649165D+02 0.160177157721504D+02 -.117751558793850D+02
 0.123715717591796D+03 -.846200997711853D+02 -.781423167289189D+02 0.451530268111111D+02
 0.261311222874007D+03 0.102643567074992D+03 0.174746968801502D+02 -.239671625994771D+03
 0.105536186271611D+03 0.000000000000000D+00 0.000000000000000D+00 0.105536186271611D+03
 0.105536186271611D+03 0.000000000000000D+00 0.000000000000000D+00 -.105536186271611D+03
 0.939584857447206D+02 0.508225246406596D+02 0.512950851900592D+02 -.333778709317262D+02
 0.267844050018124D+02 -.154160204038936D+02 0.184687944983975D+02 -.117751558793850D+02
 0.000000000000000D+00 0.000000000000000D+00 0.000000000000000D+00 -.000000000000000D+00
 0.903294817966897D+02 -.354065042367660D+02 -.697638796884566D+02 0.451530268111111D+02
 0.128497975413895D+03 0.000000000000000D+00 0.000000000000000D+00 0.128497975413895D+03
 0.368169601408665D+03 0.000000000000000D+00 0.000000000000000D+00 -.368169601408665D+03
 0.758069620983494D+02 0.117897964611094D+02 0.446499040766183D+02 -.333778709317262D+02
 0.358336742584080D+02 -.298132637649165D+02 0.160177157721504D+02 -.117751558793850D+02
 0.261311222874007D+03 0.102643567074992D+03 0.174746968801502D+02 -.239671625994771D+03
 0.123715717591796D+03 -.846200997711853D+02 -.781423167289189D+02 0.451530268111111D+02
0.418510556068D-07 0.000000000000D+00 0.000000000000D+00 0.102878888550D-06 0.000000000000D+00  6 22 -3 9900012 -11 -4 21 0 0.28979725D-01 0.90966570D-02 0.90365601D+04 0.90365601D+04 0.90365601D+04 0.12139176D+01  1  2  2  1  6  2       -3 0.222834316821D-05 0.100000000000D+01
-.258453516192D-08 0.000000000000D+00 -.803595365830D-10 0.102878888550D-06 0.000000000000D+00  6 22 -3 9900012 -11 -4 21 2 0.28979725D-01 0.90966570D-02 0.90365601D+04 0.90365601D+04 0.90365601D+04 0.12139176D+01  1  2  3  1  6  2       -3 -.202785327012D-06 0.100000000000D+01
0.272801752121D-09 0.000000000000D+00 0.000000000000D+00 0.102878888550D-06 0.000000000000D+00  6 22 -3 9900012 -11 -4 21 2 0.28979725D-01 0.90966570D-02 0.90365601D+04 0.90365601D+04 0.90365601D+04 0.12139176D+01  1  2 15  1  6  2       -3 0.214043102715D-07 0.100000000000D+01
-.249176521489D-07 0.000000000000D+00 -.111768141668D-07 0.102878888550D-06 0.000000000000D+00  6 22 -3 9900012 -11 -4 21 2 0.28979725D-01 0.37608286D-01 0.90365601D+04 0.90365601D+04 0.90365601D+04 0.12139176D+01  1  2  5  1  6  2       -3 -.167927387109D-06 0.100000000000D+01
-.416924571751D-08 0.000000000000D+00 -.190095491437D-08 0.102878888550D-06 0.000000000000D+00  6 22 21 9900012 -11 3 -4 2 0.28979725D-01 0.37608286D-01 0.90365601D+04 0.90365601D+04 0.90365601D+04 0.12139176D+01  3  4  5  3  5  2       -3 -.454309596126D-06 0.100000000000D+01
  </mgrwgt>
  </event>
  <event>
  7     66 0.11047279E-05 0.19642776E+02 0.78161638E-02 0.12937038E+00
       22 -1    0    0    0    0 0.00000000E+00 0.00000000E+00 0.45782020E+02 0.45782020E+02 0.00000000E+00 0.0000E+00 0.9000E+01
       -1 -1    0    0    0  502 0.00000000E+00 0.00000000E+00 -.76080394E+03 0.76080394E+03 0.00000000E+00 0.0000E+00 0.9000E+01
       24  2    1    2    0    0 -.22895087E+01 -.20577316E+02 -.25443865E+03 0.26797837E+03 0.81515090E+02 0.0000E+00 0.0000E+00
  9900012  1    3    3    0    0 0.16941604E+02 0.54941463E+00 -.13018977E+03 0.14048735E+03 0.50000000E+02 0.0000E+00 0.9000E+01
      -11  1    3    3    0    0 -.19231112E+02 -.21126730E+02 -.12424888E+03 0.12749101E+03 0.00000000E+00 0.0000E+00 0.9000E+01
       -2  1    1    2    0  501 -.99887828E-01 0.71619060E+00 0.38808544E+02 0.38815280E+02 0.00000000E+00 0.0000E+00 0.9000E+01
       21  1    1    2  501  502 0.23893966E+01 0.19861125E+02 -.49939182E+03 0.49979232E+03 0.00000000E+00 0.0000E+00 0.9000E+01
#aMCatNLO 2  0  0  2  5 0.26879385D+02 0.00000000D+00  -5  6  0 0.00000000D+00 0.00000000D+00 0.00000000D+00 0.00000000D+00 0.00000000D+00
  <mgrwgt>
 0.2631800231D-01    1    2    0
 0.108657518216823D+03 0.000000000000000D+00 0.000000000000000D+00 0.108657518216823D+03
 0.108657518216823D+03 0.000000000000000D+00 0.000000000000000D+00 -.108657518216823D+03
 0.693885959148751D+02 0.177000328975494D+02 0.685362596680594D+01 -.442098845233803D+02
 0.545571188242589D+02 -.186220747355806D+02 -.160642931531376D+02 -.486994459150904D+02
 0.933693216945126D+02 0.922041838031192D+00 0.921066718633164D+01 0.929093304384706D+02
 0.000000000000000D+00 0.000000000000000D+00 0.000000000000000D+00 -.000000000000000D+00
 0.109596281274515D+03 0.000000000000000D+00 0.000000000000000D+00 0.109596281274515D+03
 0.317813165922487D+03 0.000000000000000D+00 0.000000000000000D+00 -.317813165922487D+03
 0.688609735325277D+02 0.169416035204536D+02 0.549414627232730D+00 -.442098845233803D+02
 0.564606982931182D+02 -.192311122480981D+02 -.211267304855902D+02 -.486994459150904D+02
 0.929121444649337D+02 -.998878280683639D-01 0.716190595853082D+00 0.929093304384706D+02
 0.209175630906423D+03 0.238939655571281D+01 0.198611252625044D+02 -.208216884647972D+03
0.268183089141D-02 0.000000000000D+00 0.000000000000D+00 0.425329247663D-05 0.169367961538D-04  6 22 -1 9900012 -11 -2 21 2 0.70433876D-02 0.11704676D+00 0.26056584D+04 0.26056584D+04 0.26056584D+04 0.12750357D+01  1  2  1  1  6  2       -1 0.263180023099D-01 0.100000000000D+01
  </mgrwgt>
  </event>
  <event>
  7     66 0.11047279E-05 0.33903258E+02 0.78161638E-02 0.12487693E+00
       22 -1    0    0    0    0 0.00000000E+00 0.00000000E+00 0.91029460E+03 0.91029460E+03 0.00000000E+00 0.0000E+00 0.9000E+01
       21 -1    0    0  502  501 0.00000000E+00 0.00000000E+00 -.23534170E+02 0.23534170E+02 0.00000000E+00 0.0000E+00 0.9000E+01
       24  2    1    2    0    0 0.17485282E+02 -.30875504E+02 0.20606643E+03 0.22523034E+03 0.83703646E+02 0.0000E+00 0.0000E+00
  9900012  1    3    3    0    0 -.25121963E+01 -.20941374E+01 0.15792324E+03 0.16568177E+03 0.50000000E+02 0.0000E+00 0.9000E+01
      -11  1    3    3    0    0 0.19997479E+02 -.28781367E+02 0.48143185E+02 0.59548572E+02 0.00000000E+00 0.0000E+00 0.9000E+01
        3  1    1    2  502    0 -.13362904E+02 0.33933181E+02 0.99062286E+01 0.37791022E+02 0.00000000E+00 0.0000E+00 0.9000E+01
       -4  1    1    2    0  501 -.41223781E+01 -.30576774E+01 0.67078777E+03 0.67080740E+03 0.00000000E+00 0.0000E+00 0.9000E+01
#aMCatNLO 2  0  0  2  5 0.82484189D+02 0.00000000D+00  -5  6  0 0.00000000D+00 0.00000000D+00 0.00000000D+00 0.00000000D+00 0.00000000D+00
  <mgrwgt>
 0.1372486097D-03    1    2    0
 0.903885014824488D+02 0.000000000000000D+00 0.000000000000000D+00 0.903885014824488D+02
 0.903885014824488D+02 0.000000000000000D+00 0.000000000000000D+00 -.903885014824488D+02
 0.550068064660503D+02 -.650540012996709D+01 0.804603194587230D+01 -.204619133188601D+02
 0.547599903370487D+02 0.157827984466159D+02 -.180787900607793D+02 -.492211048722540D+02
 0.000000000000000D+00 -.000000000000000D+00 0.000000000000000D+00 -.000000000000000D+00
 0.710102061617985D+02 -.927739831664878D+01 0.100327581149070D+02 0.696830181911141D+02
 0.946902508956091D+02 0.000000000000000D+00 0.000000000000000D+00 0.946902508956091D+02
 0.226243221047864D+03 0.000000000000000D+00 0.000000000000000D+00 -.226243221047864D+03
 0.541238065742603D+02 -.251219627861869D+01 -.209413735869676D+01 -.204619133188601D+02
 0.604233678848315D+02 0.199974786069203D+02 -.287813667338093D+02 -.492211048722540D+02
 0.136514511929804D+03 -.133629041864195D+02 0.339331814490947D+02 -.131552970152254D+03
 0.698717855545770D+02 -.412237814188203D+01 -.305767735658862D+01 0.696830181911141D+02
0.380431639308D-06 0.000000000000D+00 0.000000000000D+00 0.353127947561D-06 0.118632163438D-08  6 22 21 9900012 -11 3 -4 2 0.14004532D+00 0.36206415D-02 0.40167462D+04 0.40167462D+04 0.40167462D+04 0.12526970D+01  1  2  1  3  5  2       -3 0.137248609653D-03 0.100000000000D+01
  </mgrwgt>
  </event>
  <event>
  6     66 0.11047279E-05 0.51498791E+02 0.78161638E-02 0.99843229E-01
       22 -1    0    0    0    0 0.00000000E+00 0.00000000E+00 0.16351426E+03 0.16351426E+03 0.00000000E+00 0.0000E+00 0.9000E+01
       -1 -1    0    0    0  501 0.00000000E+00 0.00000000E+00 -.12963505E+03 0.12963505E+03 0.00000000E+00 0.0000E+00 0.9000E+01
       24  2    1    2    0    0 0.35104239E+02 -.37680471E+02 -.10577211E+03 0.14430504E+03 0.83570816E+02 0.0000E+00 0.0000E+00
  9900012  1    3    3    0    0 0.65328575E+01 -.43938454E+02 -.59249288E+02 0.89351800E+02 0.50000000E+02 0.0000E+00 0.9000E+01
      -11  1    3    3    0    0 0.28571382E+02 0.62579838E+01 -.46522820E+02 0.54953244E+02 0.00000000E+00 0.0000E+00 0.9000E+01
       -2  1    1    2    0  501 -.35104239E+02 0.37680471E+02 0.13965132E+03 0.14884427E+03 0.00000000E+00 0.0000E+00 0.9000E+01
#aMCatNLO 1  0  0  2  5 0.17122782D+00 0.00000000D+00  -5  6  0 0.00000000D+00 0.00000000D+00 0.00000000D+00 0.00000000D+00 0.00000000D+00
  <mgrwgt>
 0.1461850700D-04    3    2    0
 0.145592511482344D+03 0.000000000000000D+00 0.000000000000000D+00 0.145592511482344D+03
 0.145592511482344D+03 0.000000000000000D+00 0.000000000000000D+00 -.145592511482344D+03
 0.968481731174957D+02 0.653285746308419D+01 -.439384544491864D+02 -.700450043199386D+02
 0.607368529718274D+02 0.285713815083835D+02 0.625798376071852D+01 -.532304340286115D+02
 0.133599996875365D+03 -.351042389714677D+02 0.376804706884678D+02 0.123275438348550D+03
 0.000000000000000D+00 0.000000000000000D+00 -.000000000000000D+00 0.000000000000000D+00
 0.381439253794922D+03 0.000000000000000D+00 0.000000000000000D+00 0.381439253794922D+03
 0.321927408292377D+03 0.000000000000000D+00 0.000000000000000D+00 -.321927408292377D+03
 0.951955423683239D+02 -.323128685648539D+02 0.247339277457022D+02 -.700450043199386D+02
 0.768816204890870D+02 0.734544968733811D+00 0.554685938693470D+02 -.532304340286115D+02
 0.237362003245808D+03 -.110140738796671D+03 0.170331748485593D+03 0.123275438348550D+03
 0.293927495984081D+03 0.141719062392791D+03 -.250534270100642D+03 0.595118455025452D+02
0.639419378161D-06 0.000000000000D+00 0.000000000000D+00 0.585070495102D-07 0.000000000000D+00  6 22 -1 9900012 -11 -2 21 0 0.25156040D-01 0.19943854D-01 0.54486517D+04 0.54486517D+04 0.54486517D+04 0.12376660D+01  1  2  2  1  6  2       -1 0.148662263308D-04 0.100000000000D+01
-.305124822864D-07 0.000000000000D+00 -.122776938756D-08 0.585070495102D-07 0.000000000000D+00  6 22 -1 9900012 -11 -2 21 2 0.25156040D-01 0.19943854D-01 0.54486517D+04 0.54486517D+04 0.54486517D+04 0.12376660D+01  1  2  3  1  6  2       -1 -.108667434698D-05 0.100000000000D+01
0.235568274672D-07 0.000000000000D+00 0.000000000000D+00 0.585070495102D-07 0.000000000000D+00  6 22 -1 9900012 -11 -2 21 2 0.25156040D-01 0.19943854D-01 0.54486517D+04 0.54486517D+04 0.54486517D+04 0.12376660D+01  1  2 15  1  6  2       -1 0.838955017309D-06 0.100000000000D+01
  </mgrwgt>
  </event>
  <event>
  6     66 0.11047279E-05 0.11560481E+03 0.78161638E-02 0.89694230E-01
       22 -1    0    0    0    0 0.00000000E+00 0.00000000E+00 0.75338809E+02 0.75338809E+02 0.00000000E+00 0.0000E+00 0.9000E+01
       -1 -1    0    0    0  501 0.00000000E+00 0.00000000E+00 -.22627094E+03 0.22627094E+03 0.00000000E+00 0.0000E+00 0.9000E+01
       24  2    1    2    0    0 0.11443152E+03 -.16428620E+02 -.55902132E+02 0.15195958E+03 0.81253883E+02 0.0000E+00 0.0000E+00
  9900012  1    3    3    0    0 0.82551545E+02 0.12898072E+02 -.45140036E+02 0.10732540E+03 0.50000000E+02 0.0000E+00 0.9000E+01
      -11  1    3    3    0    0 0.31879975E+02 -.29326692E+02 -.10762096E+02 0.44634184E+02 0.00000000E+00 0.0000E+00 0.9000E+01
       -2  1    1    2    0  501 -.11443152E+03 0.16428620E+02 -.95030003E+02 0.14965017E+03 0.00000000E+00 0.0000E+00 0.9000E+01
#aMCatNLO 1  0  0  2  2 0.12193076D+04 0.00000000D+00  -5  6  0 0.00000000D+00 0.00000000D+00 0.00000000D+00 0.00000000D+00 0.00000000D+00
  <mgrwgt>
 0.1554292040D-04    3    2    0
 0.130564096645238D+03 0.000000000000000D+00 0.000000000000000D+00 0.130564096645238D+03
 0.130564096645238D+03 0.000000000000000D+00 0.000000000000000D+00 -.130564096645238D+03
 0.978726342799614D+02 0.825515448501317D+02 0.128980722282673D+02 0.989619707514817D+01
 0.453331334141170D+02 0.318799753849423D+02 -.293266923890972D+02 0.133680689747200D+02
 0.117922425596398D+03 -.114431520235074D+03 0.164286201608299D+02 -.232642660498682D+02
 0.000000000000000D+00 -.000000000000000D+00 0.000000000000000D+00 0.000000000000000D+00
 0.102982718295635D+04 0.000000000000000D+00 0.000000000000000D+00 0.102982718295635D+04
 0.595453473703840D+03 0.000000000000000D+00 0.000000000000000D+00 -.595453473703840D+03
 0.510555298553985D+03 0.503399982904265D+03 -.682439402217115D+02 0.989619707514817D+01
 0.237716064622377D+03 0.227664564582369D+03 -.670750933279837D+02 0.133680689747200D+02
 0.273007254423711D+02 -.139809442740166D+02 -.293883174876053D+01 -.232642660498682D+02
 0.849708568041453D+03 -.717083603212617D+03 0.138257865298456D+03 0.434373709252507D+03
0.505664654610D-06 0.000000000000D+00 0.000000000000D+00 0.128357178518D-06 0.000000000000D+00  6 22 -1 9900012 -11 -2 21 0 0.11590586D-01 0.34810914D-01 0.16421543D+05 0.16421543D+05 0.16421543D+05 0.11876147D+01  1  2  2  1  6  2       -1 0.164848936049D-04 0.100000000000D+01
-.172365174957D-07 0.000000000000D+00 -.970942709132D-09 0.128357178518D-06 0.000000000000D+00  6 22 -1 9900012 -11 -2 21 2 0.11590586D-01 0.34810914D-01 0.16421543D+05 0.16421543D+05 0.16421543D+05 0.11876147D+01  1  2  3  1  6  2       -1 -.792545460530D-06 0.100000000000D+01
-.324979971002D-08 0.000000000000D+00 0.000000000000D+00 0.128357178518D-06 0.000000000000D+00  6 22 -1 9900012 -11 -2 21 2 0.11590586D-01 0.34810914D-01 0.16421543D+05 0.16421543D+05 0.16421543D+05 0.11876147D+01  1  2 15  1  6  2       -1 -.149427748874D-06 0.100000000000D+01
  </mgrwgt>
  </event>
  <event>
  6     66 -.11047279E-05 0.13931643E+02 0.78161638E-02 0.13267408E+00
       22 -1    0    0    0    0 0.00000000E+00 0.00000000E+00 0.39386034E+03 0.39386034E+03 0.00000000E+00 0.0000E+00 0.9000E+01
       -1 -1    0    0    0  501 0.00000000E+00 0.00000000E+00 -.62818895E+01 0.62818895E+01 0.00000000E+00 0.0000E+00 0.9000E+01
       24  2    1    2    0    0 -.16958357E+02 0.59583809E+01 0.32348859E+03 0.33357949E+03 0.79418636E+02 0.0000E+00 0.0000E+00
  9900012  1    3    3    0    0 -.10627202E+02 0.19719063E+02 0.30399443E+03 0.30889220E+03 0.50000000E+02 0.0000E+00 0.9000E+01
      -11  1    3    3    0    0 -.63311548E+01 -.13760682E+02 0.19494158E+02 0.24687286E+02 0.00000000E+00 0.0000E+00 0.9000E+01
       -2  1    1    2    0  501 0.16958357E+02 -.59583809E+01 0.64089866E+02 0.66562746E+02 0.00000000E+00 0.0000E+00 0.9000E+01
#aMCatNLO 1  0  0  5  2 0.21305382D+01 0.00000000D+00  -5  6  0 0.00000000D+00 0.00000000D+00 0.00000000D+00 0.00000000D+00 0.00000000D+00
  <mgrwgt>
 -.3505658147D-04    7    2    0
 0.497412016288205D+02 0.000000000000000D+00 0.000000000000000D+00 0.497412016288205D+02
 0.497412016288205D+02 -.000000000000000D+00 -.000000000000000D+00 -.497412016288205D+02
 0.580919232782785D+02 -.106272017087595D+02 0.197190625717590D+02 0.193104299615980D+02
 0.233499587109075D+02 -.633115481034542D+01 -.137606817057620D+02 -.177702191759480D+02
 0.180405212684551D+02 0.169583565191049D+02 -.595838086599697D+01 -.154021078564998D+01
 0.000000000000000D+00 0.000000000000000D+00 -.000000000000000D+00 0.000000000000000D+00
 0.497412016288205D+02 0.000000000000000D+00 0.000000000000000D+00 0.497412016288205D+02
 0.497412016288205D+02 -.000000000000000D+00 -.000000000000000D+00 -.497412016288205D+02
 0.579515678900855D+02 -.102001102699143D+02 0.195690024256370D+02 0.192716401861957D+02
 0.233515406928593D+02 -.615927261018268D+01 -.138210731482642D+02 -.177858300529958D+02
 0.144085169908784D+02 0.136678802008794D+02 -.351823888185529D+01 -.290110459326117D+01
 0.377077768381782D+01 0.269150267921762D+01 -.222969039551747D+01 0.141529446006124D+01
0.451190496571D-07 0.000000000000D+00 0.000000000000D+00 0.250514823642D-06 0.000000000000D+00  6 22 -1 9900012 -11 -2 21 0 0.60593899D-01 0.96644454D-03 0.19320604D+04 0.19320604D+04 0.19320604D+04 0.12912133D+01  1  2  2  2  6  5       -2 0.172121802638D-04 0.100000000000D+01
0.248553435625D-09 0.000000000000D+00 -.866345154009D-10 0.250514823642D-06 0.000000000000D+00  6 22 -1 9900012 -11 -2 21 2 0.60593899D-01 0.96644454D-03 0.19320604D+04 0.19320604D+04 0.19320604D+04 0.12912133D+01  1  2  3  2  6  5       -2 0.158085364319D-06 0.100000000000D+01
-.397282744553D-09 0.000000000000D+00 0.000000000000D+00 0.250514823642D-06 0.000000000000D+00  6 22 -1 9900012 -11 -2 21 2 0.60593899D-01 0.96644454D-03 0.19320604D+04 0.19320604D+04 0.19320604D+04 0.12912133D+01  1  2 15  2  6  5       -2 -.252680423638D-06 0.100000000000D+01
0.284690281265D-09 0.000000000000D+00 0.000000000000D+00 0.250514823642D-06 0.000000000000D+00  6 22 -1 9900012 -11 -2 21 2 0.60593899D-01 0.96644454D-03 0.19093953D+04 0.19093953D+04 0.19093953D+04 0.12918650D+01  1  2 12  2  6  5       -2 0.180933532230D-06 0.100000000000D+01
-.135062069573D-06 0.000000000000D+00 0.000000000000D+00 0.250514823642D-06 0.000000000000D+00  6 22 -1 9900012 -11 -2 21 2 0.60593899D-01 0.96644454D-03 0.19320604D+04 0.19320604D+04 0.19320604D+04 0.12912133D+01  1  2  4  2  6  5       -2 -.859023992992D-04 0.100000000000D+01
-.168604553687D-06 0.000000000000D+00 0.000000000000D+00 0.250514823642D-06 0.000000000000D+00  6 22 -1 9900012 -11 -2 21 2 0.60593899D-01 0.96644454D-03 0.19320604D+04 0.19320604D+04 0.19320604D+04 0.12912133D+01  1  2  5  2  6  5       -2 -.107236145131D-03 0.100000000000D+01
0.221350084445D-06 0.000000000000D+00 -.000000000000D+00 0.250514823642D-06 0.000000000000D+00  6 22 -1 9900012 -11 -2 21 2 0.60593899D-01 0.96644454D-03 0.19320604D+04 0.19320604D+04 0.19320604D+04 0.12912133D+01  1  2  6  2  6  5       -2 0.140783444227D-03 0.100000000000D+01
  </mgrwgt>
  </event>
  <event>
  6     66 -.11047279E-05 0.15008787E+02 0.78161638E-02 0.13064956E+00
       22 -1    0    0    0    0 0.00000000E+00 0.00000000E+00 0.83552678E+03 0.83552678E+03 0.00000000E+00 0.0000E+00 0.9000E+01
       -1 -1    0    0    0  501 0.00000000E+00 0.00000000E+00 -.30333111E+02 0.30333111E+02 0.00000000E+00 0.0000E+00 0.9000E+01
       24  2    1    2    0    0 -.68990711E+01 -.13329160E+02 0.46130894E+02 0.10664875E+03 0.94977010E+02 0.0000E+00 0.0000E+00
  9900012  1    3    3    0    0 0.10483148E+02 0.10100861E+02 0.55404330E+02 0.76036593E+02 0.50000000E+02 0.0000E+00 0.9000E+01
      -11  1    3    3    0    0 -.17382219E+02 -.23430021E+02 -.92734358E+01 0.30612155E+02 0.00000000E+00 0.0000E+00 0.9000E+01
       -2  1    1    2    0  501 0.68990711E+01 0.13329160E+02 0.75906278E+03 0.75921115E+03 0.00000000E+00 0.0000E+00 0.9000E+01
#aMCatNLO 1  0  0  2  5 0.37828704D+00 0.00000000D+00  -5  6  0 0.00000000D+00 0.00000000D+00 0.00000000D+00 0.00000000D+00 0.00000000D+00
  <mgrwgt>
 -.4791174427D-01    7    4    0
 0.159198388653110D+03 0.000000000000000D+00 0.000000000000000D+00 0.159198388653110D+03
 0.159198388653110D+03 0.000000000000000D+00 0.000000000000000D+00 -.159198388653110D+03
 0.666646856444540D+02 0.104831475186934D+02 0.101008610835429D+02 -.416203860571494D+02
 0.106699412369891D+03 -.173822186163642D+02 -.234300211160572D+02 -.102633606516356D+03
 0.145032679291875D+03 0.689907109767088D+01 0.133291600325143D+02 0.144253992573505D+03
 0.000000000000000D+00 0.000000000000000D+00 0.000000000000000D+00 -.000000000000000D+00
 0.159199480907211D+03 0.000000000000000D+00 0.000000000000000D+00 0.159199480907211D+03
 0.195706504730436D+03 0.000000000000000D+00 0.000000000000000D+00 -.195706504730436D+03
 0.666509302157854D+02 0.104045228188152D+02 0.100913759218501D+02 -.416203860571494D+02
 0.106723324489556D+03 -.175080875817099D+02 -.234452057525677D+02 -.102633606516356D+03
 0.145022747314696D+03 0.672800696000171D+01 0.133085231206007D+02 0.144253992573505D+03
 0.365089836176087D+02 0.375557802892935D+00 0.453067101168855D-01 -.365070238232251D+02
 0.159198388653110D+03 0.000000000000000D+00 0.000000000000000D+00 0.159198388653110D+03
 0.159198388653110D+03 0.000000000000000D+00 0.000000000000000D+00 -.159198388653110D+03
 0.666646856444540D+02 0.104831475186934D+02 0.101008610835429D+02 -.416203860571494D+02
 0.106699412369891D+03 -.173822186163642D+02 -.234300211160572D+02 -.102633606516356D+03
 0.000000000000000D+00 0.000000000000000D+00 0.000000000000000D+00 -.000000000000000D+00
 0.145032679291875D+03 0.689907109767088D+01 0.133291600325143D+02 0.144253992573505D+03
 0.159199480907211D+03 0.000000000000000D+00 0.000000000000000D+00 0.159199480907211D+03
 0.195706504730436D+03 0.000000000000000D+00 0.000000000000000D+00 -.195706504730436D+03
 0.666509302157854D+02 0.104045228188152D+02 0.100913759218501D+02 -.416203860571494D+02
 0.106723324489556D+03 -.175080875817099D+02 -.234452057525677D+02 -.102633606516356D+03
 0.365089836176087D+02 0.375557802892935D+00 0.453067101168855D-01 -.365070238232251D+02
 0.145022747314696D+03 0.672800696000171D+01 0.133085231206007D+02 0.144253992573505D+03
0.319834392466D-06 0.000000000000D+00 0.000000000000D+00 0.110877896827D-06 0.000000000000D+00  6 22 -1 9900012 -11 -2 21 0 0.12854258D+00 0.46666325D-02 0.23164327D+04 0.23164327D+04 0.23164327D+04 0.12813239D+01  1  2  2  1  6  2       -1 0.346699476464D-05 0.100000000000D+01
0.408921074221D-08 0.000000000000D+00 -.614124140699D-09 0.110877896827D-06 0.000000000000D+00  6 22 -1 9900012 -11 -2 21 2 0.12854258D+00 0.46666325D-02 0.23164327D+04 0.23164327D+04 0.23164327D+04 0.12813239D+01  1  2  3  1  6  2       -1 0.727755241294D-07 0.100000000000D+01
0.846094380164D-08 0.000000000000D+00 0.000000000000D+00 0.110877896827D-06 0.000000000000D+00  6 22 -1 9900012 -11 -2 21 2 0.12854258D+00 0.46666325D-02 0.23164327D+04 0.23164327D+04 0.23164327D+04 0.12813239D+01  1  2 15  1  6  2       -1 0.150579086922D-06 0.100000000000D+01
-.241571619991D-02 0.000000000000D+00 0.000000000000D+00 0.110877896827D-06 0.000000000000D+00  6 22 -1 9900012 -11 -2 21 2 0.12854258D+00 0.46666325D-02 0.23164327D+04 0.23164327D+04 0.23164327D+04 0.12813239D+01  1  2  4  1  6  2       -1 -.429924070142D-01 0.100000000000D+01
-.246648834188D-02 0.000000000000D+00 -.162760674906D-06 0.110877896827D-06 0.000000000000D+00  6 22 -1 9900012 -11 -2 21 2 0.12854258D+00 0.57368240D-02 0.23164327D+04 0.23164327D+04 0.23164327D+04 0.12813239D+01  1  2  5  1  6  2       -1 -.327446988409D-01 0.100000000000D+01
0.241487043425D-02 0.000000000000D+00 0.159352078355D-06 0.110877896827D-06 0.000000000000D+00  6 22 -1 9900012 -11 -2 21 2 0.12854258D+00 0.46666325D-02 0.23164327D+04 0.23164327D+04 0.23164327D+04 0.12813239D+01  1  2  6  1  6  2       -1 0.429773549558D-01 0.100000000000D+01
-.723200331367D-04 0.000000000000D+00 -.477244485774D-08 0.110877896827D-06 0.000000000000D+00  6 22 21 9900012 -11 1 -2 2 0.12854258D+00 0.57368240D-02 0.23164327D+04 0.23164327D+04 0.23164327D+04 0.12813239D+01  3  4  5  3  5  2       -1 -.151556837250D-01 0.100000000000D+01
  </mgrwgt>
  </event>
  <event>
  6     66 0.11047279E-05 0.32550228E+02 0.78161638E-02 0.12767446E+00
       22 -1    0    0    0    0 0.00000000E+00 0.00000000E+00 0.48466268E+01 0.48466268E+01 0.00000000E+00 0.0000E+00 0.9000E+01
       -3 -1    0    0    0  501 -.00000000E+00 -.00000000E+00 -.79081538E+03 0.79081538E+03 0.00000000E+00 0.0000E+00 0.9000E+01
       24  2    1    2    0    0 -.73092744E+00 0.32542020E+02 -.66155799E+03 0.66706358E+03 0.79090634E+02 0.0000E+00 0.0000E+00
  9900012  1    3    3    0    0 -.17028139E+02 0.40722688E+02 -.54928699E+03 0.55332133E+03 0.50000000E+02 0.0000E+00 0.9000E+01
      -11  1    3    3    0    0 0.16297211E+02 -.81806681E+01 -.11227100E+03 0.11374225E+03 0.00000000E+00 0.0000E+00 0.9000E+01
       -4  1    1    2    0  501 0.73092744E+00 -.32542020E+02 -.12441076E+03 0.12859842E+03 0.00000000E+00 0.0000E+00 0.9000E+01
#aMCatNLO 1  0  0  5  2 0.11684628D+02 0.00000000D+00  -5  6  0 0.00000000D+00 0.00000000D+00 0.00000000D+00 0.00000000D+00 0.00000000D+00
  <mgrwgt>
 0.1130879782D-04    5    2    0
 0.619095066803335D+02 0.000000000000000D+00 0.000000000000000D+00 0.619095066803335D+02
 0.619095066803335D+02 -.000000000000000D+00 -.000000000000000D+00 -.619095066803335D+02
 0.689259871888319D+02 -.170281385825529D+02 0.407226882304191D+02 -.173924371396443D+02
 0.182434864745600D+02 0.162972111378116D+02 -.818066806510214D+01 0.549888975759642D+00
 0.366495396972751D+02 0.730927444741341D+00 -.325420201653169D+02 0.168425481638846D+02
 0.000000000000000D+00 0.000000000000000D+00 0.000000000000000D+00 0.000000000000000D+00
 0.619095066803335D+02 0.000000000000000D+00 0.000000000000000D+00 0.619095066803335D+02
 0.619095066803335D+02 -.000000000000000D+00 -.000000000000000D+00 -.619095066803335D+02
 0.655354335129103D+02 -.169192798027375D+02 0.358761270109531D+02 -.148840359908099D+02
 0.189413987358267D+02 0.163273156927869D+02 -.952096940708120D+01 0.124357946552404D+01
 0.113026385880459D+02 -.396958786432065D+01 -.793505245982102D+01 -.700192499954904D+01
 0.280395425238842D+02 0.456155197427116D+01 -.184201051440508D+02 0.206423815248349D+02
0.231759212163D-06 0.000000000000D+00 0.000000000000D+00 0.510766832289D-07 0.000000000000D+00  6 22 -3 9900012 -11 -4 21 0 0.74563490D-03 0.12166390D+00 0.34504442D+04 0.34504442D+04 0.34504442D+04 0.12603989D+01  1  2  2  2  6  5       -4 0.117128563207D-04 0.100000000000D+01
-.982141142704D-08 0.000000000000D+00 -.445008199154D-09 0.510766832289D-07 0.000000000000D+00  6 22 -3 9900012 -11 -4 21 2 0.74563490D-03 0.12166390D+00 0.34504442D+04 0.34504442D+04 0.34504442D+04 0.12603989D+01  1  2  3  2  6  5       -4 -.788525555019D-06 0.100000000000D+01
0.253721770955D-08 0.000000000000D+00 0.000000000000D+00 0.510766832289D-07 0.000000000000D+00  6 22 -3 9900012 -11 -4 21 2 0.74563490D-03 0.12166390D+00 0.34504442D+04 0.34504442D+04 0.34504442D+04 0.12603989D+01  1  2 15  2  6  5       -4 0.203704021310D-06 0.100000000000D+01
0.498939381178D-07 0.000000000000D+00 0.000000000000D+00 0.510766832289D-07 0.000000000000D+00  6 22 -3 9900012 -11 -4 21 2 0.74563490D-03 0.12166390D+00 0.30565691D+04 0.30565691D+04 0.30565691D+04 0.12666509D+01  1  2 12  2  6  5       -4 0.399472910564D-05 0.100000000000D+01
-.475045225267D-07 0.000000000000D+00 0.000000000000D+00 0.510766832289D-07 0.000000000000D+00  6 22 -3 9900012 -11 -4 21 2 0.74563490D-03 0.12166390D+00 0.34504442D+04 0.34504442D+04 0.34504442D+04 0.12603989D+01  1  2  4  2  6  5       -4 -.381396607500D-05 0.100000000000D+01
  </mgrwgt>
  </event>
  <event>
  6     66 0.11047279E-05 0.17454311E+02 0.78161638E-02 0.13205769E+00
       22 -1    0    0    0    0 0.00000000E+00 0.00000000E+00 0.91376359E+02 0.91376359E+02 0.00000000E+00 0.0000E+00 0.9000E+01
       -1 -1    0    0    0  501 -.00000000E+00 -.00000000E+00 -.22194528E+03 0.22194528E+03 0.00000000E+00 0.0000E+00 0.9000E+01
       24  2    1    2    0    0 -.16687113E+02 -.51179297E+01 -.21326236E+03 0.22880620E+03 0.81035721E+02 0.0000E+00 0.0000E+00
  9900012  1    3    3    0    0 -.25376331E+02 0.73687527E+01 -.10304304E+03 0.11754201E+03 0.50000000E+02 0.0000E+00 0.9000E+01
      -11  1    3    3    0    0 0.86892182E+01 -.12486682E+02 -.11021933E+03 0.11126419E+03 0.00000000E+00 0.0000E+00 0.9000E+01
       -2  1    1    2    0  501 0.16687113E+02 0.51179297E+01 0.82693446E+02 0.84515436E+02 0.00000000E+00 0.0000E+00 0.9000E+01
#aMCatNLO 1  0  0  5  2 0.34058965D+01 0.00000000D+00  -5  6  0 0.00000000D+00 0.00000000D+00 0.00000000D+00 0.00000000D+00 0.00000000D+00
  <mgrwgt>
 0.6547959962D-03    6    2    0
 0.142409800179273D+03 0.000000000000000D+00 0.000000000000000D+00 0.142409800179273D+03
 0.142409800179273D+03 -.000000000000000D+00 -.000000000000000D+00 -.142409800179273D+03
 0.820668138910260D+02 -.253763314930603D+02 0.736875268221308D+01 -.594702045236689D+02
 0.718709640397646D+02 0.868921816573004D+01 -.124866824033193D+02 -.702425492293106D+02
 0.130881822427755D+03 0.166871133273303D+02 0.511792972110624D+01 0.129712753752979D+03
 0.000000000000000D+00 0.000000000000000D+00 0.000000000000000D+00 0.000000000000000D+00
 0.142409800179273D+03 0.000000000000000D+00 0.000000000000000D+00 0.142409800179273D+03
 0.142409800179273D+03 -.000000000000000D+00 -.000000000000000D+00 -.142409800179273D+03
 0.820190274410204D+02 -.253682502931621D+02 0.737123118237842D+01 -.594073875060187D+02
 0.718176822045894D+02 0.869629480722429D+01 -.124845120007387D+02 -.701875408742083D+02
 0.366417418024706D+02 0.301982657917725D+01 -.154344688299701D+01 0.364844578069893D+02
 0.943411489104653D+02 0.136521289067607D+02 0.665672770135727D+01 0.931104705732377D+02
0.113106322626D-05 0.000000000000D+00 0.000000000000D+00 0.404014791017D-05 0.000000000000D+00  6 22 -1 9900012 -11 -2 21 0 0.14057901D-01 0.34145427D-01 0.19900489D+04 0.19900489D+04 0.19900489D+04 0.12895847D+01  1  2  2  2  6  5       -2 0.246294213944D-04 0.100000000000D+01
0.883951632990D-08 0.000000000000D+00 -.217179030231D-08 0.404014791017D-05 0.000000000000D+00  6 22 -1 9900012 -11 -2 21 2 0.14057901D-01 0.34145427D-01 0.19900489D+04 0.19900489D+04 0.19900489D+04 0.12895847D+01  1  2  3  2  6  5       -2 0.320107318964D-06 0.100000000000D+01
0.567895849678D-07 0.000000000000D+00 0.000000000000D+00 0.404014791017D-05 0.000000000000D+00  6 22 -1 9900012 -11 -2 21 2 0.14057901D-01 0.34145427D-01 0.19900489D+04 0.19900489D+04 0.19900489D+04 0.12895847D+01  1  2 15  2  6  5       -2 0.205653353766D-05 0.100000000000D+01
0.903992551984D-06 0.000000000000D+00 0.000000000000D+00 0.404014791017D-05 0.000000000000D+00  6 22 -1 9900012 -11 -2 21 2 0.14057901D-01 0.34145427D-01 0.20405342D+04 0.20405342D+04 0.20405342D+04 0.12882103D+01  1  2 12  2  6  5       -2 0.327338983019D-04 0.100000000000D+01
-.247981918413D-04 0.000000000000D+00 0.000000000000D+00 0.404014791017D-05 0.000000000000D+00  6 22 -1 9900012 -11 -2 21 2 0.14057901D-01 0.34145427D-01 0.19900489D+04 0.19900489D+04 0.19900489D+04 0.12895847D+01  1  2  5  2  6  5       -2 -.898022290952D-03 0.100000000000D+01
0.412334539046D-04 0.000000000000D+00 0.000000000000D+00 0.404014791017D-05 0.799140268596D-06  6 22 -1 9900012 -11 -2 21 2 0.14057901D-01 0.34145427D-01 0.20405342D+04 0.20405342D+04 0.20405342D+04 0.12882103D+01  1  2 11  2  6  5       -2 0.149307832657D-02 0.100000000000D+01
  </mgrwgt>
  </event>
  <event>
  7     66 -.11047279E-05 0.32634566E+02 0.78161638E-02 0.12595607E+00
       22 -1    0    0    0    0 0.00000000E+00 0.00000000E+00 0.24431358E+03 0.24431358E+03 0.00000000E+00 0.0000E+00 0.9000E+01
       -1 -1    0    0    0  502 0.00000000E+00 0.00000000E+00 -.23185844E+02 0.23185844E+02 0.00000000E+00 0.0000E+00 0.9000E+01
       24  2    1    2    0    0 -.28702223E+02 0.17704544E+02 0.20551218E+03 0.22288371E+03 0.79401663E+02 0.0000E+00 0.0000E+00
  9900012  1    3    3    0    0 -.20834873E+02 -.49747115E+01 0.17916717E+03 0.18724240E+03 0.50000000E+02 0.0000E+00 0.9000E+01
      -11  1    3    3    0    0 -.78673500E+01 0.22679255E+02 0.26345007E+02 0.35641314E+02 0.00000000E+00 0.0000E+00 0.9000E+01
       -2  1    1    2    0  501 0.26845122E+02 -.23497588E+02 0.13967121E+02 0.38312892E+02 0.00000000E+00 0.0000E+00 0.9000E+01
       21  1    1    2  501  502 0.18571014E+01 0.57930443E+01 0.16484316E+01 0.63028180E+01 0.00000000E+00 0.0000E+00 0.9000E+01
#aMCatNLO 2  0  0  2  5 0.65580574D+01 0.00000000D+00  -5  6  0 0.00000000D+00 0.00000000D+00 0.00000000D+00 0.00000000D+00 0.00000000D+00
  <mgrwgt>
 -.1005199784D-04    2    2    0
 0.707380620407516D+02 0.000000000000000D+00 0.000000000000000D+00 0.707380620407516D+02
 0.707380620407516D+02 0.000000000000000D+00 0.000000000000000D+00 -.707380620407516D+02
 0.672628066232294D+02 -.199496283217467D+02 -.221327755810382D+01 0.402665976599577D+02
 0.257568386503907D+02 -.753497198633755D+01 0.237160758383643D+02 -.664730631581867D+01
 0.484564788078831D+02 0.274846003080843D+02 -.215027982802605D+02 -.336192913441390D+02
 0.000000000000000D+00 0.000000000000000D+00 0.000000000000000D+00 -.000000000000000D+00
 0.719746452460707D+02 0.000000000000000D+00 0.000000000000000D+00 0.719746452460707D+02
 0.787029448286325D+02 0.000000000000000D+00 0.000000000000000D+00 -.787029448286325D+02
 0.676774599261419D+02 -.208348731850496D+02 -.497471147992777D+01 0.402665976599577D+02
 0.249084424081146D+02 -.786735001516285D+01 0.226792554040241D+02 -.664730631581867D+01
 0.490209543967794D+02 0.268451218244635D+02 -.234975882532386D+02 -.336192913441390D+02
 0.907073334366729D+01 0.185710137574901D+01 0.579304432914228D+01 -.672829958256180D+01
-.603193652062D-07 0.000000000000D+00 0.000000000000D+00 0.439617128370D-06 0.000000000000D+00  6 22 -1 9900012 -11 -2 21 2 0.36940934D-01 0.36294092D-02 0.36096074D+04 0.36096074D+04 0.36096074D+04 0.12580980D+01  1  2 13  1  6  2       -1 -.142344177468D-04 0.100000000000D+01
0.177747230882D-07 0.000000000000D+00 0.000000000000D+00 0.439617128370D-06 0.376804939768D-07  6 22 -1 9900012 -11 -2 21 2 0.37586704D-01 0.35670530D-02 0.36096074D+04 0.36096074D+04 0.36096074D+04 0.12580980D+01  1  2  1  1  6  2       -1 0.418241991177D-05 0.100000000000D+01
  </mgrwgt>
  </event>
  <event>
  7     66 0.11047279E-05 0.15745154E+02 0.78161638E-02 0.13122013E+00
       22 -1    0    0    0    0 0.00000000E+00 0.00000000E+00 0.29663828E+01 0.29663828E+01 0.00000000E+00 0.0000E+00 0.9000E+01
       -1 -1    0    0    0  501 -.00000000E+00 -.00000000E+00 -.11530346E+04 0.11530346E+04 0.00000000E+00 0.0000E+00 0.9000E+01
       24  2    1    2    0    0 -.12223971E+01 -.17587878E+02 -.10026251E+04 0.10058383E+04 0.78375940E+02 0.0000E+00 0.0000E+00
  9900012  1    3    3    0    0 0.44045457E+01 0.66667465E+01 -.49008166E+03 0.49269045E+03 0.50000000E+02 0.0000E+00 0.9000E+01
      -11  1    3    3    0    0 -.56269427E+01 -.24254625E+02 -.51254347E+03 0.51314789E+03 0.00000000E+00 0.0000E+00 0.9000E+01
       -2  1    1    2    0  502 -.11987787E+01 0.11795126E+01 0.10520776E+00 0.16850487E+01 0.00000000E+00 0.0000E+00 0.9000E+01
       21  1    1    2  502  501 0.24211758E+01 0.16408366E+02 -.14754832E+03 0.14847762E+03 0.00000000E+00 0.0000E+00 0.9000E+01
#aMCatNLO 2  0  0  5  2 0.11158948D+02 0.00000000D+00  -5  6  0 0.00000000D+00 0.00000000D+00 0.00000000D+00 0.00000000D+00 0.00000000D+00
  <mgrwgt>
 0.1367999979D-02    2    2    0
 0.584836907167584D+02 0.000000000000000D+00 0.000000000000000D+00 0.584836907167584D+02
 0.584836907167584D+02 -.000000000000000D+00 -.000000000000000D+00 -.584836907167584D+02
 0.503895853748763D+02 0.423177092125798D+01 0.418085922290162D+01 -.192946761574847D+01
 0.343526564624704D+02 -.574036401155174D+01 -.258865325616029D+02 -.218412604714212D+02
 0.322251395961701D+02 0.150859309029376D+01 0.217056733387013D+02 0.237707280871697D+02
 0.000000000000000D+00 0.000000000000000D+00 0.000000000000000D+00 0.000000000000000D+00
 0.584836907167584D+02 0.000000000000000D+00 0.000000000000000D+00 0.584836907167584D+02
 0.584836907167584D+02 -.000000000000000D+00 -.000000000000000D+00 -.584836907167584D+02
 0.506406384278586D+02 0.440454567458988D+01 0.666674649172558D+01 0.792924332222616D+00
 0.319705492412440D+02 -.562694274933604D+01 -.242546247375801D+02 -.200540946672162D+02
 0.176879573232891D+02 -.119877871192460D+01 0.117951256650387D+01 0.176078253619177D+02
 0.166682364411251D+02 0.242117578667076D+01 0.164083656793507D+02 0.165334497307595D+01
-.157709835268D-06 0.000000000000D+00 0.000000000000D+00 0.119780271955D-06 0.000000000000D+00  6 22 -1 9900012 -11 -2 21 2 0.45636658D-03 0.17738994D+00 0.21996573D+04 0.21996573D+04 0.21996573D+04 0.12841187D+01  1  2 13  2  6  5       -2 -.192430298604D-04 0.100000000000D+01
0.113694084543D-04 0.000000000000D+00 0.000000000000D+00 0.119780271955D-06 0.206991743992D-06  6 22 -1 9900012 -11 -2 21 2 0.45636658D-03 0.17738994D+00 0.21996573D+04 0.21996573D+04 0.21996573D+04 0.12841187D+01  1  2  1  2  6  5       -2 0.138724300872D-02 0.100000000000D+01
  </mgrwgt>
  </event>
  <event>
  5     66 0.11047279E-05 0.29992901E+02 0.78161638E-02 0.12011106E+00
       22 -1    0    0    0    0 0.00000000E+00 0.00000000E+00 0.10527899E+02 0.10527899E+02 0.00000000E+00 0.0000E+00 0.9000E+01
       -1 -1    0    0    0  501 0.00000000E+00 0.00000000E+00 -.88447064E+03 0.88447064E+03 0.00000000E+00 0.0000E+00 0.9000E+01
  9900012  1    1    2    0    0 -.27081837E+02 -.11543820E+02 -.24965452E+03 0.25630853E+03 0.50000000E+02 0.0000E+00 0.9000E+01
      -11  1    1    2    0    0 0.57029742E+02 0.13186100E+02 -.59096524E+03 0.59385703E+03 0.00000000E+00 0.0000E+00 0.9000E+01
       -2  1    1    2    0  501 -.29947905E+02 -.16422793E+01 -.33322988E+02 0.44832974E+02 0.00000000E+00 0.0000E+00 0.9000E+01
#aMCatNLO 1  0  0  2  5 0.18424577D+02 0.00000000D+00  -5  6  0 0.00000000D+00 0.00000000D+00 0.00000000D+00 0.00000000D+00 0.00000000D+00
  <mgrwgt>
 0.6780339719D-04    9    4    0
 0.964967232761212D+02 0.000000000000000D+00 0.000000000000000D+00 0.964967232761212D+02
 0.964967232761212D+02 0.000000000000000D+00 0.000000000000000D+00 -.964967232761212D+02
 0.580952822791108D+02 -.270818370551505D+02 -.115438204576544D+02 0.289415515293885D+01
 0.778855368541826D+02 0.570297419586963D+02 0.131860997931934D+02 -.513798808429203D+02
 0.570126274189490D+02 -.299479049035459D+02 -.164227933553903D+01 0.484857256899815D+02
 0.000000000000000D+00 -.000000000000000D+00 0.000000000000000D+00 -.000000000000000D+00
 0.101662845157073D+03 0.000000000000000D+00 0.000000000000000D+00 0.101662845157073D+03
 0.109062268883457D+03 0.000000000000000D+00 0.000000000000000D+00 -.109062268883457D+03
 0.583686414660316D+02 -.254197022600767D+02 -.158858713815109D+02 0.289415515293885D+01
 0.787798088161164D+02 0.592656182184614D+02 0.734524464226608D+01 -.513798808429203D+02
 0.564611083116393D+02 -.283284450878389D+02 -.587284896790556D+01 0.484857256899815D+02
 0.171155554467421D+02 -.551747087054576D+01 0.144134757071504D+02 -.739942372638369D+01
 0.964967232761212D+02 0.000000000000000D+00 0.000000000000000D+00 0.964967232761212D+02
 0.964967232761212D+02 0.000000000000000D+00 0.000000000000000D+00 -.964967232761212D+02
 0.580952822791108D+02 -.270818370551505D+02 -.115438204576544D+02 0.289415515293885D+01
 0.778855368541826D+02 0.570297419586963D+02 0.131860997931934D+02 -.513798808429203D+02
 0.000000000000000D+00 -.000000000000000D+00 0.000000000000000D+00 -.000000000000000D+00
 0.570126274189490D+02 -.299479049035459D+02 -.164227933553903D+01 0.484857256899815D+02
 0.101662845157073D+03 0.000000000000000D+00 0.000000000000000D+00 0.101662845157073D+03
 0.109062268883457D+03 0.000000000000000D+00 0.000000000000000D+00 -.109062268883457D+03
 0.583686414660316D+02 -.254197022600767D+02 -.158858713815109D+02 0.289415515293885D+01
 0.787798088161164D+02 0.592656182184614D+02 0.734524464226608D+01 -.513798808429203D+02
 0.171155554467421D+02 -.551747087054576D+01 0.144134757071504D+02 -.739942372638369D+01
 0.564611083116393D+02 -.283284450878389D+02 -.587284896790556D+01 0.484857256899815D+02
0.123839155364D-05 0.000000000000D+00 0.000000000000D+00 0.729330764678D-09 0.000000000000D+00  6 22 -1 9900012 -11 -2 21 0 0.16196768D-02 0.13607241D+00 0.53692514D+04 0.53692514D+04 0.53692514D+04 0.12383768D+01  1  2  2  1  6  2       -1 0.391687543297D-04 0.100000000000D+01
-.684323800826D-07 0.000000000000D+00 -.237787482098D-08 0.729330764678D-09 0.000000000000D+00  6 22 -1 9900012 -11 -2 21 2 0.16196768D-02 0.13607241D+00 0.53692514D+04 0.53692514D+04 0.53692514D+04 0.12383768D+01  1  2  3  1  6  2       -1 -.331931921877D-05 0.100000000000D+01
0.415624399446D-07 0.000000000000D+00 0.000000000000D+00 0.729330764678D-09 0.000000000000D+00  6 22 -1 9900012 -11 -2 21 2 0.16196768D-02 0.13607241D+00 0.53692514D+04 0.53692514D+04 0.53692514D+04 0.12383768D+01  1  2 15  1  6  2       -1 0.201599017191D-05 0.100000000000D+01
0.115161275732D-05 0.000000000000D+00 0.000000000000D+00 0.729330764678D-09 0.000000000000D+00  6 22 -1 9900012 -11 -2 21 2 0.16196768D-02 0.16202488D+00 0.65918270D+04 0.65918270D+04 0.65918270D+04 0.12285602D+01  1  2 12  1  6  2       -1 0.344059647911D-04 0.100000000000D+01
-.101157022439D-05 0.000000000000D+00 0.000000000000D+00 0.729330764678D-09 0.000000000000D+00  6 22 -1 9900012 -11 -2 21 2 0.16196768D-02 0.13607241D+00 0.53692514D+04 0.53692514D+04 0.53692514D+04 0.12383768D+01  1  2  4  1  6  2       -1 -.490663116333D-04 0.100000000000D+01
-.290107362730D-05 0.000000000000D+00 -.701178201951D-06 0.729330764678D-09 0.000000000000D+00  6 22 -1 9900012 -11 -2 21 2 0.16196768D-02 0.15900277D+00 0.53692514D+04 0.53692514D+04 0.53692514D+04 0.12383768D+01  1  2  5  1  6  2       -1 -.920162902629D-04 0.100000000000D+01
0.298244891864D-05 0.000000000000D+00 0.692760370986D-06 0.729330764678D-09 0.000000000000D+00  6 22 -1 9900012 -11 -2 21 2 0.16196768D-02 0.13607241D+00 0.53692514D+04 0.53692514D+04 0.53692514D+04 0.12383768D+01  1  2  6  1  6  2       -1 0.144663973439D-03 0.100000000000D+01
0.296501587914D-07 0.000000000000D+00 0.000000000000D+00 0.729330764678D-09 0.000000000000D+00  6 22 21 9900012 -11 1 -2 2 0.16196768D-02 0.16202488D+00 0.65918270D+04 0.65918270D+04 0.65918270D+04 0.12285602D+01  3  4 12  3  5  2       -1 0.636786547491D-05 0.100000000000D+01
-.630049109005D-07 0.000000000000D+00 -.164860649096D-07 0.729330764678D-09 0.000000000000D+00  6 22 21 9900012 -11 1 -2 2 0.16196768D-02 0.15900277D+00 0.53692514D+04 0.53692514D+04 0.53692514D+04 0.12383768D+01  3  4  5  3  5  2       -1 -.144172298972D-04 0.100000000000D+01
  </mgrwgt>
  </event>
  <event>
  7     66 0.11047279E-05 0.29647427E+02 0.78161638E-02 0.12094170E+00
       22 -1    0    0    0    0 0.00000000E+00 0.00000000E+00 0.25692791E+02 0.25692791E+02 0.00000000E+00 0.0000E+00 0.9000E+01
       -3 -1    0    0    0  502 0.00000000E+00 0.00000000E+00 -.79510514E+03 0.79510514E+03 0.00000000E+00 0.0000E+00 0.9000E+01
       24  2    1    2    0    0 -.48467706E+02 -.32869272E+02 -.78338155E+02 0.12307766E+03 0.74711018E+02 0.0000E+00 0.0000E+00
  9900012  1    3    3    0    0 -.48223089E+02 -.10798889E+02 -.46316270E+02 0.84185980E+02 0.50000000E+02 0.0000E+00 0.9000E+01
      -11  1    3    3    0    0 -.24461650E+00 -.22070383E+02 -.32021885E+02 0.38891680E+02 0.00000000E+00 0.0000E+00 0.9000E+01
       -4  1    1    2    0  501 0.22108812E+02 0.18072271E+01 -.43162085E+02 0.48528664E+02 0.00000000E+00 0.0000E+00 0.9000E+01
       21  1    1    2  501  502 0.26358894E+02 0.31062045E+02 -.64791210E+03 0.64919160E+03 0.00000000E+00 0.0000E+00 0.9000E+01
#aMCatNLO 2  0  0  2  5 0.41355835D+02 0.00000000D+00  -5  6  0 0.00000000D+00 0.00000000D+00 0.00000000D+00 0.00000000D+00 0.00000000D+00
  <mgrwgt>
 0.3856907633D-05    1    2    0
 0.570674600865826D+02 0.000000000000000D+00 0.000000000000000D+00 0.570674600865826D+02
 0.570674600865826D+02 0.000000000000000D+00 0.000000000000000D+00 -.570674600865826D+02
 0.631959586269948D+02 -.329927512535979D+02 0.714895988108585D+01 0.188175429884370D+02
 0.183238611342780D+02 0.438051849881030D+01 -.166199967991015D+02 -.635221622331468D+01
 0.326151004118925D+02 0.286122327547876D+02 0.947103691801563D+01 -.124653267651223D+02
 0.000000000000000D+00 0.000000000000000D+00 0.000000000000000D+00 -.000000000000000D+00
 0.621410839453604D+02 0.000000000000000D+00 0.000000000000000D+00 0.621410839453604D+02
 0.328743379505753D+03 0.000000000000000D+00 0.000000000000000D+00 -.328743379505753D+03
 0.727748738724189D+02 -.482230892853588D+02 -.107988889614223D+02 0.188175429884370D+02
 0.229676357624628D+02 -.244616495325147D+00 -.220703829676704D+02 -.635221622331468D+01
 0.254450389003872D+02 0.221088118986936D+02 0.180722707735546D+01 -.124653267651223D+02
 0.269696914915844D+03 0.263588938819903D+02 0.310620448517372D+02 -.266602295560392D+03
0.448639781377D-06 0.000000000000D+00 0.000000000000D+00 0.103777981839D-07 0.442692382506D-09  6 22 -3 9900012 -11 -4 21 2 0.39527371D-02 0.12232387D+00 0.60289743D+04 0.60289743D+04 0.60289743D+04 0.12328010D+01  1  2  1  1  6  2       -3 0.385690763280D-05 0.100000000000D+01
  </mgrwgt>
  </event>
</LesHouchesEvents>
