<LesHouchesEvents version="3.0">
  <!--
  <scalesfunctionalform>
    muR  H_T/2 := sum_i mT(i)/2, i=final state
    muF1 H_T/2 := sum_i mT(i)/2, i=final state
    muF2 H_T/2 := sum_i mT(i)/2, i=final state
    QES  H_T/2 := sum_i mT(i)/2, i=final state
  </scalesfunctionalform>
PYTHIA8   
  -->
  <header>
        8
  </header>
  <init>
   2212   2212 0.65000000D+04 0.65000000D+04 -1 -1  82200  82200 -4   1
 0.38572820D-05 0.46080331D-07 0.97614697D-06     66
  </init>
  <event>
  5     66 -.97614697E-06 0.54172764E+02 0.78161638E-02 0.11327880E+00
       22 -1    0    0    0    0 0.00000000E+00 0.00000000E+00 0.17917875E+03 0.17917875E+03 0.00000000E+00 0.0000E+00 0.9000E+01
        1 -1    0    0  501    0 -.00000000E+00 -.00000000E+00 -.36033679E+03 0.36033679E+03 0.00000000E+00 0.0000E+00 0.9000E+01
  9900012  1    1    2    0    0 0.79416811E+02 0.54602238E+02 0.10622032E+03 0.15189204E+03 0.50000000E+02 0.0000E+00 0.9000E+01
       13  1    1    2    0    0 0.15095375E+02 0.89235964E+01 0.38562303E+02 0.42362155E+02 0.00000000E+00 0.0000E+00 0.9000E+01
        2  1    1    2  501    0 -.94512186E+02 -.63525834E+02 -.32594066E+03 0.34526135E+03 0.00000000E+00 0.0000E+00 0.9000E+01
#aMCatNLO 1  0  0  5  2 0.66667183D+01 0.00000000D+00  -5  6  0 0.00000000D+00 0.00000000D+00 0.00000000D+00 0.00000000D+00 0.00000000D+00
  <mgrwgt>
 -.2531127420D-05    8    2    0
 0.254095838616919D+03 0.000000000000000D+00 0.000000000000000D+00 0.254095838616919D+03
 0.254095838616919D+03 -.000000000000000D+00 -.000000000000000D+00 -.254095838616919D+03
 0.199119312411723D+03 0.794168105924559D+02 0.546022380134648D+02 0.166913349899163D+03
 0.587197966177566D+02 0.150953752777838D+02 0.892359638179532D+01 0.560402853995979D+02
 0.250352568204357D+03 -.945121858702397D+02 -.635258343952602D+02 -.222953635298760D+03
 0.000000000000000D+00 0.000000000000000D+00 0.000000000000000D+00 -.000000000000000D+00
 0.254095838616919D+03 0.000000000000000D+00 0.000000000000000D+00 0.254095838616919D+03
 0.254095838616919D+03 -.000000000000000D+00 -.000000000000000D+00 -.254095838616919D+03
 0.198957181730041D+03 0.793534913249935D+02 0.545596783238142D+02 0.166763980156677D+03
 0.586710512698323D+02 0.150767027296570D+02 0.891104573354693D+01 0.559962369793139D+02
 0.177017516316675D+03 -.670562980990024D+02 -.512574803182654D+02 -.155599886502544D+03
 0.735459279172888D+02 -.273738959556481D+02 -.122132437390957D+02 -.671603306334464D+02
0.106583967188D-07 0.000000000000D+00 0.000000000000D+00 0.344297676208D-07 0.000000000000D+00  6 22 1 9900012 13 2 21 0 0.27565962D-01 0.55436429D-01 0.14398531D+05 0.14398531D+05 0.14398531D+05 0.11932542D+01  1  2  2  2  6  5        2 0.926981742570D-07 0.100000000000D+01
0.406280662595D-10 0.000000000000D+00 -.204655249102D-10 0.344297676208D-07 0.000000000000D+00  6 22 1 9900012 13 2 21 2 0.27565962D-01 0.55436429D-01 0.14398531D+05 0.14398531D+05 0.14398531D+05 0.11932542D+01  1  2  3  2  6  5        2 0.503119819047D-09 0.100000000000D+01
-.181001745612D-08 0.000000000000D+00 0.000000000000D+00 0.344297676208D-07 0.000000000000D+00  6 22 1 9900012 13 2 21 2 0.27565962D-01 0.55436429D-01 0.14398531D+05 0.14398531D+05 0.14398531D+05 0.11932542D+01  1  2 15  2  6  5        2 -.224144474211D-07 0.100000000000D+01
0.459840969717D-06 0.000000000000D+00 0.000000000000D+00 0.344297676208D-07 0.000000000000D+00  6 22 1 9900012 13 2 21 2 0.27565962D-01 0.55436429D-01 0.14447803D+05 0.14447803D+05 0.14447803D+05 0.11931066D+01  1  2 12  2  6  5        2 0.569400161012D-05 0.100000000000D+01
-.885201732232D-06 0.000000000000D+00 0.000000000000D+00 0.344297676208D-07 0.000000000000D+00  6 22 1 9900012 13 2 21 2 0.27565962D-01 0.55436429D-01 0.14398531D+05 0.14398531D+05 0.14398531D+05 0.11932542D+01  1  2  4  2  6  5        2 -.109619427244D-04 0.100000000000D+01
-.498383846618D-06 0.000000000000D+00 0.000000000000D+00 0.344297676208D-07 0.000000000000D+00  6 22 1 9900012 13 2 21 2 0.27565962D-01 0.55436429D-01 0.14398531D+05 0.14398531D+05 0.14398531D+05 0.11932542D+01  1  2  5  2  6  5        2 -.617176286769D-05 0.100000000000D+01
0.665060853387D-06 0.000000000000D+00 -.000000000000D+00 0.344297676208D-07 0.000000000000D+00  6 22 1 9900012 13 2 21 2 0.27565962D-01 0.55436429D-01 0.14398531D+05 0.14398531D+05 0.14398531D+05 0.11932542D+01  1  2  6  2  6  5        2 0.823581644457D-05 0.100000000000D+01
0.486146635271D-07 0.000000000000D+00 0.000000000000D+00 0.344297676208D-07 0.391923763307D-08  6 22 1 9900012 13 2 21 2 0.27565962D-01 0.55436429D-01 0.14447803D+05 0.14447803D+05 0.14447803D+05 0.11931066D+01  1  2 11  2  6  5        2 0.601973270389D-06 0.100000000000D+01
  </mgrwgt>
  </event>
  <event>
  5     66 -.97614697E-06 0.34566977E+02 0.78161638E-02 0.12074112E+00
       22 -1    0    0    0    0 0.00000000E+00 0.00000000E+00 0.11036559E+04 0.11036559E+04 0.00000000E+00 0.0000E+00 0.9000E+01
        3 -1    0    0  501    0 0.00000000E+00 0.00000000E+00 -.13029513E+02 0.13029513E+02 0.00000000E+00 0.0000E+00 0.9000E+01
  9900012  1    1    2    0    0 -.12157460E+02 -.28315069E+02 0.41760376E+03 0.42171370E+03 0.50000000E+02 0.0000E+00 0.9000E+01
       13  1    1    2    0    0 -.14877665E+02 0.67749222E+01 0.65642141E+03 0.65662494E+03 0.00000000E+00 0.0000E+00 0.9000E+01
        4  1    1    2  501    0 0.27035125E+02 0.21540147E+02 0.16601255E+02 0.38346807E+02 0.00000000E+00 0.0000E+00 0.9000E+01
#aMCatNLO 1  0  0  2  5 0.38599292D+02 0.00000000D+00  -5  6  0 0.00000000D+00 0.00000000D+00 0.00000000D+00 0.00000000D+00 0.00000000D+00
  <mgrwgt>
 -.4503115990D-05    5    2    0
 0.119917050470090D+03 0.000000000000000D+00 0.000000000000000D+00 0.119917050470090D+03
 0.119917050470090D+03 0.000000000000000D+00 0.000000000000000D+00 -.119917050470090D+03
 0.645106780589334D+02 -.121574596803718D+02 -.283150692115457D+02 0.266848386408624D+02
 0.722707126432298D+02 -.148776654881523D+02 0.677492222415417D+01 0.703975241357223D+02
 0.103052710238017D+03 0.270351251685241D+02 0.215401469873916D+02 -.970823627765847D+02
 0.000000000000000D+00 0.000000000000000D+00 -.000000000000000D+00 -.000000000000000D+00
 0.123574481009672D+03 0.000000000000000D+00 0.000000000000000D+00 0.123574481009672D+03
 0.288876666270651D+03 0.000000000000000D+00 0.000000000000000D+00 -.288876666270651D+03
 0.649284765411336D+02 -.211796844091646D+02 -.235594444117825D+02 0.266848386408624D+02
 0.757615813767976D+02 -.251958773761548D+02 0.122136633128350D+02 0.703975241357223D+02
 0.102140558187062D+03 0.127326539704806D+02 0.290789956385730D+02 -.970823627765847D+02
 0.169620531175330D+03 0.336429078148388D+02 -.177332145396255D+02 -.165302185260979D+03
0.571773649579D-07 0.000000000000D+00 0.000000000000D+00 0.674242620477D-07 0.000000000000D+00  6 22 3 9900012 13 4 21 0 0.16979322D+00 0.20045404D-02 0.30056401D+04 0.30056401D+04 0.30056401D+04 0.12675256D+01  1  2  2  1  6  2        3 0.104104525594D-05 0.100000000000D+01
0.208314969616D-08 0.000000000000D+00 -.109788068292D-09 0.674242620477D-07 0.000000000000D+00  6 22 3 9900012 13 4 21 2 0.16979322D+00 0.20045404D-02 0.30056401D+04 0.30056401D+04 0.30056401D+04 0.12675256D+01  1  2  3  1  6  2        3 0.609367673557D-07 0.100000000000D+01
-.100183173469D-07 0.000000000000D+00 0.000000000000D+00 0.674242620477D-07 0.000000000000D+00  6 22 3 9900012 13 4 21 2 0.16979322D+00 0.20045404D-02 0.30056401D+04 0.30056401D+04 0.30056401D+04 0.12675256D+01  1  2 15  1  6  2        3 -.293058091116D-06 0.100000000000D+01
-.246957199373D-06 0.000000000000D+00 -.168571835501D-07 0.674242620477D-07 0.000000000000D+00  6 22 3 9900012 13 4 21 2 0.16979322D+00 0.49679776D-02 0.30056401D+04 0.30056401D+04 0.30056401D+04 0.12675256D+01  1  2  5  1  6  2        3 -.192412555197D-05 0.100000000000D+01
-.235923040806D-07 0.000000000000D+00 -.168182444082D-08 0.674242620477D-07 0.000000000000D+00  6 22 21 9900012 13 4 -3 2 0.16979322D+00 0.49679776D-02 0.30056401D+04 0.30056401D+04 0.30056401D+04 0.12675256D+01  1  2  5  3  6  2        3 -.338791436988D-05 0.100000000000D+01
  </mgrwgt>
  </event>
  <event>
  5     66 0.97614697E-06 0.38490048E+02 0.78161638E-02 0.12158581E+00
       22 -1    0    0    0    0 0.00000000E+00 0.00000000E+00 0.17144180E+02 0.17144180E+02 0.00000000E+00 0.0000E+00 0.9000E+01
        1 -1    0    0  501    0 0.00000000E+00 0.00000000E+00 -.77451837E+03 0.77451837E+03 0.00000000E+00 0.0000E+00 0.9000E+01
  9900012  1    1    2    0    0 -.37008930E+02 0.38375994E+02 -.73833160E+02 0.10389280E+03 0.50000000E+02 0.0000E+00 0.9000E+01
       13  1    1    2    0    0 -.60688809E+01 -.53817498E+01 -.15193477E+02 0.17223132E+02 0.00000000E+00 0.0000E+00 0.9000E+01
        2  1    1    2  501    0 0.43077811E+02 -.32994244E+02 -.66834755E+03 0.67054662E+03 0.00000000E+00 0.0000E+00 0.9000E+01
#aMCatNLO 1  0  0  2  5 0.16913531D+02 0.00000000D+00  -5  6  0 0.00000000D+00 0.00000000D+00 0.00000000D+00 0.00000000D+00 0.00000000D+00
  <mgrwgt>
 0.2264709653D-04    9    2    0
 0.115232296628181D+03 0.000000000000000D+00 0.000000000000000D+00 0.115232296628181D+03
 0.115232296628181D+03 0.000000000000000D+00 0.000000000000000D+00 -.115232296628181D+03
 0.114241873902697D+03 -.370089297650249D+02 0.383759942604531D+02 0.877999312925058D+02
 0.923248789311633D+01 -.606888088080763D+01 -.538174980078646D+01 0.440956762425094D+01
 0.106990231460549D+03 0.430778106458326D+02 -.329942444596666D+02 -.922094989167568D+02
 0.000000000000000D+00 0.000000000000000D+00 0.000000000000000D+00 -.000000000000000D+00
 0.120330729156705D+03 0.000000000000000D+00 0.000000000000000D+00 0.120330729156705D+03
 0.124956147913836D+03 0.000000000000000D+00 0.000000000000000D+00 -.124956147913836D+03
 0.112821332438339D+03 -.387676054196052D+02 0.318888364200267D+02 0.877999312925058D+02
 0.965055584297206D+01 -.621513596915143D+01 -.592123520310081D+01 0.440956762425094D+01
 0.108396936952639D+03 0.414095695622097D+02 -.391478198487160D+02 -.922094989167568D+02
 0.144180518365914D+02 0.357317182654696D+01 0.131802186317901D+02 -.462541875713092D+01
0.802288909988D-07 0.000000000000D+00 0.000000000000D+00 0.336264113680D-07 0.000000000000D+00  6 22 1 9900012 13 2 21 0 0.26375661D-02 0.11915667D+00 0.45876594D+04 0.45876594D+04 0.45876594D+04 0.12460777D+01  1  2  2  1  6  2        1 0.644399066484D-05 0.100000000000D+01
0.108512455360D-08 0.000000000000D+00 -.154050033094D-09 0.336264113680D-07 0.000000000000D+00  6 22 1 9900012 13 2 21 2 0.26375661D-02 0.11915667D+00 0.45876594D+04 0.45876594D+04 0.45876594D+04 0.12460777D+01  1  2  3  1  6  2        1 0.135329968110D-06 0.100000000000D+01
-.111252449906D-07 0.000000000000D+00 0.000000000000D+00 0.336264113680D-07 0.000000000000D+00  6 22 1 9900012 13 2 21 2 0.26375661D-02 0.11915667D+00 0.45876594D+04 0.45876594D+04 0.45876594D+04 0.12460777D+01  1  2 15  1  6  2        1 -.138747118457D-05 0.100000000000D+01
0.116220398005D-06 0.000000000000D+00 0.000000000000D+00 0.336264113680D-07 0.000000000000D+00  6 22 1 9900012 13 2 21 2 0.26375661D-02 0.13492863D+00 0.56307053D+04 0.56307053D+04 0.56307053D+04 0.12360794D+01  1  2 12  1  6  2        1 0.119654305930D-04 0.100000000000D+01
-.101559297153D-07 0.000000000000D+00 0.000000000000D+00 0.336264113680D-07 0.000000000000D+00  6 22 1 9900012 13 2 21 2 0.26375661D-02 0.11915667D+00 0.45876594D+04 0.45876594D+04 0.45876594D+04 0.12460777D+01  1  2  4  1  6  2        1 -.126658422753D-05 0.100000000000D+01
-.333864856251D-06 0.000000000000D+00 -.822895463562D-07 0.336264113680D-07 0.000000000000D+00  6 22 1 9900012 13 2 21 2 0.26375661D-02 0.13323724D+00 0.45876594D+04 0.45876594D+04 0.45876594D+04 0.12460777D+01  1  2  5  1  6  2        1 -.351528025579D-04 0.100000000000D+01
0.341434643753D-06 0.000000000000D+00 0.817789149820D-07 0.336264113680D-07 0.000000000000D+00  6 22 1 9900012 13 2 21 2 0.26375661D-02 0.11915667D+00 0.45876594D+04 0.45876594D+04 0.45876594D+04 0.12460777D+01  1  2  6  1  6  2        1 0.425815997780D-04 0.100000000000D+01
0.227130537211D-08 0.000000000000D+00 0.000000000000D+00 0.336264113680D-07 0.000000000000D+00  6 22 21 9900012 13 2 -1 2 0.26375661D-02 0.13492863D+00 0.56307053D+04 0.56307053D+04 0.56307053D+04 0.12360794D+01  1  2 12  3  6  2        1 0.423304003917D-06 0.100000000000D+01
-.562842988465D-08 0.000000000000D+00 -.146944136213D-08 0.336264113680D-07 0.000000000000D+00  6 22 21 9900012 13 2 -1 2 0.26375661D-02 0.13323724D+00 0.45876594D+04 0.45876594D+04 0.45876594D+04 0.12460777D+01  1  2  5  3  6  2        1 -.109570050785D-05 0.100000000000D+01
  </mgrwgt>
  </event>
  <event>
  5     66 0.97614697E-06 0.65644271E+02 0.78161638E-02 0.11406867E+00
       22 -1    0    0    0    0 0.00000000E+00 0.00000000E+00 0.99576491E+01 0.99576491E+01 0.00000000E+00 0.0000E+00 0.9000E+01
        1 -1    0    0  501    0 0.00000000E+00 0.00000000E+00 -.10691105E+04 0.10691105E+04 0.00000000E+00 0.0000E+00 0.9000E+01
  9900012  1    1    2    0    0 0.10671252E+02 0.36344656E+02 -.20999317E+03 0.21916190E+03 0.50000000E+02 0.0000E+00 0.9000E+01
       13  1    1    2    0    0 0.40811138E+02 0.43828994E+01 -.10318876E+03 0.11105260E+03 0.00000000E+00 0.0000E+00 0.9000E+01
        2  1    1    2  501    0 -.51482390E+02 -.40727556E+02 -.74597088E+03 0.74885361E+03 0.00000000E+00 0.0000E+00 0.9000E+01
#aMCatNLO 1  0  0  2  5 0.68903722D+02 0.00000000D+00  -5  6  0 0.00000000D+00 0.00000000D+00 0.00000000D+00 0.00000000D+00 0.00000000D+00
  <mgrwgt>
 0.1980577341D-04    7    2    0
 0.103178616165657D+03 0.000000000000000D+00 0.000000000000000D+00 0.103178616165657D+03
 0.103178616165657D+03 0.000000000000000D+00 0.000000000000000D+00 -.103178616165657D+03
 0.682106815270609D+02 0.106712522646180D+02 0.363446563462498D+02 0.267934209193976D+02
 0.510796198665465D+02 0.408111381028654D+02 0.438289937835411D+01 0.304034334491840D+02
 0.870669309377067D+02 -.514823903674834D+02 -.407275557246039D+02 -.571968543685816D+02
 0.000000000000000D+00 -.000000000000000D+00 -.000000000000000D+00 -.000000000000000D+00
 0.125354713731878D+03 0.000000000000000D+00 0.000000000000000D+00 0.125354713731878D+03
 0.149235123826690D+03 0.000000000000000D+00 0.000000000000000D+00 -.149235123826690D+03
 0.800280880797927D+02 0.235051300562186D+02 0.513236430720120D+02 0.267934209193976D+02
 0.610166236241428D+02 0.505159507755045D+02 0.157098157289686D+02 0.304034334491840D+02
 0.727516423117900D+02 -.376459827707949D+02 -.245784720969980D+02 -.571968543685816D+02
 0.607934835428425D+02 -.363750980609282D+02 -.424549867039826D+02 -.238804100948115D+02
0.145850759260D-06 0.000000000000D+00 0.000000000000D+00 0.283748742219D-06 0.000000000000D+00  6 22 1 9900012 13 2 21 0 0.15319460D-02 0.16447853D+00 0.71756270D+04 0.71756270D+04 0.71756270D+04 0.12245693D+01  1  2  2  1  6  2        1 0.149190161606D-04 0.100000000000D+01
-.286699199369D-09 0.000000000000D+00 -.280052659473D-09 0.283748742219D-06 0.000000000000D+00  6 22 1 9900012 13 2 21 2 0.15319460D-02 0.16447853D+00 0.71756270D+04 0.71756270D+04 0.71756270D+04 0.12245693D+01  1  2  3  1  6  2        1 -.439769065071D-07 0.100000000000D+01
-.222268144361D-07 0.000000000000D+00 0.000000000000D+00 0.283748742219D-06 0.000000000000D+00  6 22 1 9900012 13 2 21 2 0.15319460D-02 0.16447853D+00 0.71756270D+04 0.71756270D+04 0.71756270D+04 0.12245693D+01  1  2 15  1  6  2        1 -.340938008394D-05 0.100000000000D+01
-.785078115111D-08 0.000000000000D+00 0.000000000000D+00 0.283748742219D-06 0.000000000000D+00  6 22 1 9900012 13 2 21 2 0.15319460D-02 0.16447853D+00 0.71756270D+04 0.71756270D+04 0.71756270D+04 0.12245693D+01  1  2  4  1  6  2        1 -.120423450589D-05 0.100000000000D+01
-.763823813725D-07 0.000000000000D+00 -.439083233436D-07 0.283748742219D-06 0.000000000000D+00  6 22 1 9900012 13 2 21 2 0.15319460D-02 0.26466504D+00 0.71756270D+04 0.71756270D+04 0.71756270D+04 0.12245693D+01  1  2  5  1  6  2        1 -.434932093097D-05 0.100000000000D+01
0.912838319458D-07 0.000000000000D+00 0.393695062195D-07 0.283748742219D-06 0.000000000000D+00  6 22 1 9900012 13 2 21 2 0.15319460D-02 0.16447853D+00 0.71756270D+04 0.71756270D+04 0.71756270D+04 0.12245693D+01  1  2  6  1  6  2        1 0.140020640167D-04 0.100000000000D+01
-.227227979681D-08 0.000000000000D+00 -.238084479308D-08 0.283748742219D-06 0.000000000000D+00  6 22 21 9900012 13 2 -1 2 0.15319460D-02 0.26466504D+00 0.71756270D+04 0.71756270D+04 0.71756270D+04 0.12245693D+01  1  2  5  3  6  2        1 -.108394338248D-06 0.100000000000D+01
  </mgrwgt>
  </event>
  <event>
  5     66 0.97614697E-06 0.13832973E+03 0.78161638E-02 0.10837252E+00
       22 -1    0    0    0    0 0.00000000E+00 0.00000000E+00 0.55277217E+02 0.55277217E+02 0.00000000E+00 0.0000E+00 0.9000E+01
        1 -1    0    0  501    0 0.00000000E+00 0.00000000E+00 -.22437041E+04 0.22437041E+04 0.00000000E+00 0.0000E+00 0.9000E+01
  9900012  1    1    2    0    0 0.13344290E+02 -.13845436E+03 -.11252384E+03 0.18576677E+03 0.50000000E+02 0.0000E+00 0.9000E+01
       13  1    1    2    0    0 0.12540508E+02 -.14861290E+02 0.97645281E+01 0.21759327E+02 0.00000000E+00 0.0000E+00 0.9000E+01
        2  1    1    2  501    0 -.25884798E+02 0.15331565E+03 -.20856676E+04 0.20914552E+04 0.00000000E+00 0.0000E+00 0.9000E+01
#aMCatNLO 1  0  0  2  5 0.79134657D+01 0.00000000D+00  -5  6  0 0.00000000D+00 0.00000000D+00 0.00000000D+00 0.00000000D+00 0.00000000D+00
  <mgrwgt>
 0.4532338815D-04   11    2    0
 0.352172855265946D+03 0.000000000000000D+00 0.000000000000000D+00 0.352172855265946D+03
 0.352172855265946D+03 0.000000000000000D+00 0.000000000000000D+00 -.352172855265946D+03
 0.256726408242941D+03 0.133442898890929D+02 -.138454358376828D+03 0.209906572701138D+03
 0.101361081774083D+03 0.125405084882221D+02 -.148612904811116D+02 0.994783724761577D+02
 0.346258220514868D+03 -.258847983773150D+02 0.153315648857939D+03 -.309384945177295D+03
 0.000000000000000D+00 0.000000000000000D+00 0.000000000000000D+00 -.000000000000000D+00
 0.354601463921178D+03 0.000000000000000D+00 0.000000000000000D+00 0.354601463921178D+03
 0.356244395915989D+03 0.000000000000000D+00 0.000000000000000D+00 -.356244395915989D+03
 0.256850350022339D+03 0.111022863898885D+02 -.138881504457495D+03 0.209906572701138D+03
 0.101280313863931D+03 0.116558837251416D+02 -.150298290228869D+02 0.994783724761577D+02
 0.346242867526129D+03 -.289078905200259D+02 0.152739689917325D+03 -.309384945177295D+03
 0.647232842476707D+01 0.614972040499579D+01 0.117164356305685D+01 -.164293199481100D+01
0.658001834712D-05 0.000000000000D+00 0.000000000000D+00 0.356523910632D-06 0.000000000000D+00  6 22 1 9900012 13 2 21 0 0.85041872D-02 0.34518525D+00 0.26040338D+05 0.26040338D+05 0.26040338D+05 0.11684762D+01  1  2  2  1  6  2        1 0.111398800386D-04 0.100000000000D+01
0.146233887417D-07 0.000000000000D+00 -.126345015058D-07 0.356523910632D-06 0.000000000000D+00  6 22 1 9900012 13 2 21 2 0.85041872D-02 0.34518525D+00 0.26040338D+05 0.26040338D+05 0.26040338D+05 0.11684762D+01  1  2  3  1  6  2        1 0.338019073040D-07 0.100000000000D+01
-.108334681253D-05 0.000000000000D+00 0.000000000000D+00 0.356523910632D-06 0.000000000000D+00  6 22 1 9900012 13 2 21 2 0.85041872D-02 0.34518525D+00 0.26040338D+05 0.26040338D+05 0.26040338D+05 0.11684762D+01  1  2 15  1  6  2        1 -.250415202537D-05 0.100000000000D+01
0.229672266351D-05 0.000000000000D+00 0.000000000000D+00 0.356523910632D-06 0.000000000000D+00  6 22 1 9900012 13 2 21 2 0.85041872D-02 0.35158395D+00 0.27020158D+05 0.27020158D+05 0.27020158D+05 0.11669830D+01  1  2 12  1  6  2        1 0.496544924152D-05 0.100000000000D+01
-.181725838706D-06 0.000000000000D+00 0.000000000000D+00 0.356523910632D-06 0.000000000000D+00  6 22 1 9900012 13 2 21 2 0.85041872D-02 0.34518525D+00 0.26040338D+05 0.26040338D+05 0.26040338D+05 0.11684762D+01  1  2  4  1  6  2        1 -.420058583082D-06 0.100000000000D+01
-.276917899772D-03 0.000000000000D+00 -.366653304811D-04 0.356523910632D-06 0.000000000000D+00  6 22 1 9900012 13 2 21 2 0.85041872D-02 0.35021888D+00 0.26040338D+05 0.26040338D+05 0.26040338D+05 0.11684762D+01  1  2  5  1  6  2        1 -.608478736408D-03 0.100000000000D+01
0.277423476869D-03 0.000000000000D+00 0.366614885372D-04 0.356523910632D-06 0.000000000000D+00  6 22 1 9900012 13 2 21 2 0.85041872D-02 0.34518525D+00 0.26040338D+05 0.26040338D+05 0.26040338D+05 0.11684762D+01  1  2  6  1  6  2        1 0.641263308712D-03 0.100000000000D+01
0.217871603848D-07 0.000000000000D+00 0.000000000000D+00 0.356523910632D-06 0.586959911911D-08  6 22 1 9900012 13 2 21 2 0.85628327D-02 0.34917601D+00 0.27020158D+05 0.27020158D+05 0.27020158D+05 0.11669830D+01  1  2 11  1  6  2        1 0.477920646612D-07 0.100000000000D+01
0.163169822353D-06 0.000000000000D+00 0.000000000000D+00 0.356523910632D-06 0.000000000000D+00  6 22 21 9900012 13 2 -1 2 0.85041872D-02 0.35158395D+00 0.27020158D+05 0.27020158D+05 0.27020158D+05 0.11669830D+01  1  2 12  3  6  2        1 0.201837870150D-06 0.100000000000D+01
-.732790292261D-06 0.000000000000D+00 -.973998256589D-07 0.356523910632D-06 0.000000000000D+00  6 22 21 9900012 13 2 -1 2 0.85041872D-02 0.35021888D+00 0.26040338D+05 0.26040338D+05 0.26040338D+05 0.11684762D+01  1  2  5  3  6  2        1 -.926976684506D-06 0.100000000000D+01
0.982055525637D-09 0.000000000000D+00 0.000000000000D+00 0.356523910632D-06 0.139226845982D-09  6 22 21 9900012 13 2 -1 2 0.85628327D-02 0.34917601D+00 0.27020158D+05 0.27020158D+05 0.27020158D+05 0.11669830D+01  1  2 11  3  6  2        1 0.124201218442D-08 0.100000000000D+01
  </mgrwgt>
  </event>
  <event>
  5     66 0.97614697E-06 0.32886242E+02 0.78161638E-02 0.12051003E+00
       22 -1    0    0    0    0 0.00000000E+00 0.00000000E+00 0.55835288E+02 0.55835288E+02 0.00000000E+00 0.0000E+00 0.9000E+01
        3 -1    0    0  501    0 0.00000000E+00 0.00000000E+00 -.10290791E+03 0.10290791E+03 0.00000000E+00 0.0000E+00 0.9000E+01
  9900012  1    1    2    0    0 -.20569976E+02 0.28543184E+01 -.25699506E+02 0.59931091E+02 0.50000000E+02 0.0000E+00 0.9000E+01
       13  1    1    2    0    0 0.15659801E+02 -.42813354E+02 0.11294955E+02 0.46965825E+02 0.00000000E+00 0.0000E+00 0.9000E+01
        4  1    1    2  501    0 0.49101741E+01 0.39959036E+02 -.32668075E+02 0.51846287E+02 0.00000000E+00 0.0000E+00 0.9000E+01
#aMCatNLO 1  0  0  2  5 0.21995428D+02 0.00000000D+00  -5  6  0 0.00000000D+00 0.00000000D+00 0.00000000D+00 0.00000000D+00 0.00000000D+00
  <mgrwgt>
 0.9834774339D-05    9    2    0
 0.758016692498331D+02 0.000000000000000D+00 0.000000000000000D+00 0.758016692498331D+02
 0.758016692498331D+02 0.000000000000000D+00 0.000000000000000D+00 -.758016692498331D+02
 0.547739259627063D+02 -.205699755640994D+02 0.285431838248738D+01 -.830132141479773D+01
 0.526847805674066D+02 0.156598014481989D+02 -.428133542532036D+02 0.264097220664751D+02
 0.441446319695534D+02 0.491017411590049D+01 0.399590358707162D+02 -.181084006516774D+02
 0.000000000000000D+00 -.000000000000000D+00 0.000000000000000D+00 -.000000000000000D+00
 0.827666282061701D+02 0.000000000000000D+00 0.000000000000000D+00 0.827666282061701D+02
 0.881394426975847D+02 0.000000000000000D+00 0.000000000000000D+00 -.881394426975847D+02
 0.530401551642237D+02 -.156078606965892D+02 -.860701509824501D+00 -.830132141479773D+01
 0.574407840100328D+02 0.207283017365733D+02 -.466080224336578D+02 0.264097220664751D+02
 0.421280053313493D+02 0.888084966899568D+01 0.369862835142061D+02 -.181084006516774D+02
 0.182971263981490D+02 -.140012907089798D+02 0.104824404292762D+02 -.537281449141457D+01
0.441132407452D-07 0.000000000000D+00 0.000000000000D+00 0.121549255740D-08 0.000000000000D+00  6 22 3 9900012 13 4 21 0 0.85900444D-02 0.15831987D-01 0.48991754D+04 0.48991754D+04 0.48991754D+04 0.12428432D+01  1  2  2  1  6  2        3 0.526555057527D-05 0.100000000000D+01
-.163274495384D-09 0.000000000000D+00 -.847032298723D-10 0.121549255740D-08 0.000000000000D+00  6 22 3 9900012 13 4 21 2 0.85900444D-02 0.15831987D-01 0.48991754D+04 0.48991754D+04 0.48991754D+04 0.12428432D+01  1  2  3  1  6  2        3 -.301041136600D-07 0.100000000000D+01
-.718001819039D-08 0.000000000000D+00 0.000000000000D+00 0.121549255740D-08 0.000000000000D+00  6 22 3 9900012 13 4 21 2 0.85900444D-02 0.15831987D-01 0.48991754D+04 0.48991754D+04 0.48991754D+04 0.12428432D+01  1  2 15  1  6  2        3 -.132383250168D-05 0.100000000000D+01
0.334335396438D-07 0.000000000000D+00 0.000000000000D+00 0.121549255740D-08 0.000000000000D+00  6 22 3 9900012 13 4 21 2 0.85900444D-02 0.20100342D-01 0.63142146D+04 0.63142146D+04 0.63142146D+04 0.12305989D+01  1  2 12  1  6  2        3 0.414687110368D-05 0.100000000000D+01
-.795728309429D-08 0.000000000000D+00 0.000000000000D+00 0.121549255740D-08 0.000000000000D+00  6 22 3 9900012 13 4 21 2 0.85900444D-02 0.15831987D-01 0.48991754D+04 0.48991754D+04 0.48991754D+04 0.12428432D+01  1  2  4  1  6  2        3 -.146714252053D-05 0.100000000000D+01
-.880979734974D-07 0.000000000000D+00 -.260957674977D-07 0.121549255740D-08 0.000000000000D+00  6 22 3 9900012 13 4 21 2 0.85900444D-02 0.20017191D-01 0.48991754D+04 0.48991754D+04 0.48991754D+04 0.12428432D+01  1  2  5  1  6  2        3 -.109278217502D-04 0.100000000000D+01
0.923681201172D-07 0.000000000000D+00 0.253939959530D-07 0.121549255740D-08 0.000000000000D+00  6 22 3 9900012 13 4 21 2 0.85900444D-02 0.15831987D-01 0.48991754D+04 0.48991754D+04 0.48991754D+04 0.12428432D+01  1  2  6  1  6  2        3 0.170305863144D-04 0.100000000000D+01
0.109342251721D-08 0.000000000000D+00 0.000000000000D+00 0.121549255740D-08 0.000000000000D+00  6 22 21 9900012 13 4 -3 2 0.85900444D-02 0.20100342D-01 0.63142146D+04 0.63142146D+04 0.63142146D+04 0.12305989D+01  1  2 12  3  6  2        3 0.227474116274D-05 0.100000000000D+01
-.245023947162D-08 0.000000000000D+00 -.842391155139D-09 0.121549255740D-08 0.000000000000D+00  6 22 21 9900012 13 4 -3 2 0.85900444D-02 0.20017191D-01 0.48991754D+04 0.48991754D+04 0.48991754D+04 0.12428432D+01  1  2  5  3  6  2        3 -.513407393137D-05 0.100000000000D+01
  </mgrwgt>
  </event>
  <event>
  5     66 0.97614697E-06 0.10505535E+03 0.78161638E-02 0.11191480E+00
       22 -1    0    0    0    0 0.00000000E+00 0.00000000E+00 0.80597921E+03 0.80597921E+03 0.00000000E+00 0.0000E+00 0.9000E+01
        3 -1    0    0  501    0 0.00000000E+00 0.00000000E+00 -.84437559E+02 0.84437559E+02 0.00000000E+00 0.0000E+00 0.9000E+01
  9900012  1    1    2    0    0 0.99228251E+01 -.98769933E+02 0.30372145E+03 0.32342029E+03 0.50000000E+02 0.0000E+00 0.9000E+01
       13  1    1    2    0    0 0.14645116E+02 -.18303366E+02 0.44393693E+03 0.44455538E+03 0.00000000E+00 0.0000E+00 0.9000E+01
        4  1    1    2  501    0 -.24567941E+02 0.11707330E+03 -.26116721E+02 0.12244111E+03 0.00000000E+00 0.0000E+00 0.9000E+01
#aMCatNLO 1  0  0  5  2 0.11816430D+02 0.00000000D+00  -5  6  0 0.00000000D+00 0.00000000D+00 0.00000000D+00 0.00000000D+00 0.00000000D+00
  <mgrwgt>
 0.4937474934D-05    5    2    0
 0.260873374475860D+03 0.000000000000000D+00 0.000000000000000D+00 0.260873374475860D+03
 0.260873374475860D+03 -.000000000000000D+00 -.000000000000000D+00 -.260873374475860D+03
 0.131924482509488D+03 0.992282514807260D+01 -.987699334908717D+02 0.710641039110873D+02
 0.144745671681639D+03 0.146451160579568D+02 -.183033659154242D+02 0.142834928649766D+03
 0.245076594760594D+03 -.245679412060294D+02 0.117073299406296D+03 -.213899032560854D+03
 0.000000000000000D+00 -.000000000000000D+00 0.000000000000000D+00 0.000000000000000D+00
 0.260873374475860D+03 0.000000000000000D+00 0.000000000000000D+00 0.260873374475860D+03
 0.260873374475860D+03 -.000000000000000D+00 -.000000000000000D+00 -.260873374475860D+03
 0.130868257020981D+03 0.979584813579835D+01 -.981648515407386D+02 0.699585875857607D+02
 0.143452171593570D+03 0.145058637287320D+02 -.176397885527288D+02 0.141622538150569D+03
 0.149992946607646D+02 0.900637577067301D+01 0.164310814724969D+01 -.118812554645675D+02
 0.232427025676406D+03 -.333080876352034D+02 0.114161531946218D+03 -.199699870271763D+03
0.242106474482D-05 0.000000000000D+00 0.000000000000D+00 0.492923364792D-07 0.000000000000D+00  6 22 3 9900012 13 4 21 0 0.12399680D+00 0.12990394D-01 0.16156058D+05 0.16156058D+05 0.16156058D+05 0.11883091D+01  1  2  2  2  6  5        4 0.596826038103D-05 0.100000000000D+01
-.453610927872D-08 0.000000000000D+00 -.464876305054D-08 0.492923364792D-07 0.000000000000D+00  6 22 3 9900012 13 4 21 2 0.12399680D+00 0.12990394D-01 0.16156058D+05 0.16156058D+05 0.16156058D+05 0.11883091D+01  1  2  3  2  6  5        4 -.157900587409D-07 0.100000000000D+01
-.394221991314D-06 0.000000000000D+00 0.000000000000D+00 0.492923364792D-07 0.000000000000D+00  6 22 3 9900012 13 4 21 2 0.12399680D+00 0.12990394D-01 0.16156058D+05 0.16156058D+05 0.16156058D+05 0.11883091D+01  1  2 15  2  6  5        4 -.137227478822D-05 0.100000000000D+01
0.651802986385D-06 0.000000000000D+00 0.000000000000D+00 0.492923364792D-07 0.000000000000D+00  6 22 3 9900012 13 4 21 2 0.12399680D+00 0.12990394D-01 0.17097427D+05 0.17097427D+05 0.17097427D+05 0.11859017D+01  1  2 12  2  6  5        4 0.226882145074D-05 0.100000000000D+01
-.549140682489D-06 0.000000000000D+00 0.000000000000D+00 0.492923364792D-07 0.000000000000D+00  6 22 3 9900012 13 4 21 2 0.12399680D+00 0.12990394D-01 0.16156058D+05 0.16156058D+05 0.16156058D+05 0.11883091D+01  1  2  5  2  6  5        4 -.191154205085D-05 0.100000000000D+01
  </mgrwgt>
  </event>
  <event>
  5     66 0.97614697E-06 0.60940864E+02 0.78161638E-02 0.11353381E+00
       22 -1    0    0    0    0 0.00000000E+00 0.00000000E+00 0.80386963E+03 0.80386963E+03 0.00000000E+00 0.0000E+00 0.9000E+01
        1 -1    0    0  501    0 0.00000000E+00 0.00000000E+00 -.11182138E+04 0.11182138E+04 0.00000000E+00 0.0000E+00 0.9000E+01
  9900012  1    1    2    0    0 -.37454388E+02 0.40386595E+02 0.52712476E+03 0.53234803E+03 0.50000000E+02 0.0000E+00 0.9000E+01
       13  1    1    2    0    0 -.26520412E+02 0.29253613E+02 0.27069436E+03 0.27355903E+03 0.00000000E+00 0.0000E+00 0.9000E+01
        2  1    1    2  501    0 0.63974800E+02 -.69640208E+02 -.11121633E+04 0.11161764E+04 0.00000000E+00 0.0000E+00 0.9000E+01
#aMCatNLO 1  0  0  2  5 0.30973197D+02 0.00000000D+00  -5  6  0 0.00000000D+00 0.00000000D+00 0.00000000D+00 0.00000000D+00 0.00000000D+00
  <mgrwgt>
 0.1813558619D-03    9    2    0
 0.948102376500552D+03 0.000000000000000D+00 0.000000000000000D+00 0.948102376500552D+03
 0.948102376500552D+03 0.000000000000000D+00 0.000000000000000D+00 -.948102376500552D+03
 0.626997647686291D+03 -.374543877358865D+02 0.403865945018457D+02 0.622568985758217D+03
 0.322166929633568D+03 -.265204118290388D+02 0.292536132227744D+02 0.319738055944786D+03
 0.947040175681246D+03 0.639747995649253D+02 -.696402077246200D+02 -.942307041703003D+03
 0.000000000000000D+00 0.000000000000000D+00 0.000000000000000D+00 -.000000000000000D+00
 0.954637728283278D+03 0.000000000000000D+00 0.000000000000000D+00 0.954637728283278D+03
 0.978903893874011D+03 0.000000000000000D+00 0.000000000000000D+00 -.978903893874011D+03
 0.627513701857344D+03 -.466189018336570D+02 0.388327436902904D+02 0.622568985758217D+03
 0.322517331908410D+03 -.312299889928178D+02 0.284551005880674D+02 0.319738055944786D+03
 0.946381936890632D+03 0.501428851306653D+02 -.719854200555461D+02 -.942307041703003D+03
 0.371286515009037D+02 0.277060056958095D+02 0.469757577718830D+01 -.242661655907337D+02
0.311814666978D-03 0.000000000000D+00 0.000000000000D+00 0.202769180793D-04 0.000000000000D+00  6 22 1 9900012 13 2 21 0 0.12367225D+00 0.17203289D+00 0.10861885D+05 0.10861885D+05 0.10861885D+05 0.12056265D+01  1  2  2  1  6  2        1 0.378901602899D-04 0.100000000000D+01
0.431305067084D-05 0.000000000000D+00 -.598725211941D-06 0.202769180793D-04 0.000000000000D+00  6 22 1 9900012 13 2 21 2 0.12367225D+00 0.17203289D+00 0.10861885D+05 0.10861885D+05 0.10861885D+05 0.12056265D+01  1  2  3  1  6  2        1 0.761798320522D-06 0.100000000000D+01
-.522001965191D-04 0.000000000000D+00 0.000000000000D+00 0.202769180793D-04 0.000000000000D+00  6 22 1 9900012 13 2 21 2 0.12367225D+00 0.17203289D+00 0.10861885D+05 0.10861885D+05 0.10861885D+05 0.12056265D+01  1  2 15  1  6  2        1 -.921992925055D-05 0.100000000000D+01
0.651334579923D-03 0.000000000000D+00 0.000000000000D+00 0.202769180793D-04 0.000000000000D+00  6 22 1 9900012 13 2 21 2 0.12367225D+00 0.17884618D+00 0.14006729D+05 0.14006729D+05 0.14006729D+05 0.11944488D+01  1  2 12  1  6  2        1 0.105183976133D-03 0.100000000000D+01
-.508100215427D-05 0.000000000000D+00 0.000000000000D+00 0.202769180793D-04 0.000000000000D+00  6 22 1 9900012 13 2 21 2 0.12367225D+00 0.17203289D+00 0.10861885D+05 0.10861885D+05 0.10861885D+05 0.12056265D+01  1  2  4  1  6  2        1 -.897438774337D-06 0.100000000000D+01
-.397201976281D-02 0.000000000000D+00 -.904545214211D-03 0.202769180793D-04 0.000000000000D+00  6 22 1 9900012 13 2 21 2 0.12367225D+00 0.17825892D+00 0.10861885D+05 0.10861885D+05 0.10861885D+05 0.12056265D+01  1  2  5  1  6  2        1 -.657332069905D-03 0.100000000000D+01
0.400221949117D-02 0.000000000000D+00 0.903973885795D-03 0.202769180793D-04 0.000000000000D+00  6 22 1 9900012 13 2 21 2 0.12367225D+00 0.17203289D+00 0.10861885D+05 0.10861885D+05 0.10861885D+05 0.12056265D+01  1  2  6  1  6  2        1 0.706897349328D-03 0.100000000000D+01
0.163052851697D-04 0.000000000000D+00 0.000000000000D+00 0.202769180793D-04 0.000000000000D+00  6 22 21 9900012 13 2 -1 2 0.12367225D+00 0.17884618D+00 0.14006729D+05 0.14006729D+05 0.14006729D+05 0.11944488D+01  1  2 12  3  6  2        1 0.336037420245D-05 0.100000000000D+01
-.247105101227D-04 0.000000000000D+00 -.572065686376D-05 0.202769180793D-04 0.000000000000D+00  6 22 21 9900012 13 2 -1 2 0.12367225D+00 0.17825892D+00 0.10861885D+05 0.10861885D+05 0.10861885D+05 0.12056265D+01  1  2  5  3  6  2        1 -.528835843661D-05 0.100000000000D+01
  </mgrwgt>
  </event>
</LesHouchesEvents>
