<LesHouchesEvents version="3.0">
  <!--
  <scalesfunctionalform>
    muR  H_T/2 := sum_i mT(i)/2, i=final state
    muF1 H_T/2 := sum_i mT(i)/2, i=final state
    muF2 H_T/2 := sum_i mT(i)/2, i=final state
    QES  H_T/2 := sum_i mT(i)/2, i=final state
  </scalesfunctionalform>
PYTHIA8   
  -->
  <header>
        6
  </header>
  <init>
   2212   2212 0.65000000D+04 0.65000000D+04 -1 -1  82200  82200 -4   1
 0.11896218D-05 0.31490678D-07 0.29856650D-06     66
  </init>
  <event>
  7     66 0.29856650E-06 0.38758697E+02 0.78161638E-02 0.12366513E+00
       22 -1    0    0    0    0 0.00000000E+00 0.00000000E+00 0.15323940E+02 0.15323940E+02 0.00000000E+00 0.0000E+00 0.9000E+01
       21 -1    0    0  502  501 0.00000000E+00 0.00000000E+00 -.32867325E+03 0.32867325E+03 0.00000000E+00 0.0000E+00 0.9000E+01
      -24  2    1    2    0    0 0.17938588E+02 -.40289318E+02 -.22533602E+03 0.24321198E+03 0.80191780E+02 0.0000E+00 0.0000E+00
  9900012  1    3    3    0    0 0.22729990E+02 -.10951301E+02 -.10220853E+03 0.11654684E+03 0.50000000E+02 0.0000E+00 0.9000E+01
       11  1    3    3    0    0 -.47914019E+01 -.29338017E+02 -.12312749E+03 0.12666514E+03 0.00000000E+00 0.0000E+00 0.9000E+01
        4  1    1    2  502    0 -.68250043E+01 -.39710581E+00 -.14531646E+02 0.16059487E+02 0.00000000E+00 0.0000E+00 0.9000E+01
       -3  1    1    2    0  501 -.11113584E+02 0.40686424E+02 -.73481641E+02 0.84725724E+02 0.00000000E+00 0.0000E+00 0.9000E+01
#aMCatNLO 2  0  0  2  5 0.98389633D+01 0.00000000D+00  -5  6  0 0.00000000D+00 0.00000000D+00 0.00000000D+00 0.00000000D+00 0.00000000D+00
  <mgrwgt>
 0.4249362412D-06    2    2    0
 0.674618467818944D+02 0.000000000000000D+00 0.000000000000000D+00 0.674618467818944D+02
 0.674618467818944D+02 0.000000000000000D+00 0.000000000000000D+00 -.674618467818944D+02
 0.557915879263904D+02 0.198832233399252D+02 -.111169375760810D+02 0.968361564150092D+01
 0.355012163229370D+02 -.657660302568233D+01 -.294418869369886D+02 -.187152330105756D+02
 0.000000000000000D+00 -.000000000000000D+00 -.000000000000000D+00 0.000000000000000D+00
 0.436308893144613D+02 -.133066203142429D+02 0.405588245130696D+02 0.903161736907468D+01
 0.710924531501268D+02 0.000000000000000D+00 0.000000000000000D+00 0.710924531501268D+02
 0.708453440214822D+02 0.000000000000000D+00 0.000000000000000D+00 -.708453440214822D+02
 0.568362195795478D+02 0.227299899172912D+02 -.109513014095171D+02 0.968361564150092D+01
 0.351274353230340D+02 -.479140193402855D+01 -.293380168593650D+02 -.187152330105756D+02
 0.684101163556582D+01 -.682500434064838D+01 -.397105812873891D+00 0.247109128644522D+00
 0.431331306334614D+02 -.111135836426142D+02 0.406864240817560D+02 0.903161736907468D+01
-.559804288327D-10 0.000000000000D+00 0.000000000000D+00 0.262281097024D-07 0.000000000000D+00  6 22 21 9900012 11 4 -3 2 0.22371331D-02 0.53286387D-01 0.45390826D+04 0.45390826D+04 0.45390826D+04 0.12466041D+01  1  2 13  3  5  2       -4 -.114537822480D-06 0.100000000000D+01
0.253923838988D-09 0.000000000000D+00 0.000000000000D+00 0.262281097024D-07 0.176660694357D-09  6 22 21 9900012 11 4 -3 2 0.23575293D-02 0.50565115D-01 0.45390826D+04 0.45390826D+04 0.45390826D+04 0.12466041D+01  1  2  1  3  5  2       -4 0.539474063643D-06 0.100000000000D+01
  </mgrwgt>
  </event>
  <event>
  7     66 0.29856650E-06 0.22234290E+02 0.78161638E-02 0.12065863E+00
       22 -1    0    0    0    0 0.00000000E+00 0.00000000E+00 0.83747653E+03 0.83747653E+03 0.00000000E+00 0.0000E+00 0.9000E+01
       21 -1    0    0  502  501 0.00000000E+00 0.00000000E+00 -.77806971E+01 0.77806971E+01 0.00000000E+00 0.0000E+00 0.9000E+01
      -24  2    1    2    0    0 0.40091801E+02 -.23325670E+02 0.37908396E+03 0.38952308E+03 0.76629875E+02 0.0000E+00 0.0000E+00
  9900012  1    3    3    0    0 0.38102441E+01 -.11948800E+02 0.21945537E+03 0.22542837E+03 0.50000000E+02 0.0000E+00 0.9000E+01
       11  1    3    3    0    0 0.36281557E+02 -.11376870E+02 0.15962859E+03 0.16409470E+03 0.00000000E+00 0.0000E+00 0.9000E+01
        4  1    1    2  502    0 -.28029240E+02 -.12201604E+02 0.21077909E+03 0.21298437E+03 0.00000000E+00 0.0000E+00 0.9000E+01
       -3  1    1    2    0  501 -.12062561E+02 0.35527274E+02 0.23983278E+03 0.24274978E+03 0.00000000E+00 0.0000E+00 0.9000E+01
#aMCatNLO 2  0  0  2  5 0.51018520D+02 0.00000000D+00  -5  6  0 0.00000000D+00 0.00000000D+00 0.00000000D+00 0.00000000D+00 0.00000000D+00
  <mgrwgt>
 0.5599620799D-06    1    2    0
 0.628022941166973D+02 0.000000000000000D+00 0.000000000000000D+00 0.628022941166973D+02
 0.628022941166973D+02 0.000000000000000D+00 0.000000000000000D+00 -.628022941166973D+02
 0.537132809196062D+02 -.780297318756741D+01 -.170042309035077D+02 -.592336795774443D+01
 0.324645037891051D+02 0.284954031172618D+02 -.147663146700789D+02 -.488998553390285D+01
 0.000000000000000D+00 -.000000000000000D+00 -.000000000000000D+00 0.000000000000000D+00
 0.394268035246832D+02 -.206924299296944D+02 0.317705455735866D+02 0.108133534916473D+02
 0.865268968029048D+02 0.000000000000000D+00 0.000000000000000D+00 0.865268968029048D+02
 0.753078108596129D+02 0.000000000000000D+00 0.000000000000000D+00 -.753078108596129D+02
 0.518881303887360D+02 0.381024408278681D+01 -.119488002454315D+02 -.592336795774443D+01
 0.383366209258262D+02 0.362815570532082D+02 -.113768696610058D+02 -.488998553390285D+01
 0.325635584003222D+02 -.280292401380457D+02 -.122016041392923D+02 0.112190859432918D+02
 0.390463979476333D+02 -.120625609979494D+02 0.355272740457296D+02 0.108133534916473D+02
0.241377416133D-09 0.000000000000D+00 0.000000000000D+00 0.347655328586D-08 0.329599400312D-11  6 22 21 9900012 11 4 -3 2 0.12884254D+00 0.11970303D-02 0.62142877D+04 0.62142877D+04 0.62142877D+04 0.12313574D+01  1  2  1  3  5  2       -4 0.559962079883D-06 0.100000000000D+01
  </mgrwgt>
  </event>
  <event>
  7     66 -.29856650E-06 0.16360593E+02 0.78161638E-02 0.12736422E+00
       22 -1    0    0    0    0 0.00000000E+00 0.00000000E+00 0.71136358E+02 0.71136358E+02 0.00000000E+00 0.0000E+00 0.9000E+01
       21 -1    0    0  502  501 0.00000000E+00 0.00000000E+00 -.64585342E+02 0.64585342E+02 0.00000000E+00 0.0000E+00 0.9000E+01
      -24  2    1    2    0    0 0.24312477E+02 -.23838428E+02 0.13772666E+02 0.92730798E+02 0.85146623E+02 0.0000E+00 0.0000E+00
  9900012  1    3    3    0    0 0.42992561E+02 -.16950711E+02 -.74575666E+00 0.68089963E+02 0.50000000E+02 0.0000E+00 0.9000E+01
       11  1    3    3    0    0 -.18680083E+02 -.68877163E+01 0.14518422E+02 0.24640835E+02 0.00000000E+00 0.0000E+00 0.9000E+01
        2  1    1    2  502    0 -.17070627E+02 0.19065306E-01 -.68261081E-02 0.17070639E+02 0.00000000E+00 0.0000E+00 0.9000E+01
       -1  1    1    2    0  501 -.72418506E+01 0.23819362E+02 -.72148233E+01 0.25920264E+02 0.00000000E+00 0.0000E+00 0.9000E+01
#aMCatNLO 2  0  0  2  5 0.23574687D+02 0.00000000D+00  -5  6  0 0.00000000D+00 0.00000000D+00 0.00000000D+00 0.00000000D+00 0.00000000D+00
  <mgrwgt>
 -.1458816387D-06    1    2    0
 0.586166839243640D+02 0.000000000000000D+00 0.000000000000000D+00 0.586166839243640D+02
 0.586166839243640D+02 0.000000000000000D+00 0.000000000000000D+00 -.586166839243640D+02
 0.626920812966329D+02 0.335102250934009D+02 -.169401209772740D+02 -.451599078481662D+01
 0.268456085904594D+02 -.223534798458399D+02 -.688361371448724D+01 0.131766650410299D+02
 0.000000000000000D+00 -.000000000000000D+00 0.000000000000000D+00 -.000000000000000D+00
 0.276956779616358D+02 -.111567452475610D+02 0.238237346917612D+02 -.866067425621332D+01
 0.673075361177267D+02 0.000000000000000D+00 0.000000000000000D+00 0.673075361177267D+02
 0.682593109937134D+02 0.000000000000000D+00 0.000000000000000D+00 -.682593109937134D+02
 0.682354823667572D+02 0.429925606019031D+02 -.169507113109503D+02 -.451599078481662D+01
 0.238748959278306D+02 -.186800834459846D+02 -.688771634232243D+01 0.131766650410299D+02
 0.170971497558888D+02 -.170706265519115D+02 0.190653063357830D-01 -.951774875986749D+00
 0.263593190609634D+02 -.724185060400705D+01 0.238193623469369D+02 -.866067425621332D+01
-.308610280096D-10 0.000000000000D+00 0.000000000000D+00 0.455178586997D-08 0.000000000000D+00  6 22 21 9900012 11 2 -1 2 0.95309420D-02 0.11409407D-01 0.42225223D+04 0.42225223D+04 0.42225223D+04 0.12501964D+01  1  2 13  3  5  2       -2 -.145881638656D-06 0.100000000000D+01
  </mgrwgt>
  </event>
  <event>
  6     66 0.29856650E-06 0.24303892E+02 0.78161638E-02 0.12275480E+00
       22 -1    0    0    0    0 0.00000000E+00 0.00000000E+00 0.32651221E+02 0.32651221E+02 0.00000000E+00 0.0000E+00 0.9000E+01
       -4 -1    0    0    0  501 0.00000000E+00 0.00000000E+00 -.90991674E+02 0.90991674E+02 0.00000000E+00 0.0000E+00 0.9000E+01
      -24  2    1    2    0    0 0.13824826E+02 0.19988831E+02 -.53907620E+02 0.98938053E+02 0.79322303E+02 0.0000E+00 0.0000E+00
  9900012  1    3    3    0    0 -.92967961E+01 -.20579240E+01 -.35643655E+02 0.62138037E+02 0.50000000E+02 0.0000E+00 0.9000E+01
       11  1    3    3    0    0 0.23121622E+02 0.22046755E+02 -.18263965E+02 0.36800017E+02 0.00000000E+00 0.0000E+00 0.9000E+01
       -3  1    1    2    0  501 -.13824826E+02 -.19988831E+02 -.44328340E+01 0.24704842E+02 0.00000000E+00 0.0000E+00 0.9000E+01
#aMCatNLO 1  0  0  2  5 0.23574687D+02 0.00000000D+00  -5  6  0 0.00000000D+00 0.00000000D+00 0.00000000D+00 0.00000000D+00 0.00000000D+00
  <mgrwgt>
 0.4033364094D-06    4    2    0
 0.545067815754343D+02 0.000000000000000D+00 0.000000000000000D+00 0.545067815754343D+02
 0.545067815754343D+02 0.000000000000000D+00 0.000000000000000D+00 -.545067815754343D+02
 0.514014915810580D+02 -.929679613000684D+01 -.205792403189362D+01 -.717271685999275D+01
 0.319642117562563D+02 0.231216224556890D+02 0.220467548327044D+02 -.102078869605677D+01
 0.256478598135542D+02 -.138248263256821D+02 -.199888308008108D+02 0.819350555604952D+01
 0.000000000000000D+00 -.000000000000000D+00 0.000000000000000D+00 0.000000000000000D+00
 0.885778332878111D+02 0.000000000000000D+00 0.000000000000000D+00 0.885778332878111D+02
 0.634279646092298D+02 0.000000000000000D+00 0.000000000000000D+00 -.634279646092298D+02
 0.530166225855086D+02 -.486199672126112D+01 -.153517227405620D+02 -.717271685999275D+01
 0.294202362187930D+02 0.257287152552359D+02 0.142317075898352D+02 -.102078869605677D+01
 0.305759477002435D+02 -.114369139379725D+02 -.271468606665011D+02 0.819350555604952D+01
 0.389929913924958D+02 -.942980459600234D+01 0.282668758172278D+02 0.251498686785813D+02
0.230211629284D-08 0.000000000000D+00 0.000000000000D+00 0.401465350383D-07 0.000000000000D+00  6 22 -4 9900012 11 -3 21 0 0.50232647D-02 0.13998719D-01 0.28703010D+04 0.28703010D+04 0.28703010D+04 0.12699342D+01  1  2  2  1  6  2       -4 0.492037573394D-06 0.100000000000D+01
-.473210921653D-10 0.000000000000D+00 -.442036636283D-11 0.401465350383D-07 0.000000000000D+00  6 22 -4 9900012 11 -3 21 2 0.50232647D-02 0.13998719D-01 0.28703010D+04 0.28703010D+04 0.28703010D+04 0.12699342D+01  1  2  3  1  6  2       -4 -.163112858020D-07 0.100000000000D+01
-.145089015063D-09 0.000000000000D+00 0.000000000000D+00 0.401465350383D-07 0.000000000000D+00  6 22 -4 9900012 11 -3 21 2 0.50232647D-02 0.13998719D-01 0.28703010D+04 0.28703010D+04 0.28703010D+04 0.12699342D+01  1  2 15  1  6  2       -4 -.500112800264D-07 0.100000000000D+01
-.649231286238D-10 0.000000000000D+00 0.000000000000D+00 0.401465350383D-07 0.000000000000D+00  6 22 -4 9900012 11 -3 21 2 0.50232647D-02 0.13998719D-01 0.28703010D+04 0.28703010D+04 0.28703010D+04 0.12699342D+01  1  2  4  1  6  2       -4 -.223785981618D-07 0.100000000000D+01
  </mgrwgt>
  </event>
  <event>
  6     66 0.29856650E-06 0.68468370E+02 0.78161638E-02 0.11314228E+00
       22 -1    0    0    0    0 0.00000000E+00 0.00000000E+00 0.35117643E+02 0.35117643E+02 0.00000000E+00 0.0000E+00 0.9000E+01
       -4 -1    0    0    0  501 0.00000000E+00 0.00000000E+00 -.30621228E+03 0.30621228E+03 0.00000000E+00 0.0000E+00 0.9000E+01
      -24  2    1    2    0    0 -.10208027E+01 -.85925440E+02 -.17916565E+03 0.21549208E+03 0.83380361E+02 0.0000E+00 0.0000E+00
  9900012  1    3    3    0    0 -.15458061E+02 -.29289239E+02 -.10663177E+03 0.12234028E+03 0.50000000E+02 0.0000E+00 0.9000E+01
       11  1    3    3    0    0 0.14437258E+02 -.56636202E+02 -.72533885E+02 0.93151802E+02 0.00000000E+00 0.0000E+00 0.9000E+01
       -3  1    1    2    0  501 0.10208027E+01 0.85925440E+02 -.91928990E+02 0.12583784E+03 0.00000000E+00 0.0000E+00 0.9000E+01
#aMCatNLO 1  0  0  2  5 0.60472307D+02 0.00000000D+00  -5  6  0 0.00000000D+00 0.00000000D+00 0.00000000D+00 0.00000000D+00 0.00000000D+00
  <mgrwgt>
 0.4354908841D-06    6    4    0
 0.103698860096753D+03 0.000000000000000D+00 0.000000000000000D+00 0.103698860096753D+03
 0.103698860096753D+03 0.000000000000000D+00 0.000000000000000D+00 -.103698860096753D+03
 0.619635509991472D+02 -.154580607438192D+02 -.292892385475987D+02 -.155778854715962D+02
 0.584960636940315D+02 0.144372580655505D+02 -.566362016965599D+02 0.238656754177955D+01
 0.869381055003266D+02 0.102080267826864D+01 0.859254402441585D+02 0.131913179298166D+02
 0.000000000000000D+00 0.000000000000000D+00 -.000000000000000D+00 0.000000000000000D+00
 0.131297003734056D+03 0.000000000000000D+00 0.000000000000000D+00 0.131297003734056D+03
 0.116887161177631D+03 0.000000000000000D+00 0.000000000000000D+00 -.116887161177631D+03
 0.646904615695279D+02 -.259546882176771D+02 -.277225442886395D+02 -.155778854715962D+02
 0.555023233868579D+02 0.498948315861716D+01 -.552260559384585D+02 0.238656754177955D+01
 0.901380202523670D+02 -.136546275654609D+02 0.881158497226190D+02 0.131913179298166D+02
 0.378533597029345D+02 0.346198326245209D+02 -.516724949552092D+01 0.144098425564247D+02
 0.103698860096753D+03 0.000000000000000D+00 0.000000000000000D+00 0.103698860096753D+03
 0.103698860096753D+03 0.000000000000000D+00 0.000000000000000D+00 -.103698860096753D+03
 0.619635509991472D+02 -.154580607438192D+02 -.292892385475987D+02 -.155778854715962D+02
 0.584960636940315D+02 0.144372580655505D+02 -.566362016965599D+02 0.238656754177955D+01
 0.000000000000000D+00 0.000000000000000D+00 -.000000000000000D+00 0.000000000000000D+00
 0.869381055003266D+02 0.102080267826864D+01 0.859254402441585D+02 0.131913179298166D+02
 0.131297003734056D+03 0.000000000000000D+00 0.000000000000000D+00 0.131297003734056D+03
 0.116887161177631D+03 0.000000000000000D+00 0.000000000000000D+00 -.116887161177631D+03
 0.646904615695279D+02 -.259546882176771D+02 -.277225442886395D+02 -.155778854715962D+02
 0.555023233868579D+02 0.498948315861716D+01 -.552260559384585D+02 0.238656754177955D+01
 0.378533597029345D+02 0.346198326245209D+02 -.516724949552092D+01 0.144098425564247D+02
 0.901380202523670D+02 -.136546275654609D+02 0.881158497226190D+02 0.131913179298166D+02
0.214300338969D-07 0.000000000000D+00 0.000000000000D+00 0.715453148971D-08 0.000000000000D+00  6 22 -4 9900012 11 -3 21 0 0.54027143D-02 0.47109582D-01 0.10439964D+05 0.10439964D+05 0.10439964D+05 0.12073968D+01  1  2  2  1  6  2       -4 0.513327461815D-06 0.100000000000D+01
-.102880523700D-08 0.000000000000D+00 -.411484864109D-10 0.715453148971D-08 0.000000000000D+00  6 22 -4 9900012 11 -3 21 2 0.54027143D-02 0.47109582D-01 0.10439964D+05 0.10439964D+05 0.10439964D+05 0.12073968D+01  1  2  3  1  6  2       -4 -.359256655234D-07 0.100000000000D+01
-.127386788280D-08 0.000000000000D+00 0.000000000000D+00 0.715453148971D-08 0.000000000000D+00  6 22 -4 9900012 11 -3 21 2 0.54027143D-02 0.47109582D-01 0.10439964D+05 0.10439964D+05 0.10439964D+05 0.12073968D+01  1  2 15  1  6  2       -4 -.444832022938D-07 0.100000000000D+01
0.233620803647D-08 0.000000000000D+00 0.000000000000D+00 0.715453148971D-08 0.000000000000D+00  6 22 -4 9900012 11 -3 21 2 0.54027143D-02 0.67233065D-01 0.14690494D+05 0.14690494D+05 0.14690494D+05 0.11923874D+01  1  2 12  1  6  2       -4 0.375315158536D-07 0.100000000000D+01
-.206567121832D-08 0.000000000000D+00 0.000000000000D+00 0.715453148971D-08 0.000000000000D+00  6 22 -4 9900012 11 -3 21 2 0.54027143D-02 0.47109582D-01 0.10439964D+05 0.10439964D+05 0.10439964D+05 0.12073968D+01  1  2  4  1  6  2       -4 -.721328105663D-07 0.100000000000D+01
0.102102674120D-09 0.000000000000D+00 0.000000000000D+00 0.715453148971D-08 0.000000000000D+00  6 22 21 9900012 11 4 -3 2 0.54027143D-02 0.67233065D-01 0.14690494D+05 0.14690494D+05 0.14690494D+05 0.11923874D+01  3  4 12  3  5  2       -4 0.371735847932D-07 0.100000000000D+01
  </mgrwgt>
  </event>
  <event>
  6     66 0.29856650E-06 0.50862844E+02 0.78161638E-02 0.12052304E+00
       22 -1    0    0    0    0 0.00000000E+00 0.00000000E+00 0.14593043E+02 0.14593043E+02 0.00000000E+00 0.0000E+00 0.9000E+01
       -2 -1    0    0    0  501 0.00000000E+00 0.00000000E+00 -.58020506E+03 0.58020506E+03 0.00000000E+00 0.0000E+00 0.9000E+01
      -24  2    1    2    0    0 0.10251788E+02 -.54719969E+02 -.17484531E+03 0.20008556E+03 0.79774520E+02 0.0000E+00 0.0000E+00
  9900012  1    3    3    0    0 -.90338769E+01 -.46285643E+02 -.93396032E+02 0.11596030E+03 0.50000000E+02 0.0000E+00 0.9000E+01
       11  1    3    3    0    0 0.19285665E+02 -.84343266E+01 -.81449281E+02 0.84125264E+02 0.00000000E+00 0.0000E+00 0.9000E+01
       -1  1    1    2    0  501 -.10251788E+02 0.54719969E+02 -.39076670E+03 0.39471254E+03 0.00000000E+00 0.0000E+00 0.9000E+01
#aMCatNLO 1  0  0  2  5 0.14974424D+02 0.00000000D+00  -5  6  0 0.00000000D+00 0.00000000D+00 0.00000000D+00 0.00000000D+00 0.00000000D+00
  <mgrwgt>
 0.3442629804D-05    9    4    0
 0.920160721784651D+02 0.000000000000000D+00 0.000000000000000D+00 0.920160721784651D+02
 0.920160721784651D+02 0.000000000000000D+00 0.000000000000000D+00 -.920160721784651D+02
 0.877403598623344D+02 -.903387688098982D+01 -.462856426804762D+02 0.545380518438854D+02
 0.215660996228880D+02 0.192856645075976D+02 -.843432657008510D+01 -.469275321680982D+01
 0.747256848717078D+02 -.102517876266077D+02 0.547199692505613D+02 -.498452986270756D+02
 0.000000000000000D+00 -.000000000000000D+00 0.000000000000000D+00 -.000000000000000D+00
 0.956125217036525D+02 0.000000000000000D+00 0.000000000000000D+00 0.956125217036525D+02
 0.105240662113448D+03 0.000000000000000D+00 0.000000000000000D+00 -.105240662113448D+03
 0.877240448712464D+02 -.278998659104378D+01 -.470459873365192D+02 0.545380518438854D+02
 0.230691146190224D+02 0.208740059220166D+02 -.862774555253742D+01 -.469275321680982D+01
 0.737125802490057D+02 -.496962088942289D+01 0.540767376970836D+02 -.498452986270756D+02
 0.163474440778260D+02 -.131143984415499D+02 0.159699519197302D+01 -.962814040979548D+01
 0.920160721784651D+02 0.000000000000000D+00 0.000000000000000D+00 0.920160721784651D+02
 0.920160721784651D+02 0.000000000000000D+00 0.000000000000000D+00 -.920160721784651D+02
 0.877403598623344D+02 -.903387688098982D+01 -.462856426804762D+02 0.545380518438854D+02
 0.215660996228880D+02 0.192856645075976D+02 -.843432657008510D+01 -.469275321680982D+01
 0.000000000000000D+00 -.000000000000000D+00 0.000000000000000D+00 -.000000000000000D+00
 0.747256848717078D+02 -.102517876266077D+02 0.547199692505613D+02 -.498452986270756D+02
 0.956125217036525D+02 0.000000000000000D+00 0.000000000000000D+00 0.956125217036525D+02
 0.105240662113448D+03 0.000000000000000D+00 0.000000000000000D+00 -.105240662113448D+03
 0.877240448712464D+02 -.278998659104378D+01 -.470459873365192D+02 0.545380518438854D+02
 0.230691146190224D+02 0.208740059220166D+02 -.862774555253742D+01 -.469275321680982D+01
 0.163474440778260D+02 -.131143984415499D+02 0.159699519197302D+01 -.962814040979548D+01
 0.737125802490057D+02 -.496962088942289D+01 0.540767376970836D+02 -.498452986270756D+02
0.300541276197D-07 0.000000000000D+00 0.000000000000D+00 0.502809248475D-06 0.000000000000D+00  6 22 -2 9900012 11 -1 21 0 0.22450836D-02 0.89262317D-01 0.52891088D+04 0.52891088D+04 0.52891088D+04 0.12391063D+01  1  2  2  1  6  2       -2 0.124036543909D-05 0.100000000000D+01
-.100765833401D-09 0.000000000000D+00 -.577078817466D-10 0.502809248475D-06 0.000000000000D+00  6 22 -2 9900012 11 -1 21 2 0.22450836D-02 0.89262317D-01 0.52891088D+04 0.52891088D+04 0.52891088D+04 0.12391063D+01  1  2  3  1  6  2       -2 -.638522138849D-08 0.100000000000D+01
-.282109581028D-08 0.000000000000D+00 0.000000000000D+00 0.502809248475D-06 0.000000000000D+00  6 22 -2 9900012 11 -1 21 2 0.22450836D-02 0.89262317D-01 0.52891088D+04 0.52891088D+04 0.52891088D+04 0.12391063D+01  1  2 15  1  6  2       -2 -.178764177288D-06 0.100000000000D+01
0.420240381801D-07 0.000000000000D+00 0.000000000000D+00 0.502809248475D-06 0.000000000000D+00  6 22 -2 9900012 11 -1 21 2 0.22450836D-02 0.10608137D+00 0.63053908D+04 0.63053908D+04 0.63053908D+04 0.12306653D+01  1  2 12  1  6  2       -2 0.178911197143D-05 0.100000000000D+01
-.132458866144D-07 0.000000000000D+00 0.000000000000D+00 0.502809248475D-06 0.000000000000D+00  6 22 -2 9900012 11 -1 21 2 0.22450836D-02 0.89262317D-01 0.52891088D+04 0.52891088D+04 0.52891088D+04 0.12391063D+01  1  2  4  1  6  2       -2 -.839351153704D-06 0.100000000000D+01
-.887172853501D-07 0.000000000000D+00 -.187275680818D-07 0.502809248475D-06 0.000000000000D+00  6 22 -2 9900012 11 -1 21 2 0.22450836D-02 0.10479589D+00 0.52891088D+04 0.52891088D+04 0.52891088D+04 0.12391063D+01  1  2  5  1  6  2       -2 -.389205229438D-05 0.100000000000D+01
0.907893642370D-07 0.000000000000D+00 0.184891075501D-07 0.502809248475D-06 0.000000000000D+00  6 22 -2 9900012 11 -1 21 2 0.22450836D-02 0.89262317D-01 0.52891088D+04 0.52891088D+04 0.52891088D+04 0.12391063D+01  1  2  6  1  6  2       -2 0.575304317747D-05 0.100000000000D+01
0.107251358318D-08 0.000000000000D+00 0.000000000000D+00 0.502809248475D-06 0.000000000000D+00  6 22 21 9900012 11 2 -1 2 0.22450836D-02 0.10608137D+00 0.63053908D+04 0.63053908D+04 0.63053908D+04 0.12306653D+01  3  4 12  3  5  2       -2 0.458117308390D-06 0.100000000000D+01
-.198965565550D-08 0.000000000000D+00 -.450946572545D-09 0.502809248475D-06 0.000000000000D+00  6 22 21 9900012 11 2 -1 2 0.22450836D-02 0.10479589D+00 0.52891088D+04 0.52891088D+04 0.52891088D+04 0.12391063D+01  3  4  5  3  5  2       -2 -.881455245437D-06 0.100000000000D+01
  </mgrwgt>
  </event>
</LesHouchesEvents>
