<LesHouchesEvents version="3.0">
  <!--
  <scalesfunctionalform>
    muR  H_T/2 := sum_i mT(i)/2, i=final state
    muF1 H_T/2 := sum_i mT(i)/2, i=final state
    muF2 H_T/2 := sum_i mT(i)/2, i=final state
    QES  H_T/2 := sum_i mT(i)/2, i=final state
  </scalesfunctionalform>
PYTHIA8   
  -->
  <header>
       61
  </header>
  <init>
   2212   2212 0.65000000D+04 0.65000000D+04 -1 -1  82200  82200 -4   1
 0.19919616D-04 0.97782783D-07 0.64871765D-06     66
  </init>
  <event>
  6     66 0.64871765E-06 0.27036565E+02 0.78161638E-02 0.12392662E+00
       22 -1    0    0    0    0 0.00000000E+00 0.00000000E+00 0.54862737E+02 0.54862737E+02 0.00000000E+00 0.0000E+00 0.9000E+01
       -4 -1    0    0    0  501 -.00000000E+00 -.00000000E+00 -.29421957E+03 0.29421957E+03 0.00000000E+00 0.0000E+00 0.9000E+01
      -24  2    1    2    0    0 0.25607904E+02 -.86724319E+01 0.20739504E+02 0.87584544E+02 0.80684258E+02 0.0000E+00 0.0000E+00
  9900012  1    3    3    0    0 0.10248730E+02 -.25763109E+02 0.82743409E+00 0.57179182E+02 0.50000000E+02 0.0000E+00 0.9000E+01
       11  1    3    3    0    0 0.15359174E+02 0.17090677E+02 0.19912070E+02 0.30405361E+02 0.00000000E+00 0.0000E+00 0.9000E+01
       -3  1    1    2    0  501 -.25607904E+02 0.86724319E+01 -.26009634E+03 0.26149776E+03 0.00000000E+00 0.0000E+00 0.9000E+01
#aMCatNLO 1  0  0  5  2 0.20195728D+02 0.00000000D+00  -5  6  0 0.00000000D+00 0.00000000D+00 0.00000000D+00 0.00000000D+00 0.00000000D+00
  <mgrwgt>
 0.8379957829D-05    6    2    0
 0.127049954895874D+03 0.000000000000000D+00 0.000000000000000D+00 0.127049954895874D+03
 0.127049954895874D+03 -.000000000000000D+00 -.000000000000000D+00 -.127049954895874D+03
 0.793321533487819D+02 0.102487304901190D+02 -.257631089191260D+02 0.549983299484340D+02
 0.605276239537831D+02 0.153591738756529D+02 0.170906770134192D+02 0.559964088006635D+02
 0.114240132489183D+03 -.256079043657719D+02 0.867243190570679D+01 -.110994738749098D+03
 0.000000000000000D+00 0.000000000000000D+00 0.000000000000000D+00 -.000000000000000D+00
 0.127049954895874D+03 0.000000000000000D+00 0.000000000000000D+00 0.127049954895874D+03
 0.127049954895874D+03 -.000000000000000D+00 -.000000000000000D+00 -.127049954895874D+03
 0.764266230603383D+02 0.933737074069108D+01 -.254544657261641D+02 0.510481380135795D+02
 0.576558977644195D+02 0.146676705958846D+02 0.173248631077089D+02 0.529991613576193D+02
 0.100008999032667D+03 -.365661824214558D+02 -.288787481464086D+01 -.930396387014256D+02
 0.200083899343230D+02 0.125611410848801D+02 0.110174774330960D+02 -.110076606697732D+02
0.586870318073D-06 0.000000000000D+00 0.000000000000D+00 0.469397549651D-05 0.000000000000D+00  6 22 -4 9900012 11 -3 21 0 0.84404211D-02 0.45264549D-01 0.28723121D+04 0.28723121D+04 0.28723121D+04 0.12698975D+01  1  2  2  2  6  5       -3 0.715733563514D-05 0.100000000000D+01
0.470901119454D-07 0.000000000000D+00 -.112686827395D-08 0.469397549651D-05 0.000000000000D+00  6 22 -4 9900012 11 -3 21 2 0.84404211D-02 0.45264549D-01 0.28723121D+04 0.28723121D+04 0.28723121D+04 0.12698975D+01  1  2  3  2  6  5       -3 0.926139209282D-06 0.100000000000D+01
-.851164598763D-07 0.000000000000D+00 0.000000000000D+00 0.469397549651D-05 0.000000000000D+00  6 22 -4 9900012 11 -3 21 2 0.84404211D-02 0.45264549D-01 0.28723121D+04 0.28723121D+04 0.28723121D+04 0.12698975D+01  1  2 15  2  6  5       -3 -.167401791141D-05 0.100000000000D+01
-.159572710031D-07 0.000000000000D+00 0.000000000000D+00 0.469397549651D-05 0.000000000000D+00  6 22 -4 9900012 11 -3 21 2 0.84404211D-02 0.45264549D-01 0.28723121D+04 0.28723121D+04 0.28723121D+04 0.12698975D+01  1  2  4  2  6  5       -3 -.313837740845D-06 0.100000000000D+01
-.610662783644D-06 0.000000000000D+00 0.000000000000D+00 0.469397549651D-05 0.000000000000D+00  6 22 -4 9900012 11 -3 21 2 0.84404211D-02 0.45264549D-01 0.28723121D+04 0.28723121D+04 0.28723121D+04 0.12698975D+01  1  2  5  2  6  5       -3 -.120101380994D-04 0.100000000000D+01
0.726811372400D-06 0.000000000000D+00 -.000000000000D+00 0.469397549651D-05 0.000000000000D+00  6 22 -4 9900012 11 -3 21 2 0.84404211D-02 0.45264549D-01 0.28723121D+04 0.28723121D+04 0.28723121D+04 0.12698975D+01  1  2  6  2  6  5       -3 0.142944767367D-04 0.100000000000D+01
  </mgrwgt>
  </event>
  <event>
  6     66 0.64871765E-06 0.78600307E+02 0.78161638E-02 0.11501471E+00
       22 -1    0    0    0    0 0.00000000E+00 0.00000000E+00 0.10766939E+03 0.10766939E+03 0.00000000E+00 0.0000E+00 0.9000E+01
       -2 -1    0    0    0  501 -.00000000E+00 -.00000000E+00 -.12610739E+03 0.12610739E+03 0.00000000E+00 0.0000E+00 0.9000E+01
      -24  2    1    2    0    0 0.82829074E+02 -.24764079E+02 0.18777171E+02 0.13965513E+03 0.10806044E+03 0.0000E+00 0.0000E+00
  9900012  1    3    3    0    0 0.32208671E+02 -.53074203E+02 0.40549229E+01 0.79816739E+02 0.50000000E+02 0.0000E+00 0.9000E+01
       11  1    3    3    0    0 0.50620404E+02 0.28310124E+02 0.14722248E+02 0.59838390E+02 0.00000000E+00 0.0000E+00 0.9000E+01
       -1  1    1    2    0  501 -.82829074E+02 0.24764079E+02 -.37215173E+02 0.94121646E+02 0.00000000E+00 0.0000E+00 0.9000E+01
#aMCatNLO 1  0  0  5  2 0.20835881D+02 0.00000000D+00  -5  6  0 0.00000000D+00 0.00000000D+00 0.00000000D+00 0.00000000D+00 0.00000000D+00
  <mgrwgt>
 0.2337878814D-04    5    2    0
 0.116524269007133D+03 0.000000000000000D+00 0.000000000000000D+00 0.116524269007133D+03
 0.116524269007133D+03 -.000000000000000D+00 -.000000000000000D+00 -.116524269007133D+03
 0.803869649197573D+02 0.322086707247635D+02 -.530742027295483D+02 0.103824209015461D+02
 0.611901493051289D+02 0.506204036978945D+02 0.283101236650267D+02 0.195024613707361D+02
 0.914714237893795D+02 -.828290744226580D+02 0.247640790645216D+02 -.298848822722823D+02
 0.000000000000000D+00 0.000000000000000D+00 0.000000000000000D+00 -.000000000000000D+00
 0.116524269007133D+03 0.000000000000000D+00 0.000000000000000D+00 0.116524269007133D+03
 0.116524269007133D+03 -.000000000000000D+00 -.000000000000000D+00 -.116524269007133D+03
 0.783490359414675D+02 0.289636133981859D+02 -.521040016647119D+02 0.921159825445577D+01
 0.592402221100075D+02 0.481584325194419D+02 0.290461991233454D+02 0.186141776450197D+02
 0.354918711048656D+02 -.345428081462663D+02 0.875883418497313D+00 0.810556278933362D+01
 0.599674088579251D+02 -.425792377713615D+02 0.221819191228692D+02 -.359313386888090D+02
0.615587364822D-06 0.000000000000D+00 0.000000000000D+00 0.542285074033D-09 0.000000000000D+00  6 22 -2 9900012 11 -1 21 0 0.16564521D-01 0.19401137D-01 0.12562433D+05 0.12562433D+05 0.12562433D+05 0.11991948D+01  1  2  2  2  6  5       -1 0.280602004123D-04 0.100000000000D+01
-.132040917851D-07 0.000000000000D+00 -.118200878440D-08 0.542285074033D-09 0.000000000000D+00  6 22 -2 9900012 11 -1 21 2 0.16564521D-01 0.19401137D-01 0.12562433D+05 0.12562433D+05 0.12562433D+05 0.11991948D+01  1  2  3  2  6  5       -1 -.865543905160D-06 0.100000000000D+01
-.837020990552D-07 0.000000000000D+00 0.000000000000D+00 0.542285074033D-09 0.000000000000D+00  6 22 -2 9900012 11 -1 21 2 0.16564521D-01 0.19401137D-01 0.12562433D+05 0.12562433D+05 0.12562433D+05 0.11991948D+01  1  2 15  2  6  5       -1 -.548677204503D-05 0.100000000000D+01
0.216981749410D-06 0.000000000000D+00 0.000000000000D+00 0.542285074033D-09 0.000000000000D+00  6 22 -2 9900012 11 -1 21 2 0.16564521D-01 0.19401137D-01 0.11729982D+05 0.11729982D+05 0.11729982D+05 0.12022136D+01  1  2 12  2  6  5       -1 0.142167390343D-04 0.100000000000D+01
-.191389900065D-06 0.000000000000D+00 0.000000000000D+00 0.542285074033D-09 0.000000000000D+00  6 22 -2 9900012 11 -1 21 2 0.16564521D-01 0.19401137D-01 0.12562433D+05 0.12562433D+05 0.12562433D+05 0.11991948D+01  1  2  5  2  6  5       -1 -.125458353522D-04 0.100000000000D+01
  </mgrwgt>
  </event>
  <event>
  7     66 0.64871765E-06 0.95589360E+02 0.78161638E-02 0.11443073E+00
       22 -1    0    0    0    0 0.00000000E+00 0.00000000E+00 0.63040661E+02 0.63040661E+02 0.00000000E+00 0.0000E+00 0.9000E+01
       -2 -1    0    0    0  501 -.00000000E+00 -.00000000E+00 -.83504712E+03 0.83504712E+03 0.00000000E+00 0.0000E+00 0.9000E+01
      -24  2    1    2    0    0 -.94768597E+02 0.26955436E+02 -.80857448E+01 0.12766888E+03 0.80785399E+02 0.0000E+00 0.0000E+00
  9900012  1    3    3    0    0 -.37790803E+02 0.26425493E+02 0.79348031E+01 0.68479286E+02 0.50000000E+02 0.0000E+00 0.9000E+01
       11  1    3    3    0    0 -.56977794E+02 0.52994237E+00 -.16020548E+02 0.59189592E+02 0.00000000E+00 0.0000E+00 0.9000E+01
       -1  1    1    2    0  502 0.85371965E+02 -.20316559E+02 -.64490320E+03 0.65084658E+03 0.00000000E+00 0.0000E+00 0.9000E+01
       21  1    1    2  502  501 0.93966315E+01 -.66388771E+01 -.11901752E+03 0.11957232E+03 0.00000000E+00 0.0000E+00 0.9000E+01
#aMCatNLO 2  0  0  5  2 0.58159904D+01 0.00000000D+00  -5  6  0 0.00000000D+00 0.00000000D+00 0.00000000D+00 0.00000000D+00 0.00000000D+00
  <mgrwgt>
 0.6765087519D-04    2    2    0
 0.229438275456086D+03 0.000000000000000D+00 0.000000000000000D+00 0.229438275456086D+03
 0.229438275456086D+03 -.000000000000000D+00 -.000000000000000D+00 -.229438275456086D+03
 0.147549263736912D+03 -.378719100072725D+02 0.264485631075000D+02 0.130908277703339D+03
 0.890001624442434D+02 -.570267160456374D+02 0.543857453280939D+00 0.683277893043706D+02
 0.222327124731016D+03 0.948986260529099D+02 -.269924205607810D+02 -.199236067007710D+03
 0.000000000000000D+00 0.000000000000000D+00 0.000000000000000D+00 -.000000000000000D+00
 0.229438275456086D+03 0.000000000000000D+00 0.000000000000000D+00 0.229438275456086D+03
 0.229438275456086D+03 -.000000000000000D+00 -.000000000000000D+00 -.229438275456086D+03
 0.147373250710597D+03 -.377908026367843D+02 0.264254933925225D+02 0.130737995854449D+03
 0.888898831279296D+02 -.569777940640131D+02 0.529942365596392D+00 0.682250794589866D+02
 0.188826222732686D+03 0.853719652024721D+02 -.203165586864850D+02 -.167195117728062D+03
 0.337871943409588D+02 0.939663149832529D+01 -.663887707163397D+01 -.317679575853742D+02
-.386530311465D-04 0.000000000000D+00 0.000000000000D+00 0.700000662095D-05 0.000000000000D+00  6 22 -2 9900012 11 -1 21 2 0.96985632D-02 0.12846879D+00 0.12573100D+05 0.12573100D+05 0.12573100D+05 0.11991576D+01  1  2 13  2  6  5       -1 -.134750145951D-03 0.100000000000D+01
0.580586604877D-04 0.000000000000D+00 0.000000000000D+00 0.700000662095D-05 0.199839773240D-05  6 22 -2 9900012 11 -1 21 2 0.96985632D-02 0.12846879D+00 0.12573100D+05 0.12573100D+05 0.12573100D+05 0.11991576D+01  1  2  1  2  6  5       -1 0.202401021146D-03 0.100000000000D+01
  </mgrwgt>
  </event>
  <event>
  6     66 0.64871765E-06 0.34200716E+02 0.78161638E-02 0.12239264E+00
       22 -1    0    0    0    0 0.00000000E+00 0.00000000E+00 0.14723130E+03 0.14723130E+03 0.00000000E+00 0.0000E+00 0.9000E+01
       -2 -1    0    0    0  501 0.00000000E+00 0.00000000E+00 -.32349227E+02 0.32349227E+02 0.00000000E+00 0.0000E+00 0.9000E+01
      -24  2    1    2    0    0 -.43280849E+02 -.21430612E+00 0.55816632E+02 0.10635482E+03 0.79514610E+02 0.0000E+00 0.0000E+00
  9900012  1    3    3    0    0 -.31273647E+02 0.23866724E+02 0.38977961E+02 0.74611949E+02 0.50000000E+02 0.0000E+00 0.9000E+01
       11  1    3    3    0    0 -.12007201E+02 -.24081030E+02 0.16838671E+02 0.31742869E+02 0.00000000E+00 0.0000E+00 0.9000E+01
       -1  1    1    2    0  501 0.43280849E+02 0.21430612E+00 0.59065437E+02 0.73225703E+02 0.00000000E+00 0.0000E+00 0.9000E+01
#aMCatNLO 1  0  0  2  5 0.10593166D+02 0.00000000D+00  -5  6  0 0.00000000D+00 0.00000000D+00 0.00000000D+00 0.00000000D+00 0.00000000D+00
  <mgrwgt>
 0.2763940610D-04    9    4    0
 0.690131765522564D+02 0.000000000000000D+00 0.000000000000000D+00 0.690131765522564D+02
 0.690131765522564D+02 0.000000000000000D+00 0.000000000000000D+00 -.690131765522564D+02
 0.646324692349630D+02 -.312736473536622D+02 0.238667243381762D+02 -.113883506256489D+02
 0.272842077146045D+02 -.120072013145228D+02 -.240810304544175D+02 -.451210366233130D+01
 0.461096761549454D+02 0.432808486681850D+02 0.214306116241269D+00 0.159004542879803D+02
 0.000000000000000D+00 0.000000000000000D+00 0.000000000000000D+00 -.000000000000000D+00
 0.711585560588041D+02 0.000000000000000D+00 0.000000000000000D+00 0.711585560588041D+02
 0.811401597836482D+02 0.000000000000000D+00 0.000000000000000D+00 -.811401597836482D+02
 0.632716871432044D+02 -.315909527525150D+02 0.193810105041811D+02 -.113883506256489D+02
 0.291025705539191D+02 -.121470859724976D+02 -.260585654970293D+02 -.451210366233130D+01
 0.459937526716278D+02 0.430523579291264D+02 -.301584399416016D+01 0.159004542879803D+02
 0.139307054737010D+02 0.685680795886246D+00 0.969339898700831D+01 -.998160372484410D+01
 0.690131765522564D+02 0.000000000000000D+00 0.000000000000000D+00 0.690131765522564D+02
 0.690131765522564D+02 0.000000000000000D+00 0.000000000000000D+00 -.690131765522564D+02
 0.646324692349630D+02 -.312736473536622D+02 0.238667243381762D+02 -.113883506256489D+02
 0.272842077146045D+02 -.120072013145228D+02 -.240810304544175D+02 -.451210366233130D+01
 0.000000000000000D+00 0.000000000000000D+00 0.000000000000000D+00 -.000000000000000D+00
 0.461096761549454D+02 0.432808486681850D+02 0.214306116241269D+00 0.159004542879803D+02
 0.711585560588041D+02 0.000000000000000D+00 0.000000000000000D+00 0.711585560588041D+02
 0.811401597836482D+02 0.000000000000000D+00 0.000000000000000D+00 -.811401597836482D+02
 0.632716871432044D+02 -.315909527525150D+02 0.193810105041811D+02 -.113883506256489D+02
 0.291025705539191D+02 -.121470859724976D+02 -.260585654970293D+02 -.451210366233130D+01
 0.139307054737010D+02 0.685680795886246D+00 0.969339898700831D+01 -.998160372484410D+01
 0.459937526716278D+02 0.430523579291264D+02 -.301584399416016D+01 0.159004542879803D+02
0.117215738704D-06 0.000000000000D+00 0.000000000000D+00 0.460902784147D-07 0.000000000000D+00  6 22 -2 9900012 11 -1 21 0 0.22650968D-01 0.49768041D-02 0.44763555D+04 0.44763555D+04 0.44763555D+04 0.12472933D+01  1  2  2  1  6  2       -2 0.240355033182D-04 0.100000000000D+01
-.526483358680D-08 0.000000000000D+00 -.225069650117D-09 0.460902784147D-07 0.000000000000D+00  6 22 -2 9900012 11 -1 21 2 0.22650968D-01 0.49768041D-02 0.44763555D+04 0.44763555D+04 0.44763555D+04 0.12472933D+01  1  2  3  1  6  2       -2 -.167953515248D-05 0.100000000000D+01
-.132208235806D-07 0.000000000000D+00 0.000000000000D+00 0.460902784147D-07 0.000000000000D+00  6 22 -2 9900012 11 -1 21 2 0.22650968D-01 0.49768041D-02 0.44763555D+04 0.44763555D+04 0.44763555D+04 0.12472933D+01  1  2 15  1  6  2       -2 -.421757641191D-05 0.100000000000D+01
0.252439772347D-06 0.000000000000D+00 0.000000000000D+00 0.460902784147D-07 0.000000000000D+00  6 22 -2 9900012 11 -1 21 2 0.22650968D-01 0.60332246D-02 0.51742478D+04 0.51742478D+04 0.51742478D+04 0.12401739D+01  1  2 12  1  6  2       -2 0.610577180989D-04 0.100000000000D+01
-.224606351961D-06 0.000000000000D+00 0.000000000000D+00 0.460902784147D-07 0.000000000000D+00  6 22 -2 9900012 11 -1 21 2 0.22650968D-01 0.49768041D-02 0.44763555D+04 0.44763555D+04 0.44763555D+04 0.12472933D+01  1  2  4  1  6  2       -2 -.716516975074D-04 0.100000000000D+01
-.454810362099D-06 0.000000000000D+00 -.800027906486D-07 0.460902784147D-07 0.000000000000D+00  6 22 -2 9900012 11 -1 21 2 0.22650968D-01 0.60270249D-02 0.44763555D+04 0.44763555D+04 0.44763555D+04 0.12472933D+01  1  2  5  1  6  2       -2 -.109679189161D-03 0.100000000000D+01
0.463058872518D-06 0.000000000000D+00 0.785584467882D-07 0.460902784147D-07 0.000000000000D+00  6 22 -2 9900012 11 -1 21 2 0.22650968D-01 0.49768041D-02 0.44763555D+04 0.44763555D+04 0.44763555D+04 0.12472933D+01  1  2  6  1  6  2       -2 0.147720462810D-03 0.100000000000D+01
0.701440657733D-08 0.000000000000D+00 0.000000000000D+00 0.460902784147D-07 0.000000000000D+00  6 22 21 9900012 11 2 -1 2 0.22650968D-01 0.60332246D-02 0.51742478D+04 0.51742478D+04 0.51742478D+04 0.12401739D+01  3  4 12  3  5  2       -2 0.268345209180D-04 0.100000000000D+01
-.117308339655D-07 0.000000000000D+00 -.221381124393D-08 0.460902784147D-07 0.000000000000D+00  6 22 21 9900012 11 2 -1 2 0.22650968D-01 0.60270249D-02 0.44763555D+04 0.44763555D+04 0.44763555D+04 0.12472933D+01  3  4  5  3  5  2       -2 -.447808008137D-04 0.100000000000D+01
  </mgrwgt>
  </event>
  <event>
  5     66 -.64871765E-06 0.40004916E+02 0.78161638E-02 0.11467565E+00
       22 -1    0    0    0    0 0.00000000E+00 0.00000000E+00 0.11786479E+04 0.11786479E+04 0.00000000E+00 0.0000E+00 0.9000E+01
       -4 -1    0    0    0  501 0.00000000E+00 0.00000000E+00 -.16960618E+02 0.16960618E+02 0.00000000E+00 0.0000E+00 0.9000E+01
  9900012  1    1    2    0    0 -.18953364E+02 0.58941864E+02 0.35422301E+03 0.36305277E+03 0.50000000E+02 0.0000E+00 0.9000E+01
       11  1    1    2    0    0 0.65272416E+02 -.67970485E+02 0.75930207E+03 0.76512751E+03 0.00000000E+00 0.0000E+00 0.9000E+01
       -3  1    1    2    0  501 -.46319052E+02 0.90286211E+01 0.48162231E+02 0.67428266E+02 0.00000000E+00 0.0000E+00 0.9000E+01
#aMCatNLO 1  0  0  5  2 0.37744423D+02 0.00000000D+00  -5  6  0 0.00000000D+00 0.00000000D+00 0.00000000D+00 0.00000000D+00 0.00000000D+00
  <mgrwgt>
 -.8675331247D-06    1    2    0
 0.141388110292392D+03 0.000000000000000D+00 0.000000000000000D+00 0.141388110292392D+03
 0.141388110292392D+03 -.000000000000000D+00 -.000000000000000D+00 -.141388110292392D+03
 0.798250277002655D+02 -.189533642804162D+02 0.589418636309183D+02 0.621785666578346D+01
 0.115714866833289D+03 0.652724160239727D+02 -.679704847118853D+02 0.671524781424373D+02
 0.872363260512291D+02 -.463190517435565D+02 0.902862108096696D+01 -.733703348082208D+02
 0.000000000000000D+00 0.000000000000000D+00 0.000000000000000D+00 -.000000000000000D+00
 0.141388110292392D+03 0.000000000000000D+00 0.000000000000000D+00 0.141388110292392D+03
 0.141388110292392D+03 -.000000000000000D+00 -.000000000000000D+00 -.141388110292392D+03
 0.798652021806885D+02 -.191070953565970D+02 0.589718292624016D+02 0.597434346537821D+01
 0.115359641087541D+03 0.650499645139017D+02 -.679271239279806D+02 0.668001103551418D+02
 0.855751371919164D+02 -.465073521150291D+02 0.762264659790889D+01 -.714287446586275D+02
 0.197624012463756D+01 0.564482957724337D+00 0.133264806767009D+01 -.134570916189251D+01
-.600728029299D-07 0.000000000000D+00 0.000000000000D+00 0.529273962438D-09 0.000000000000D+00  6 22 -4 9900012 11 -3 21 2 0.18133045D+00 0.26093259D-02 0.12211306D+05 0.12211306D+05 0.12211306D+05 0.12004402D+01  1  2 14  2  6  5       -3 -.867533124738D-06 0.100000000000D+01
  </mgrwgt>
  </event>
  <event>
  6     66 0.64871765E-06 0.20773163E+02 0.78161638E-02 0.12861158E+00
       22 -1    0    0    0    0 0.00000000E+00 0.00000000E+00 0.14856797E+04 0.14856797E+04 0.00000000E+00 0.0000E+00 0.9000E+01
       -2 -1    0    0    0  501 0.00000000E+00 0.00000000E+00 -.49765072E+01 0.49765072E+01 0.00000000E+00 0.0000E+00 0.9000E+01
      -24  2    1    2    0    0 0.20772133E+02 -.20687400E+00 0.14547538E+04 0.14574162E+04 0.85568295E+02 0.0000E+00 0.0000E+00
  9900012  1    3    3    0    0 0.17246807E+01 0.22929233E+02 0.11095761E+04 0.11109400E+04 0.50000000E+02 0.0000E+00 0.9000E+01
       11  1    3    3    0    0 0.19047452E+02 -.23136107E+02 0.34517774E+03 0.34647620E+03 0.00000000E+00 0.0000E+00 0.9000E+01
       -1  1    1    2    0  501 -.20772133E+02 0.20687400E+00 0.25949351E+02 0.33239932E+02 0.00000000E+00 0.0000E+00 0.9000E+01
#aMCatNLO 1  0  0  5  2 0.10206087D+02 0.00000000D+00  -5  6  0 0.00000000D+00 0.00000000D+00 0.00000000D+00 0.00000000D+00 0.00000000D+00
  <mgrwgt>
 0.1747466780D-04    7    2    0
 0.859854381109553D+02 0.000000000000000D+00 0.000000000000000D+00 0.859854381109553D+02
 0.859854381109553D+02 -.000000000000000D+00 -.000000000000000D+00 -.859854381109553D+02
 0.760410236743637D+02 0.172468070261067D+01 0.229292326727017D+02 0.524739273064280D+02
 0.312327083485232D+02 0.190474520915731D+02 -.231361066773575D+02 0.879756826725840D+01
 0.646971441990238D+02 -.207721327941837D+02 0.206874004655775D+00 -.612714955736864D+02
 0.000000000000000D+00 0.000000000000000D+00 0.000000000000000D+00 -.000000000000000D+00
 0.859854381109553D+02 0.000000000000000D+00 0.000000000000000D+00 0.859854381109553D+02
 0.859854381109553D+02 -.000000000000000D+00 -.000000000000000D+00 -.859854381109553D+02
 0.746030279048447D+02 0.101601870459237D+01 0.229362903854041D+02 0.503835892123553D+02
 0.308205049079171D+02 0.187555404387147D+02 -.231331994682986D+02 0.793651737165533D+01
 0.528246259586987D+02 -.172300473185659D+02 -.956064665679701D+01 -.490118415546721D+02
 0.137227174504503D+02 -.254151182474123D+01 0.975755573969146D+01 -.930826502933857D+01
0.134385600105D-06 0.000000000000D+00 0.000000000000D+00 0.265832412833D-07 0.000000000000D+00  6 22 -2 9900012 11 -1 21 0 0.22856610D+00 0.76561650D-03 0.27970915D+04 0.27970915D+04 0.27970915D+04 0.12712910D+01  1  2  2  2  6  5       -1 0.485011591688D-05 0.100000000000D+01
0.128511686371D-07 0.000000000000D+00 -.258038044472D-09 0.265832412833D-07 0.000000000000D+00  6 22 -2 9900012 11 -1 21 2 0.22856610D+00 0.76561650D-03 0.27970915D+04 0.27970915D+04 0.27970915D+04 0.12712910D+01  1  2  3  2  6  5       -1 0.749604097627D-06 0.100000000000D+01
-.188703506670D-07 0.000000000000D+00 0.000000000000D+00 0.265832412833D-07 0.000000000000D+00  6 22 -2 9900012 11 -1 21 2 0.22856610D+00 0.76561650D-03 0.27970915D+04 0.27970915D+04 0.27970915D+04 0.12712910D+01  1  2 15  2  6  5       -1 -.110070084543D-05 0.100000000000D+01
0.194002705141D-06 0.000000000000D+00 0.000000000000D+00 0.265832412833D-07 0.000000000000D+00  6 22 -2 9900012 11 -1 21 2 0.22856610D+00 0.76561650D-03 0.32826144D+04 0.32826144D+04 0.32826144D+04 0.12629588D+01  1  2 12  2  6  5       -1 0.113983656459D-04 0.100000000000D+01
-.165118817357D-07 0.000000000000D+00 0.000000000000D+00 0.265832412833D-07 0.000000000000D+00  6 22 -2 9900012 11 -1 21 2 0.22856610D+00 0.76561650D-03 0.27970915D+04 0.27970915D+04 0.27970915D+04 0.12712910D+01  1  2  4  2  6  5       -1 -.963132191180D-06 0.100000000000D+01
-.186140837725D-06 0.000000000000D+00 0.000000000000D+00 0.265832412833D-07 0.000000000000D+00  6 22 -2 9900012 11 -1 21 2 0.22856610D+00 0.76561650D-03 0.27970915D+04 0.27970915D+04 0.27970915D+04 0.12712910D+01  1  2  5  2  6  5       -1 -.108575288859D-04 0.100000000000D+01
0.229693566283D-06 0.000000000000D+00 -.000000000000D+00 0.265832412833D-07 0.000000000000D+00  6 22 -2 9900012 11 -1 21 2 0.22856610D+00 0.76561650D-03 0.27970915D+04 0.27970915D+04 0.27970915D+04 0.12712910D+01  1  2  6  2  6  5       -1 0.133979440584D-04 0.100000000000D+01
  </mgrwgt>
  </event>
  <event>
  7     66 -.64871765E-06 0.19443024E+02 0.78161638E-02 0.12701397E+00
       22 -1    0    0    0    0 0.00000000E+00 0.00000000E+00 0.27427155E+02 0.27427155E+02 0.00000000E+00 0.0000E+00 0.9000E+01
       -2 -1    0    0    0  502 0.00000000E+00 0.00000000E+00 -.30190545E+03 0.30190545E+03 0.00000000E+00 0.0000E+00 0.9000E+01
      -24  2    1    2    0    0 0.20340027E+02 0.27792945E+01 -.46914222E+02 0.96031496E+02 0.81238309E+02 0.0000E+00 0.0000E+00
  9900012  1    3    3    0    0 -.87062871E+01 -.19915844E+01 -.15781953E+02 0.53186802E+02 0.50000000E+02 0.0000E+00 0.9000E+01
       11  1    3    3    0    0 0.29046314E+02 0.47708790E+01 -.31132270E+02 0.42844694E+02 0.00000000E+00 0.0000E+00 0.9000E+01
       -1  1    1    2    0  501 -.23415712E+02 0.63579726E+01 -.21919647E+03 0.22053529E+03 0.00000000E+00 0.0000E+00 0.9000E+01
       21  1    1    2  501  502 0.30756851E+01 -.91372671E+01 -.83676019E+01 0.12765824E+02 0.00000000E+00 0.0000E+00 0.9000E+01
#aMCatNLO 2  0  0  2  5 0.17489517D+02 0.00000000D+00  -5  6  0 0.00000000D+00 0.00000000D+00 0.00000000D+00 0.00000000D+00 0.00000000D+00
  <mgrwgt>
 -.8824288539D-05    2    2    0
 0.855959650008627D+02 0.000000000000000D+00 0.000000000000000D+00 0.855959650008627D+02
 0.855959650008627D+02 0.000000000000000D+00 0.000000000000000D+00 -.855959650008627D+02
 0.737701138236219D+02 -.738255890074832D+01 -.592412541963825D+01 0.534081665631719D+02
 0.311014759998335D+02 0.296018133674488D+02 0.312059669168373D+01 0.901644780469579D+01
 0.663203401782700D+02 -.222192544667004D+02 0.280352872795452D+01 -.624246143678677D+02
 0.000000000000000D+00 0.000000000000000D+00 -.000000000000000D+00 0.000000000000000D+00
 0.932047589743909D+02 0.000000000000000D+00 0.000000000000000D+00 0.932047589743909D+02
 0.888410390881762D+02 0.000000000000000D+00 0.000000000000000D+00 -.888410390881762D+02
 0.737034469913347D+02 -.870628705280684D+01 -.199158442429746D+01 0.534081665631719D+02
 0.307854829152669D+02 0.290463137286762D+02 0.477087896374453D+01 0.901644780469579D+01
 0.669742626062279D+02 -.234157117655426D+02 0.635797256867408D+01 -.624246143678677D+02
 0.105826055497376D+02 0.307568508967320D+01 -.913726710812116D+01 0.436371988621478D+01
-.932144860565D-07 0.000000000000D+00 0.000000000000D+00 0.348937492126D-06 0.000000000000D+00  6 22 -2 9900012 11 -1 21 2 0.38750973D-02 0.50575757D-01 0.32564989D+04 0.32564989D+04 0.32564989D+04 0.12633704D+01  1  2 13  1  6  2       -2 -.897940972845D-05 0.100000000000D+01
0.154410901871D-08 0.000000000000D+00 0.000000000000D+00 0.348937492126D-06 0.356482262053D-09  6 22 -2 9900012 11 -1 21 2 0.42195623D-02 0.46446992D-01 0.32564989D+04 0.32564989D+04 0.32564989D+04 0.12633704D+01  1  2  1  1  6  2       -2 0.155121189307D-06 0.100000000000D+01
  </mgrwgt>
  </event>
  <event>
  6     66 0.64871765E-06 0.59158232E+02 0.78161638E-02 0.11244810E+00
       22 -1    0    0    0    0 0.00000000E+00 0.00000000E+00 0.10181902E+04 0.10181902E+04 0.00000000E+00 0.0000E+00 0.9000E+01
       -2 -1    0    0    0  501 0.00000000E+00 0.00000000E+00 -.81799062E+02 0.81799062E+02 0.00000000E+00 0.0000E+00 0.9000E+01
      -24  2    1    2    0    0 0.66553168E+02 -.60235564E+02 0.98876631E+03 0.99606230E+03 0.80147593E+02 0.0000E+00 0.0000E+00
  9900012  1    3    3    0    0 0.26427165E+02 -.36190118E+02 0.41543956E+03 0.42083031E+03 0.50000000E+02 0.0000E+00 0.9000E+01
       11  1    3    3    0    0 0.40126003E+02 -.24045446E+02 0.57332676E+03 0.57523200E+03 0.00000000E+00 0.0000E+00 0.9000E+01
       -1  1    1    2    0  501 -.66553168E+02 0.60235564E+02 -.52375197E+02 0.10392694E+03 0.00000000E+00 0.0000E+00 0.9000E+01
#aMCatNLO 1  0  0  2  5 0.50719770D+02 0.00000000D+00  -5  6  0 0.00000000D+00 0.00000000D+00 0.00000000D+00 0.00000000D+00 0.00000000D+00
  <mgrwgt>
 0.6204786841D-04    9    4    0
 0.288594873836344D+03 0.000000000000000D+00 0.000000000000000D+00 0.288594873836344D+03
 0.288594873836344D+03 0.000000000000000D+00 0.000000000000000D+00 -.288594873836344D+03
 0.128025309836676D+03 0.264271647456334D+02 -.361901175808478D+02 0.109006239783640D+03
 0.166134143599925D+03 0.401260034475320D+02 -.240454462851114D+02 0.159412276911031D+03
 0.283030294236086D+03 -.665531681931654D+02 0.602355638659592D+02 -.268418516694671D+03
 0.000000000000000D+00 0.000000000000000D+00 0.000000000000000D+00 -.000000000000000D+00
 0.299794832180279D+03 0.000000000000000D+00 0.000000000000000D+00 0.299794832180279D+03
 0.340279282945551D+03 0.000000000000000D+00 0.000000000000000D+00 -.340279282945551D+03
 0.129825648631249D+03 0.212274741440676D+02 -.449636861502584D+02 0.109006239783640D+03
 0.166672793041601D+03 0.334147889115345D+02 -.353694471589072D+02 0.159412276911031D+03
 0.282500044129922D+03 -.779573638679618D+02 0.409929780279341D+02 -.268418516694671D+03
 0.610756293230582D+02 0.233151008123597D+02 0.393401552812315D+02 -.404844507652716D+02
 0.288594873836344D+03 0.000000000000000D+00 0.000000000000000D+00 0.288594873836344D+03
 0.288594873836344D+03 0.000000000000000D+00 0.000000000000000D+00 -.288594873836344D+03
 0.128025309836676D+03 0.264271647456334D+02 -.361901175808478D+02 0.109006239783640D+03
 0.166134143599925D+03 0.401260034475320D+02 -.240454462851114D+02 0.159412276911031D+03
 0.000000000000000D+00 0.000000000000000D+00 0.000000000000000D+00 -.000000000000000D+00
 0.283030294236086D+03 -.665531681931654D+02 0.602355638659592D+02 -.268418516694671D+03
 0.299794832180279D+03 0.000000000000000D+00 0.000000000000000D+00 0.299794832180279D+03
 0.340279282945551D+03 0.000000000000000D+00 0.000000000000000D+00 -.340279282945551D+03
 0.129825648631249D+03 0.212274741440676D+02 -.449636861502584D+02 0.109006239783640D+03
 0.166672793041601D+03 0.334147889115345D+02 -.353694471589072D+02 0.159412276911031D+03
 0.610756293230582D+02 0.233151008123597D+02 0.393401552812315D+02 -.404844507652716D+02
 0.282500044129922D+03 -.779573638679618D+02 0.409929780279341D+02 -.268418516694671D+03
0.140855450198D-04 0.000000000000D+00 0.000000000000D+00 0.540198292469D-04 0.000000000000D+00  6 22 -2 9900012 11 -1 21 0 0.15664464D+00 0.12584471D-01 0.10371995D+05 0.10371995D+05 0.10371995D+05 0.12076894D+01  1  2  2  1  6  2       -2 0.257396455991D-04 0.100000000000D+01
0.196948360665D-06 0.000000000000D+00 -.270461008426D-07 0.540198292469D-04 0.000000000000D+00  6 22 -2 9900012 11 -1 21 2 0.15664464D+00 0.12584471D-01 0.10371995D+05 0.10371995D+05 0.10371995D+05 0.12076894D+01  1  2  3  1  6  2       -2 0.524918392000D-06 0.100000000000D+01
-.202339179531D-05 0.000000000000D+00 0.000000000000D+00 0.540198292469D-04 0.000000000000D+00  6 22 -2 9900012 11 -1 21 2 0.15664464D+00 0.12584471D-01 0.10371995D+05 0.10371995D+05 0.10371995D+05 0.12076894D+01  1  2 15  1  6  2       -2 -.539286320534D-05 0.100000000000D+01
0.149963080851D-04 0.000000000000D+00 0.000000000000D+00 0.540198292469D-04 0.000000000000D+00  6 22 -2 9900012 11 -1 21 2 0.15664464D+00 0.15414072D-01 0.15999793D+05 0.15999793D+05 0.15999793D+05 0.11887239D+01  1  2 12  1  6  2       -2 0.289723279291D-04 0.100000000000D+01
-.164403782356D-05 0.000000000000D+00 0.000000000000D+00 0.540198292469D-04 0.000000000000D+00  6 22 -2 9900012 11 -1 21 2 0.15664464D+00 0.12584471D-01 0.10371995D+05 0.10371995D+05 0.10371995D+05 0.12076894D+01  1  2  4  1  6  2       -2 -.438178661563D-05 0.100000000000D+01
-.281303616639D-04 0.000000000000D+00 -.913561778701D-05 0.540198292469D-04 0.000000000000D+00  6 22 -2 9900012 11 -1 21 2 0.15664464D+00 0.15390392D-01 0.10371995D+05 0.10371995D+05 0.10371995D+05 0.12076894D+01  1  2  5  1  6  2       -2 -.548109773995D-04 0.100000000000D+01
0.295505394982D-04 0.000000000000D+00 0.895363285816D-05 0.540198292469D-04 0.000000000000D+00  6 22 -2 9900012 11 -1 21 2 0.15664464D+00 0.12584471D-01 0.10371995D+05 0.10371995D+05 0.10371995D+05 0.12076894D+01  1  2  6  1  6  2       -2 0.787598415329D-04 0.100000000000D+01
0.433769376882D-06 0.000000000000D+00 0.000000000000D+00 0.540198292469D-04 0.000000000000D+00  6 22 21 9900012 11 2 -1 2 0.15664464D+00 0.15414072D-01 0.15999793D+05 0.15999793D+05 0.15999793D+05 0.11887239D+01  3  4 12  3  5  2       -2 0.114292969025D-04 0.100000000000D+01
-.702575742134D-06 0.000000000000D+00 -.262713658084D-06 0.540198292469D-04 0.000000000000D+00  6 22 21 9900012 11 2 -1 2 0.15664464D+00 0.15390392D-01 0.10371995D+05 0.10371995D+05 0.10371995D+05 0.12076894D+01  3  4  5  3  5  2       -2 -.187925347233D-04 0.100000000000D+01
  </mgrwgt>
  </event>
  <event>
  6     66 0.64871765E-06 0.30513617E+02 0.78161638E-02 0.12777852E+00
       22 -1    0    0    0    0 0.00000000E+00 0.00000000E+00 0.48117192E+03 0.48117192E+03 0.00000000E+00 0.0000E+00 0.9000E+01
       -4 -1    0    0    0  501 0.00000000E+00 0.00000000E+00 -.20099634E+02 0.20099634E+02 0.00000000E+00 0.0000E+00 0.9000E+01
      -24  2    1    2    0    0 -.84566533E+01 0.33100524E+02 0.45766854E+03 0.46693869E+03 0.86047013E+02 0.0000E+00 0.0000E+00
  9900012  1    3    3    0    0 0.13891494E+01 0.82474445E+01 0.15473034E+03 0.16282330E+03 0.50000000E+02 0.0000E+00 0.9000E+01
       11  1    3    3    0    0 -.98458027E+01 0.24853080E+02 0.30293821E+03 0.30411539E+03 0.00000000E+00 0.0000E+00 0.9000E+01
       -3  1    1    2    0  501 0.84566533E+01 -.33100524E+02 0.34037409E+01 0.34332858E+02 0.00000000E+00 0.0000E+00 0.9000E+01
#aMCatNLO 1  0  0  5  2 0.47716937D+01 0.00000000D+00  -5  6  0 0.00000000D+00 0.00000000D+00 0.00000000D+00 0.00000000D+00 0.00000000D+00
  <mgrwgt>
 0.3121473395D-04    6    2    0
 0.983431715770693D+02 0.000000000000000D+00 0.000000000000000D+00 0.983431715770693D+02
 0.983431715770693D+02 -.000000000000000D+00 -.000000000000000D+00 -.983431715770693D+02
 0.522497829206817D+02 0.138914943550931D+01 0.824744449736373D+01 0.126526573638542D+02
 0.649154593641813D+02 -.984580274661220D+01 0.248530798773320D+02 0.591557389722115D+02
 0.795211008692757D+02 0.845665331110289D+01 -.331005243746957D+02 -.718083963360658D+02
 0.000000000000000D+00 0.000000000000000D+00 0.000000000000000D+00 0.000000000000000D+00
 0.983431715770693D+02 0.000000000000000D+00 0.000000000000000D+00 0.983431715770693D+02
 0.983431715770693D+02 -.000000000000000D+00 -.000000000000000D+00 -.983431715770693D+02
 0.519318205383419D+02 0.151385400741949D+01 0.775933335335722D+01 0.115937472968081D+02
 0.634727441790659D+02 -.969212306200766D+01 0.242515560878361D+02 0.578507911051404D+02
 0.785155251489948D+02 0.709162983723876D+01 -.310095202003054D+02 -.717830490618842D+02
 0.276625328773610D+01 0.108663921734941D+01 -.100136924088784D+01 0.233851065993567D+01
0.788228093547D-06 0.000000000000D+00 0.000000000000D+00 0.870266727768D-07 0.000000000000D+00  6 22 -4 9900012 11 -3 21 0 0.74026449D-01 0.30922514D-02 0.31131203D+04 0.31131203D+04 0.31131203D+04 0.12656989D+01  1  2  2  2  6  5       -3 0.316679756507D-04 0.100000000000D+01
0.251115033990D-07 0.000000000000D+00 -.151350171222D-08 0.870266727768D-07 0.000000000000D+00  6 22 -4 9900012 11 -3 21 2 0.74026449D-01 0.30922514D-02 0.31131203D+04 0.31131203D+04 0.31131203D+04 0.12656989D+01  1  2  3  2  6  5       -3 0.161622524617D-05 0.100000000000D+01
-.117244484283D-06 0.000000000000D+00 0.000000000000D+00 0.870266727768D-07 0.000000000000D+00  6 22 -4 9900012 11 -3 21 2 0.74026449D-01 0.30922514D-02 0.31131203D+04 0.31131203D+04 0.31131203D+04 0.12656989D+01  1  2 15  2  6  5       -3 -.754608326162D-05 0.100000000000D+01
0.915480845281D-07 0.000000000000D+00 0.000000000000D+00 0.870266727768D-07 0.000000000000D+00  6 22 -4 9900012 11 -3 21 2 0.74026449D-01 0.30922514D-02 0.30264006D+04 0.30264006D+04 0.30264006D+04 0.12671670D+01  1  2 12  2  6  5       -3 0.588088990797D-05 0.100000000000D+01
-.547869796529D-07 0.000000000000D+00 0.000000000000D+00 0.870266727768D-07 0.000000000000D+00  6 22 -4 9900012 11 -3 21 2 0.74026449D-01 0.30922514D-02 0.31131203D+04 0.31131203D+04 0.31131203D+04 0.12656989D+01  1  2  4  2  6  5       -3 -.352619667049D-05 0.100000000000D+01
0.485991206516D-07 0.000000000000D+00 0.000000000000D+00 0.870266727768D-07 0.147768215906D-08  6 22 -4 9900012 11 -3 21 2 0.74026449D-01 0.30922514D-02 0.30264006D+04 0.30264006D+04 0.30264006D+04 0.12671670D+01  1  2 11  2  6  5       -3 0.312192308172D-05 0.100000000000D+01
  </mgrwgt>
  </event>
  <event>
  6     66 0.64871765E-06 0.37286587E+02 0.78161638E-02 0.12565816E+00
       22 -1    0    0    0    0 0.00000000E+00 0.00000000E+00 0.20822664E+03 0.20822664E+03 0.00000000E+00 0.0000E+00 0.9000E+01
       -2 -1    0    0    0  501 0.00000000E+00 0.00000000E+00 -.66346895E+02 0.66346895E+02 0.00000000E+00 0.0000E+00 0.9000E+01
      -24  2    1    2    0    0 -.29688434E+02 0.22600258E+02 0.19295201E+03 0.21132363E+03 0.77685421E+02 0.0000E+00 0.0000E+00
  9900012  1    3    3    0    0 -.29167338E+00 0.21484874E+02 0.14711821E+03 0.15686125E+03 0.50000000E+02 0.0000E+00 0.9000E+01
       11  1    3    3    0    0 -.29396760E+02 0.11153843E+01 0.45833802E+02 0.54462381E+02 0.00000000E+00 0.0000E+00 0.9000E+01
       -1  1    1    2    0  501 0.29688434E+02 -.22600258E+02 -.51072261E+02 0.63249906E+02 0.00000000E+00 0.0000E+00 0.9000E+01
#aMCatNLO 1  0  0  5  2 0.14201690D+02 0.00000000D+00  -5  6  0 0.00000000D+00 0.00000000D+00 0.00000000D+00 0.00000000D+00 0.00000000D+00
  <mgrwgt>
 0.6582405831D-04    7    2    0
 0.117538041792694D+03 0.000000000000000D+00 0.000000000000000D+00 0.117538041792694D+03
 0.117538041792694D+03 -.000000000000000D+00 -.000000000000000D+00 -.117538041792694D+03
 0.944241288427243D+02 -.291673381066460D+00 0.214848739783411D+02 0.771636651830444D+02
 0.359502351729823D+02 -.293967604339701D+02 0.111538427344983D+01 0.206641187303754D+02
 0.104701719569681D+03 0.296884338150365D+02 -.226002582517909D+02 -.978277839134198D+02
 0.000000000000000D+00 0.000000000000000D+00 0.000000000000000D+00 0.000000000000000D+00
 0.117538041792694D+03 0.000000000000000D+00 0.000000000000000D+00 0.117538041792694D+03
 0.117538041792694D+03 -.000000000000000D+00 -.000000000000000D+00 -.117538041792694D+03
 0.927223552504334D+02 0.304271627955556D+00 0.210312120845654D+02 0.751999381663178D+02
 0.353329400439414D+02 -.291697679114890D+02 0.942586689674992D+00 0.199161447692838D+02
 0.807993558928741D+02 0.947850232477284D+01 -.153069619292132D+02 -.787679555585913D+02
 0.262214323981392D+02 0.193869939587606D+02 -.666683684502724D+01 -.163481273770103D+02
0.361343904350D-06 0.000000000000D+00 0.000000000000D+00 0.590225317901D-06 0.000000000000D+00  6 22 -2 9900012 11 -1 21 0 0.32034868D-01 0.10207215D-01 0.36693994D+04 0.36693994D+04 0.36693994D+04 0.12572630D+01  1  2  2  2  6  5       -1 0.148180469732D-04 0.100000000000D+01
0.165585801197D-07 0.000000000000D+00 -.693827868370D-09 0.590225317901D-06 0.000000000000D+00  6 22 -2 9900012 11 -1 21 2 0.32034868D-01 0.10207215D-01 0.36693994D+04 0.36693994D+04 0.36693994D+04 0.12572630D+01  1  2  3  2  6  5       -1 0.107336054459D-05 0.100000000000D+01
-.532078337094D-07 0.000000000000D+00 0.000000000000D+00 0.590225317901D-06 0.000000000000D+00  6 22 -2 9900012 11 -1 21 2 0.32034868D-01 0.10207215D-01 0.36693994D+04 0.36693994D+04 0.36693994D+04 0.12572630D+01  1  2 15  2  6  5       -1 -.344903904526D-05 0.100000000000D+01
0.715280410768D-06 0.000000000000D+00 0.000000000000D+00 0.590225317901D-06 0.000000000000D+00  6 22 -2 9900012 11 -1 21 2 0.32034868D-01 0.10207215D-01 0.37169892D+04 0.37169892D+04 0.37169892D+04 0.12566094D+01  1  2 12  2  6  5       -1 0.463758597405D-04 0.100000000000D+01
-.874054788163D-07 0.000000000000D+00 0.000000000000D+00 0.590225317901D-06 0.000000000000D+00  6 22 -2 9900012 11 -1 21 2 0.32034868D-01 0.10207215D-01 0.36693994D+04 0.36693994D+04 0.36693994D+04 0.12572630D+01  1  2  4  2  6  5       -1 -.566579934176D-05 0.100000000000D+01
-.696811314195D-06 0.000000000000D+00 0.000000000000D+00 0.590225317901D-06 0.000000000000D+00  6 22 -2 9900012 11 -1 21 2 0.32034868D-01 0.10207215D-01 0.36693994D+04 0.36693994D+04 0.36693994D+04 0.12572630D+01  1  2  5  2  6  5       -1 -.451687141214D-04 0.100000000000D+01
0.892294735202D-06 0.000000000000D+00 -.000000000000D+00 0.590225317901D-06 0.000000000000D+00  6 22 -2 9900012 11 -1 21 2 0.32034868D-01 0.10207215D-01 0.36693994D+04 0.36693994D+04 0.36693994D+04 0.12572630D+01  1  2  6  2  6  5       -1 0.578403435554D-04 0.100000000000D+01
  </mgrwgt>
  </event>
  <event>
  6     66 0.64871765E-06 0.35856206E+02 0.78161638E-02 0.12348380E+00
       22 -1    0    0    0    0 0.00000000E+00 0.00000000E+00 0.34420147E+03 0.34420147E+03 0.00000000E+00 0.0000E+00 0.9000E+01
       -2 -1    0    0    0  501 0.00000000E+00 0.00000000E+00 -.77684012E+03 0.77684012E+03 0.00000000E+00 0.0000E+00 0.9000E+01
      -24  2    1    2    0    0 0.13344667E+02 0.39607314E+02 0.33769723E+03 0.34957275E+03 0.80092902E+02 0.0000E+00 0.0000E+00
  9900012  1    3    3    0    0 0.20137335E+02 0.94047911E+01 0.15745647E+03 0.16669284E+03 0.50000000E+02 0.0000E+00 0.9000E+01
       11  1    3    3    0    0 -.67926685E+01 0.30202523E+02 0.18024075E+03 0.18287991E+03 0.00000000E+00 0.0000E+00 0.9000E+01
       -1  1    1    2    0  501 -.13344667E+02 -.39607314E+02 -.77033588E+03 0.77146885E+03 0.00000000E+00 0.0000E+00 0.9000E+01
#aMCatNLO 1  0  0  2  5 0.72065176D+01 0.00000000D+00  -5  6  0 0.00000000D+00 0.00000000D+00 0.00000000D+00 0.00000000D+00 0.00000000D+00
  <mgrwgt>
 0.8550456991D-03   11    4    0
 0.517097201650478D+03 0.000000000000000D+00 0.000000000000000D+00 0.517097201650478D+03
 0.517097201650478D+03 0.000000000000000D+00 0.000000000000000D+00 -.517097201650478D+03
 0.246560378524741D+03 0.201373350151205D+02 0.940479107596287D+01 0.240412266537234D+03
 0.273638209546245D+03 -.679266850483564D+01 0.302025231168347D+02 0.271881475970017D+03
 0.513995815229971D+03 -.133446665102849D+02 -.396073141927976D+02 -.512293742507251D+03
 0.000000000000000D+00 0.000000000000000D+00 0.000000000000000D+00 -.000000000000000D+00
 0.517976562223324D+03 0.000000000000000D+00 0.000000000000000D+00 0.517976562223324D+03
 0.531184962915170D+03 0.000000000000000D+00 0.000000000000000D+00 -.531184962915170D+03
 0.246445161422830D+03 0.193415318418707D+02 0.794133698849820D+01 0.240412266537234D+03
 0.273487077104772D+03 -.767583107401971D+01 0.285784181682577D+02 0.271881475970017D+03
 0.514285780244412D+03 -.150045053769229D+02 -.426596995759754D+02 -.512293742507251D+03
 0.149435063664796D+02 0.333880460907192D+01 0.613994441921948D+01 -.132084006918458D+02
 0.517097201650478D+03 0.000000000000000D+00 0.000000000000000D+00 0.517097201650478D+03
 0.517097201650478D+03 0.000000000000000D+00 0.000000000000000D+00 -.517097201650478D+03
 0.246560378524741D+03 0.201373350151205D+02 0.940479107596287D+01 0.240412266537234D+03
 0.273638209546245D+03 -.679266850483564D+01 0.302025231168347D+02 0.271881475970017D+03
 0.000000000000000D+00 0.000000000000000D+00 0.000000000000000D+00 -.000000000000000D+00
 0.513995815229971D+03 -.133446665102849D+02 -.396073141927976D+02 -.512293742507251D+03
 0.517976562223324D+03 0.000000000000000D+00 0.000000000000000D+00 0.517976562223324D+03
 0.531184962915170D+03 0.000000000000000D+00 0.000000000000000D+00 -.531184962915170D+03
 0.246445161422830D+03 0.193415318418707D+02 0.794133698849820D+01 0.240412266537234D+03
 0.273487077104772D+03 -.767583107401971D+01 0.285784181682577D+02 0.271881475970017D+03
 0.149435063664796D+02 0.333880460907192D+01 0.613994441921948D+01 -.132084006918458D+02
 0.514285780244412D+03 -.150045053769229D+02 -.426596995759754D+02 -.512293742507251D+03
0.380479253118D-03 0.000000000000D+00 0.000000000000D+00 0.179799993687D-02 0.000000000000D+00  6 22 -2 9900012 11 -1 21 0 0.52954073D-01 0.11951387D+00 0.40620885D+04 0.40620885D+04 0.40620885D+04 0.12521339D+01  1  2  2  1  6  2       -2 0.816100189883D-04 0.100000000000D+01
0.208958784430D-04 0.000000000000D+00 -.730570257230D-06 0.179799993687D-02 0.000000000000D+00  6 22 -2 9900012 11 -1 21 2 0.52954073D-01 0.11951387D+00 0.40620885D+04 0.40620885D+04 0.40620885D+04 0.12521339D+01  1  2  3  1  6  2       -2 0.702707594553D-05 0.100000000000D+01
-.560406573263D-04 0.000000000000D+00 0.000000000000D+00 0.179799993687D-02 0.000000000000D+00  6 22 -2 9900012 11 -1 21 2 0.52954073D-01 0.11951387D+00 0.40620885D+04 0.40620885D+04 0.40620885D+04 0.12521339D+01  1  2 15  1  6  2       -2 -.188459152911D-04 0.100000000000D+01
0.156696929376D-02 0.000000000000D+00 0.000000000000D+00 0.179799993687D-02 0.000000000000D+00  6 22 -2 9900012 11 -1 21 2 0.52954073D-01 0.12297867D+00 0.46238231D+04 0.46238231D+04 0.46238231D+04 0.12456899D+01  1  2 12  1  6  2       -2 0.487193486736D-03 0.100000000000D+01
-.241541570608D-04 0.000000000000D+00 0.000000000000D+00 0.179799993687D-02 0.000000000000D+00  6 22 -2 9900012 11 -1 21 2 0.52954073D-01 0.11951387D+00 0.40620885D+04 0.40620885D+04 0.40620885D+04 0.12521339D+01  1  2  4  1  6  2       -2 -.812280261535D-05 0.100000000000D+01
-.154020311842D-01 0.000000000000D+00 -.143918159050D-02 0.179799993687D-02 0.000000000000D+00  6 22 -2 9900012 11 -1 21 2 0.52954073D-01 0.12287209D+00 0.40620885D+04 0.40620885D+04 0.40620885D+04 0.12521339D+01  1  2  5  1  6  2       -2 -.483548967686D-02 0.100000000000D+01
0.154365380040D-01 0.000000000000D+00 0.143862917500D-02 0.179799993687D-02 0.000000000000D+00  6 22 -2 9900012 11 -1 21 2 0.52954073D-01 0.11951387D+00 0.40620885D+04 0.40620885D+04 0.40620885D+04 0.12521339D+01  1  2  6  1  6  2       -2 0.519115409225D-02 0.100000000000D+01
0.401164583594D-05 0.000000000000D+00 0.000000000000D+00 0.179799993687D-02 0.535754381994D-05  6 22 -2 9900012 11 -1 21 2 0.53044125D-01 0.12276989D+00 0.46238231D+04 0.46238231D+04 0.46238231D+04 0.12456899D+01  1  2 11  1  6  2       -2 0.124902722506D-05 0.100000000000D+01
0.603539687098D-04 0.000000000000D+00 0.000000000000D+00 0.179799993687D-02 0.000000000000D+00  6 22 21 9900012 11 2 -1 2 0.52954073D-01 0.12297867D+00 0.46238231D+04 0.46238231D+04 0.46238231D+04 0.12456899D+01  3  4 12  3  5  2       -2 0.187553874870D-03 0.100000000000D+01
-.764024490860D-04 0.000000000000D+00 -.717652142459D-05 0.179799993687D-02 0.000000000000D+00  6 22 21 9900012 11 2 -1 2 0.52954073D-01 0.12287209D+00 0.40620885D+04 0.40620885D+04 0.40620885D+04 0.12521339D+01  3  4  5  3  5  2       -2 -.240756512310D-03 0.100000000000D+01
0.794584031909D-06 0.000000000000D+00 0.000000000000D+00 0.179799993687D-02 0.116728246010D-05  6 22 21 9900012 11 2 -1 2 0.53044125D-01 0.12276989D+00 0.46238231D+04 0.46238231D+04 0.46238231D+04 0.12456899D+01  3  4 11  3  5  2       -2 0.247303013742D-05 0.100000000000D+01
  </mgrwgt>
  </event>
  <event>
  6     66 0.64871765E-06 0.77657913E+02 0.78161638E-02 0.11574554E+00
       22 -1    0    0    0    0 0.00000000E+00 0.00000000E+00 0.18773730E+03 0.18773730E+03 0.00000000E+00 0.0000E+00 0.9000E+01
       -2 -1    0    0    0  501 0.00000000E+00 0.00000000E+00 -.65701408E+02 0.65701408E+02 0.00000000E+00 0.0000E+00 0.9000E+01
      -24  2    1    2    0    0 -.66574688E+02 0.55043461E+02 0.11808455E+03 0.16696568E+03 0.80446283E+02 0.0000E+00 0.0000E+00
  9900012  1    3    3    0    0 -.47191086E+02 0.10811428E+02 0.65551010E+02 0.95607638E+02 0.50000000E+02 0.0000E+00 0.9000E+01
       11  1    3    3    0    0 -.19383603E+02 0.44232034E+02 0.52533539E+02 0.71358038E+02 0.00000000E+00 0.0000E+00 0.9000E+01
       -1  1    1    2    0  501 0.66574688E+02 -.55043461E+02 0.39513401E+01 0.86473030E+02 0.00000000E+00 0.0000E+00 0.9000E+01
#aMCatNLO 1  0  0  2  5 0.12695888D+02 0.00000000D+00  -5  6  0 0.00000000D+00 0.00000000D+00 0.00000000D+00 0.00000000D+00 0.00000000D+00
  <mgrwgt>
 0.1935254652D-04    6    4    0
 0.111061266136285D+03 0.000000000000000D+00 0.000000000000000D+00 0.111061266136285D+03
 0.111061266136285D+03 0.000000000000000D+00 0.000000000000000D+00 -.111061266136285D+03
 0.730727321627975D+02 -.471910859217957D+02 0.108114277986685D+02 0.222651886183748D+02
 0.525561791111724D+02 -.193836025480864D+02 0.442320336223420D+02 0.207353590915485D+02
 0.964936209986003D+02 0.665746884698820D+02 -.550434614210105D+02 -.430005477099233D+02
 0.000000000000000D+00 -.000000000000000D+00 0.000000000000000D+00 0.000000000000000D+00
 0.117382628707237D+03 0.000000000000000D+00 0.000000000000000D+00 0.117382628707237D+03
 0.111466264043008D+03 0.000000000000000D+00 0.000000000000000D+00 -.111466264043008D+03
 0.724564421831129D+02 -.463743222834562D+02 0.101793723958359D+02 0.222651886183748D+02
 0.519596538490928D+02 -.187970209751723D+02 0.437781054172175D+02 0.207353590915485D+02
 0.977288102932000D+02 0.676647367048288D+02 -.558869990663040D+02 -.430005477099233D+02
 0.670398642483952D+01 -.249339344620023D+01 0.192952125325058D+01 0.591636466422859D+01
 0.111061266136285D+03 0.000000000000000D+00 0.000000000000000D+00 0.111061266136285D+03
 0.111061266136285D+03 0.000000000000000D+00 0.000000000000000D+00 -.111061266136285D+03
 0.730727321627975D+02 -.471910859217957D+02 0.108114277986685D+02 0.222651886183748D+02
 0.525561791111724D+02 -.193836025480864D+02 0.442320336223420D+02 0.207353590915485D+02
 0.000000000000000D+00 -.000000000000000D+00 0.000000000000000D+00 0.000000000000000D+00
 0.964936209986003D+02 0.665746884698820D+02 -.550434614210105D+02 -.430005477099233D+02
 0.117382628707237D+03 0.000000000000000D+00 0.000000000000000D+00 0.117382628707237D+03
 0.111466264043008D+03 0.000000000000000D+00 0.000000000000000D+00 -.111466264043008D+03
 0.724564421831129D+02 -.463743222834562D+02 0.101793723958359D+02 0.222651886183748D+02
 0.519596538490928D+02 -.187970209751723D+02 0.437781054172175D+02 0.207353590915485D+02
 0.670398642483952D+01 -.249339344620023D+01 0.192952125325058D+01 0.591636466422859D+01
 0.977288102932000D+02 0.676647367048288D+02 -.558869990663040D+02 -.430005477099233D+02
0.202971300395D-06 0.000000000000D+00 0.000000000000D+00 0.302555892891D-06 0.000000000000D+00  6 22 -2 9900012 11 -1 21 0 0.28882661D-01 0.10107909D-01 0.10431922D+05 0.10431922D+05 0.10431922D+05 0.12074313D+01  1  2  2  1  6  2       -2 0.109258099408D-04 0.100000000000D+01
-.379142269671D-08 0.000000000000D+00 -.389731618543D-09 0.302555892891D-06 0.000000000000D+00  6 22 -2 9900012 11 -1 21 2 0.28882661D-01 0.10107909D-01 0.10431922D+05 0.10431922D+05 0.10431922D+05 0.12074313D+01  1  2  3  1  6  2       -2 -.297540478790D-06 0.100000000000D+01
-.286229836502D-07 0.000000000000D+00 0.000000000000D+00 0.302555892891D-06 0.000000000000D+00  6 22 -2 9900012 11 -1 21 2 0.28882661D-01 0.10107909D-01 0.10431922D+05 0.10431922D+05 0.10431922D+05 0.12074313D+01  1  2 15  1  6  2       -2 -.224625343596D-05 0.100000000000D+01
0.141006104255D-06 0.000000000000D+00 0.000000000000D+00 0.302555892891D-06 0.000000000000D+00  6 22 -2 9900012 11 -1 21 2 0.28882661D-01 0.10722187D-01 0.10764762D+05 0.10764762D+05 0.10764762D+05 0.12060271D+01  1  2 12  1  6  2       -2 0.101170603630D-04 0.100000000000D+01
-.187117978708D-07 0.000000000000D+00 0.000000000000D+00 0.302555892891D-06 0.000000000000D+00  6 22 -2 9900012 11 -1 21 2 0.28882661D-01 0.10107909D-01 0.10431922D+05 0.10431922D+05 0.10431922D+05 0.12074313D+01  1  2  4  1  6  2       -2 -.146845069591D-05 0.100000000000D+01
0.222580757180D-08 0.000000000000D+00 0.000000000000D+00 0.302555892891D-06 0.000000000000D+00  6 22 21 9900012 11 2 -1 2 0.28882661D-01 0.10722187D-01 0.10764762D+05 0.10764762D+05 0.10764762D+05 0.12060271D+01  3  4 12  3  5  2       -2 0.232192082619D-05 0.100000000000D+01
  </mgrwgt>
  </event>
  <event>
  6     66 0.64871765E-06 0.48714033E+02 0.78161638E-02 0.10639839E+00
       22 -1    0    0    0    0 0.00000000E+00 0.00000000E+00 0.14304150E+03 0.14304150E+03 0.00000000E+00 0.0000E+00 0.9000E+01
       -2 -1    0    0    0  501 0.00000000E+00 0.00000000E+00 -.28738364E+03 0.28738364E+03 0.00000000E+00 0.0000E+00 0.9000E+01
      -24  2    1    2    0    0 0.28720322E+02 -.39347175E+02 0.12561565E+03 0.15610733E+03 0.78848915E+02 0.0000E+00 0.0000E+00
  9900012  1    3    3    0    0 0.28343845E+02 -.43053652E+01 0.77455899E+02 0.96547015E+02 0.50000000E+02 0.0000E+00 0.9000E+01
       11  1    3    3    0    0 0.37647700E+00 -.35041809E+02 0.48159747E+02 0.59560317E+02 0.00000000E+00 0.0000E+00 0.9000E+01
       -1  1    1    2    0  501 -.28720322E+02 0.39347175E+02 -.26995778E+03 0.27431781E+03 0.00000000E+00 0.0000E+00 0.9000E+01
#aMCatNLO 1  0  0  2  5 0.47103545D+02 0.00000000D+00  -5  6  0 0.00000000D+00 0.00000000D+00 0.00000000D+00 0.00000000D+00 0.00000000D+00
  <mgrwgt>
 0.1396093097D-04    5    4    0
 0.202750554438805D+03 0.000000000000000D+00 0.000000000000000D+00 0.202750554438805D+03
 0.202750554438805D+03 0.000000000000000D+00 0.000000000000000D+00 -.202750554438805D+03
 0.130052447976153D+03 0.283438449596507D+02 -.430536524864315D+01 0.116583573060569D+03
 0.803641168260951D+02 0.376477001844695D+00 -.350418093880542D+02 0.723209591551206D+02
 0.195084544075361D+03 -.287203219614954D+02 0.393471746366974D+02 -.188904532215690D+03
 0.000000000000000D+00 0.000000000000000D+00 -.000000000000000D+00 -.000000000000000D+00
 0.228139493017454D+03 0.000000000000000D+00 0.000000000000000D+00 0.228139493017454D+03
 0.845358305216035D+03 0.000000000000000D+00 0.000000000000000D+00 -.845358305216035D+03
 0.128550457732147D+03 -.207436745169361D+02 -.178623713736974D+01 0.116583573060569D+03
 0.855316051548754D+02 -.311135384004143D+02 -.334257696315108D+02 0.723209591551206D+02
 0.221815249394999D+03 -.107855460353347D+03 0.434083199917302D+02 -.188904532215690D+03
 0.637600485951467D+03 0.159712673270697D+03 -.819631322284964D+01 -.617218812198581D+03
 0.202750554438805D+03 0.000000000000000D+00 0.000000000000000D+00 0.202750554438805D+03
 0.202750554438805D+03 0.000000000000000D+00 0.000000000000000D+00 -.202750554438805D+03
 0.130052447976153D+03 0.283438449596507D+02 -.430536524864315D+01 0.116583573060569D+03
 0.803641168260951D+02 0.376477001844695D+00 -.350418093880542D+02 0.723209591551206D+02
 0.000000000000000D+00 0.000000000000000D+00 -.000000000000000D+00 -.000000000000000D+00
 0.195084544075361D+03 -.287203219614954D+02 0.393471746366974D+02 -.188904532215690D+03
 0.228139493017454D+03 0.000000000000000D+00 0.000000000000000D+00 0.228139493017454D+03
 0.845358305216035D+03 0.000000000000000D+00 0.000000000000000D+00 -.845358305216035D+03
 0.128550457732147D+03 -.207436745169361D+02 -.178623713736974D+01 0.116583573060569D+03
 0.855316051548754D+02 -.311135384004143D+02 -.334257696315108D+02 0.723209591551206D+02
 0.637600485951467D+03 0.159712673270697D+03 -.819631322284964D+01 -.617218812198581D+03
 0.221815249394999D+03 -.107855460353347D+03 0.434083199917302D+02 -.188904532215690D+03
0.321551693536D-05 0.000000000000D+00 0.000000000000D+00 0.135702837137D-04 0.000000000000D+00  6 22 -2 9900012 11 -1 21 0 0.22006385D-01 0.44212867D-01 0.49980570D+04 0.49980570D+04 0.49980570D+04 0.12418646D+01  1  2  2  1  6  2       -2 0.222811903011D-04 0.100000000000D+01
0.137564201539D-06 0.000000000000D+00 -.617421584842D-08 0.135702837137D-04 0.000000000000D+00  6 22 -2 9900012 11 -1 21 2 0.22006385D-01 0.44212867D-01 0.49980570D+04 0.49980570D+04 0.49980570D+04 0.12418646D+01  1  2  3  1  6  2       -2 0.147008178099D-05 0.100000000000D+01
-.470955125091D-06 0.000000000000D+00 0.000000000000D+00 0.135702837137D-04 0.000000000000D+00  6 22 -2 9900012 11 -1 21 2 0.22006385D-01 0.44212867D-01 0.49980570D+04 0.49980570D+04 0.49980570D+04 0.12418646D+01  1  2 15  1  6  2       -2 -.503286859021D-05 0.100000000000D+01
-.482245644038D-05 0.000000000000D+00 -.107252815684D-05 0.135702837137D-04 0.000000000000D+00  6 22 -2 9900012 11 -1 21 2 0.22006385D-01 0.19230851D+00 0.49980570D+04 0.49980570D+04 0.49980570D+04 0.12418646D+01  1  2  5  1  6  2       -2 -.174429892739D-05 0.100000000000D+01
-.857218544589D-06 0.000000000000D+00 -.190011917481D-06 0.135702837137D-04 0.000000000000D+00  6 22 21 9900012 11 2 -1 2 0.22006385D-01 0.19230851D+00 0.49980570D+04 0.49980570D+04 0.49980570D+04 0.12418646D+01  3  4  5  3  5  2       -2 -.301317358965D-05 0.100000000000D+01
  </mgrwgt>
  </event>
  <event>
  7     66 0.64871765E-06 0.32662197E+02 0.78161638E-02 0.11871324E+00
       22 -1    0    0    0    0 0.00000000E+00 0.00000000E+00 0.18355999E+03 0.18355999E+03 0.00000000E+00 0.0000E+00 0.9000E+01
       21 -1    0    0  502  501 0.00000000E+00 0.00000000E+00 -.24114628E+03 0.24114628E+03 0.00000000E+00 0.0000E+00 0.9000E+01
      -24  2    1    2    0    0 -.67693722E+02 0.28529646E+01 0.15502898E+03 0.18683840E+03 0.79271821E+02 0.0000E+00 0.0000E+00
  9900012  1    3    3    0    0 -.23987649E+02 0.16782663E+02 0.95234988E+02 0.11147541E+03 0.50000000E+02 0.0000E+00 0.9000E+01
       11  1    3    3    0    0 -.43706074E+02 -.13929698E+02 0.59793997E+02 0.75362984E+02 0.00000000E+00 0.0000E+00 0.9000E+01
        4  1    1    2  502    0 0.23911186E+02 0.98993226E+01 -.17988209E+03 0.18173417E+03 0.00000000E+00 0.0000E+00 0.9000E+01
       -3  1    1    2    0  501 0.43782536E+02 -.12752287E+02 -.32733179E+02 0.56133700E+02 0.00000000E+00 0.0000E+00 0.9000E+01
#aMCatNLO 2  0  0  2  5 0.25966281D+02 0.00000000D+00  -5  6  0 0.00000000D+00 0.00000000D+00 0.00000000D+00 0.00000000D+00 0.00000000D+00
  <mgrwgt>
 0.6921725529D-04    2    2    0
 0.104174655348336D+03 0.000000000000000D+00 0.000000000000000D+00 0.104174655348336D+03
 0.104174655348336D+03 0.000000000000000D+00 0.000000000000000D+00 -.104174655348336D+03
 0.721439374753656D+02 -.156602667686841D+02 0.202302305497433D+02 0.452795928767843D+02
 0.471112132288120D+02 -.380185105582209D+02 -.115750250449006D+02 0.252997640707372D+02
 0.000000000000000D+00 0.000000000000000D+00 0.000000000000000D+00 -.000000000000000D+00
 0.890941599924942D+02 0.536787773269050D+02 -.865520550484268D+01 -.705793569475215D+02
 0.105507480395969D+03 0.000000000000000D+00 0.000000000000000D+00 0.105507480395969D+03
 0.419541902086763D+03 0.000000000000000D+00 0.000000000000000D+00 -.419541902086763D+03
 0.735343905214428D+02 -.239876488395009D+02 0.167826625249245D+02 0.452795928767843D+02
 0.523864049144948D+02 -.437060736488249D+02 -.139296979161049D+02 0.252997640707372D+02
 0.315098967662602D+03 0.239111862580721D+02 0.989932255753087D+01 -.314034421690793D+03
 0.840296193841922D+02 0.437825362302537D+02 -.127522871663505D+02 -.705793569475215D+02
-.593691269084D-06 0.000000000000D+00 0.000000000000D+00 0.762545780377D-06 0.000000000000D+00  6 22 21 9900012 11 4 -3 2 0.27883256D-01 0.37574083D-01 0.76819625D+04 0.76819625D+04 0.76819625D+04 0.12213904D+01  1  2 13  3  5  2       -4 -.691946937228D-04 0.100000000000D+01
0.118131072619D-05 0.000000000000D+00 0.000000000000D+00 0.762545780377D-06 0.602050852505D-08  6 22 21 9900012 11 4 -3 2 0.28239999D-01 0.37099428D-01 0.76819625D+04 0.76819625D+04 0.76819625D+04 0.12213904D+01  1  2  1  3  5  2       -4 0.138411949014D-03 0.100000000000D+01
  </mgrwgt>
  </event>
  <event>
  6     66 0.64871765E-06 0.18747629E+02 0.78161638E-02 0.12576533E+00
       22 -1    0    0    0    0 0.00000000E+00 0.00000000E+00 0.97566470E+01 0.97566470E+01 0.00000000E+00 0.0000E+00 0.9000E+01
       -2 -1    0    0    0  501 0.00000000E+00 0.00000000E+00 -.20015387E+04 0.20015387E+04 0.00000000E+00 0.0000E+00 0.9000E+01
      -24  2    1    2    0    0 -.60517641E+01 -.35047630E+02 -.19052831E+03 0.20969051E+03 0.80025688E+02 0.0000E+00 0.0000E+00
  9900012  1    3    3    0    0 0.16728320E+02 -.34366130E+02 -.11897462E+03 0.13459505E+03 0.50000000E+02 0.0000E+00 0.9000E+01
       11  1    3    3    0    0 -.22780084E+02 -.68150052E+00 -.71553689E+02 0.75095453E+02 0.00000000E+00 0.0000E+00 0.9000E+01
       -1  1    1    2    0  501 0.60517641E+01 0.35047630E+02 -.18012538E+04 0.18016049E+04 0.00000000E+00 0.0000E+00 0.9000E+01
#aMCatNLO 1  0  0  2  5 0.33222985D+02 0.00000000D+00  -5  6  0 0.00000000D+00 0.00000000D+00 0.00000000D+00 0.00000000D+00 0.00000000D+00
  <mgrwgt>
 0.4676272680D-04    9    4    0
 0.139743718831179D+03 0.000000000000000D+00 0.000000000000000D+00 0.139743718831179D+03
 0.139743718831179D+03 0.000000000000000D+00 0.000000000000000D+00 -.139743718831179D+03
 0.120717008596764D+03 0.167283197306526D+02 -.343661297226402D+02 0.103013244834957D+03
 0.304835950045205D+02 -.227800838077999D+02 -.681500518020158D+00 0.202448241077363D+02
 0.128286834061073D+03 0.605176407714732D+01 0.350476302406603D+02 -.123258068942694D+03
 0.000000000000000D+00 -.000000000000000D+00 -.000000000000000D+00 -.000000000000000D+00
 0.143310419149104D+03 0.000000000000000D+00 0.000000000000000D+00 0.143310419149104D+03
 0.241423671497361D+03 0.000000000000000D+00 0.000000000000000D+00 -.241423671497361D+03
 0.121888916836734D+03 0.298293605440725D+02 -.292470286650995D+02 0.103013244834957D+03
 0.281917554669539D+02 -.196115372857191D+02 0.556577439529278D+00 0.202448241077363D+02
 0.131292025481533D+03 0.200693657787220D+02 0.405248683255315D+02 -.123258068942694D+03
 0.103361392861244D+03 -.302871890370754D+02 -.118344170999613D+02 -.981132523482579D+02
 0.139743718831179D+03 0.000000000000000D+00 0.000000000000000D+00 0.139743718831179D+03
 0.139743718831179D+03 0.000000000000000D+00 0.000000000000000D+00 -.139743718831179D+03
 0.120717008596764D+03 0.167283197306526D+02 -.343661297226402D+02 0.103013244834957D+03
 0.304835950045205D+02 -.227800838077999D+02 -.681500518020158D+00 0.202448241077363D+02
 0.000000000000000D+00 -.000000000000000D+00 -.000000000000000D+00 -.000000000000000D+00
 0.128286834061073D+03 0.605176407714732D+01 0.350476302406603D+02 -.123258068942694D+03
 0.143310419149104D+03 0.000000000000000D+00 0.000000000000000D+00 0.143310419149104D+03
 0.241423671497361D+03 0.000000000000000D+00 0.000000000000000D+00 -.241423671497361D+03
 0.121888916836734D+03 0.298293605440725D+02 -.292470286650995D+02 0.103013244834957D+03
 0.281917554669539D+02 -.196115372857191D+02 0.556577439529278D+00 0.202448241077363D+02
 0.103361392861244D+03 -.302871890370754D+02 -.118344170999613D+02 -.981132523482579D+02
 0.131292025481533D+03 0.200693657787220D+02 0.405248683255315D+02 -.123258068942694D+03
0.757083530931D-05 0.000000000000D+00 0.000000000000D+00 0.795362506474D-05 0.000000000000D+00  6 22 -2 9900012 11 -1 21 0 0.15010226D-02 0.30792904D+00 0.36779360D+04 0.36779360D+04 0.36779360D+04 0.12571451D+01  1  2  2  1  6  2       -2 0.130828061950D-04 0.100000000000D+01
0.445246254512D-06 0.000000000000D+00 -.145370005172D-07 0.795362506474D-05 0.000000000000D+00  6 22 -2 9900012 11 -1 21 2 0.15010226D-02 0.30792904D+00 0.36779360D+04 0.36779360D+04 0.36779360D+04 0.12571451D+01  1  2  3  1  6  2       -2 0.121598491242D-05 0.100000000000D+01
-.105231829061D-05 0.000000000000D+00 0.000000000000D+00 0.795362506474D-05 0.000000000000D+00  6 22 -2 9900012 11 -1 21 2 0.15010226D-02 0.30792904D+00 0.36779360D+04 0.36779360D+04 0.36779360D+04 0.12571451D+01  1  2 15  1  6  2       -2 -.287392235529D-05 0.100000000000D+01
0.117402436039D-04 0.000000000000D+00 0.000000000000D+00 0.795362506474D-05 0.000000000000D+00  6 22 -2 9900012 11 -1 21 2 0.15010226D-02 0.54556144D+00 0.66026859D+04 0.66026859D+04 0.66026859D+04 0.12284824D+01  1  2 12  1  6  2       -2 0.124404222560D-05 0.100000000000D+01
-.278069040411D-05 0.000000000000D+00 0.000000000000D+00 0.795362506474D-05 0.000000000000D+00  6 22 -2 9900012 11 -1 21 2 0.15010226D-02 0.30792904D+00 0.36779360D+04 0.36779360D+04 0.36779360D+04 0.12571451D+01  1  2  4  1  6  2       -2 -.759417410756D-05 0.100000000000D+01
-.177151722335D-04 0.000000000000D+00 -.167720238276D-05 0.795362506474D-05 0.000000000000D+00  6 22 -2 9900012 11 -1 21 2 0.15010226D-02 0.53441700D+00 0.36779360D+04 0.36779360D+04 0.36779360D+04 0.12571451D+01  1  2  5  1  6  2       -2 -.222592042199D-05 0.100000000000D+01
0.163220581285D-04 0.000000000000D+00 0.145104524435D-05 0.795362506474D-05 0.000000000000D+00  6 22 -2 9900012 11 -1 21 2 0.15010226D-02 0.30792904D+00 0.36779360D+04 0.36779360D+04 0.36779360D+04 0.12571451D+01  1  2  6  1  6  2       -2 0.445761782897D-04 0.100000000000D+01
0.739241428976D-06 0.000000000000D+00 0.000000000000D+00 0.795362506474D-05 0.000000000000D+00  6 22 21 9900012 11 2 -1 2 0.15010226D-02 0.54556144D+00 0.66026859D+04 0.66026859D+04 0.66026859D+04 0.12284824D+01  3  4 12  3  5  2       -2 0.903537210010D-06 0.100000000000D+01
-.997448943706D-06 0.000000000000D+00 -.102380486786D-06 0.795362506474D-05 0.000000000000D+00  6 22 21 9900012 11 2 -1 2 0.15010226D-02 0.53441700D+00 0.36779360D+04 0.36779360D+04 0.36779360D+04 0.12571451D+01  3  4  5  3  5  2       -2 -.156580514861D-05 0.100000000000D+01
  </mgrwgt>
  </event>
  <event>
  7     66 0.64871765E-06 0.48823434E+02 0.78161638E-02 0.11474634E+00
       22 -1    0    0    0    0 0.00000000E+00 0.00000000E+00 0.32915177E+03 0.32915177E+03 0.00000000E+00 0.0000E+00 0.9000E+01
       21 -1    0    0  502  501 0.00000000E+00 0.00000000E+00 -.39600733E+02 0.39600733E+02 0.00000000E+00 0.0000E+00 0.9000E+01
      -24  2    1    2    0    0 0.14108113E+01 0.39762724E+02 0.12758679E+03 0.15699187E+03 0.82371072E+02 0.0000E+00 0.0000E+00
  9900012  1    3    3    0    0 -.11878078E+02 0.80407977E+01 0.50122417E+02 0.72235724E+02 0.50000000E+02 0.0000E+00 0.9000E+01
       11  1    3    3    0    0 0.13288890E+02 0.31721927E+02 0.77464368E+02 0.84756142E+02 0.00000000E+00 0.0000E+00 0.9000E+01
        4  1    1    2  502    0 -.83955066E+00 -.86714209E+02 0.12433016E+03 0.15158512E+03 0.00000000E+00 0.0000E+00 0.9000E+01
       -3  1    1    2    0  501 -.57126068E+00 0.46951484E+02 0.37634087E+02 0.60175516E+02 0.00000000E+00 0.0000E+00 0.9000E+01
#aMCatNLO 2  0  0  2  5 0.33222985D+02 0.00000000D+00  -5  6  0 0.00000000D+00 0.00000000D+00 0.00000000D+00 0.00000000D+00 0.00000000D+00
  <mgrwgt>
 0.1202328962D-04    1    2    0
 0.555510492349842D+02 0.000000000000000D+00 0.000000000000000D+00 0.555510492349842D+02
 0.555510492349842D+02 0.000000000000000D+00 0.000000000000000D+00 -.555510492349842D+02
 0.604731556212732D+02 -.122545509906298D+02 -.308437423487303D+02 -.744930122480803D+01
 0.256128415362849D+02 0.130710417970936D+02 0.922120773355557D+01 0.200033708618345D+02
 0.000000000000000D+00 -.000000000000000D+00 -.000000000000000D+00 0.000000000000000D+00
 0.250161013124103D+02 -.816490806463792D+00 0.216225346151747D+02 -.125540696370265D+02
 0.121317123688608D+03 0.000000000000000D+00 0.000000000000000D+00 0.121317123688608D+03
 0.107442797563661D+03 0.000000000000000D+00 0.000000000000000D+00 -.107442797563661D+03
 0.525474571907967D+02 -.118780781877345D+02 0.804079766234399D+01 -.744930122480803D+01
 0.397870590339291D+02 0.132888895264957D+02 0.317219267366575D+02 0.200033708618345D+02
 0.878211576406907D+02 -.839550657451852D+00 -.867142085163858D+02 0.138743261249471D+02
 0.486042473868520D+02 -.571260681309314D+00 0.469514841173843D+02 -.125540696370265D+02
0.111667970624D-07 0.000000000000D+00 0.000000000000D+00 0.234996241897D-07 0.337908435811D-11  6 22 21 9900012 11 4 -3 2 0.50638733D-01 0.60924204D-02 0.12109126D+05 0.12109126D+05 0.12109126D+05 0.12008101D+01  1  2  1  3  5  2       -4 0.120232896199D-04 0.100000000000D+01
  </mgrwgt>
  </event>
  <event>
  6     66 0.64871765E-06 0.28092216E+02 0.78161638E-02 0.12952268E+00
       22 -1    0    0    0    0 0.00000000E+00 0.00000000E+00 0.33620960E+02 0.33620960E+02 0.00000000E+00 0.0000E+00 0.9000E+01
       -2 -1    0    0    0  501 -.00000000E+00 -.00000000E+00 -.99087454E+02 0.99087454E+02 0.00000000E+00 0.0000E+00 0.9000E+01
      -24  2    1    2    0    0 -.27635121E+02 0.50470435E+01 -.47758762E+02 0.99500940E+02 0.82646023E+02 0.0000E+00 0.0000E+00
  9900012  1    3    3    0    0 -.73413059E+01 0.15263219E+02 -.54426163E+02 0.75822608E+02 0.50000000E+02 0.0000E+00 0.9000E+01
       11  1    3    3    0    0 -.20293815E+02 -.10216175E+02 0.66674012E+01 0.23678332E+02 0.00000000E+00 0.0000E+00 0.9000E+01
       -1  1    1    2    0  501 0.27635121E+02 -.50470435E+01 -.17707731E+02 0.33207474E+02 0.00000000E+00 0.0000E+00 0.9000E+01
#aMCatNLO 1  0  0  5  2 0.32234784D+01 0.00000000D+00  -5  6  0 0.00000000D+00 0.00000000D+00 0.00000000D+00 0.00000000D+00 0.00000000D+00
  <mgrwgt>
 0.1465932574D-03    6    2    0
 0.577184144387394D+02 0.000000000000000D+00 0.000000000000000D+00 0.577184144387394D+02
 0.577184144387394D+02 -.000000000000000D+00 -.000000000000000D+00 -.577184144387394D+02
 0.563009922243345D+02 -.734130586452370D+01 0.152632189018919D+02 -.195688809695654D+02
 0.310022837114189D+02 -.202938154598990D+02 -.102161753925218D+02 0.210934210063732D+02
 0.281335529417254D+02 0.276351213244227D+02 -.504704350937006D+01 -.152454003680774D+01
 0.000000000000000D+00 0.000000000000000D+00 0.000000000000000D+00 0.000000000000000D+00
 0.577184144387394D+02 0.000000000000000D+00 0.000000000000000D+00 0.577184144387394D+02
 0.577184144387394D+02 -.000000000000000D+00 -.000000000000000D+00 -.577184144387394D+02
 0.561221051653709D+02 -.614866023212206D+01 0.150454042475856D+02 -.196346753619611D+02
 0.305937897253402D+02 -.196403706637395D+02 -.103355149922461D+02 0.210573725757586D+02
 0.240145869473888D+01 -.314612218753238D-01 0.299680136905861D+00 -.238247893371572D+01
 0.263194752920289D+02 0.258204921177369D+02 -.500956939224535D+01 0.959781719918195D+00
0.672534411276D-06 0.000000000000D+00 0.000000000000D+00 0.202933067168D-07 0.000000000000D+00  6 22 -2 9900012 11 -1 21 0 0.51724554D-02 0.15244224D-01 0.26834046D+04 0.26834046D+04 0.26834046D+04 0.12734788D+01  1  2  2  2  6  5       -1 0.198278844678D-03 0.100000000000D+01
-.116776467599D-07 0.000000000000D+00 -.129135461084D-08 0.202933067168D-07 0.000000000000D+00  6 22 -2 9900012 11 -1 21 2 0.51724554D-02 0.15244224D-01 0.26834046D+04 0.26834046D+04 0.26834046D+04 0.12734788D+01  1  2  3  2  6  5       -1 -.558342471724D-05 0.100000000000D+01
-.795973535375D-07 0.000000000000D+00 0.000000000000D+00 0.202933067168D-07 0.000000000000D+00  6 22 -2 9900012 11 -1 21 2 0.51724554D-02 0.15244224D-01 0.26834046D+04 0.26834046D+04 0.26834046D+04 0.12734788D+01  1  2 15  2  6  5       -1 -.380578245176D-04 0.100000000000D+01
0.180715726711D-08 0.000000000000D+00 0.000000000000D+00 0.202933067168D-07 0.000000000000D+00  6 22 -2 9900012 11 -1 21 2 0.51724554D-02 0.15244224D-01 0.25690972D+04 0.25690972D+04 0.25690972D+04 0.12757860D+01  1  2 12  2  6  5       -1 0.862737897188D-06 0.100000000000D+01
-.456806814583D-07 0.000000000000D+00 0.000000000000D+00 0.202933067168D-07 0.000000000000D+00  6 22 -2 9900012 11 -1 21 2 0.51724554D-02 0.15244224D-01 0.26834046D+04 0.26834046D+04 0.26834046D+04 0.12734788D+01  1  2  4  2  6  5       -1 -.218412708655D-04 0.100000000000D+01
0.270929610772D-07 0.000000000000D+00 0.000000000000D+00 0.202933067168D-07 0.275898209191D-09  6 22 -2 9900012 11 -1 21 2 0.51724554D-02 0.15244224D-01 0.25690972D+04 0.25690972D+04 0.25690972D+04 0.12757860D+01  1  2 11  2  6  5       -1 0.129341948782D-04 0.100000000000D+01
  </mgrwgt>
  </event>
  <event>
  6     66 0.64871765E-06 0.30648166E+02 0.78161638E-02 0.12699558E+00
       22 -1    0    0    0    0 0.00000000E+00 0.00000000E+00 0.88792913E+01 0.88792913E+01 0.00000000E+00 0.0000E+00 0.9000E+01
       -2 -1    0    0    0  501 0.00000000E+00 0.00000000E+00 -.38738579E+03 0.38738579E+03 0.00000000E+00 0.0000E+00 0.9000E+01
      -24  2    1    2    0    0 -.99373264E+00 -.30632052E+02 -.30370980E+03 0.31543281E+03 0.79491536E+02 0.0000E+00 0.0000E+00
  9900012  1    3    3    0    0 0.19549754E+02 -.10269599E+02 -.16776167E+03 0.17644159E+03 0.50000000E+02 0.0000E+00 0.9000E+01
       11  1    3    3    0    0 -.20543487E+02 -.20362452E+02 -.13594813E+03 0.13899121E+03 0.00000000E+00 0.0000E+00 0.9000E+01
       -1  1    1    2    0  501 0.99373264E+00 0.30632052E+02 -.74796699E+02 0.80832273E+02 0.00000000E+00 0.0000E+00 0.9000E+01
#aMCatNLO 1  0  0  2  5 0.89150585D+01 0.00000000D+00  -5  6  0 0.00000000D+00 0.00000000D+00 0.00000000D+00 0.00000000D+00 0.00000000D+00
  <mgrwgt>
 0.4833560370D-04    1    2    0
 0.586490515661657D+02 0.000000000000000D+00 0.000000000000000D+00 0.586490515661657D+02
 0.586490515661657D+02 0.000000000000000D+00 0.000000000000000D+00 -.586490515661657D+02
 0.547217676279827D+02 0.195497541995863D+02 -.102695990146521D+02 0.261042125814060D+01
 0.308625206155110D+02 -.205434868363315D+02 -.203624524862427D+02 -.107624744410300D+02
 0.317138148888376D+02 0.993732636745139D+00 0.306320515008948D+02 0.815205318288935D+01
 0.000000000000000D+00 -.000000000000000D+00 -.000000000000000D+00 0.000000000000000D+00
 0.152814453700676D+03 0.000000000000000D+00 0.000000000000000D+00 0.152814453700676D+03
 0.119103498447919D+03 0.000000000000000D+00 0.000000000000000D+00 -.119103498447919D+03
 0.696950258418086D+02 0.318382334433143D+02 0.365637692142706D+02 0.261042125814060D+01
 0.190309691414491D+02 -.156155740025674D+02 -.158138513313622D+01 -.107624744410300D+02
 0.704429537954015D+02 0.110836191912270D+02 0.690862298432059D+02 0.815205318288935D+01
 0.112749003369936D+03 -.273062786319738D+02 -.104068613924340D+03 0.337109552527575D+02
0.170711836404D-06 0.000000000000D+00 0.000000000000D+00 0.282881613575D-07 0.000000000000D+00  6 22 -2 9900012 11 -1 21 2 0.13660448D-02 0.59597813D-01 0.32622823D+04 0.32622823D+04 0.32622823D+04 0.12632789D+01  1  2 14  1  6  2       -2 0.483356036975D-04 0.100000000000D+01
  </mgrwgt>
  </event>
  <event>
  6     66 0.64871765E-06 0.92908546E+02 0.78161638E-02 0.10774612E+00
       22 -1    0    0    0    0 0.00000000E+00 0.00000000E+00 0.72880883E+03 0.72880883E+03 0.00000000E+00 0.0000E+00 0.9000E+01
       -2 -1    0    0    0  501 0.00000000E+00 0.00000000E+00 -.63950228E+02 0.63950228E+02 0.00000000E+00 0.0000E+00 0.9000E+01
      -24  2    1    2    0    0 -.75239270E+02 0.12558508E+03 0.61669114E+03 0.63864006E+03 0.78234309E+02 0.0000E+00 0.0000E+00
  9900012  1    3    3    0    0 -.62284908E+02 0.63513255E+02 0.40483233E+03 0.41749558E+03 0.50000000E+02 0.0000E+00 0.9000E+01
       11  1    3    3    0    0 -.12954363E+02 0.62071827E+02 0.21185881E+03 0.22114449E+03 0.00000000E+00 0.0000E+00 0.9000E+01
       -1  1    1    2    0  501 0.75239270E+02 -.12558508E+03 0.48167463E+02 0.15411900E+03 0.00000000E+00 0.0000E+00 0.9000E+01
#aMCatNLO 1  0  0  2  5 0.30503750D+02 0.00000000D+00  -5  6  0 0.00000000D+00 0.00000000D+00 0.00000000D+00 0.00000000D+00 0.00000000D+00
  <mgrwgt>
 0.1826377565D-04    9    4    0
 0.215887681842800D+03 0.000000000000000D+00 0.000000000000000D+00 0.215887681842800D+03
 0.215887681842800D+03 0.000000000000000D+00 0.000000000000000D+00 -.215887681842800D+03
 0.143169690346060D+03 -.622849075633729D+02 0.635132545458813D+02 0.100420202253326D+03
 0.798057129623721D+02 -.129543628085380D+02 0.620718274268886D+02 0.484584826995631D+02
 0.208799960377167D+03 0.752392703719109D+02 -.125585081972770D+03 -.148878684952889D+03
 0.000000000000000D+00 -.000000000000000D+00 0.000000000000000D+00 -.000000000000000D+00
 0.219845021815879D+03 0.000000000000000D+00 0.000000000000000D+00 0.219845021815879D+03
 0.279343861386641D+03 0.000000000000000D+00 0.000000000000000D+00 -.279343861386641D+03
 0.137937855149258D+03 -.533872013600715D+02 0.599369801835056D+02 0.100420202253326D+03
 0.775894394433359D+02 -.797244095559656D+01 0.600694327657317D+02 0.484584826995631D+02
 0.217254171930219D+03 0.887248724367505D+02 -.131005379274539D+03 -.148878684952889D+03
 0.664074166797066D+02 -.273652301210824D+02 0.109989663253013D+02 -.594988395707619D+02
 0.215887681842800D+03 0.000000000000000D+00 0.000000000000000D+00 0.215887681842800D+03
 0.215887681842800D+03 0.000000000000000D+00 0.000000000000000D+00 -.215887681842800D+03
 0.143169690346060D+03 -.622849075633729D+02 0.635132545458813D+02 0.100420202253326D+03
 0.798057129623721D+02 -.129543628085380D+02 0.620718274268886D+02 0.484584826995631D+02
 0.000000000000000D+00 -.000000000000000D+00 0.000000000000000D+00 -.000000000000000D+00
 0.208799960377167D+03 0.752392703719109D+02 -.125585081972770D+03 -.148878684952889D+03
 0.219845021815879D+03 0.000000000000000D+00 0.000000000000000D+00 0.219845021815879D+03
 0.279343861386641D+03 0.000000000000000D+00 0.000000000000000D+00 -.279343861386641D+03
 0.137937855149258D+03 -.533872013600715D+02 0.599369801835056D+02 0.100420202253326D+03
 0.775894394433359D+02 -.797244095559656D+01 0.600694327657317D+02 0.484584826995631D+02
 0.664074166797066D+02 -.273652301210824D+02 0.109989663253013D+02 -.594988395707619D+02
 0.217254171930219D+03 0.887248724367505D+02 -.131005379274539D+03 -.148878684952889D+03
0.780385681460D-06 0.000000000000D+00 0.000000000000D+00 0.578955530760D-06 0.000000000000D+00  6 22 -2 9900012 11 -1 21 0 0.11212444D+00 0.98384967D-02 0.24313172D+05 0.24313172D+05 0.24313172D+05 0.11712668D+01  1  2  2  1  6  2       -2 0.447242716748D-05 0.100000000000D+01
-.545825052004D-08 0.000000000000D+00 -.149844324854D-08 0.578955530760D-06 0.000000000000D+00  6 22 -2 9900012 11 -1 21 2 0.11212444D+00 0.98384967D-02 0.24313172D+05 0.24313172D+05 0.24313172D+05 0.11712668D+01  1  2  3  1  6  2       -2 -.429140141996D-07 0.100000000000D+01
-.110719696580D-06 0.000000000000D+00 0.000000000000D+00 0.578955530760D-06 0.000000000000D+00  6 22 -2 9900012 11 -1 21 2 0.11212444D+00 0.98384967D-02 0.24313172D+05 0.24313172D+05 0.24313172D+05 0.11712668D+01  1  2 15  1  6  2       -2 -.870503582374D-06 0.100000000000D+01
0.298002258602D-05 0.000000000000D+00 0.000000000000D+00 0.578955530760D-06 0.000000000000D+00  6 22 -2 9900012 11 -1 21 2 0.11212444D+00 0.12963694D-01 0.29391262D+05 0.29391262D+05 0.29391262D+05 0.11636055D+01  1  2 12  1  6  2       -2 0.152528397652D-04 0.100000000000D+01
-.116529707498D-05 0.000000000000D+00 0.000000000000D+00 0.578955530760D-06 0.000000000000D+00  6 22 -2 9900012 11 -1 21 2 0.11212444D+00 0.98384967D-02 0.24313172D+05 0.24313172D+05 0.24313172D+05 0.11712668D+01  1  2  4  1  6  2       -2 -.916183217292D-05 0.100000000000D+01
-.349595361613D-05 0.000000000000D+00 -.393663314253D-06 0.578955530760D-06 0.000000000000D+00  6 22 -2 9900012 11 -1 21 2 0.11212444D+00 0.12928835D-01 0.24313172D+05 0.24313172D+05 0.24313172D+05 0.11712668D+01  1  2  5  1  6  2       -2 -.179962417023D-04 0.100000000000D+01
0.348683337165D-05 0.000000000000D+00 0.379419904455D-06 0.578955530760D-06 0.000000000000D+00  6 22 -2 9900012 11 -1 21 2 0.11212444D+00 0.98384967D-02 0.24313172D+05 0.24313172D+05 0.24313172D+05 0.11712668D+01  1  2  6  1  6  2       -2 0.274142816042D-04 0.100000000000D+01
0.108392677573D-06 0.000000000000D+00 0.000000000000D+00 0.578955530760D-06 0.000000000000D+00  6 22 21 9900012 11 2 -1 2 0.11212444D+00 0.12963694D-01 0.29391262D+05 0.29391262D+05 0.29391262D+05 0.11636055D+01  3  4 12  3  5  2       -2 0.772775534149D-05 0.100000000000D+01
-.118638502410D-06 0.000000000000D+00 -.142168003110D-07 0.578955530760D-06 0.000000000000D+00  6 22 21 9900012 11 2 -1 2 0.11212444D+00 0.12928835D-01 0.24313172D+05 0.24313172D+05 0.24313172D+05 0.11712668D+01  3  4  5  3  5  2       -2 -.853203675851D-05 0.100000000000D+01
  </mgrwgt>
  </event>
  <event>
  6     66 0.64871765E-06 0.47767533E+02 0.78161638E-02 0.11875662E+00
       22 -1    0    0    0    0 0.00000000E+00 0.00000000E+00 0.53472462E+02 0.53472462E+02 0.00000000E+00 0.0000E+00 0.9000E+01
       -4 -1    0    0    0  501 0.00000000E+00 0.00000000E+00 -.14500458E+03 0.14500458E+03 0.00000000E+00 0.0000E+00 0.9000E+01
      -24  2    1    2    0    0 0.54946922E+02 -.44313819E+01 -.65950811E+01 0.97219441E+02 0.79808039E+02 0.0000E+00 0.0000E+00
  9900012  1    3    3    0    0 0.14559410E+02 0.10782493E+02 -.92509459E+01 0.53979798E+02 0.50000000E+02 0.0000E+00 0.9000E+01
       11  1    3    3    0    0 0.40387512E+02 -.15213875E+02 0.26558648E+01 0.43239643E+02 0.00000000E+00 0.0000E+00 0.9000E+01
       -3  1    1    2    0  501 -.54946922E+02 0.44313819E+01 -.84937034E+02 0.10125760E+03 0.00000000E+00 0.0000E+00 0.9000E+01
#aMCatNLO 1  0  0  2  5 0.26373017D+02 0.00000000D+00  -5  6  0 0.00000000D+00 0.00000000D+00 0.00000000D+00 0.00000000D+00 0.00000000D+00
  <mgrwgt>
 0.1410940036D-04    9    4    0
 0.880553900220028D+02 0.000000000000000D+00 0.000000000000000D+00 0.880553900220028D+02
 0.880553900220028D+02 0.000000000000000D+00 0.000000000000000D+00 -.880553900220028D+02
 0.560271881201109D+02 0.145594104573956D+02 0.107824928758323D+02 0.176297255554930D+02
 0.501114877857268D+02 0.403875118177238D+02 -.152138748246739D+02 0.254666077460548D+02
 0.699721041381680D+02 -.549469222751194D+02 0.443138194884167D+01 -.430963333015478D+02
 0.000000000000000D+00 -.000000000000000D+00 0.000000000000000D+00 -.000000000000000D+00
 0.956738928679135D+02 0.000000000000000D+00 0.000000000000000D+00 0.956738928679135D+02
 0.106110345538448D+03 0.000000000000000D+00 0.000000000000000D+00 -.106110345538448D+03
 0.554849701046523D+02 0.158715378232253D+02 0.398358776457789D+01 0.176297255554930D+02
 0.533159195056782D+02 0.416045085438595D+02 -.215198520317509D+02 0.254666077460548D+02
 0.686732449857568D+02 -.533155274601806D+02 -.402183595866512D+01 -.430963333015478D+02
 0.243101038102738D+02 -.416051890690423D+01 0.215581002258382D+02 -.104364526705341D+02
 0.880553900220028D+02 0.000000000000000D+00 0.000000000000000D+00 0.880553900220028D+02
 0.880553900220028D+02 0.000000000000000D+00 0.000000000000000D+00 -.880553900220028D+02
 0.560271881201109D+02 0.145594104573956D+02 0.107824928758323D+02 0.176297255554930D+02
 0.501114877857268D+02 0.403875118177238D+02 -.152138748246739D+02 0.254666077460548D+02
 0.000000000000000D+00 -.000000000000000D+00 0.000000000000000D+00 -.000000000000000D+00
 0.699721041381680D+02 -.549469222751194D+02 0.443138194884167D+01 -.430963333015478D+02
 0.956738928679135D+02 0.000000000000000D+00 0.000000000000000D+00 0.956738928679135D+02
 0.106110345538448D+03 0.000000000000000D+00 0.000000000000000D+00 -.106110345538448D+03
 0.554849701046523D+02 0.158715378232253D+02 0.398358776457789D+01 0.176297255554930D+02
 0.533159195056782D+02 0.416045085438595D+02 -.215198520317509D+02 0.254666077460548D+02
 0.243101038102738D+02 -.416051890690423D+01 0.215581002258382D+02 -.104364526705341D+02
 0.686732449857568D+02 -.533155274601806D+02 -.402183595866512D+01 -.430963333015478D+02
0.146294753998D-06 0.000000000000D+00 0.000000000000D+00 0.476010667588D-06 0.000000000000D+00  6 22 -4 9900012 11 -3 21 0 0.82265326D-02 0.22308396D-01 0.57353746D+04 0.57353746D+04 0.57353746D+04 0.12351931D+01  1  2  2  1  6  2       -4 0.779001838723D-05 0.100000000000D+01
-.260239943292D-09 0.000000000000D+00 -.280905187824D-09 0.476010667588D-06 0.000000000000D+00  6 22 -4 9900012 11 -3 21 2 0.82265326D-02 0.22308396D-01 0.57353746D+04 0.57353746D+04 0.57353746D+04 0.12351931D+01  1  2  3  1  6  2       -4 -.211423584654D-07 0.100000000000D+01
-.194064180078D-07 0.000000000000D+00 0.000000000000D+00 0.476010667588D-06 0.000000000000D+00  6 22 -4 9900012 11 -3 21 2 0.82265326D-02 0.22308396D-01 0.57353746D+04 0.57353746D+04 0.57353746D+04 0.12351931D+01  1  2 15  1  6  2       -4 -.157661210981D-05 0.100000000000D+01
0.110444266381D-06 0.000000000000D+00 0.000000000000D+00 0.476010667588D-06 0.000000000000D+00  6 22 -4 9900012 11 -3 21 2 0.82265326D-02 0.29208391D-01 0.76451522D+04 0.76451522D+04 0.76451522D+04 0.12216136D+01  1  2 12  1  6  2       -4 0.552048196215D-05 0.100000000000D+01
-.309299712347D-07 0.000000000000D+00 0.000000000000D+00 0.476010667588D-06 0.000000000000D+00  6 22 -4 9900012 11 -3 21 2 0.82265326D-02 0.22308396D-01 0.57353746D+04 0.57353746D+04 0.57353746D+04 0.12351931D+01  1  2  4  1  6  2       -4 -.251280618531D-05 0.100000000000D+01
-.245410425631D-06 0.000000000000D+00 -.751270524819D-07 0.476010667588D-06 0.000000000000D+00  6 22 -4 9900012 11 -3 21 2 0.82265326D-02 0.29018020D-01 0.57353746D+04 0.57353746D+04 0.57353746D+04 0.12351931D+01  1  2  5  1  6  2       -4 -.122867840682D-04 0.100000000000D+01
0.258694574980D-06 0.000000000000D+00 0.726025150930D-07 0.476010667588D-06 0.000000000000D+00  6 22 -4 9900012 11 -3 21 2 0.82265326D-02 0.22308396D-01 0.57353746D+04 0.57353746D+04 0.57353746D+04 0.12351931D+01  1  2  6  1  6  2       -4 0.210168099797D-04 0.100000000000D+01
0.394949350186D-08 0.000000000000D+00 0.000000000000D+00 0.476010667588D-06 0.000000000000D+00  6 22 21 9900012 11 4 -3 2 0.82265326D-02 0.29208391D-01 0.76451522D+04 0.76451522D+04 0.76451522D+04 0.12216136D+01  3  4 12  3  5  2       -4 0.441539601899D-05 0.100000000000D+01
-.725273290174D-08 0.000000000000D+00 -.263872339613D-08 0.476010667588D-06 0.000000000000D+00  6 22 21 9900012 11 4 -3 2 0.82265326D-02 0.29018020D-01 0.57353746D+04 0.57353746D+04 0.57353746D+04 0.12351931D+01  3  4  5  3  5  2       -4 -.823596126819D-05 0.100000000000D+01
  </mgrwgt>
  </event>
  <event>
  6     66 0.64871765E-06 0.95187186E+02 0.78161638E-02 0.11211359E+00
       22 -1    0    0    0    0 0.00000000E+00 0.00000000E+00 0.18086724E+03 0.18086724E+03 0.00000000E+00 0.0000E+00 0.9000E+01
       -2 -1    0    0    0  501 -.00000000E+00 -.00000000E+00 -.12767212E+04 0.12767212E+04 0.00000000E+00 0.0000E+00 0.9000E+01
      -24  2    1    2    0    0 0.86308837E+01 -.94795086E+02 0.15747158E+03 0.20065347E+03 0.80024455E+02 0.0000E+00 0.0000E+00
  9900012  1    3    3    0    0 0.25804275E+02 -.46465532E+02 0.88605145E+02 0.11478579E+03 0.50000000E+02 0.0000E+00 0.9000E+01
       11  1    3    3    0    0 -.17173392E+02 -.48329553E+02 0.68866440E+02 0.85867675E+02 0.00000000E+00 0.0000E+00 0.9000E+01
       -1  1    1    2    0  501 -.86308837E+01 0.94795086E+02 -.12533255E+04 0.12569349E+04 0.00000000E+00 0.0000E+00 0.9000E+01
#aMCatNLO 1  0  0  5  5 0.57192940D+02 0.00000000D+00  -5  6  0 0.00000000D+00 0.00000000D+00 0.00000000D+00 0.00000000D+00 0.00000000D+00
  <mgrwgt>
 0.3026873242D-04    6    2    0
 0.480538271739953D+03 0.000000000000000D+00 0.000000000000000D+00 0.480538271739953D+03
 0.480538271739953D+03 -.000000000000000D+00 -.000000000000000D+00 -.480538271739953D+03
 0.275117248005300D+03 0.258042752207147D+02 -.464655323068136D+02 0.265263253840006D+03
 0.208752659213471D+03 -.171733915679338D+02 -.483295533887870D+02 0.202353654822418D+03
 0.477206636261134D+03 -.863088365278084D+01 0.947950856956006D+02 -.467616908662425D+03
 0.000000000000000D+00 -.000000000000000D+00 0.000000000000000D+00 0.000000000000000D+00
 0.480538271739953D+03 0.000000000000000D+00 0.000000000000000D+00 0.480538271739953D+03
 0.480538271739953D+03 -.000000000000000D+00 -.000000000000000D+00 -.480538271739953D+03
 0.269650880468650D+03 0.257033547875301D+02 -.453570987446154D+02 0.259795435840694D+03
 0.204543679221316D+03 -.172499563361872D+02 -.474886239938570D+02 0.198205414423931D+03
 0.375989545102970D+03 0.446622205172031D+02 0.518530542832576D+02 -.369708919079198D+03
 0.110892438686969D+03 -.531156189685460D+02 0.409926684552147D+02 -.882919311854274D+02
0.125858285904D-03 0.000000000000D+00 0.000000000000D+00 0.317598478093D-03 0.000000000000D+00  6 22 -2 9900012 11 -1 21 0 0.27825729D-01 0.19641864D+00 0.12039489D+05 0.12039489D+05 0.12039489D+05 0.12010642D+01  1  2  2  2  6  5       -1 0.195982787391D-04 0.100000000000D+01
0.236534448942D-05 0.000000000000D+00 -.241664478560D-06 0.317598478093D-03 0.000000000000D+00  6 22 -2 9900012 11 -1 21 2 0.27825729D-01 0.19641864D+00 0.12039489D+05 0.12039489D+05 0.12039489D+05 0.12010642D+01  1  2  3  2  6  5       -1 0.531328334301D-06 0.100000000000D+01
-.183750375265D-04 0.000000000000D+00 0.000000000000D+00 0.317598478093D-03 0.000000000000D+00  6 22 -2 9900012 11 -1 21 2 0.27825729D-01 0.19641864D+00 0.12039489D+05 0.12039489D+05 0.12039489D+05 0.12010642D+01  1  2 15  2  6  5       -1 -.412759246077D-05 0.100000000000D+01
-.158554620274D-04 0.000000000000D+00 0.000000000000D+00 0.317598478093D-03 0.000000000000D+00  6 22 -2 9900012 11 -1 21 2 0.27825729D-01 0.19641864D+00 0.12039489D+05 0.12039489D+05 0.12039489D+05 0.12010642D+01  1  2  4  2  6  5       -1 -.356161914945D-05 0.100000000000D+01
-.307077369206D-03 0.000000000000D+00 0.000000000000D+00 0.317598478093D-03 0.000000000000D+00  6 22 -2 9900012 11 -1 21 2 0.27825729D-01 0.19641864D+00 0.12039489D+05 0.12039489D+05 0.12039489D+05 0.12010642D+01  1  2  5  2  6  5       -1 -.689789194813D-04 0.100000000000D+01
0.386444788267D-03 0.000000000000D+00 -.000000000000D+00 0.317598478093D-03 0.000000000000D+00  6 22 -2 9900012 11 -1 21 2 0.27825729D-01 0.19641864D+00 0.12039489D+05 0.12039489D+05 0.12039489D+05 0.12010642D+01  1  2  6  2  6  5       -1 0.868072564344D-04 0.100000000000D+01
  </mgrwgt>
  </event>
  <event>
  7     66 -.64871765E-06 0.67293920E+02 0.78161638E-02 0.11931548E+00
       22 -1    0    0    0    0 0.00000000E+00 0.00000000E+00 0.14546706E+03 0.14546706E+03 0.00000000E+00 0.0000E+00 0.9000E+01
       -4 -1    0    0    0  502 0.00000000E+00 0.00000000E+00 -.11523723E+03 0.11523723E+03 0.00000000E+00 0.0000E+00 0.9000E+01
      -24  2    1    2    0    0 -.60534632E+02 0.17455032E+02 0.10307532E+03 0.14508619E+03 0.80351478E+02 0.0000E+00 0.0000E+00
  9900012  1    3    3    0    0 -.36140318E+02 0.12817148E+02 0.33819501E+02 0.71513359E+02 0.50000000E+02 0.0000E+00 0.9000E+01
       11  1    3    3    0    0 -.24394314E+02 0.46378841E+01 0.69255818E+02 0.73572827E+02 0.00000000E+00 0.0000E+00 0.9000E+01
       -3  1    1    2    0  501 0.70132404E+02 -.16753111E+02 -.42310651E+02 0.83602703E+02 0.00000000E+00 0.0000E+00 0.9000E+01
       21  1    1    2  501  502 -.95977715E+01 -.70192065E+00 -.30534837E+02 0.32015405E+02 0.00000000E+00 0.0000E+00 0.9000E+01
#aMCatNLO 2  0  0  2  5 0.97132102D+01 0.00000000D+00  -5  6  0 0.00000000D+00 0.00000000D+00 0.00000000D+00 0.00000000D+00 0.00000000D+00
  <mgrwgt>
 -.2068511487D-04    2    2    0
 0.110129075542295D+03 0.000000000000000D+00 0.000000000000000D+00 0.110129075542295D+03
 0.110129075542295D+03 0.000000000000000D+00 0.000000000000000D+00 -.110129075542295D+03
 0.664545201511681D+02 -.389999465032635D+02 0.126080126675760D+02 0.153702777411090D+02
 0.583309029769411D+02 -.269108616770656D+02 0.445383963210251D+01 0.515602858645554D+02
 0.954727279564802D+02 0.659108081803291D+02 -.170618522996785D+02 -.669305636056644D+02
 0.000000000000000D+00 -.000000000000000D+00 -.000000000000000D+00 -.000000000000000D+00
 0.110797993363248D+03 0.000000000000000D+00 0.000000000000000D+00 0.110797993363248D+03
 0.151295353334831D+03 0.000000000000000D+00 0.000000000000000D+00 -.151295353334831D+03
 0.648586715944567D+02 -.361403176794032D+02 0.128171479351130D+02 0.153702777411090D+02
 0.572281016649750D+02 -.243943143588740D+02 0.463788407600662D+01 0.515602858645554D+02
 0.983815079729441D+02 0.701324035381288D+02 -.167531113654636D+02 -.669305636056644D+02
 0.416250654657032D+02 -.959777149985165D+01 -.701920645655968D+00 -.404973599715822D+02
-.161025680559D-05 0.000000000000D+00 0.000000000000D+00 0.111106453578D-05 0.000000000000D+00  6 22 -4 9900012 11 -3 21 2 0.22244437D-01 0.17836489D-01 0.71886177D+04 0.71886177D+04 0.71886177D+04 0.12244846D+01  1  2 13  1  6  2       -4 -.467405046149D-04 0.100000000000D+01
0.896306550123D-06 0.000000000000D+00 0.000000000000D+00 0.111106453578D-05 0.565161784233D-07  6 22 -4 9900012 11 -3 21 2 0.22379548D-01 0.17728805D-01 0.71886177D+04 0.71886177D+04 0.71886177D+04 0.12244846D+01  1  2  1  1  6  2       -4 0.260553897400D-04 0.100000000000D+01
  </mgrwgt>
  </event>
  <event>
  7     66 0.64871765E-06 0.13418314E+02 0.78161638E-02 0.12558356E+00
       22 -1    0    0    0    0 0.00000000E+00 0.00000000E+00 0.55744245E+03 0.55744245E+03 0.00000000E+00 0.0000E+00 0.9000E+01
       21 -1    0    0  502  501 0.00000000E+00 0.00000000E+00 -.79744513E+02 0.79744513E+02 0.00000000E+00 0.0000E+00 0.9000E+01
      -24  2    1    2    0    0 -.56808826E+00 -.34058051E+02 0.48684656E+03 0.49500306E+03 0.82753767E+02 0.0000E+00 0.0000E+00
  9900012  1    3    3    0    0 0.22686358E+02 -.12269856E+02 0.35016670E+03 0.35465749E+03 0.50000000E+02 0.0000E+00 0.9000E+01
       11  1    3    3    0    0 -.23254446E+02 -.21788195E+02 0.13667986E+03 0.14034557E+03 0.00000000E+00 0.0000E+00 0.9000E+01
        2  1    1    2  502    0 -.15575409E+01 0.13804788E+02 -.73440985E+02 0.74743403E+02 0.00000000E+00 0.0000E+00 0.9000E+01
       -1  1    1    2    0  501 0.21256292E+01 0.20253263E+02 0.64292363E+02 0.67440499E+02 0.00000000E+00 0.0000E+00 0.9000E+01
#aMCatNLO 2  0  0  2  5 0.13901107D+02 0.00000000D+00  -5  6  0 0.00000000D+00 0.00000000D+00 0.00000000D+00 0.00000000D+00 0.00000000D+00
  <mgrwgt>
 0.2373095547D-02    2    2    0
 0.556678764387978D+02 0.000000000000000D+00 0.000000000000000D+00 0.556678764387978D+02
 0.556678764387978D+02 0.000000000000000D+00 0.000000000000000D+00 -.556678764387978D+02
 0.564024437585046D+02 0.218906694744785D+02 -.521751590610763D+01 0.132216405812563D+02
 0.300200908111762D+02 -.236876126425373D+02 -.179489548319778D+02 -.423531345333456D+01
 0.000000000000000D+00 -.000000000000000D+00 0.000000000000000D+00 -.000000000000000D+00
 0.249132183079148D+02 0.179694316805876D+01 0.231664707380854D+02 -.898632712792174D+01
 0.561651848192922D+02 0.000000000000000D+00 0.000000000000000D+00 0.561651848192922D+02
 0.791468543011345D+03 0.000000000000000D+00 0.000000000000000D+00 -.791468543011345D+03
 0.577930096534867D+02 0.226863577388627D+02 -.122698556508391D+02 0.132216405812563D+02
 0.321470462077887D+02 -.232544459981711D+02 -.217881949953605D+02 -.423531345333456D+01
 0.735434583547425D+03 -.155754094437967D+01 0.138047881284221D+02 -.735303358192053D+03
 0.222590884219369D+02 0.212562920368802D+01 0.202532625177776D+02 -.898632712792174D+01
-.131900873046D-04 0.000000000000D+00 0.000000000000D+00 0.778079086874D-08 0.000000000000D+00  6 22 21 9900012 11 2 -1 2 0.85001021D-01 0.12377986D-01 0.37444606D+04 0.37444606D+04 0.37444606D+04 0.12562363D+01  1  2 13  3  5  2       -2 -.179259460198D-02 0.100000000000D+01
0.307001184662D-04 0.000000000000D+00 0.000000000000D+00 0.778079086874D-08 0.170313611427D-08  6 22 21 9900012 11 2 -1 2 0.85760377D-01 0.12268387D-01 0.37444606D+04 0.37444606D+04 0.37444606D+04 0.12562363D+01  1  2  1  3  5  2       -2 0.416569014894D-02 0.100000000000D+01
  </mgrwgt>
  </event>
  <event>
  7     66 -.64871765E-06 0.39664668E+02 0.78161638E-02 0.12262347E+00
       22 -1    0    0    0    0 0.00000000E+00 0.00000000E+00 0.32902926E+03 0.32902926E+03 0.00000000E+00 0.0000E+00 0.9000E+01
       -4 -1    0    0    0  501 0.00000000E+00 0.00000000E+00 -.28256272E+03 0.28256272E+03 0.00000000E+00 0.0000E+00 0.9000E+01
      -24  2    1    2    0    0 -.29934417E+02 0.36966924E+02 0.31866137E+03 0.33216499E+03 0.80782983E+02 0.0000E+00 0.0000E+00
  9900012  1    3    3    0    0 -.30672924E+01 0.32625455E+02 0.15266777E+03 0.16395511E+03 0.50000000E+02 0.0000E+00 0.9000E+01
       11  1    3    3    0    0 -.26867125E+02 0.43414691E+01 0.16599360E+03 0.16820989E+03 0.00000000E+00 0.0000E+00 0.9000E+01
       -3  1    1    2    0  502 0.35022137E+02 -.27981476E+02 -.14398106E+03 0.15079807E+03 0.00000000E+00 0.0000E+00 0.9000E+01
       21  1    1    2  502  501 -.50877194E+01 -.89854478E+01 -.12821378E+03 0.12862891E+03 0.00000000E+00 0.0000E+00 0.9000E+01
#aMCatNLO 2  0  0  5  2 0.20714224D+02 0.00000000D+00  -5  6  0 0.00000000D+00 0.00000000D+00 0.00000000D+00 0.00000000D+00 0.00000000D+00
  <mgrwgt>
 -.5780686543D-04    2    2    0
 0.304912122615658D+03 0.000000000000000D+00 0.000000000000000D+00 0.304912122615658D+03
 0.304912122615658D+03 -.000000000000000D+00 -.000000000000000D+00 -.304912122615658D+03
 0.153477646482594D+03 -.314015094251382D+01 0.327154301084130D+02 0.141333747048310D+03
 0.156785108256232D+03 -.269415438657160D+02 0.443337117172007D+01 0.154389340969848D+03
 0.299561490492489D+03 0.300816948082299D+02 -.371488012801330D+02 -.295723088018158D+03
 0.000000000000000D+00 0.000000000000000D+00 0.000000000000000D+00 -.000000000000000D+00
 0.304912122615658D+03 0.000000000000000D+00 0.000000000000000D+00 0.304912122615658D+03
 0.304912122615658D+03 -.000000000000000D+00 -.000000000000000D+00 -.304912122615658D+03
 0.152797610330196D+03 -.306729243166965D+01 0.326254549139244D+02 0.140617499378337D+03
 0.156049338890131D+03 -.268671250171384D+02 0.434146906863269D+01 0.153657754141099D+03
 0.162206065550465D+03 0.350221368902316D+02 -.279814761792771D+02 -.155888725120941D+03
 0.138771230460523D+03 -.508771944142357D+01 -.898544780328001D+01 -.138386528398495D+03
-.506171706646D-04 0.000000000000D+00 0.000000000000D+00 0.113748244947D-03 0.000000000000D+00  6 22 -4 9900012 11 -3 21 2 0.50619885D-01 0.43471188D-01 0.50516971D+04 0.50516971D+04 0.50516971D+04 0.12413428D+01  1  2 13  2  6  5       -3 -.751076031117D-04 0.100000000000D+01
0.116594639617D-04 0.000000000000D+00 0.000000000000D+00 0.113748244947D-03 0.346037950847D-05  6 22 -4 9900012 11 -3 21 2 0.50619885D-01 0.43471188D-01 0.50516971D+04 0.50516971D+04 0.50516971D+04 0.12413428D+01  1  2  1  2  6  5       -3 0.173007376792D-04 0.100000000000D+01
  </mgrwgt>
  </event>
  <event>
  7     66 -.64871765E-06 0.20635685E+02 0.78161638E-02 0.12738809E+00
       22 -1    0    0    0    0 0.00000000E+00 0.00000000E+00 0.18501454E+03 0.18501454E+03 0.00000000E+00 0.0000E+00 0.9000E+01
       -2 -1    0    0    0  502 0.00000000E+00 0.00000000E+00 -.23282399E+02 0.23282399E+02 0.00000000E+00 0.0000E+00 0.9000E+01
      -24  2    1    2    0    0 -.22099736E+01 0.30437207E+02 0.15293615E+03 0.17259280E+03 0.73942546E+02 0.0000E+00 0.0000E+00
  9900012  1    3    3    0    0 -.77448620E+01 0.16820246E+01 0.93007442E+02 0.10589238E+03 0.50000000E+02 0.0000E+00 0.9000E+01
       11  1    3    3    0    0 0.55348883E+01 0.28755182E+02 0.59928709E+02 0.66700417E+02 0.00000000E+00 0.0000E+00 0.9000E+01
       -1  1    1    2    0  501 -.25189750E+01 -.24357097E+02 0.65364013E+00 0.24495728E+02 0.00000000E+00 0.0000E+00 0.9000E+01
       21  1    1    2  501  502 0.47289487E+01 -.60801093E+01 0.81423534E+01 0.11208417E+02 0.00000000E+00 0.0000E+00 0.9000E+01
#aMCatNLO 2  0  0  2  5 0.10317563D+02 0.00000000D+00  -5  6  0 0.00000000D+00 0.00000000D+00 0.00000000D+00 0.00000000D+00 0.00000000D+00
  <mgrwgt>
 -.3525823797D-04    2    2    0
 0.616334575082754D+02 0.000000000000000D+00 0.000000000000000D+00 0.616334575082754D+02
 0.616334575082754D+02 0.000000000000000D+00 0.000000000000000D+00 -.616334575082754D+02
 0.530420326161403D+02 -.570667643634239D+01 -.938513637940350D+00 0.167335071116005D+02
 0.307689092410841D+02 0.673605890157566D+01 0.272108115990893D+02 0.126855436808771D+02
 0.394559731593265D+02 -.102938246523326D+01 -.262722979611489D+02 -.294190507924776D+02
 0.000000000000000D+00 0.000000000000000D+00 -.000000000000000D+00 -.000000000000000D+00
 0.651612974647982D+02 0.000000000000000D+00 0.000000000000000D+00 0.651612974647982D+02
 0.661064553221675D+02 0.000000000000000D+00 0.000000000000000D+00 -.661064553221675D+02
 0.533181240685300D+02 -.774486198361145D+01 0.168202460980437D+01 0.167335071116005D+02
 0.319126698672888D+02 0.553488834484686D+01 0.287551819780227D+02 0.126855436808771D+02
 0.382765460149334D+02 -.251897501635656D+01 -.243570973264449D+02 -.294190507924776D+02
 0.776041283621334D+01 0.472894865512115D+01 -.608010926138220D+01 -.945157857369332D+00
-.107722610890D-06 0.000000000000D+00 0.000000000000D+00 0.656868755249D-08 0.000000000000D+00  6 22 -2 9900012 11 -1 21 2 0.26922744D-01 0.37869325D-02 0.31414285D+04 0.31414285D+04 0.31414285D+04 0.12652296D+01  1  2 13  1  6  2       -2 -.387895298821D-04 0.100000000000D+01
0.985614093619D-08 0.000000000000D+00 0.000000000000D+00 0.656868755249D-08 0.351275248077D-09  6 22 -2 9900012 11 -1 21 2 0.28463776D-01 0.35819075D-02 0.31414285D+04 0.31414285D+04 0.31414285D+04 0.12652296D+01  1  2  1  1  6  2       -2 0.353129191662D-05 0.100000000000D+01
  </mgrwgt>
  </event>
  <event>
  6     66 0.64871765E-06 0.82967807E+02 0.78161638E-02 0.11766372E+00
       22 -1    0    0    0    0 0.00000000E+00 0.00000000E+00 0.97824439E+03 0.97824439E+03 0.00000000E+00 0.0000E+00 0.9000E+01
       -4 -1    0    0    0  501 0.00000000E+00 0.00000000E+00 -.22223101E+02 0.22223101E+02 0.00000000E+00 0.0000E+00 0.9000E+01
      -24  2    1    2    0    0 -.26726043E+02 0.78545374E+02 0.88112753E+03 0.88869660E+03 0.80698595E+02 0.0000E+00 0.0000E+00
  9900012  1    3    3    0    0 -.15482900E+02 0.50651099E+02 0.39635027E+03 0.40298733E+03 0.50000000E+02 0.0000E+00 0.9000E+01
       11  1    3    3    0    0 -.11243143E+02 0.27894274E+02 0.48477726E+03 0.48570927E+03 0.00000000E+00 0.0000E+00 0.9000E+01
       -3  1    1    2    0  501 0.26726043E+02 -.78545374E+02 0.74893754E+02 0.11177089E+03 0.00000000E+00 0.0000E+00 0.9000E+01
#aMCatNLO 1  0  0  5  2 0.85590975D+02 0.00000000D+00  -5  6  0 0.00000000D+00 0.00000000D+00 0.00000000D+00 0.00000000D+00 0.00000000D+00
  <mgrwgt>
 0.5056210691D-04    3    2    0
 0.147443630401708D+03 0.000000000000000D+00 0.000000000000000D+00 0.147443630401708D+03
 0.147443630401708D+03 -.000000000000000D+00 -.000000000000000D+00 -.147443630401708D+03
 0.822566223784206D+02 -.154828996890767D+02 0.506510991230227D+02 0.382216941010442D+02
 0.762289620824246D+02 -.112431429884835D+02 0.278942744021683D+02 0.700453842268053D+02
 0.136401676342570D+03 0.267260426775602D+02 -.785453735251910D+02 -.108267078327850D+03
 0.000000000000000D+00 0.000000000000000D+00 0.000000000000000D+00 0.000000000000000D+00
 0.147443630401708D+03 0.000000000000000D+00 0.000000000000000D+00 0.147443630401708D+03
 0.147443630401708D+03 -.000000000000000D+00 -.000000000000000D+00 -.147443630401708D+03
 0.603863451399892D+02 -.874146485772864D+01 0.308386441586912D+02 0.109121720093030D+02
 0.478133597146205D+02 -.538079138943991D+01 0.106653639481153D+02 0.462970243436580D+02
 0.831446205901203D+02 -.837903022763266D+01 0.595642590881052D+02 -.574013834746564D+02
 0.103542935358685D+03 0.225012864748012D+02 -.101068267194912D+03 0.192187121695291D+00
0.654313042369D-05 0.000000000000D+00 0.000000000000D+00 0.215511966460D-05 0.000000000000D+00  6 22 -4 9900012 11 -3 21 0 0.15049914D+00 0.34189387D-02 0.86378314D+04 0.86378314D+04 0.86378314D+04 0.12159794D+01  1  2  2  2  6  5       -3 0.642449294839D-04 0.100000000000D+01
-.129915820324D-07 0.000000000000D+00 -.125636718364D-07 0.215511966460D-05 0.000000000000D+00  6 22 -4 9900012 11 -3 21 2 0.15049914D+00 0.34189387D-02 0.86378314D+04 0.86378314D+04 0.86378314D+04 0.12159794D+01  1  2  3  2  6  5       -3 -.188611318527D-06 0.100000000000D+01
-.929483733173D-06 0.000000000000D+00 0.000000000000D+00 0.215511966460D-05 0.000000000000D+00  6 22 -4 9900012 11 -3 21 2 0.15049914D+00 0.34189387D-02 0.86378314D+04 0.86378314D+04 0.86378314D+04 0.12159794D+01  1  2 15  2  6  5       -3 -.134942112536D-04 0.100000000000D+01
  </mgrwgt>
  </event>
  <event>
  6     66 0.64871765E-06 0.32152765E+02 0.78161638E-02 0.12464687E+00
       22 -1    0    0    0    0 0.00000000E+00 0.00000000E+00 0.25126653E+03 0.25126653E+03 0.00000000E+00 0.0000E+00 0.9000E+01
       -4 -1    0    0    0  501 0.00000000E+00 0.00000000E+00 -.23894419E+03 0.23894419E+03 0.00000000E+00 0.0000E+00 0.9000E+01
      -24  2    1    2    0    0 0.26077965E+02 -.18807977E+02 0.24304542E+03 0.25725807E+03 0.77954095E+02 0.0000E+00 0.0000E+00
  9900012  1    3    3    0    0 0.17001222E+01 -.14077164E+02 0.20741968E+03 0.21383166E+03 0.50000000E+02 0.0000E+00 0.9000E+01
       11  1    3    3    0    0 0.24377843E+02 -.47308125E+01 0.35625738E+02 0.43426410E+02 0.00000000E+00 0.0000E+00 0.9000E+01
       -3  1    1    2    0  501 -.26077965E+02 0.18807977E+02 -.23072307E+03 0.23295265E+03 0.00000000E+00 0.0000E+00 0.9000E+01
#aMCatNLO 1  0  0  5  5 0.65438040D+02 0.00000000D+00  -5  6  0 0.00000000D+00 0.00000000D+00 0.00000000D+00 0.00000000D+00 0.00000000D+00
  <mgrwgt>
 0.4128770390D-04    4    2    0
 0.245027912379537D+03 0.000000000000000D+00 0.000000000000000D+00 0.245027912379537D+03
 0.245027912379537D+03 -.000000000000000D+00 -.000000000000000D+00 -.245027912379537D+03
 0.208683729743625D+03 0.170012223025813D+01 -.140771644187337D+02 0.202108490880617D+03
 0.425443343371977D+02 0.243778430428040D+02 -.473081253457108D+01 0.345450512452712D+02
 0.238827760678252D+03 -.260779652730622D+02 0.188079769533048D+02 -.236653542125888D+03
 0.000000000000000D+00 0.000000000000000D+00 0.000000000000000D+00 0.000000000000000D+00
 0.245027912379537D+03 0.000000000000000D+00 0.000000000000000D+00 0.245027912379537D+03
 0.245027912379537D+03 -.000000000000000D+00 -.000000000000000D+00 -.245027912379537D+03
 0.181637128319668D+03 -.137402517461132D+01 -.118600246635255D+02 0.174211073855871D+03
 0.375854029979773D+02 0.237467452703097D+02 -.427565154957600D+01 0.288179355855688D+02
 0.226656286283830D+03 0.138470108872878D+02 0.589475555100954D+01 -.226156105949981D+03
 0.441770071575987D+02 -.362197309829862D+02 0.102409206620919D+02 0.231270965085411D+02
0.237790612534D-04 0.000000000000D+00 0.000000000000D+00 0.211155849376D-04 0.000000000000D+00  6 22 -4 9900012 11 -3 21 0 0.38656390D-01 0.36760644D-01 0.29679121D+04 0.29679121D+04 0.29679121D+04 0.12681844D+01  1  2  2  2  6  5       -3 0.472897716216D-04 0.100000000000D+01
0.162929840501D-05 0.000000000000D+00 -.456589281919D-07 0.211155849376D-04 0.000000000000D+00  6 22 -4 9900012 11 -3 21 2 0.38656390D-01 0.36760644D-01 0.29679121D+04 0.29679121D+04 0.29679121D+04 0.12681844D+01  1  2  3  2  6  5       -3 0.521120288637D-05 0.100000000000D+01
-.346785262321D-05 0.000000000000D+00 0.000000000000D+00 0.211155849376D-04 0.000000000000D+00  6 22 -4 9900012 11 -3 21 2 0.38656390D-01 0.36760644D-01 0.29679121D+04 0.29679121D+04 0.29679121D+04 0.12681844D+01  1  2 15  2  6  5       -3 -.110916966125D-04 0.100000000000D+01
-.380104783119D-07 0.000000000000D+00 0.000000000000D+00 0.211155849376D-04 0.000000000000D+00  6 22 -4 9900012 11 -3 21 2 0.38656390D-01 0.36760644D-01 0.29679121D+04 0.29679121D+04 0.29679121D+04 0.12681844D+01  1  2  4  2  6  5       -3 -.121573993863D-06 0.100000000000D+01
  </mgrwgt>
  </event>
  <event>
  6     66 -.64871765E-06 0.34736807E+02 0.78161638E-02 0.12425044E+00
       22 -1    0    0    0    0 0.00000000E+00 0.00000000E+00 0.47688423E+03 0.47688423E+03 0.00000000E+00 0.0000E+00 0.9000E+01
       -2 -1    0    0    0  501 0.00000000E+00 0.00000000E+00 -.11836321E+02 0.11836321E+02 0.00000000E+00 0.0000E+00 0.9000E+01
      -24  2    1    2    0    0 -.23005879E+02 0.32405659E+02 0.40998920E+03 0.42081725E+03 0.86119774E+02 0.0000E+00 0.0000E+00
  9900012  1    3    3    0    0 0.14055876E+01 -.15678884E+01 0.17015028E+03 0.17735713E+03 0.50000000E+02 0.0000E+00 0.9000E+01
       11  1    3    3    0    0 -.24411467E+02 0.33973547E+02 0.23983892E+03 0.24346012E+03 0.00000000E+00 0.0000E+00 0.9000E+01
       -1  1    1    2    0  501 0.23005879E+02 -.32405659E+02 0.55058713E+02 0.67903307E+02 0.00000000E+00 0.0000E+00 0.9000E+01
#aMCatNLO 1  0  0  5  2 0.48285802D+01 0.00000000D+00  -5  6  0 0.00000000D+00 0.00000000D+00 0.00000000D+00 0.00000000D+00 0.00000000D+00
  <mgrwgt>
 -.6189913932D-04    8    2    0
 0.751302540500338D+02 0.000000000000000D+00 0.000000000000000D+00 0.751302540500338D+02
 0.751302540500338D+02 -.000000000000000D+00 -.000000000000000D+00 -.751302540500338D+02
 0.502463546566004D+02 0.140558762707506D+01 -.156788840431348D+01 0.450135597915764D+01
 0.495630902682406D+02 -.244114670359111D+02 0.339735474928833D+02 0.265777776505335D+02
 0.504510631752267D+02 0.230058794088360D+02 -.324056590885698D+02 -.310791336296912D+02
 0.000000000000000D+00 0.000000000000000D+00 0.000000000000000D+00 -.000000000000000D+00
 0.751302540500338D+02 0.000000000000000D+00 0.000000000000000D+00 0.751302540500338D+02
 0.751302540500338D+02 -.000000000000000D+00 -.000000000000000D+00 -.751302540500338D+02
 0.502396597174265D+02 0.156749423416974D+01 -.179594707664061D+01 0.428263288720346D+01
 0.492157473575361D+02 -.242523110921474D+02 0.337493633543912D+02 0.263627704883952D+02
 0.343280222645524D+02 0.173732428550508D+02 -.241349329715791D+02 -.171490103432359D+02
 0.164770787605528D+02 0.531157400292684D+01 -.781848330617148D+01 -.134963930323627D+02
0.692581399277D-07 0.000000000000D+00 0.000000000000D+00 0.126449740806D-07 0.000000000000D+00  6 22 -2 9900012 11 -1 21 0 0.73366805D-01 0.18209725D-02 0.43309828D+04 0.43309828D+04 0.43309828D+04 0.12489327D+01  1  2  2  2  6  5       -1 0.890589669064D-05 0.100000000000D+01
0.480491083212D-09 0.000000000000D+00 -.132984746705D-09 0.126449740806D-07 0.000000000000D+00  6 22 -2 9900012 11 -1 21 2 0.73366805D-01 0.18209725D-02 0.43309828D+04 0.43309828D+04 0.43309828D+04 0.12489327D+01  1  2  3  2  6  5       -1 0.963762913169D-07 0.100000000000D+01
-.970342501568D-08 0.000000000000D+00 0.000000000000D+00 0.126449740806D-07 0.000000000000D+00  6 22 -2 9900012 11 -1 21 2 0.73366805D-01 0.18209725D-02 0.43309828D+04 0.43309828D+04 0.43309828D+04 0.12489327D+01  1  2 15  2  6  5       -1 -.194630066771D-05 0.100000000000D+01
0.869260830633D-07 0.000000000000D+00 0.000000000000D+00 0.126449740806D-07 0.000000000000D+00  6 22 -2 9900012 11 -1 21 2 0.73366805D-01 0.18209725D-02 0.42775508D+04 0.42775508D+04 0.42775508D+04 0.12495507D+01  1  2 12  2  6  5       -1 0.174267106368D-04 0.100000000000D+01
-.878506744546D-06 0.000000000000D+00 0.000000000000D+00 0.126449740806D-07 0.000000000000D+00  6 22 -2 9900012 11 -1 21 2 0.73366805D-01 0.18209725D-02 0.43309828D+04 0.43309828D+04 0.43309828D+04 0.12489327D+01  1  2  4  2  6  5       -1 -.176209767246D-03 0.100000000000D+01
-.260747756919D-06 0.000000000000D+00 0.000000000000D+00 0.126449740806D-07 0.000000000000D+00  6 22 -2 9900012 11 -1 21 2 0.73366805D-01 0.18209725D-02 0.43309828D+04 0.43309828D+04 0.43309828D+04 0.12489327D+01  1  2  5  2  6  5       -1 -.523004539711D-04 0.100000000000D+01
0.358792479506D-06 0.000000000000D+00 -.000000000000D+00 0.126449740806D-07 0.000000000000D+00  6 22 -2 9900012 11 -1 21 2 0.73366805D-01 0.18209725D-02 0.43309828D+04 0.43309828D+04 0.43309828D+04 0.12489327D+01  1  2  6  2  6  5       -1 0.719661399251D-04 0.100000000000D+01
0.349975992756D-06 0.000000000000D+00 0.000000000000D+00 0.126449740806D-07 0.486624966981D-08  6 22 -2 9900012 11 -1 21 2 0.73366805D-01 0.18209725D-02 0.42775508D+04 0.42775508D+04 0.42775508D+04 0.12495507D+01  1  2 11  2  6  5       -1 0.701622590211D-04 0.100000000000D+01
  </mgrwgt>
  </event>
  <event>
  6     66 0.64871765E-06 0.42258487E+02 0.78161638E-02 0.11053830E+00
       22 -1    0    0    0    0 0.00000000E+00 0.00000000E+00 0.85224994E+03 0.85224994E+03 0.00000000E+00 0.0000E+00 0.9000E+01
       -4 -1    0    0    0  501 0.00000000E+00 0.00000000E+00 -.17991339E+02 0.17991339E+02 0.00000000E+00 0.0000E+00 0.9000E+01
      -24  2    1    2    0    0 0.36192875E+02 0.21814114E+02 0.81914409E+03 0.82536112E+03 0.91859511E+02 0.0000E+00 0.0000E+00
  9900012  1    3    3    0    0 0.16675271E+02 0.29627952E+01 0.24721275E+03 0.25278644E+03 0.50000000E+02 0.0000E+00 0.9000E+01
       11  1    3    3    0    0 0.19517604E+02 0.18851318E+02 0.57193134E+03 0.57257468E+03 0.00000000E+00 0.0000E+00 0.9000E+01
       -3  1    1    2    0  501 -.36192875E+02 -.21814114E+02 0.15114514E+02 0.44880155E+02 0.00000000E+00 0.0000E+00 0.9000E+01
#aMCatNLO 1  0  0  2  5 0.12374890D+03 0.00000000D+00  -5  6  0 0.00000000D+00 0.00000000D+00 0.00000000D+00 0.00000000D+00 0.00000000D+00
  <mgrwgt>
 0.4799321788D-04    3    2    0
 0.123826965076245D+03 0.000000000000000D+00 0.000000000000000D+00 0.123826965076245D+03
 0.123826965076245D+03 0.000000000000000D+00 0.000000000000000D+00 -.123826965076245D+03
 0.555042098392692D+02 0.166752709210741D+02 0.296279520924281D+01 0.171427679835694D+02
 0.853589674149613D+02 0.195176040362605D+02 0.188513184507260D+02 0.809311080086112D+02
 0.106790752898259D+03 -.361928749573346D+02 -.218141136599688D+02 -.980738759921806D+02
 0.000000000000000D+00 0.000000000000000D+00 -.000000000000000D+00 0.000000000000000D+00
 0.194350856854691D+03 0.000000000000000D+00 0.000000000000000D+00 0.194350856854691D+03
 0.190144753293790D+03 0.000000000000000D+00 0.000000000000000D+00 -.190144753293790D+03
 0.555607609429916D+02 -.292365004201503D+01 0.168693785557617D+02 0.171427679835694D+02
 0.914701205065204D+02 -.116862876474871D+02 0.409923088273404D+02 0.809311080086112D+02
 0.124950965047374D+03 -.770868452332660D+02 0.720255552724490D+01 -.980738759921806D+02
 0.112513763651595D+03 0.916967829227681D+02 -.650642429103470D+02 0.420610356090024D+01
0.366039511696D-05 0.000000000000D+00 0.000000000000D+00 0.670326098361D-07 0.000000000000D+00  6 22 -4 9900012 11 -3 21 0 0.13111538D+00 0.27678983D-02 0.37322361D+04 0.37322361D+04 0.37322361D+04 0.12564019D+01  1  2  2  1  6  2       -4 0.593515174621D-04 0.100000000000D+01
0.880275646392D-07 0.000000000000D+00 -.702844052665D-08 0.670326098361D-07 0.000000000000D+00  6 22 -4 9900012 11 -3 21 2 0.13111538D+00 0.27678983D-02 0.37322361D+04 0.37322361D+04 0.37322361D+04 0.12564019D+01  1  2  3  1  6  2       -4 0.225309614094D-05 0.100000000000D+01
-.531791784420D-06 0.000000000000D+00 0.000000000000D+00 0.670326098361D-07 0.000000000000D+00  6 22 -4 9900012 11 -3 21 2 0.13111538D+00 0.27678983D-02 0.37322361D+04 0.37322361D+04 0.37322361D+04 0.12564019D+01  1  2 15  1  6  2       -4 -.136113957278D-04 0.100000000000D+01
  </mgrwgt>
  </event>
  <event>
  6     66 0.64871765E-06 0.35061999E+02 0.78161638E-02 0.12114081E+00
       22 -1    0    0    0    0 0.00000000E+00 0.00000000E+00 0.18959895E+03 0.18959895E+03 0.00000000E+00 0.0000E+00 0.9000E+01
       -2 -1    0    0    0  501 0.00000000E+00 0.00000000E+00 -.11036076E+03 0.11036076E+03 0.00000000E+00 0.0000E+00 0.9000E+01
      -24  2    1    2    0    0 -.49060226E+02 -.83512911E+01 0.17095203E+03 0.19561374E+03 0.81015365E+02 0.0000E+00 0.0000E+00
  9900012  1    3    3    0    0 -.43341721E+02 0.16189422E+02 0.14006208E+03 0.15574976E+03 0.50000000E+02 0.0000E+00 0.9000E+01
       11  1    3    3    0    0 -.57185058E+01 -.24540713E+02 0.30889957E+02 0.39863986E+02 0.00000000E+00 0.0000E+00 0.9000E+01
       -1  1    1    2    0  501 0.49060226E+02 0.83512911E+01 -.91713852E+02 0.10434597E+03 0.00000000E+00 0.0000E+00 0.9000E+01
#aMCatNLO 1  0  0  2  5 0.15018512D+02 0.00000000D+00  -5  6  0 0.00000000D+00 0.00000000D+00 0.00000000D+00 0.00000000D+00 0.00000000D+00
  <mgrwgt>
 0.5611661203D-04    9    4    0
 0.144652288697649D+03 0.000000000000000D+00 0.000000000000000D+00 0.144652288697649D+03
 0.144652288697649D+03 0.000000000000000D+00 0.000000000000000D+00 -.144652288697649D+03
 0.123124178126676D+03 -.433417205773887D+02 0.161894219023558D+02 0.102561986696966D+03
 0.328716735465170D+02 -.571850576804475D+01 -.245407130197183D+02 0.211092164234831D+02
 0.133308725722105D+03 0.490602263454334D+02 0.835129111736250D+01 -.123671203120449D+03
 0.000000000000000D+00 0.000000000000000D+00 0.000000000000000D+00 -.000000000000000D+00
 0.149030094097684D+03 0.000000000000000D+00 0.000000000000000D+00 0.149030094097684D+03
 0.153679652678619D+03 0.000000000000000D+00 0.000000000000000D+00 -.153679652678619D+03
 0.124277850204390D+03 -.475105747299580D+02 0.129910825193736D+02 0.102561986696966D+03
 0.337289444379528D+02 -.684076117040023D+01 -.254017058776493D+02 0.211092164234831D+02
 0.131558891245199D+03 0.445970678486175D+02 0.492716183136669D+01 -.123671203120449D+03
 0.131440608887618D+02 0.975426805174078D+01 0.748346152690896D+01 -.464955858093447D+01
 0.144652288697649D+03 0.000000000000000D+00 0.000000000000000D+00 0.144652288697649D+03
 0.144652288697649D+03 0.000000000000000D+00 0.000000000000000D+00 -.144652288697649D+03
 0.123124178126676D+03 -.433417205773887D+02 0.161894219023558D+02 0.102561986696966D+03
 0.328716735465170D+02 -.571850576804475D+01 -.245407130197183D+02 0.211092164234831D+02
 0.000000000000000D+00 0.000000000000000D+00 0.000000000000000D+00 -.000000000000000D+00
 0.133308725722105D+03 0.490602263454334D+02 0.835129111736250D+01 -.123671203120449D+03
 0.149030094097684D+03 0.000000000000000D+00 0.000000000000000D+00 0.149030094097684D+03
 0.153679652678619D+03 0.000000000000000D+00 0.000000000000000D+00 -.153679652678619D+03
 0.124277850204390D+03 -.475105747299580D+02 0.129910825193736D+02 0.102561986696966D+03
 0.337289444379528D+02 -.684076117040023D+01 -.254017058776493D+02 0.211092164234831D+02
 0.131440608887618D+02 0.975426805174078D+01 0.748346152690896D+01 -.464955858093447D+01
 0.131558891245199D+03 0.445970678486175D+02 0.492716183136669D+01 -.123671203120449D+03
0.667193920676D-06 0.000000000000D+00 0.000000000000D+00 0.293330188029D-05 0.000000000000D+00  6 22 -2 9900012 11 -1 21 0 0.29169069D-01 0.16978579D-01 0.51184072D+04 0.51184072D+04 0.51184072D+04 0.12407026D+01  1  2  2  1  6  2       -2 0.149511156904D-04 0.100000000000D+01
0.222430496428D-07 0.000000000000D+00 -.128110016579D-08 0.293330188029D-05 0.000000000000D+00  6 22 -2 9900012 11 -1 21 2 0.29169069D-01 0.16978579D-01 0.51184072D+04 0.51184072D+04 0.51184072D+04 0.12407026D+01  1  2  3  1  6  2       -2 0.767275320661D-06 0.100000000000D+01
-.918383349816D-07 0.000000000000D+00 0.000000000000D+00 0.293330188029D-05 0.000000000000D+00  6 22 -2 9900012 11 -1 21 2 0.29169069D-01 0.16978579D-01 0.51184072D+04 0.51184072D+04 0.51184072D+04 0.12407026D+01  1  2 15  1  6  2       -2 -.316796882863D-05 0.100000000000D+01
0.133475178512D-05 0.000000000000D+00 0.000000000000D+00 0.293330188029D-05 0.000000000000D+00  6 22 -2 9900012 11 -1 21 2 0.29169069D-01 0.18584080D-01 0.59024634D+04 0.59024634D+04 0.59024634D+04 0.12338153D+01  1  2 12  1  6  2       -2 0.399531431670D-04 0.100000000000D+01
-.709849935217D-07 0.000000000000D+00 0.000000000000D+00 0.293330188029D-05 0.000000000000D+00  6 22 -2 9900012 11 -1 21 2 0.29169069D-01 0.16978579D-01 0.51184072D+04 0.51184072D+04 0.51184072D+04 0.12407026D+01  1  2  4  1  6  2       -2 -.244863157441D-05 0.100000000000D+01
-.386757434082D-05 0.000000000000D+00 -.909473308426D-06 0.293330188029D-05 0.000000000000D+00  6 22 -2 9900012 11 -1 21 2 0.29169069D-01 0.18555299D-01 0.51184072D+04 0.51184072D+04 0.51184072D+04 0.12407026D+01  1  2  5  1  6  2       -2 -.116013669965D-03 0.100000000000D+01
0.393638124726D-05 0.000000000000D+00 0.905899018843D-06 0.293330188029D-05 0.000000000000D+00  6 22 -2 9900012 11 -1 21 2 0.29169069D-01 0.16978579D-01 0.51184072D+04 0.51184072D+04 0.51184072D+04 0.12407026D+01  1  2  6  1  6  2       -2 0.135785705298D-03 0.100000000000D+01
0.203410078735D-07 0.000000000000D+00 0.000000000000D+00 0.293330188029D-05 0.000000000000D+00  6 22 21 9900012 11 2 -1 2 0.29169069D-01 0.18584080D-01 0.59024634D+04 0.59024634D+04 0.59024634D+04 0.12338153D+01  3  4 12  3  5  2       -2 0.816429253717D-05 0.100000000000D+01
-.542467100561D-07 0.000000000000D+00 -.133208022115D-07 0.293330188029D-05 0.000000000000D+00  6 22 21 9900012 11 2 -1 2 0.29169069D-01 0.18555299D-01 0.51184072D+04 0.51184072D+04 0.51184072D+04 0.12407026D+01  3  4  5  3  5  2       -2 -.218746496125D-04 0.100000000000D+01
  </mgrwgt>
  </event>
  <event>
  6     66 -.64871765E-06 0.27173118E+02 0.78161638E-02 0.12774184E+00
       22 -1    0    0    0    0 0.00000000E+00 0.00000000E+00 0.31677478E+02 0.31677478E+02 0.00000000E+00 0.0000E+00 0.9000E+01
       -2 -1    0    0    0  501 -.00000000E+00 -.00000000E+00 -.12160705E+03 0.12160705E+03 0.00000000E+00 0.0000E+00 0.9000E+01
      -24  2    1    2    0    0 -.17300949E+02 -.20953652E+02 -.31487314E+02 0.88833960E+02 0.78496135E+02 0.0000E+00 0.0000E+00
  9900012  1    3    3    0    0 -.45429291E+01 -.37144503E+02 -.23588395E+02 0.66759005E+02 0.50000000E+02 0.0000E+00 0.9000E+01
       11  1    3    3    0    0 -.12758020E+02 0.16190851E+02 -.78989190E+01 0.22074955E+02 0.00000000E+00 0.0000E+00 0.9000E+01
       -1  1    1    2    0  501 0.17300949E+02 0.20953652E+02 -.58442257E+02 0.64450569E+02 0.00000000E+00 0.0000E+00 0.9000E+01
#aMCatNLO 1  0  0  5  2 0.21765053D+01 0.00000000D+00  -5  6  0 0.00000000D+00 0.00000000D+00 0.00000000D+00 0.00000000D+00 0.00000000D+00
  <mgrwgt>
 -.7894386354D-04    8    2    0
 0.620661317492178D+02 0.000000000000000D+00 0.000000000000000D+00 0.620661317492178D+02
 0.620661317492178D+02 -.000000000000000D+00 -.000000000000000D+00 -.620661317492178D+02
 0.653482665776168D+02 -.454292909714551D+01 -.371445027942043D+02 0.192365187102274D+02
 0.215367275917429D+02 -.127580199798542D+02 0.161908512671829D+02 0.623858131297034D+01
 0.372472693290758D+02 0.173009490769997D+02 0.209536515270214D+02 -.254751000231977D+02
 0.000000000000000D+00 0.000000000000000D+00 0.000000000000000D+00 -.000000000000000D+00
 0.620661317492178D+02 0.000000000000000D+00 0.000000000000000D+00 0.620661317492178D+02
 0.620661317492178D+02 -.000000000000000D+00 -.000000000000000D+00 -.620661317492178D+02
 0.652732628353048D+02 -.447989175241212D+01 -.370681565458654D+02 0.191436982149394D+02
 0.215345204125703D+02 -.127372339951797D+02 0.162160257404201D+02 0.620797460831451D+01
 0.166627961240972D+02 0.727241865617285D+01 0.110710781562226D+02 -.101090024246406D+02
 0.206616841264633D+02 0.994470709141892D+01 0.978105264922265D+01 -.152426703986133D+02
0.669464930003D-07 0.000000000000D+00 0.000000000000D+00 0.666687103039D-07 0.000000000000D+00  6 22 -2 9900012 11 -1 21 0 0.48734582D-02 0.18708777D-01 0.30381748D+04 0.30381748D+04 0.30381748D+04 0.12669649D+01  1  2  2  2  6  5       -1 0.158014973938D-04 0.100000000000D+01
0.178253824810D-08 0.000000000000D+00 -.128546080269D-09 0.666687103039D-07 0.000000000000D+00  6 22 -2 9900012 11 -1 21 2 0.48734582D-02 0.18708777D-01 0.30381748D+04 0.30381748D+04 0.30381748D+04 0.12669649D+01  1  2  3  2  6  5       -1 0.675364817021D-06 0.100000000000D+01
-.872462450646D-08 0.000000000000D+00 0.000000000000D+00 0.666687103039D-07 0.000000000000D+00  6 22 -2 9900012 11 -1 21 2 0.48734582D-02 0.18708777D-01 0.30381748D+04 0.30381748D+04 0.30381748D+04 0.12669649D+01  1  2 15  2  6  5       -1 -.330556970638D-05 0.100000000000D+01
0.874523544090D-09 0.000000000000D+00 0.000000000000D+00 0.666687103039D-07 0.000000000000D+00  6 22 -2 9900012 11 -1 21 2 0.48734582D-02 0.18708777D-01 0.30369949D+04 0.30369949D+04 0.30369949D+04 0.12669851D+01  1  2 12  2  6  5       -1 0.331333997395D-06 0.100000000000D+01
-.102970601586D-05 0.000000000000D+00 0.000000000000D+00 0.666687103039D-07 0.000000000000D+00  6 22 -2 9900012 11 -1 21 2 0.48734582D-02 0.18708777D-01 0.30381748D+04 0.30381748D+04 0.30381748D+04 0.12669649D+01  1  2  4  2  6  5       -1 -.390133123780D-03 0.100000000000D+01
-.413315775192D-06 0.000000000000D+00 0.000000000000D+00 0.666687103039D-07 0.000000000000D+00  6 22 -2 9900012 11 -1 21 2 0.48734582D-02 0.18708777D-01 0.30381748D+04 0.30381748D+04 0.30381748D+04 0.12669649D+01  1  2  5  2  6  5       -1 -.156596321667D-03 0.100000000000D+01
0.689850034842D-06 0.000000000000D+00 -.000000000000D+00 0.666687103039D-07 0.000000000000D+00  6 22 -2 9900012 11 -1 21 2 0.48734582D-02 0.18708777D-01 0.30381748D+04 0.30381748D+04 0.30381748D+04 0.12669649D+01  1  2  6  2  6  5       -1 0.261369113986D-03 0.100000000000D+01
0.509177137347D-06 0.000000000000D+00 0.000000000000D+00 0.666687103039D-07 0.397095720744D-07  6 22 -2 9900012 11 -1 21 2 0.48734582D-02 0.18708777D-01 0.30369949D+04 0.30369949D+04 0.30369949D+04 0.12669851D+01  1  2 11  2  6  5       -1 0.192913841416D-03 0.100000000000D+01
  </mgrwgt>
  </event>
  <event>
  6     66 0.64871765E-06 0.82878898E+02 0.78161638E-02 0.10970135E+00
       22 -1    0    0    0    0 0.00000000E+00 0.00000000E+00 0.11319153E+03 0.11319153E+03 0.00000000E+00 0.0000E+00 0.9000E+01
       -2 -1    0    0    0  501 -.00000000E+00 -.00000000E+00 -.40464916E+03 0.40464916E+03 0.00000000E+00 0.0000E+00 0.9000E+01
      -24  2    1    2    0    0 -.76536380E+02 0.31797708E+02 0.77721072E+02 0.13947338E+03 0.80890965E+02 0.0000E+00 0.0000E+00
  9900012  1    3    3    0    0 -.47570545E+02 0.20362091E+02 0.80782013E+02 0.10818181E+03 0.50000000E+02 0.0000E+00 0.9000E+01
       11  1    3    3    0    0 -.28965835E+02 0.11435617E+02 -.30609410E+01 0.31291569E+02 0.00000000E+00 0.0000E+00 0.9000E+01
       -1  1    1    2    0  501 0.76536380E+02 -.31797708E+02 -.36917870E+03 0.37836731E+03 0.00000000E+00 0.0000E+00 0.9000E+01
#aMCatNLO 1  0  0  5  2 0.73325883D+02 0.00000000D+00  -5  6  0 0.00000000D+00 0.00000000D+00 0.00000000D+00 0.00000000D+00 0.00000000D+00
  <mgrwgt>
 0.7243086423D-04    3    2    0
 0.214016027176562D+03 0.000000000000000D+00 0.000000000000000D+00 0.214016027176562D+03
 0.214016027176562D+03 -.000000000000000D+00 -.000000000000000D+00 -.214016027176562D+03
 0.185886733533844D+03 -.475705448417977D+02 0.203620911836557D+02 0.171395175573776D+03
 0.357728195242648D+02 -.289658352428144D+02 0.114356167768958D+02 0.176040243789235D+02
 0.206372501295015D+03 0.765363800846122D+02 -.317977079605515D+02 -.188999199952699D+03
 0.000000000000000D+00 0.000000000000000D+00 0.000000000000000D+00 0.000000000000000D+00
 0.214016027176562D+03 0.000000000000000D+00 0.000000000000000D+00 0.214016027176562D+03
 0.214016027176562D+03 -.000000000000000D+00 -.000000000000000D+00 -.214016027176562D+03
 0.773881090392800D+02 -.206077357976450D+01 0.145465900118466D+01 0.590131900520443D+02
 0.215379592780190D+02 -.190590761744219D+02 0.731976714637969D+01 -.685976050325159D+01
 0.175657230343850D+03 -.104065490131139D+03 -.161389979580594D+02 -.140589363327202D+03
 0.153448755691975D+03 0.125185339885326D+03 0.736457181049509D+01 0.884359337784088D+02
0.172581647009D-04 0.000000000000D+00 0.000000000000D+00 0.804594365375D-05 0.000000000000D+00  6 22 -2 9900012 11 -1 21 0 0.17414082D-01 0.62253718D-01 0.86467440D+04 0.86467440D+04 0.86467440D+04 0.12159321D+01  1  2  2  2  6  5       -1 0.909543220602D-04 0.100000000000D+01
0.153206007166D-06 0.000000000000D+00 -.331379483153D-07 0.804594365375D-05 0.000000000000D+00  6 22 -2 9900012 11 -1 21 2 0.17414082D-01 0.62253718D-01 0.86467440D+04 0.86467440D+04 0.86467440D+04 0.12159321D+01  1  2  3  2  6  5       -1 0.119377700509D-05 0.100000000000D+01
-.253045485812D-05 0.000000000000D+00 0.000000000000D+00 0.804594365375D-05 0.000000000000D+00  6 22 -2 9900012 11 -1 21 2 0.17414082D-01 0.62253718D-01 0.86467440D+04 0.86467440D+04 0.86467440D+04 0.12159321D+01  1  2 15  2  6  5       -1 -.197172348389D-04 0.100000000000D+01
  </mgrwgt>
  </event>
  <event>
  7     66 -.64871765E-06 0.30257148E+02 0.78161638E-02 0.12465054E+00
       22 -1    0    0    0    0 0.00000000E+00 0.00000000E+00 0.77886449E+03 0.77886449E+03 0.00000000E+00 0.0000E+00 0.9000E+01
       -2 -1    0    0    0  501 0.00000000E+00 0.00000000E+00 -.12248908E+02 0.12248908E+02 0.00000000E+00 0.0000E+00 0.9000E+01
      -24  2    1    2    0    0 -.22539343E+02 0.28786329E+02 0.68901489E+03 0.69470134E+03 0.80819271E+02 0.0000E+00 0.0000E+00
  9900012  1    3    3    0    0 0.15149784E+01 0.24285594E+02 0.31376197E+03 0.31865132E+03 0.50000000E+02 0.0000E+00 0.9000E+01
       11  1    3    3    0    0 -.24054321E+02 0.45007349E+01 0.37525292E+03 0.37605002E+03 0.00000000E+00 0.0000E+00 0.9000E+01
       -1  1    1    2    0  502 0.10612447E+02 0.54051270E+01 0.48544159E+02 0.49983745E+02 0.00000000E+00 0.0000E+00 0.9000E+01
       21  1    1    2  502  501 0.11926896E+02 -.34191456E+02 0.29056537E+02 0.46428320E+02 0.00000000E+00 0.0000E+00 0.9000E+01
#aMCatNLO 2  0  0  5  2 0.15211613D+02 0.00000000D+00  -5  6  0 0.00000000D+00 0.00000000D+00 0.00000000D+00 0.00000000D+00 0.00000000D+00
  <mgrwgt>
 -.1023893810D-04    2    2    0
 0.976741500035834D+02 0.000000000000000D+00 0.000000000000000D+00 0.976741500035834D+02
 0.976741500035834D+02 -.000000000000000D+00 -.000000000000000D+00 -.976741500035834D+02
 0.609708481397087D+02 0.339519723784347D+00 0.257868420234322D+02 0.235025068384447D+02
 0.534215289618976D+02 -.250691899214911D+02 0.579688342627784D+01 0.468165741575483D+02
 0.809559229055604D+02 0.247296701977068D+02 -.315837254497100D+02 -.703190809959930D+02
 0.000000000000000D+00 -.000000000000000D+00 0.000000000000000D+00 0.000000000000000D+00
 0.976741500035834D+02 0.000000000000000D+00 0.000000000000000D+00 0.976741500035834D+02
 0.976741500035834D+02 -.000000000000000D+00 -.000000000000000D+00 -.976741500035834D+02
 0.591482373189514D+02 0.151497836067843D+01 0.242855942280372D+02 0.201600776659417D+02
 0.502869850095329D+02 -.240543214848752D+02 0.450073488028440D+01 0.439307849325351D+02
 0.119176976635976D+02 0.106124471149372D+02 0.540512699864461D+01 0.438276125409404D+00
 0.739953800150849D+02 0.119268960092595D+02 -.341914561069662D+02 -.645291387238861D+02
-.227466140200D-06 0.000000000000D+00 0.000000000000D+00 0.110493450880D-05 0.000000000000D+00  6 22 -2 9900012 11 -1 21 2 0.11982531D+00 0.18844474D-02 0.41088025D+04 0.41088025D+04 0.41088025D+04 0.12515610D+01  1  2 13  2  6  5       -1 -.171238774649D-04 0.100000000000D+01
0.914565399629D-07 0.000000000000D+00 0.000000000000D+00 0.110493450880D-05 0.218541585906D-08  6 22 -2 9900012 11 -1 21 2 0.11982531D+00 0.18844474D-02 0.41088025D+04 0.41088025D+04 0.41088025D+04 0.12515610D+01  1  2  1  2  6  5       -1 0.688493936859D-05 0.100000000000D+01
  </mgrwgt>
  </event>
  <event>
  7     66 -.64871765E-06 0.19841676E+02 0.78161638E-02 0.12879391E+00
       22 -1    0    0    0    0 0.00000000E+00 0.00000000E+00 0.47295775E+03 0.47295775E+03 0.00000000E+00 0.0000E+00 0.9000E+01
       21 -1    0    0  502  501 0.00000000E+00 0.00000000E+00 -.13381899E+02 0.13381899E+02 0.00000000E+00 0.0000E+00 0.9000E+01
      -24  2    1    2    0    0 0.12391634E+02 -.11760457E+02 0.42545926E+03 0.43338278E+03 0.80704395E+02 0.0000E+00 0.0000E+00
  9900012  1    3    3    0    0 -.10214989E+02 -.16445054E+02 0.21185466E+03 0.21853417E+03 0.50000000E+02 0.0000E+00 0.9000E+01
       11  1    3    3    0    0 0.22606623E+02 0.46845970E+01 0.21360459E+03 0.21484861E+03 0.00000000E+00 0.0000E+00 0.9000E+01
        2  1    1    2  502    0 0.43674999E+01 -.34282792E+01 -.51945881E+01 0.76034137E+01 0.00000000E+00 0.0000E+00 0.9000E+01
       -1  1    1    2    0  501 -.16759134E+02 0.15188736E+02 0.39311189E+02 0.45353455E+02 0.00000000E+00 0.0000E+00 0.9000E+01
#aMCatNLO 2  0  0  2  5 0.55670754D+01 0.00000000D+00  -5  6  0 0.00000000D+00 0.00000000D+00 0.00000000D+00 0.00000000D+00 0.00000000D+00
  <mgrwgt>
 -.2749145094D-04    2    2    0
 0.573279887559427D+02 0.000000000000000D+00 0.000000000000000D+00 0.573279887559427D+02
 0.573279887559427D+02 0.000000000000000D+00 0.000000000000000D+00 -.573279887559427D+02
 0.537975080151174D+02 -.817007248560691D+01 -.180502164206329D+02 -.126943742849495D+01
 0.319337068409594D+02 0.238079157733111D+02 0.374163971632319D+01 0.209510121800474D+02
 0.000000000000000D+00 0.000000000000000D+00 -.000000000000000D+00 -.000000000000000D+00
 0.289247626558086D+02 -.156378432877042D+02 0.143085767043097D+02 -.196815747515525D+02
 0.575417012910320D+02 0.000000000000000D+00 0.000000000000000D+00 0.575417012910320D+02
 0.109991059968656D+03 0.000000000000000D+00 0.000000000000000D+00 -.109991059968656D+03
 0.536320546582217D+02 -.102149892113252D+02 -.164450542987893D+02 -.126943742849495D+01
 0.311761091238804D+02 0.226066233635494D+02 0.468459697671253D+01 0.209510121800474D+02
 0.527424248514313D+02 0.436749990704519D+01 -.342827917135916D+01 -.524493586776241D+02
 0.299821726261548D+02 -.167591340592693D+02 0.151887364934360D+02 -.196815747515525D+02
-.378535243131D-07 0.000000000000D+00 0.000000000000D+00 0.147628844261D-06 0.000000000000D+00  6 22 21 9900012 11 2 -1 2 0.72492487D-01 0.20664284D-02 0.27496426D+04 0.27496426D+04 0.27496426D+04 0.12721918D+01  1  2 13  3  5  2       -2 -.112635741465D-03 0.100000000000D+01
0.286446707192D-07 0.000000000000D+00 0.000000000000D+00 0.147628844261D-06 0.271744852390D-08  6 22 21 9900012 11 2 -1 2 0.72762732D-01 0.20587536D-02 0.27496426D+04 0.27496426D+04 0.27496426D+04 0.12721918D+01  1  2  1  3  5  2       -2 0.851442905213D-04 0.100000000000D+01
  </mgrwgt>
  </event>
  <event>
  6     66 0.64871765E-06 0.53658909E+02 0.78161638E-02 0.11805501E+00
       22 -1    0    0    0    0 0.00000000E+00 0.00000000E+00 0.40304499E+02 0.40304499E+02 0.00000000E+00 0.0000E+00 0.9000E+01
       -4 -1    0    0    0  501 0.00000000E+00 0.00000000E+00 -.66477763E+03 0.66477763E+03 0.00000000E+00 0.0000E+00 0.9000E+01
      -24  2    1    2    0    0 0.42022688E+02 0.58051857E+02 -.37126588E+02 0.11337960E+03 0.79628044E+02 0.0000E+00 0.0000E+00
  9900012  1    3    3    0    0 0.33767384E+02 0.17039131E+02 -.34264113E+02 0.71446467E+02 0.50000000E+02 0.0000E+00 0.9000E+01
       11  1    3    3    0    0 0.82553037E+01 0.41012726E+02 -.28624750E+01 0.41933131E+02 0.00000000E+00 0.0000E+00 0.9000E+01
       -3  1    1    2    0  501 -.42022688E+02 -.58051857E+02 -.58734655E+03 0.59170254E+03 0.00000000E+00 0.0000E+00 0.9000E+01
#aMCatNLO 1  0  0  2  5 0.73087577D+01 0.00000000D+00  -5  6  0 0.00000000D+00 0.00000000D+00 0.00000000D+00 0.00000000D+00 0.00000000D+00
  <mgrwgt>
 0.2230766655D-04   11    4    0
 0.163687292594568D+03 0.000000000000000D+00 0.000000000000000D+00 0.163687292594568D+03
 0.163687292594568D+03 0.000000000000000D+00 0.000000000000000D+00 -.163687292594568D+03
 0.885182007425218D+02 0.337673840811317D+02 0.170391305838161D+02 0.624892283834452D+02
 0.848531444795015D+02 0.825530370335285D+01 0.410127261229754D+02 0.738231832474486D+02
 0.154003239967114D+03 -.420226877844846D+02 -.580518567067914D+02 -.136312411630894D+03
 0.000000000000000D+00 -.000000000000000D+00 -.000000000000000D+00 -.000000000000000D+00
 0.165711811834807D+03 0.000000000000000D+00 0.000000000000000D+00 0.165711811834807D+03
 0.168377810395667D+03 0.000000000000000D+00 0.000000000000000D+00 -.168377810395667D+03
 0.890884103871143D+02 0.344704784039639D+02 0.185371874874903D+02 0.624892283834452D+02
 0.856251648075311D+02 0.893017909601634D+01 0.424506580024804D+02 0.738231832474486D+02
 0.152717857276796D+03 -.408084657417722D+02 -.554647589951337D+02 -.136312411630894D+03
 0.665818975903224D+01 -.259219175820813D+01 -.552308649483699D+01 -.266599856086025D+01
 0.163687292594568D+03 0.000000000000000D+00 0.000000000000000D+00 0.163687292594568D+03
 0.163687292594568D+03 0.000000000000000D+00 0.000000000000000D+00 -.163687292594568D+03
 0.885182007425218D+02 0.337673840811317D+02 0.170391305838161D+02 0.624892283834452D+02
 0.848531444795015D+02 0.825530370335285D+01 0.410127261229754D+02 0.738231832474486D+02
 0.000000000000000D+00 -.000000000000000D+00 -.000000000000000D+00 -.000000000000000D+00
 0.154003239967114D+03 -.420226877844846D+02 -.580518567067914D+02 -.136312411630894D+03
 0.165711811834807D+03 0.000000000000000D+00 0.000000000000000D+00 0.165711811834807D+03
 0.168377810395667D+03 0.000000000000000D+00 0.000000000000000D+00 -.168377810395667D+03
 0.890884103871143D+02 0.344704784039639D+02 0.185371874874903D+02 0.624892283834452D+02
 0.856251648075311D+02 0.893017909601634D+01 0.424506580024804D+02 0.738231832474486D+02
 0.665818975903224D+01 -.259219175820813D+01 -.552308649483699D+01 -.266599856086025D+01
 0.152717857276796D+03 -.408084657417722D+02 -.554647589951337D+02 -.136312411630894D+03
0.306809380022D-05 0.000000000000D+00 0.000000000000D+00 0.629314904120D-05 0.000000000000D+00  6 22 -4 9900012 11 -3 21 0 0.62006922D-02 0.10227348D+00 0.77611628D+04 0.77611628D+04 0.77611628D+04 0.12209143D+01  1  2  2  1  6  2       -4 0.966644402778D-05 0.100000000000D+01
0.444476338369D-07 0.000000000000D+00 -.589114402025D-08 0.629314904120D-05 0.000000000000D+00  6 22 -4 9900012 11 -3 21 2 0.62006922D-02 0.10227348D+00 0.77611628D+04 0.77611628D+04 0.77611628D+04 0.12209143D+01  1  2  3  1  6  2       -4 0.208745496804D-06 0.100000000000D+01
-.445712816865D-06 0.000000000000D+00 0.000000000000D+00 0.629314904120D-05 0.000000000000D+00  6 22 -4 9900012 11 -3 21 2 0.62006922D-02 0.10227348D+00 0.77611628D+04 0.77611628D+04 0.77611628D+04 0.12209143D+01  1  2 15  1  6  2       -4 -.209326201097D-05 0.100000000000D+01
0.432246507280D-05 0.000000000000D+00 0.000000000000D+00 0.629314904120D-05 0.000000000000D+00  6 22 -4 9900012 11 -3 21 2 0.62006922D-02 0.10650535D+00 0.82662195D+04 0.82662195D+04 0.82662195D+04 0.12179996D+01  1  2 12  1  6  2       -4 0.182701930777D-04 0.100000000000D+01
-.410170611198D-06 0.000000000000D+00 0.000000000000D+00 0.629314904120D-05 0.000000000000D+00  6 22 -4 9900012 11 -3 21 2 0.62006922D-02 0.10227348D+00 0.77611628D+04 0.77611628D+04 0.77611628D+04 0.12209143D+01  1  2  4  1  6  2       -4 -.192634029346D-05 0.100000000000D+01
-.558123527964D-04 0.000000000000D+00 -.885985120848D-05 0.629314904120D-05 0.000000000000D+00  6 22 -4 9900012 11 -3 21 2 0.62006922D-02 0.10614922D+00 0.77611628D+04 0.77611628D+04 0.77611628D+04 0.12209143D+01  1  2  5  1  6  2       -4 -.237874141668D-03 0.100000000000D+01
0.561092061894D-04 0.000000000000D+00 0.885372592969D-05 0.629314904120D-05 0.000000000000D+00  6 22 -4 9900012 11 -3 21 2 0.62006922D-02 0.10227348D+00 0.77611628D+04 0.77611628D+04 0.77611628D+04 0.12209143D+01  1  2  6  1  6  2       -4 0.263513332662D-03 0.100000000000D+01
0.303230275450D-07 0.000000000000D+00 0.000000000000D+00 0.629314904120D-05 0.458956933224D-06  6 22 -4 9900012 11 -3 21 2 0.62773837D-02 0.10520417D+00 0.82662195D+04 0.82662195D+04 0.82662195D+04 0.12179996D+01  1  2 11  1  6  2       -4 0.130138088927D-06 0.100000000000D+01
0.102153388700D-06 0.000000000000D+00 0.000000000000D+00 0.629314904120D-05 0.000000000000D+00  6 22 21 9900012 11 4 -3 2 0.62006922D-02 0.10650535D+00 0.82662195D+04 0.82662195D+04 0.82662195D+04 0.12179996D+01  3  4 12  3  5  2       -4 0.106858989922D-04 0.100000000000D+01
-.364030402084D-06 0.000000000000D+00 -.584836955847D-07 0.629314904120D-05 0.000000000000D+00  6 22 21 9900012 11 4 -3 2 0.62006922D-02 0.10614922D+00 0.77611628D+04 0.77611628D+04 0.77611628D+04 0.12209143D+01  3  4  5  3  5  2       -4 -.385264760775D-04 0.100000000000D+01
0.238742499824D-08 0.000000000000D+00 0.000000000000D+00 0.629314904120D-05 0.716378365672D-08  6 22 21 9900012 11 4 -3 2 0.62773837D-02 0.10520417D+00 0.82662195D+04 0.82662195D+04 0.82662195D+04 0.12179996D+01  3  4 11  3  5  2       -4 0.253134253999D-06 0.100000000000D+01
  </mgrwgt>
  </event>
  <event>
  7     66 0.64871765E-06 0.23593817E+02 0.78161638E-02 0.12754120E+00
       22 -1    0    0    0    0 0.00000000E+00 0.00000000E+00 0.91187355E+03 0.91187355E+03 0.00000000E+00 0.0000E+00 0.9000E+01
       21 -1    0    0  502  501 0.00000000E+00 0.00000000E+00 -.58019057E+02 0.58019057E+02 0.00000000E+00 0.0000E+00 0.9000E+01
      -24  2    1    2    0    0 0.11666087E+01 0.22386507E+02 0.90187928E+03 0.90563198E+03 0.79249900E+02 0.0000E+00 0.0000E+00
  9900012  1    3    3    0    0 -.21843206E+01 -.71192362E+01 0.66078088E+03 0.66271172E+03 0.50000000E+02 0.0000E+00 0.9000E+01
       11  1    3    3    0    0 0.33509293E+01 0.29505744E+02 0.24109839E+03 0.24292026E+03 0.00000000E+00 0.0000E+00 0.9000E+01
        4  1    1    2  502    0 -.49425458E+01 -.25600277E+02 -.51824554E+02 0.58013682E+02 0.00000000E+00 0.0000E+00 0.9000E+01
       -3  1    1    2    0  501 0.37759371E+01 0.32137699E+01 0.37997754E+01 0.62469441E+01 0.00000000E+00 0.0000E+00 0.9000E+01
#aMCatNLO 2  0  0  2  5 0.11483856D+02 0.00000000D+00  -5  6  0 0.00000000D+00 0.00000000D+00 0.00000000D+00 0.00000000D+00 0.00000000D+00
  <mgrwgt>
 0.7884095567D-03    1    2    0
 0.514510297695701D+02 0.000000000000000D+00 0.000000000000000D+00 0.514510297695701D+02
 0.514510297695701D+02 0.000000000000000D+00 0.000000000000000D+00 -.514510297695701D+02
 0.587986769525714D+02 -.487900430827011D+01 -.210765474300176D+02 0.221191970189459D+02
 0.231694617574656D+02 0.210023532836322D+01 0.230276825642099D+02 -.146246552716363D+01
 0.000000000000000D+00 -.000000000000000D+00 -.000000000000000D+00 -.000000000000000D+00
 0.209339208291032D+02 0.277876897990689D+01 -.195113513419222D+01 -.206567314917823D+02
 0.532576547393645D+02 0.000000000000000D+00 0.000000000000000D+00 0.532576547393645D+02
 0.993397917560578D+03 0.000000000000000D+00 0.000000000000000D+00 -.993397917560578D+03
 0.551789240351165D+02 -.218432061019896D+01 -.711923622182032D+01 0.221191970189459D+02
 0.297314049495794D+02 0.335092934099389D+01 0.295057436342384D+02 -.146246552716363D+01
 0.940501736698570D+03 -.494254579618379D+01 -.256002772746514D+02 -.940140262821213D+03
 0.212435066166762D+02 0.377593706538886D+01 0.321376986223332D+01 -.206567314917823D+02
0.911279174528D-05 0.000000000000D+00 0.000000000000D+00 0.619422159585D-07 0.541741544076D-07  6 22 21 9900012 11 4 -3 2 0.14028824D+00 0.89260087D-02 0.30957195D+04 0.30957195D+04 0.30957195D+04 0.12659897D+01  1  2  1  3  5  2       -4 0.788409556657D-03 0.100000000000D+01
  </mgrwgt>
  </event>
  <event>
  6     66 0.64871765E-06 0.20971180E+02 0.78161638E-02 0.12945469E+00
       22 -1    0    0    0    0 0.00000000E+00 0.00000000E+00 0.20422217E+03 0.20422217E+03 0.00000000E+00 0.0000E+00 0.9000E+01
       -2 -1    0    0    0  501 0.00000000E+00 0.00000000E+00 -.14543300E+03 0.14543300E+03 0.00000000E+00 0.0000E+00 0.9000E+01
      -24  2    1    2    0    0 0.16073411E+02 -.13469813E+02 0.19541366E+03 0.21143055E+03 0.77952474E+02 0.0000E+00 0.0000E+00
  9900012  1    3    3    0    0 0.79441469E+01 0.13628938E+02 0.12774954E+03 0.13808983E+03 0.50000000E+02 0.0000E+00 0.9000E+01
       11  1    3    3    0    0 0.81292639E+01 -.27098752E+02 0.67664126E+02 0.73340720E+02 0.00000000E+00 0.0000E+00 0.9000E+01
       -1  1    1    2    0  501 -.16073411E+02 0.13469813E+02 -.13662450E+03 0.13822462E+03 0.00000000E+00 0.0000E+00 0.9000E+01
#aMCatNLO 1  0  0  5  2 0.67131684D+01 0.00000000D+00  -5  6  0 0.00000000D+00 0.00000000D+00 0.00000000D+00 0.00000000D+00 0.00000000D+00
  <mgrwgt>
 0.4462329987D-05    5    2    0
 0.172338745422189D+03 0.000000000000000D+00 0.000000000000000D+00 0.172338745422189D+03
 0.172338745422189D+03 -.000000000000000D+00 -.000000000000000D+00 -.172338745422189D+03
 0.118294744056659D+03 0.794414690712391D+01 0.136289382191539D+02 0.106041449652327D+03
 0.628588910748834D+02 0.812926388895902D+01 -.270987515881608D+02 0.561321023849177D+02
 0.163523855712836D+03 -.160734107960830D+02 0.134698133690069D+02 -.162173552037245D+03
 0.000000000000000D+00 0.000000000000000D+00 0.000000000000000D+00 -.000000000000000D+00
 0.172338745422189D+03 0.000000000000000D+00 0.000000000000000D+00 0.172338745422189D+03
 0.172338745422189D+03 -.000000000000000D+00 -.000000000000000D+00 -.172338745422189D+03
 0.118094990999311D+03 0.792198406375797D+01 0.136475110888238D+02 0.105817836439332D+03
 0.627470262998112D+02 0.811748764041781D+01 -.270888828756610D+02 0.560132852850606D+02
 0.490657440554057D+02 -.946300468165763D+01 0.872703305512585D+01 -.473469922609688D+02
 0.114769729489851D+03 -.657646702251826D+01 0.471433873171147D+01 -.114484129463424D+03
0.129029055906D-05 0.000000000000D+00 0.000000000000D+00 0.552625321342D-05 0.000000000000D+00  6 22 -2 9900012 11 -1 21 0 0.31418795D-01 0.22374308D-01 0.25853437D+04 0.25853437D+04 0.25853437D+04 0.12754512D+01  1  2  2  2  6  5       -1 0.157607306905D-04 0.100000000000D+01
0.167258432405D-06 0.000000000000D+00 -.247752774404D-08 0.552625321342D-05 0.000000000000D+00  6 22 -2 9900012 11 -1 21 2 0.31418795D-01 0.22374308D-01 0.25853437D+04 0.25853437D+04 0.25853437D+04 0.12754512D+01  1  2  3  2  6  5       -1 0.332356760538D-05 0.100000000000D+01
-.184569761399D-06 0.000000000000D+00 0.000000000000D+00 0.552625321342D-05 0.000000000000D+00  6 22 -2 9900012 11 -1 21 2 0.31418795D-01 0.22374308D-01 0.25853437D+04 0.25853437D+04 0.25853437D+04 0.12754512D+01  1  2 15  2  6  5       -1 -.366755846684D-05 0.100000000000D+01
0.779925164044D-05 0.000000000000D+00 0.000000000000D+00 0.552625321342D-05 0.000000000000D+00  6 22 -2 9900012 11 -1 21 2 0.31418795D-01 0.22374308D-01 0.25844256D+04 0.25844256D+04 0.25844256D+04 0.12754700D+01  1  2 12  2  6  5       -1 0.154977870724D-03 0.100000000000D+01
-.835053666065D-05 0.000000000000D+00 0.000000000000D+00 0.552625321342D-05 0.000000000000D+00  6 22 -2 9900012 11 -1 21 2 0.31418795D-01 0.22374308D-01 0.25853437D+04 0.25853437D+04 0.25853437D+04 0.12754512D+01  1  2  5  2  6  5       -1 -.165932280566D-03 0.100000000000D+01
  </mgrwgt>
  </event>
  <event>
  6     66 0.64871765E-06 0.54185657E+02 0.78161638E-02 0.11802364E+00
       22 -1    0    0    0    0 0.00000000E+00 0.00000000E+00 0.11029924E+03 0.11029924E+03 0.00000000E+00 0.0000E+00 0.9000E+01
       -4 -1    0    0    0  501 -.00000000E+00 -.00000000E+00 -.15391649E+03 0.15391649E+03 0.00000000E+00 0.0000E+00 0.9000E+01
      -24  2    1    2    0    0 -.71947691E+02 -.84201834E+01 0.70496191E+02 0.12905196E+03 0.80232939E+02 0.0000E+00 0.0000E+00
  9900012  1    3    3    0    0 -.33685288E+02 -.26382232E+02 0.41747779E+02 0.77933291E+02 0.50000000E+02 0.0000E+00 0.9000E+01
       11  1    3    3    0    0 -.38262403E+02 0.17962048E+02 0.28748412E+02 0.51118664E+02 0.00000000E+00 0.0000E+00 0.9000E+01
       -3  1    1    2    0  501 0.71947691E+02 0.84201834E+01 -.11411344E+03 0.13516378E+03 0.00000000E+00 0.0000E+00 0.9000E+01
#aMCatNLO 1  0  0  5  2 0.40419584D+01 0.00000000D+00  -5  6  0 0.00000000D+00 0.00000000D+00 0.00000000D+00 0.00000000D+00 0.00000000D+00
  <mgrwgt>
 0.1411299928D-04    8    2    0
 0.130295326580328D+03 0.000000000000000D+00 0.000000000000000D+00 0.130295326580328D+03
 0.130295326580328D+03 -.000000000000000D+00 -.000000000000000D+00 -.130295326580328D+03
 0.860050977750911D+02 -.336852880225049D+02 -.263822316878879D+02 0.553728820390494D+02
 0.566416397436456D+02 -.382624027820202D+02 0.179620482713024D+02 0.377044918821987D+02
 0.117943915641920D+03 0.719476908045250D+02 0.842018341658549D+01 -.930773739212481D+02
 0.000000000000000D+00 0.000000000000000D+00 0.000000000000000D+00 -.000000000000000D+00
 0.130295326580328D+03 0.000000000000000D+00 0.000000000000000D+00 0.130295326580328D+03
 0.130295326580328D+03 -.000000000000000D+00 -.000000000000000D+00 -.130295326580328D+03
 0.856079701338796D+02 -.333697205092168D+02 -.263453001851185D+02 0.549646382844094D+02
 0.563302934515397D+02 -.380546664338263D+02 0.179863600752606D+02 0.374357472770326D+02
 0.113147095307005D+03 0.699622150973374D+02 0.115634579624754D+02 -.881693828663688D+02
 0.550529426823273D+01 0.146217184570571D+01 -.320451785261755D+01 -.423100269507325D+01
0.419405544959D-06 0.000000000000D+00 0.000000000000D+00 0.176964593729D-05 0.000000000000D+00  6 22 -4 9900012 11 -3 21 0 0.16969114D-01 0.23679460D-01 0.81464782D+04 0.81464782D+04 0.81464782D+04 0.12186724D+01  1  2  2  2  6  5       -3 0.741525920542D-05 0.100000000000D+01
0.290645543534D-08 0.000000000000D+00 -.805313862330D-09 0.176964593729D-05 0.000000000000D+00  6 22 -4 9900012 11 -3 21 2 0.16969114D-01 0.23679460D-01 0.81464782D+04 0.81464782D+04 0.81464782D+04 0.12186724D+01  1  2  3  2  6  5       -3 0.763184909910D-07 0.100000000000D+01
-.619170932604D-07 0.000000000000D+00 0.000000000000D+00 0.176964593729D-05 0.000000000000D+00  6 22 -4 9900012 11 -3 21 2 0.16969114D-01 0.23679460D-01 0.81464782D+04 0.81464782D+04 0.81464782D+04 0.12186724D+01  1  2 15  2  6  5       -3 -.162583574024D-05 0.100000000000D+01
0.179423128270D-06 0.000000000000D+00 0.000000000000D+00 0.176964593729D-05 0.000000000000D+00  6 22 -4 9900012 11 -3 21 2 0.16969114D-01 0.23679460D-01 0.82953214D+04 0.82953214D+04 0.82953214D+04 0.12178377D+01  1  2 12  2  6  5       -3 0.471391047482D-05 0.100000000000D+01
-.179737165499D-05 0.000000000000D+00 0.000000000000D+00 0.176964593729D-05 0.000000000000D+00  6 22 -4 9900012 11 -3 21 2 0.16969114D-01 0.23679460D-01 0.81464782D+04 0.81464782D+04 0.81464782D+04 0.12186724D+01  1  2  4  2  6  5       -3 -.471958698526D-04 0.100000000000D+01
-.460420150370D-05 0.000000000000D+00 0.000000000000D+00 0.176964593729D-05 0.000000000000D+00  6 22 -4 9900012 11 -3 21 2 0.16969114D-01 0.23679460D-01 0.81464782D+04 0.81464782D+04 0.81464782D+04 0.12186724D+01  1  2  5  2  6  5       -3 -.120898365311D-03 0.100000000000D+01
0.482412284377D-05 0.000000000000D+00 -.000000000000D+00 0.176964593729D-05 0.000000000000D+00  6 22 -4 9900012 11 -3 21 2 0.16969114D-01 0.23679460D-01 0.81464782D+04 0.81464782D+04 0.81464782D+04 0.12186724D+01  1  2  6  2  6  5       -3 0.126673119194D-03 0.100000000000D+01
0.171107839040D-05 0.000000000000D+00 0.000000000000D+00 0.176964593729D-05 0.699602353625D-06  6 22 -4 9900012 11 -3 21 2 0.16969114D-01 0.23679460D-01 0.82953214D+04 0.82953214D+04 0.82953214D+04 0.12178377D+01  1  2 11  2  6  5       -3 0.449544628139D-04 0.100000000000D+01
  </mgrwgt>
  </event>
  <event>
  6     66 0.64871765E-06 0.22766688E+02 0.78161638E-02 0.12865411E+00
       22 -1    0    0    0    0 0.00000000E+00 0.00000000E+00 0.71780553E+02 0.71780553E+02 0.00000000E+00 0.0000E+00 0.9000E+01
       -2 -1    0    0    0  501 0.00000000E+00 0.00000000E+00 -.45009998E+02 0.45009998E+02 0.00000000E+00 0.0000E+00 0.9000E+01
      -24  2    1    2    0    0 -.14425372E+02 -.17613369E+02 0.37550627E+02 0.91600631E+02 0.80388457E+02 0.0000E+00 0.0000E+00
  9900012  1    3    3    0    0 -.34544508E+02 -.12659579E+02 0.22655105E+02 0.66082084E+02 0.50000000E+02 0.0000E+00 0.9000E+01
       11  1    3    3    0    0 0.20119137E+02 -.49537896E+01 0.14895521E+02 0.25518547E+02 0.00000000E+00 0.0000E+00 0.9000E+01
       -1  1    1    2    0  501 0.14425372E+02 0.17613369E+02 -.10780072E+02 0.25189920E+02 0.00000000E+00 0.0000E+00 0.9000E+01
#aMCatNLO 1  0  0  5  2 0.14436202D+02 0.00000000D+00  -5  6  0 0.00000000D+00 0.00000000D+00 0.00000000D+00 0.00000000D+00 0.00000000D+00
  <mgrwgt>
 0.4799612963D-04    5    2    0
 0.568405009977169D+02 0.000000000000000D+00 0.000000000000000D+00 0.568405009977169D+02
 0.568405009977169D+02 -.000000000000000D+00 -.000000000000000D+00 -.568405009977169D+02
 0.625546320401486D+02 -.345445083738352D+02 -.126595791701555D+02 0.771323447867187D+01
 0.227088412502231D+02 0.201191368019171D+02 -.495378959449888D+01 0.929364158589173D+01
 0.284175287050622D+02 0.144253715719182D+02 0.176133687646544D+02 -.170068760645636D+02
 0.000000000000000D+00 0.000000000000000D+00 -.000000000000000D+00 0.000000000000000D+00
 0.568405009977169D+02 0.000000000000000D+00 0.000000000000000D+00 0.568405009977169D+02
 0.568405009977169D+02 -.000000000000000D+00 -.000000000000000D+00 -.568405009977169D+02
 0.576391812791881D+02 -.282411505645373D+02 -.496318362171373D+01 0.281853975308159D+00
 0.235289431436367D+02 0.225439978766658D+02 -.199303589053548D+01 0.643483745967316D+01
 0.109956849805740D+02 -.430153632894300D+01 -.255802546866030D+01 0.979072924273213D+01
 0.215171925920351D+02 0.999868901681449D+01 0.951424498090950D+01 -.165074206777134D+02
0.147744766715D-06 0.000000000000D+00 0.000000000000D+00 0.112979441528D-06 0.000000000000D+00  6 22 -2 9900012 11 -1 21 0 0.11043162D-01 0.69246151D-02 0.27859392D+04 0.27859392D+04 0.27859392D+04 0.12715012D+01  1  2  2  2  6  5       -1 0.500123858709D-04 0.100000000000D+01
0.428863223126D-08 0.000000000000D+00 -.283689403138D-09 0.112979441528D-06 0.000000000000D+00  6 22 -2 9900012 11 -1 21 2 0.11043162D-01 0.69246151D-02 0.27859392D+04 0.27859392D+04 0.27859392D+04 0.12715012D+01  1  2  3  2  6  5       -1 0.234702547528D-05 0.100000000000D+01
-.188665194625D-07 0.000000000000D+00 0.000000000000D+00 0.112979441528D-06 0.000000000000D+00  6 22 -2 9900012 11 -1 21 2 0.11043162D-01 0.69246151D-02 0.27859392D+04 0.27859392D+04 0.27859392D+04 0.12715012D+01  1  2 15  2  6  5       -1 -.103250172597D-04 0.100000000000D+01
0.138251381386D-07 0.000000000000D+00 0.000000000000D+00 0.112979441528D-06 0.000000000000D+00  6 22 -2 9900012 11 -1 21 2 0.11043162D-01 0.69246151D-02 0.24540662D+04 0.24540662D+04 0.24540662D+04 0.12782274D+01  1  2 12  2  6  5       -1 0.752639034449D-05 0.100000000000D+01
-.285903543757D-08 0.000000000000D+00 0.000000000000D+00 0.112979441528D-06 0.000000000000D+00  6 22 -2 9900012 11 -1 21 2 0.11043162D-01 0.69246151D-02 0.27859392D+04 0.27859392D+04 0.27859392D+04 0.12715012D+01  1  2  4  2  6  5       -1 -.156465480015D-05 0.100000000000D+01
  </mgrwgt>
  </event>
  <event>
  6     66 0.64871765E-06 0.22354581E+02 0.78161638E-02 0.12480756E+00
       22 -1    0    0    0    0 0.00000000E+00 0.00000000E+00 0.35315673E+03 0.35315673E+03 0.00000000E+00 0.0000E+00 0.9000E+01
       -4 -1    0    0    0  501 0.00000000E+00 0.00000000E+00 -.10424274E+03 0.10424274E+03 0.00000000E+00 0.0000E+00 0.9000E+01
      -24  2    1    2    0    0 0.19682072E+02 -.10599214E+02 0.34692417E+03 0.35687224E+03 0.80633052E+02 0.0000E+00 0.0000E+00
  9900012  1    3    3    0    0 -.96529090E+01 -.13476858E+02 0.25323641E+03 0.25865708E+03 0.50000000E+02 0.0000E+00 0.9000E+01
       11  1    3    3    0    0 0.29334981E+02 0.28776440E+01 0.93687766E+02 0.98215169E+02 0.00000000E+00 0.0000E+00 0.9000E+01
       -3  1    1    2    0  501 -.19682072E+02 0.10599214E+02 -.98010183E+02 0.10052723E+03 0.00000000E+00 0.0000E+00 0.9000E+01
#aMCatNLO 1  0  0  2  5 0.67547225D+02 0.00000000D+00  -5  6  0 0.00000000D+00 0.00000000D+00 0.00000000D+00 0.00000000D+00 0.00000000D+00
  <mgrwgt>
 0.1299078283D-04    4    2    0
 0.191869813210971D+03 0.000000000000000D+00 0.000000000000000D+00 0.191869813210971D+03
 0.191869813210971D+03 0.000000000000000D+00 0.000000000000000D+00 -.191869813210971D+03
 0.144044348571002D+03 -.965290904803472D+01 -.134768583862188D+02 0.134067035434489D+03
 0.562969498109732D+02 0.293349806599809D+02 0.287764403287106D+01 0.479637845933560D+02
 0.183398328039968D+03 -.196820716119462D+02 0.105992143533477D+02 -.182030820027845D+03
 0.000000000000000D+00 -.000000000000000D+00 -.000000000000000D+00 0.000000000000000D+00
 0.225975343913517D+03 0.000000000000000D+00 0.000000000000000D+00 0.225975343913517D+03
 0.196746990931768D+03 0.000000000000000D+00 0.000000000000000D+00 -.196746990931768D+03
 0.143375678328623D+03 -.165153166553743D+01 -.893798574388850D+01 0.134067035434489D+03
 0.581383508644100D+02 0.325207016984911D+02 0.468478065155117D+01 0.479637845933560D+02
 0.183012585380645D+03 -.948169682606629D+01 0.163854933705606D+02 -.182030820027845D+03
 0.381957202716080D+02 -.213874732068874D+02 -.121322882782233D+02 0.292283529817485D+02
0.264866423549D-05 0.000000000000D+00 0.000000000000D+00 0.247194641350D-04 0.000000000000D+00  6 22 -4 9900012 11 -3 21 0 0.54331805D-01 0.16037345D-01 0.27304167D+04 0.27304167D+04 0.27304167D+04 0.12725618D+01  1  2  2  1  6  2       -4 0.135062375159D-04 0.100000000000D+01
0.327404638227D-06 0.000000000000D+00 -.508578403680D-08 0.247194641350D-04 0.000000000000D+00  6 22 -4 9900012 11 -3 21 2 0.54331805D-01 0.16037345D-01 0.27304167D+04 0.27304167D+04 0.27304167D+04 0.12725618D+01  1  2  3  1  6  2       -4 0.270364728906D-05 0.100000000000D+01
-.387686024683D-06 0.000000000000D+00 0.000000000000D+00 0.247194641350D-04 0.000000000000D+00  6 22 -4 9900012 11 -3 21 2 0.54331805D-01 0.16037345D-01 0.27304167D+04 0.27304167D+04 0.27304167D+04 0.12725618D+01  1  2 15  1  6  2       -4 -.320143989199D-05 0.100000000000D+01
-.213883198084D-08 0.000000000000D+00 0.000000000000D+00 0.247194641350D-04 0.000000000000D+00  6 22 -4 9900012 11 -3 21 2 0.54331805D-01 0.16037345D-01 0.27304167D+04 0.27304167D+04 0.27304167D+04 0.12725618D+01  1  2  4  1  6  2       -4 -.176620811424D-07 0.100000000000D+01
  </mgrwgt>
  </event>
  <event>
  7     66 -.64871765E-06 0.58017868E+02 0.78161638E-02 0.11859935E+00
       22 -1    0    0    0    0 0.00000000E+00 0.00000000E+00 0.15128898E+04 0.15128898E+04 0.00000000E+00 0.0000E+00 0.9000E+01
       -2 -1    0    0    0  502 0.00000000E+00 0.00000000E+00 -.11247075E+02 0.11247075E+02 0.00000000E+00 0.0000E+00 0.9000E+01
      -24  2    1    2    0    0 0.25403513E+02 0.49283576E+02 0.12720693E+04 0.12762438E+04 0.86969393E+02 0.0000E+00 0.0000E+00
  9900012  1    3    3    0    0 0.92231257E+01 0.12444932E+02 0.98239103E+03 0.98378457E+03 0.50000000E+02 0.0000E+00 0.9000E+01
       11  1    3    3    0    0 0.16180387E+02 0.36838644E+02 0.28967828E+03 0.29245922E+03 0.00000000E+00 0.0000E+00 0.9000E+01
       -1  1    1    2    0  501 -.17145156E+02 -.64375844E+02 0.12247266E+03 0.13941936E+03 0.00000000E+00 0.0000E+00 0.9000E+01
       21  1    1    2  501  502 -.82583574E+01 0.15092268E+02 0.10710078E+03 0.10847375E+03 0.00000000E+00 0.0000E+00 0.9000E+01
#aMCatNLO 2  0  0  2  5 0.25327069D+02 0.00000000D+00  -5  6  0 0.00000000D+00 0.00000000D+00 0.00000000D+00 0.00000000D+00 0.00000000D+00
  <mgrwgt>
 -.7370300313D-05    2    2    0
 0.121510158771889D+03 0.000000000000000D+00 0.000000000000000D+00 0.121510158771889D+03
 0.121510158771889D+03 0.000000000000000D+00 0.000000000000000D+00 -.121510158771889D+03
 0.939579679228043D+02 0.604597814237427D+01 0.182512149021052D+02 0.771909258856365D+02
 0.431140076491157D+02 0.147483563007736D+02 0.394557014568009D+02 0.919517615629191D+01
 0.105948341971858D+03 -.207943344431479D+02 -.577069163589061D+02 -.863861020419284D+02
 0.000000000000000D+00 -.000000000000000D+00 0.000000000000000D+00 0.000000000000000D+00
 0.131158787612969D+03 0.000000000000000D+00 0.000000000000000D+00 0.131158787612969D+03
 0.129732710659584D+03 0.000000000000000D+00 0.000000000000000D+00 -.129732710659584D+03
 0.932651136032757D+02 0.922312567001008D+01 0.124449318690497D+02 0.771909258856365D+02
 0.412727742918349D+02 0.161803872951544D+02 0.368386441142764D+02 0.919517615629191D+01
 0.109090623873594D+03 -.171451555432372D+02 -.643758435481017D+02 -.863861020419284D+02
 0.172629865038486D+02 -.825835742192736D+01 0.150922675647756D+02 0.142607695338548D+01
-.384341080914D-06 0.000000000000D+00 0.000000000000D+00 0.289772421173D-07 0.000000000000D+00  6 22 -2 9900012 11 -1 21 2 0.21562998D+00 0.18677168D-02 0.77795699D+04 0.77795699D+04 0.77795699D+04 0.12208044D+01  1  2 13  1  6  2       -2 -.785440684738D-05 0.100000000000D+01
0.260245227977D-07 0.000000000000D+00 0.000000000000D+00 0.289772421173D-07 0.405963408201D-10  6 22 -2 9900012 11 -1 21 2 0.23275228D+00 0.17303192D-02 0.77795699D+04 0.77795699D+04 0.77795699D+04 0.12208044D+01  1  2  1  1  6  2       -2 0.484106534436D-06 0.100000000000D+01
  </mgrwgt>
  </event>
  <event>
  7     66 -.64871765E-06 0.93971194E+02 0.78161638E-02 0.11483671E+00
       22 -1    0    0    0    0 0.00000000E+00 0.00000000E+00 0.33183253E+02 0.33183253E+02 0.00000000E+00 0.0000E+00 0.9000E+01
       -4 -1    0    0    0  502 0.00000000E+00 0.00000000E+00 -.52805956E+03 0.52805956E+03 0.00000000E+00 0.0000E+00 0.9000E+01
      -24  2    1    2    0    0 -.77671334E+02 0.49730930E+02 -.14074142E+03 0.18624320E+03 0.79827198E+02 0.0000E+00 0.0000E+00
  9900012  1    3    3    0    0 -.31018463E+02 0.28694398E+02 -.10530858E+03 0.12399762E+03 0.50000000E+02 0.0000E+00 0.9000E+01
       11  1    3    3    0    0 -.46652871E+02 0.21036531E+02 -.35432843E+02 0.62245581E+02 0.00000000E+00 0.0000E+00 0.9000E+01
       -3  1    1    2    0  501 0.83188925E+02 -.49370356E+02 -.21505975E+03 0.23581460E+03 0.00000000E+00 0.0000E+00 0.9000E+01
       21  1    1    2  501  502 -.55175917E+01 -.36057321E+00 -.13907513E+03 0.13918501E+03 0.00000000E+00 0.0000E+00 0.9000E+01
#aMCatNLO 2  0  0  2  5 0.55467059D+01 0.00000000D+00  -5  6  0 0.00000000D+00 0.00000000D+00 0.00000000D+00 0.00000000D+00 0.00000000D+00
  <mgrwgt>
 -.2725685816D-05    2    2    0
 0.113476585400224D+03 0.000000000000000D+00 0.000000000000000D+00 0.113476585400224D+03
 0.113476585400224D+03 0.000000000000000D+00 0.000000000000000D+00 -.113476585400224D+03
 0.662077073700240D+02 -.326189913037209D+02 0.285898042510283D+02 -.144395789772323D+01
 0.613078568711836D+02 -.481295447527497D+02 0.209400309859337D+02 0.316814667958845D+02
 0.994376065592395D+02 0.807485360564706D+02 -.495298352369620D+02 -.302375088981613D+02
 0.000000000000000D+00 -.000000000000000D+00 -.000000000000000D+00 -.000000000000000D+00
 0.113698495812269D+03 0.000000000000000D+00 0.000000000000000D+00 0.113698495812269D+03
 0.154115795004141D+03 0.000000000000000D+00 0.000000000000000D+00 -.154115795004141D+03
 0.654797569401669D+02 -.310184631718313D+02 0.286943983556144D+02 -.144395789772323D+01
 0.601892126481034D+02 -.466528705778282D+02 0.210365312660687D+02 0.316814667958845D+02
 0.101351548355758D+03 0.831889254489096D+02 -.493703564135300D+02 -.302375088981613D+02
 0.407937728723813D+02 -.551759169925008D+01 -.360573208153107D+00 -.404172991918728D+02
-.158084693588D-05 0.000000000000D+00 0.000000000000D+00 0.298082665624D-06 0.000000000000D+00  6 22 -4 9900012 11 -3 21 2 0.50951519D-02 0.81398803D-01 0.11979903D+05 0.11979903D+05 0.11979903D+05 0.12012829D+01  1  2 13  1  6  2       -4 -.174058864075D-04 0.100000000000D+01
0.133053390092D-05 0.000000000000D+00 0.000000000000D+00 0.298082665624D-06 0.659126565939D-07  6 22 -4 9900012 11 -3 21 2 0.51051158D-02 0.81239933D-01 0.11979903D+05 0.11979903D+05 0.11979903D+05 0.12012829D+01  1  2  1  1  6  2       -4 0.146802005912D-04 0.100000000000D+01
  </mgrwgt>
  </event>
  <event>
  6     66 0.64871765E-06 0.34903018E+02 0.78161638E-02 0.12146696E+00
       22 -1    0    0    0    0 0.00000000E+00 0.00000000E+00 0.57769302E+03 0.57769302E+03 0.00000000E+00 0.0000E+00 0.9000E+01
       -2 -1    0    0    0  501 0.00000000E+00 0.00000000E+00 -.65391248E+01 0.65391248E+01 0.00000000E+00 0.0000E+00 0.9000E+01
      -24  2    1    2    0    0 0.19297961E+02 0.29082802E+02 0.38102168E+03 0.39092286E+03 0.80155728E+02 0.0000E+00 0.0000E+00
  9900012  1    3    3    0    0 0.23824726E+02 0.46373455E+00 0.19716919E+03 0.20480118E+03 0.50000000E+02 0.0000E+00 0.9000E+01
       11  1    3    3    0    0 -.45267650E+01 0.28619067E+02 0.18385248E+03 0.18612168E+03 0.00000000E+00 0.0000E+00 0.9000E+01
       -1  1    1    2    0  501 -.19297961E+02 -.29082802E+02 0.19013222E+03 0.19330929E+03 0.00000000E+00 0.0000E+00 0.9000E+01
#aMCatNLO 1  0  0  2  2 0.10674584D+03 0.00000000D+00  -5  6  0 0.00000000D+00 0.00000000D+00 0.00000000D+00 0.00000000D+00 0.00000000D+00
  <mgrwgt>
 0.1103728478D-03    3    2    0
 0.614622388951729D+02 0.000000000000000D+00 0.000000000000000D+00 0.614622388951729D+02
 0.614622388951729D+02 0.000000000000000D+00 0.000000000000000D+00 -.614622388951729D+02
 0.572504367218829D+02 0.238247257689351D+02 0.463734545619484D+00 -.144837804855140D+02
 0.303454933484648D+02 -.452676502839666D+01 0.286190670983914D+02 0.901700412316525D+01
 0.353285477199980D+02 -.192979607405384D+02 -.290828016440109D+02 0.546677636234871D+01
 0.000000000000000D+00 -.000000000000000D+00 0.000000000000000D+00 0.000000000000000D+00
 0.137391515007084D+03 0.000000000000000D+00 0.000000000000000D+00 0.137391515007084D+03
 0.658382001927942D+02 0.000000000000000D+00 0.000000000000000D+00 -.658382001927942D+02
 0.627900204564610D+02 0.339912230205632D+02 -.879792755917922D+01 -.144837804855140D+02
 0.259008158555603D+02 0.236861846894117D+00 0.242794109296735D+02 0.901700412316525D+01
 0.375034740743633D+02 -.131296524317587D+02 -.347021202647867D+02 0.546677636234871D+01
 0.770354048134938D+02 -.210984324356987D+02 0.192206368942924D+02 0.715533148142900D+02
0.731907283643D-06 0.000000000000D+00 0.000000000000D+00 0.785569128175D-07 0.000000000000D+00  6 22 -2 9900012 11 -1 21 0 0.88875850D-01 0.10060192D-02 0.35560886D+04 0.35560886D+04 0.35560886D+04 0.12588587D+01  1  2  2  1  6  2       -2 0.147544572186D-03 0.100000000000D+01
-.220061137333D-07 0.000000000000D+00 -.140535834240D-08 0.785569128175D-07 0.000000000000D+00  6 22 -2 9900012 11 -1 21 2 0.88875850D-01 0.10060192D-02 0.35560886D+04 0.35560886D+04 0.35560886D+04 0.12588587D+01  1  2  3  1  6  2       -2 -.703014849388D-05 0.100000000000D+01
-.943506310323D-07 0.000000000000D+00 0.000000000000D+00 0.785569128175D-07 0.000000000000D+00  6 22 -2 9900012 11 -1 21 2 0.88875850D-01 0.10060192D-02 0.35560886D+04 0.35560886D+04 0.35560886D+04 0.12588587D+01  1  2 15  1  6  2       -2 -.301415758678D-04 0.100000000000D+01
  </mgrwgt>
  </event>
  <event>
  7     66 -.64871765E-06 0.11634808E+03 0.78161638E-02 0.11138734E+00
       22 -1    0    0    0    0 0.00000000E+00 0.00000000E+00 0.23352222E+03 0.23352222E+03 0.00000000E+00 0.0000E+00 0.9000E+01
       -4 -1    0    0    0  501 0.00000000E+00 0.00000000E+00 -.19748191E+03 0.19748191E+03 0.00000000E+00 0.0000E+00 0.9000E+01
      -24  2    1    2    0    0 0.92068579E+02 0.84649835E+02 0.18159817E+03 0.23763718E+03 0.88607661E+02 0.0000E+00 0.0000E+00
  9900012  1    3    3    0    0 0.47466360E+02 0.69973957E+02 0.83674941E+02 0.12903839E+03 0.50000000E+02 0.0000E+00 0.9000E+01
       11  1    3    3    0    0 0.44602220E+02 0.14675878E+02 0.97923229E+02 0.10859879E+03 0.00000000E+00 0.0000E+00 0.9000E+01
       -3  1    1    2    0  502 -.31226908E+02 -.31450857E+02 -.69229965E+02 0.82201364E+02 0.00000000E+00 0.0000E+00 0.9000E+01
       21  1    1    2  502  501 -.60841671E+02 -.53198978E+02 -.76327898E+02 0.11116559E+03 0.00000000E+00 0.0000E+00 0.9000E+01
#aMCatNLO 2  0  0  5  2 0.11724525D+02 0.00000000D+00  -5  6  0 0.00000000D+00 0.00000000D+00 0.00000000D+00 0.00000000D+00 0.00000000D+00
  <mgrwgt>
 -.6767406705D-05    2    2    0
 0.214747329260035D+03 0.000000000000000D+00 0.000000000000000D+00 0.214747329260035D+03
 0.214747329260035D+03 -.000000000000000D+00 -.000000000000000D+00 -.214747329260035D+03
 0.122815564536159D+03 0.476418590294487D+02 0.701353143950413D+02 0.734503494563660D+02
 0.101071945338807D+03 0.447466303705901D+02 0.148086525637254D+02 0.894090656158279D+02
 0.205607148645105D+03 -.923884894000388D+02 -.849439669587667D+02 -.162859415072194D+03
 0.000000000000000D+00 -.000000000000000D+00 0.000000000000000D+00 0.000000000000000D+00
 0.214747329260035D+03 0.000000000000000D+00 0.000000000000000D+00 0.214747329260035D+03
 0.214747329260035D+03 -.000000000000000D+00 -.000000000000000D+00 -.214747329260035D+03
 0.122470460346170D+03 0.474663598662559D+02 0.699739566846128D+02 0.731409852568986D+02
 0.100763410108122D+03 0.446022196321444D+02 0.146758782205720D+02 0.891545030772895D+02
 0.882995779837463D+02 -.312269082622980D+02 -.314508567449203D+02 -.763710631227314D+02
 0.117961210082033D+03 -.608416712361023D+02 -.531989781602645D+02 -.859244252114566D+02
-.518562963905D-05 0.000000000000D+00 0.000000000000D+00 0.839383795947D-07 0.000000000000D+00  6 22 -4 9900012 11 -3 21 2 0.35926496D-01 0.30381833D-01 0.18269039D+05 0.18269039D+05 0.18269039D+05 0.11831038D+01  1  2 13  2  6  5       -3 -.276504239540D-04 0.100000000000D+01
0.391645326589D-05 0.000000000000D+00 0.000000000000D+00 0.839383795947D-07 0.876369587237D-09  6 22 -4 9900012 11 -3 21 2 0.35926496D-01 0.30381833D-01 0.18269039D+05 0.18269039D+05 0.18269039D+05 0.11831038D+01  1  2  1  2  6  5       -3 0.208830172487D-04 0.100000000000D+01
  </mgrwgt>
  </event>
  <event>
  7     66 0.64871765E-06 0.19424620E+02 0.78161638E-02 0.13092049E+00
       22 -1    0    0    0    0 0.00000000E+00 0.00000000E+00 0.35222806E+02 0.35222806E+02 0.00000000E+00 0.0000E+00 0.9000E+01
       -2 -1    0    0    0  502 0.00000000E+00 0.00000000E+00 -.11650358E+03 0.11650358E+03 0.00000000E+00 0.0000E+00 0.9000E+01
      -24  2    1    2    0    0 0.14585564E+02 0.11836746E+02 -.19159837E+02 0.84579609E+02 0.80210745E+02 0.0000E+00 0.0000E+00
  9900012  1    3    3    0    0 -.54187574E+01 0.11124962E+01 -.30887896E+02 0.59031032E+02 0.50000000E+02 0.0000E+00 0.9000E+01
       11  1    3    3    0    0 0.20004322E+02 0.10724250E+02 0.11728059E+02 0.25548577E+02 0.00000000E+00 0.0000E+00 0.9000E+01
       -1  1    1    2    0  501 -.15165567E+02 -.13508081E+02 -.39117449E+02 0.44075362E+02 0.00000000E+00 0.0000E+00 0.9000E+01
       21  1    1    2  501  502 0.58000271E+00 0.16713348E+01 -.23003491E+02 0.23071419E+02 0.00000000E+00 0.0000E+00 0.9000E+01
#aMCatNLO 2  0  0  2  5 0.28168466D+01 0.00000000D+00  -5  6  0 0.00000000D+00 0.00000000D+00 0.00000000D+00 0.00000000D+00 0.00000000D+00
  <mgrwgt>
 0.1477012205D-03    1    2    0
 0.573426752244678D+02 0.000000000000000D+00 0.000000000000000D+00 0.573426752244678D+02
 0.573426752244678D+02 0.000000000000000D+00 0.000000000000000D+00 -.573426752244678D+02
 0.505146413469068D+02 -.516328978197798D+01 0.184865113829356D+01 -.465316215092808D+01
 0.348776653141413D+02 0.201800380351103D+02 0.112305939694433D+02 0.261360165625953D+02
 0.292930437878876D+02 -.150167482531323D+02 -.130792451077369D+02 -.214828544116672D+02
 0.000000000000000D+00 0.000000000000000D+00 0.000000000000000D+00 -.000000000000000D+00
 0.574048503785383D+02 0.000000000000000D+00 0.000000000000000D+00 0.574048503785383D+02
 0.714849545293824D+02 0.000000000000000D+00 0.000000000000000D+00 -.714849545293824D+02
 0.505198228137935D+02 -.541875736099689D+01 0.111249620084612D+01 -.465316215092808D+01
 0.346160915209218D+02 0.200043217390616D+02 0.107242501921899D+02 0.261360165625953D+02
 0.295630803026854D+02 -.151655670909097D+02 -.135080812153782D+02 -.214828544116672D+02
 0.141908102705201D+02 0.580002712844965D+00 0.167133482234211D+01 -.140801041508441D+02
0.424900160774D-06 0.000000000000D+00 0.000000000000D+00 0.265751112902D-06 0.546539016513D-06  6 22 -2 9900012 11 -1 21 2 0.54188932D-02 0.17923628D-01 0.22600990D+04 0.22600990D+04 0.22600990D+04 0.12826517D+01  1  2  1  1  6  2       -2 0.147701220467D-03 0.100000000000D+01
  </mgrwgt>
  </event>
  <event>
  6     66 0.64871765E-06 0.58783452E+02 0.78161638E-02 0.11397784E+00
       22 -1    0    0    0    0 0.00000000E+00 0.00000000E+00 0.20757962E+02 0.20757962E+02 0.00000000E+00 0.0000E+00 0.9000E+01
       -2 -1    0    0    0  501 -.00000000E+00 -.00000000E+00 -.10636362E+04 0.10636362E+04 0.00000000E+00 0.0000E+00 0.9000E+01
      -24  2    1    2    0    0 0.52127159E+02 0.86200754E+02 -.22007512E+03 0.25544737E+03 0.81685310E+02 0.0000E+00 0.0000E+00
  9900012  1    3    3    0    0 0.41420261E+02 0.28599031E+02 -.11425126E+03 0.13448752E+03 0.50000000E+02 0.0000E+00 0.9000E+01
       11  1    3    3    0    0 0.10706899E+02 0.57601723E+02 -.10582385E+03 0.12095984E+03 0.00000000E+00 0.0000E+00 0.9000E+01
       -1  1    1    2    0  501 -.52127159E+02 -.86200754E+02 -.82280311E+03 0.82894679E+03 0.00000000E+00 0.0000E+00 0.9000E+01
#aMCatNLO 1  0  0  5  2 0.77778326D+00 0.00000000D+00  -5  6  0 0.00000000D+00 0.00000000D+00 0.00000000D+00 0.00000000D+00 0.00000000D+00
  <mgrwgt>
 0.3527647636D-04    6    2    0
 0.148589769725759D+03 0.000000000000000D+00 0.000000000000000D+00 0.148589769725759D+03
 0.148589769725759D+03 -.000000000000000D+00 -.000000000000000D+00 -.148589769725759D+03
 0.898020375794175D+02 0.414202607513926D+02 0.285990312197527D+02 0.550532775227177D+02
 0.700140937176302D+02 0.107068986620356D+02 0.576017231482079D+02 0.383324553152968D+02
 0.137363408154470D+03 -.521271594134282D+02 -.862007543679605D+02 -.933857328380144D+02
 0.000000000000000D+00 0.000000000000000D+00 0.000000000000000D+00 -.000000000000000D+00
 0.148589769725759D+03 0.000000000000000D+00 0.000000000000000D+00 0.148589769725759D+03
 0.148589769725759D+03 -.000000000000000D+00 -.000000000000000D+00 -.148589769725759D+03
 0.897178637551689D+02 0.413799007537254D+02 0.285322893852780D+02 0.549809726436123D+02
 0.699356200830616D+02 0.106754349074293D+02 0.575496927016455D+02 0.382760880431338D+02
 0.866063204262685D+00 0.390937058728587D+00 -.697069398678357D+00 -.333658423123898D+00
 0.136659992409024D+03 -.524462727198833D+02 -.853849126882452D+02 -.929234022636222D+02
0.696795696074D-05 0.000000000000D+00 0.000000000000D+00 0.338750428524D-06 0.000000000000D+00  6 22 -2 9900012 11 -1 21 0 0.31935326D-02 0.16363634D+00 0.13256318D+05 0.13256318D+05 0.13256318D+05 0.11968433D+01  1  2  2  2  6  5       -1 0.413216757681D-04 0.100000000000D+01
-.404934872960D-07 0.000000000000D+00 -.133793947172D-07 0.338750428524D-06 0.000000000000D+00  6 22 -2 9900012 11 -1 21 2 0.31935326D-02 0.16363634D+00 0.13256318D+05 0.13256318D+05 0.13256318D+05 0.11968433D+01  1  2  3  2  6  5       -1 -.343979259353D-06 0.100000000000D+01
-.944191494541D-06 0.000000000000D+00 0.000000000000D+00 0.338750428524D-06 0.000000000000D+00  6 22 -2 9900012 11 -1 21 2 0.31935326D-02 0.16363634D+00 0.13256318D+05 0.13256318D+05 0.13256318D+05 0.11968433D+01  1  2 15  2  6  5       -1 -.802060560025D-05 0.100000000000D+01
0.138297793497D-11 0.000000000000D+00 0.000000000000D+00 0.338750428524D-06 0.000000000000D+00  6 22 -2 9900012 11 -1 21 2 0.31935326D-02 0.16363634D+00 0.13274895D+05 0.13274895D+05 0.13274895D+05 0.11967823D+01  1  2 12  2  6  5       -1 0.117475477936D-10 0.100000000000D+01
-.136454938889D-05 0.000000000000D+00 0.000000000000D+00 0.338750428524D-06 0.000000000000D+00  6 22 -2 9900012 11 -1 21 2 0.31935326D-02 0.16363634D+00 0.13256318D+05 0.13256318D+05 0.13256318D+05 0.11968433D+01  1  2  5  2  6  5       -1 -.115914118413D-04 0.100000000000D+01
0.163764470685D-05 0.000000000000D+00 0.000000000000D+00 0.338750428524D-06 0.131218632706D-07  6 22 -2 9900012 11 -1 21 2 0.31935326D-02 0.16363634D+00 0.13274895D+05 0.13274895D+05 0.13274895D+05 0.11967823D+01  1  2 11  2  6  5       -1 0.139107855421D-04 0.100000000000D+01
  </mgrwgt>
  </event>
  <event>
  6     66 0.64871765E-06 0.25366503E+02 0.78161638E-02 0.12894117E+00
       22 -1    0    0    0    0 0.00000000E+00 0.00000000E+00 0.14772768E+03 0.14772768E+03 0.00000000E+00 0.0000E+00 0.9000E+01
       -2 -1    0    0    0  501 0.00000000E+00 0.00000000E+00 -.20336829E+02 0.20336829E+02 0.00000000E+00 0.0000E+00 0.9000E+01
      -24  2    1    2    0    0 -.15660946E+02 0.19954805E+02 0.10714850E+03 0.13561128E+03 0.79159069E+02 0.0000E+00 0.0000E+00
  9900012  1    3    3    0    0 -.90488361E+01 -.42891882E+01 0.42953390E+02 0.66672875E+02 0.50000000E+02 0.0000E+00 0.9000E+01
       11  1    3    3    0    0 -.66121101E+01 0.24243993E+02 0.64195114E+02 0.68938406E+02 0.00000000E+00 0.0000E+00 0.9000E+01
       -1  1    1    2    0  501 0.15660946E+02 -.19954805E+02 0.20242350E+02 0.32453231E+02 0.00000000E+00 0.0000E+00 0.9000E+01
#aMCatNLO 1  0  0  2  5 0.25214205D+01 0.00000000D+00  -5  6  0 0.00000000D+00 0.00000000D+00 0.00000000D+00 0.00000000D+00 0.00000000D+00
  <mgrwgt>
 0.9187688300D-03    9    4    0
 0.548116108953332D+02 0.000000000000000D+00 0.000000000000000D+00 0.548116108953332D+02
 0.548116108953332D+02 0.000000000000000D+00 0.000000000000000D+00 -.548116108953332D+02
 0.523016487295911D+02 -.904883613635334D+01 -.428918824014048D+01 -.116268606533152D+02
 0.310903950651161D+02 -.661211010703134D+01 0.242439934079992D+02 0.183063226473909D+02
 0.262311779959591D+02 0.156609462433847D+02 -.199548051678587D+02 -.667946199407577D+01
 0.000000000000000D+00 0.000000000000000D+00 -.000000000000000D+00 -.000000000000000D+00
 0.548436419765354D+02 0.000000000000000D+00 0.000000000000000D+00 0.548436419765354D+02
 0.145385624871559D+03 0.000000000000000D+00 0.000000000000000D+00 -.145385624871559D+03
 0.522362921449572D+02 -.915876517598193D+01 -.309246646755168D+01 -.116268606533152D+02
 0.316676723580613D+02 -.667810465430347D+01 0.249624306094842D+02 0.183063226473909D+02
 0.257482359044320D+02 0.156062862127516D+02 -.193597590456508D+02 -.667946199407577D+01
 0.905770664406441D+02 0.230583617533842D+00 -.251020509628172D+01 -.905419828950238D+02
 0.548116108953332D+02 0.000000000000000D+00 0.000000000000000D+00 0.548116108953332D+02
 0.548116108953332D+02 0.000000000000000D+00 0.000000000000000D+00 -.548116108953332D+02
 0.523016487295911D+02 -.904883613635334D+01 -.428918824014048D+01 -.116268606533152D+02
 0.310903950651161D+02 -.661211010703134D+01 0.242439934079992D+02 0.183063226473909D+02
 0.000000000000000D+00 0.000000000000000D+00 -.000000000000000D+00 -.000000000000000D+00
 0.262311779959591D+02 0.156609462433847D+02 -.199548051678587D+02 -.667946199407577D+01
 0.548436419765354D+02 0.000000000000000D+00 0.000000000000000D+00 0.548436419765354D+02
 0.145385624871559D+03 0.000000000000000D+00 0.000000000000000D+00 -.145385624871559D+03
 0.522362921449572D+02 -.915876517598193D+01 -.309246646755168D+01 -.116268606533152D+02
 0.316676723580613D+02 -.667810465430347D+01 0.249624306094842D+02 0.183063226473909D+02
 0.905770664406441D+02 0.230583617533842D+00 -.251020509628172D+01 -.905419828950238D+02
 0.257482359044320D+02 0.156062862127516D+02 -.193597590456508D+02 -.667946199407577D+01
0.685319776073D-07 0.000000000000D+00 0.000000000000D+00 0.846400334454D-07 0.000000000000D+00  6 22 -2 9900012 11 -1 21 0 0.22727336D-01 0.31287430D-02 0.25750002D+04 0.25750002D+04 0.25750002D+04 0.12756641D+01  1  2  2  1  6  2       -2 0.254599907393D-04 0.100000000000D+01
-.168080988545D-09 0.000000000000D+00 -.131590419448D-09 0.846400334454D-07 0.000000000000D+00  6 22 -2 9900012 11 -1 21 2 0.22727336D-01 0.31287430D-02 0.25750002D+04 0.25750002D+04 0.25750002D+04 0.12756641D+01  1  2  3  1  6  2       -2 -.101614627987D-06 0.100000000000D+01
-.820364173404D-08 0.000000000000D+00 0.000000000000D+00 0.846400334454D-07 0.000000000000D+00  6 22 -2 9900012 11 -1 21 2 0.22727336D-01 0.31287430D-02 0.25750002D+04 0.25750002D+04 0.25750002D+04 0.12756641D+01  1  2 15  1  6  2       -2 -.495957341851D-05 0.100000000000D+01
0.100873976101D-06 0.000000000000D+00 0.000000000000D+00 0.846400334454D-07 0.000000000000D+00  6 22 -2 9900012 11 -1 21 2 0.22727336D-01 0.83037164D-02 0.27119992D+04 0.27119992D+04 0.27119992D+04 0.12729189D+01  1  2 12  1  6  2       -2 0.148774311170D-04 0.100000000000D+01
-.189698952629D-04 0.000000000000D+00 -.194961665198D-07 0.846400334454D-07 0.000000000000D+00  6 22 -2 9900012 11 -1 21 2 0.22727336D-01 0.83003262D-02 0.25750002D+04 0.25750002D+04 0.25750002D+04 0.12756641D+01  1  2  5  1  6  2       -2 -.279553571648D-02 0.100000000000D+01
0.212530780035D-04 0.000000000000D+00 0.000000000000D+00 0.846400334454D-07 0.196100371845D-06  6 22 -2 9900012 11 -1 21 2 0.22740617D-01 0.82988667D-02 0.27119992D+04 0.27119992D+04 0.27119992D+04 0.12729189D+01  1  2 11  1  6  2       -2 0.313449809366D-02 0.100000000000D+01
0.109487406458D-07 0.000000000000D+00 0.000000000000D+00 0.846400334454D-07 0.000000000000D+00  6 22 21 9900012 11 2 -1 2 0.22727336D-01 0.83037164D-02 0.27119992D+04 0.27119992D+04 0.27119992D+04 0.12729189D+01  3  4 12  3  5  2       -2 0.246433719909D-04 0.100000000000D+01
-.205680351791D-05 0.000000000000D+00 -.211505084207D-08 0.846400334454D-07 0.000000000000D+00  6 22 21 9900012 11 2 -1 2 0.22727336D-01 0.83003262D-02 0.25750002D+04 0.25750002D+04 0.25750002D+04 0.12756641D+01  3  4  5  3  5  2       -2 -.462756772391D-02 0.100000000000D+01
0.228679363601D-05 0.000000000000D+00 0.000000000000D+00 0.846400334454D-07 0.210981740085D-07  6 22 21 9900012 11 2 -1 2 0.22740617D-01 0.82988667D-02 0.27119992D+04 0.27119992D+04 0.27119992D+04 0.12729189D+01  3  4 11  3  5  2       -2 0.514745457094D-02 0.100000000000D+01
  </mgrwgt>
  </event>
  <event>
  6     66 0.64871765E-06 0.39597648E+02 0.78161638E-02 0.11853897E+00
       22 -1    0    0    0    0 0.00000000E+00 0.00000000E+00 0.12449430E+04 0.12449430E+04 0.00000000E+00 0.0000E+00 0.9000E+01
       -2 -1    0    0    0  501 0.00000000E+00 0.00000000E+00 -.85186402E+01 0.85186402E+01 0.00000000E+00 0.0000E+00 0.9000E+01
      -24  2    1    2    0    0 -.72312971E+02 -.10889775E+02 0.10003110E+04 0.10062830E+04 0.81459574E+02 0.0000E+00 0.0000E+00
  9900012  1    3    3    0    0 -.36687918E+02 0.63742103E+01 0.41749236E+03 0.42212143E+03 0.50000000E+02 0.0000E+00 0.9000E+01
       11  1    3    3    0    0 -.35625053E+02 -.17263986E+02 0.58281863E+03 0.58416157E+03 0.00000000E+00 0.0000E+00 0.9000E+01
       -1  1    1    2    0  501 0.72312971E+02 0.10889775E+02 0.23611337E+03 0.24717864E+03 0.00000000E+00 0.0000E+00 0.9000E+01
#aMCatNLO 1  0  0  5  2 0.15804778D+02 0.00000000D+00  -5  6  0 0.00000000D+00 0.00000000D+00 0.00000000D+00 0.00000000D+00 0.00000000D+00
  <mgrwgt>
 0.5681630885D-04    5    2    0
 0.102981655742989D+03 0.000000000000000D+00 0.000000000000000D+00 0.102981655742989D+03
 0.102981655742989D+03 -.000000000000000D+00 -.000000000000000D+00 -.102981655742989D+03
 0.627068003726920D+02 -.366879176948260D+02 0.637421031116681D+01 0.674603224920648D+01
 0.563837007033052D+02 -.356250528868834D+02 -.172639855078894D+02 0.401488744075105D+02
 0.868728104099811D+02 0.723129705817094D+02 0.108897751967226D+02 -.468949066567169D+02
 0.000000000000000D+00 0.000000000000000D+00 0.000000000000000D+00 -.000000000000000D+00
 0.102981655742989D+03 0.000000000000000D+00 0.000000000000000D+00 0.102981655742989D+03
 0.102981655742989D+03 -.000000000000000D+00 -.000000000000000D+00 -.102981655742989D+03
 0.612706474391478D+02 -.343714328655282D+02 0.672305504586303D+01 0.524379359177396D+01
 0.540379244732587D+02 -.335618549096501D+02 -.169532838180312D+02 0.388108920818175D+02
 0.181824592884513D+02 0.118330141503049D+02 -.130452942091515D+02 -.451684634358428D+01
 0.724722802851206D+02 0.561002736248734D+02 0.232755229813197D+02 -.395378393300072D+02
0.219511124995D-05 0.000000000000D+00 0.000000000000D+00 0.205612631992D-06 0.000000000000D+00  6 22 -2 9900012 11 -1 21 0 0.19152969D+00 0.13105600D-02 0.76614091D+04 0.76614091D+04 0.76614091D+04 0.12215149D+01  1  2  2  2  6  5       -1 0.666180164135D-04 0.100000000000D+01
-.327628725302D-07 0.000000000000D+00 -.421490259294D-08 0.205612631992D-06 0.000000000000D+00  6 22 -2 9900012 11 -1 21 2 0.19152969D+00 0.13105600D-02 0.76614091D+04 0.76614091D+04 0.76614091D+04 0.12215149D+01  1  2  3  2  6  5       -1 -.148359255408D-05 0.100000000000D+01
-.282254392360D-06 0.000000000000D+00 0.000000000000D+00 0.205612631992D-06 0.000000000000D+00  6 22 -2 9900012 11 -1 21 2 0.19152969D+00 0.13105600D-02 0.76614091D+04 0.76614091D+04 0.76614091D+04 0.12215149D+01  1  2 15  2  6  5       -1 -.127812515363D-04 0.100000000000D+01
0.462141474033D-06 0.000000000000D+00 0.000000000000D+00 0.205612631992D-06 0.000000000000D+00  6 22 -2 9900012 11 -1 21 2 0.19152969D+00 0.13105600D-02 0.78319038D+04 0.78319038D+04 0.78319038D+04 0.12204936D+01  1  2 12  2  6  5       -1 0.209414607235D-04 0.100000000000D+01
-.363898587753D-06 0.000000000000D+00 0.000000000000D+00 0.205612631992D-06 0.000000000000D+00  6 22 -2 9900012 11 -1 21 2 0.19152969D+00 0.13105600D-02 0.76614091D+04 0.76614091D+04 0.76614091D+04 0.12215149D+01  1  2  5  2  6  5       -1 -.164783241986D-04 0.100000000000D+01
  </mgrwgt>
  </event>
  <event>
  7     66 0.64871765E-06 0.16063968E+03 0.78161638E-02 0.10664365E+00
       22 -1    0    0    0    0 0.00000000E+00 0.00000000E+00 0.12721908E+04 0.12721908E+04 0.00000000E+00 0.0000E+00 0.9000E+01
       -2 -1    0    0    0  502 0.00000000E+00 0.00000000E+00 -.39596589E+02 0.39596589E+02 0.00000000E+00 0.0000E+00 0.9000E+01
      -24  2    1    2    0    0 -.39108794E+02 -.17267948E+03 0.97009408E+03 0.98925882E+03 0.78757744E+02 0.0000E+00 0.0000E+00
  9900012  1    3    3    0    0 -.68462421E+01 -.11300643E+03 0.55262343E+03 0.56631262E+03 0.50000000E+02 0.0000E+00 0.9000E+01
       11  1    3    3    0    0 -.32262552E+02 -.59673056E+02 0.41747065E+03 0.42294620E+03 0.00000000E+00 0.0000E+00 0.9000E+01
       -1  1    1    2    0  501 0.41288630E+02 0.16125363E+03 0.26258156E+03 0.31089638E+03 0.00000000E+00 0.0000E+00 0.9000E+01
       21  1    1    2  501  502 -.21798361E+01 0.11425855E+02 -.81403654E-01 0.11632217E+02 0.00000000E+00 0.0000E+00 0.9000E+01
#aMCatNLO 2  0  0  2  5 0.11809088D+02 0.00000000D+00  -5  6  0 0.00000000D+00 0.00000000D+00 0.00000000D+00 0.00000000D+00 0.00000000D+00
  <mgrwgt>
 0.1633067625D-04    2    2    0
 0.206627080453773D+03 0.000000000000000D+00 0.000000000000000D+00 0.206627080453773D+03
 0.206627080453773D+03 0.000000000000000D+00 0.000000000000000D+00 -.206627080453773D+03
 0.130216666379523D+03 -.754097840657560D+01 -.109364888103177D+03 0.493845633558408D+02
 0.839152172768134D+02 -.327089133225007D+02 -.573334017263901D+02 0.518147828940380D+02
 0.199122277251210D+03 0.402498917290763D+02 0.166698289829567D+03 -.101199346249879D+03
 0.000000000000000D+00 -.000000000000000D+00 0.000000000000000D+00 -.000000000000000D+00
 0.207651598546553D+03 0.000000000000000D+00 0.000000000000000D+00 0.207651598546553D+03
 0.242591039743666D+03 0.000000000000000D+00 0.000000000000000D+00 -.242591039743666D+03
 0.133252236275365D+03 -.684624213651805D+01 -.113006426114389D+03 0.493845633558408D+02
 0.853611011222634D+02 -.322625517334531D+02 -.596730560143792D+02 0.518147828940380D+02
 0.194804494045966D+03 0.412886299369220D+02 0.161253627112800D+03 -.101199346249879D+03
 0.368248068466245D+02 -.217983606695081D+01 0.114258550159687D+02 -.349394411971125D+02
-.522382509276D-05 0.000000000000D+00 0.000000000000D+00 0.337968619188D-06 0.000000000000D+00  6 22 -2 9900012 11 -1 21 2 0.19475601D+00 0.61219878D-02 0.34167106D+05 0.34167106D+05 0.34167106D+05 0.11576371D+01  1  2 13  1  6  2       -2 -.248435304631D-04 0.100000000000D+01
0.869957539123D-05 0.000000000000D+00 0.000000000000D+00 0.337968619188D-06 0.327363541184D-07  6 22 -2 9900012 11 -1 21 2 0.19572167D+00 0.60917829D-02 0.34167106D+05 0.34167106D+05 0.34167106D+05 0.11576371D+01  1  2  1  1  6  2       -2 0.411742067163D-04 0.100000000000D+01
  </mgrwgt>
  </event>
  <event>
  6     66 0.64871765E-06 0.50400510E+02 0.78161638E-02 0.11911285E+00
       22 -1    0    0    0    0 0.00000000E+00 0.00000000E+00 0.10611417E+03 0.10611417E+03 0.00000000E+00 0.0000E+00 0.9000E+01
       -2 -1    0    0    0  501 0.00000000E+00 0.00000000E+00 -.30532297E+03 0.30532297E+03 0.00000000E+00 0.0000E+00 0.9000E+01
      -24  2    1    2    0    0 0.46083475E+02 0.20408940E+02 0.82664418E+02 0.12509343E+03 0.79213319E+02 0.0000E+00 0.0000E+00
  9900012  1    3    3    0    0 0.26531906E+02 0.25457290E+02 0.84470256E+02 0.10482004E+03 0.50000000E+02 0.0000E+00 0.9000E+01
       11  1    3    3    0    0 0.19551568E+02 -.50483497E+01 -.18058382E+01 0.20273399E+02 0.00000000E+00 0.0000E+00 0.9000E+01
       -1  1    1    2    0  501 -.46083475E+02 -.20408940E+02 -.28187322E+03 0.28634371E+03 0.00000000E+00 0.0000E+00 0.9000E+01
#aMCatNLO 1  0  0  2  5 0.78522405D+02 0.00000000D+00  -5  6  0 0.00000000D+00 0.00000000D+00 0.00000000D+00 0.00000000D+00 0.00000000D+00
  <mgrwgt>
 0.6753528907D-04    4    2    0
 0.179997486500403D+03 0.000000000000000D+00 0.000000000000000D+00 0.179997486500403D+03
 0.179997486500403D+03 0.000000000000000D+00 0.000000000000000D+00 -.179997486500403D+03
 0.166541421957497D+03 0.265319064658356D+02 0.254572895853051D+02 0.154544587656389D+03
 0.221711165702440D+02 0.195515680390259D+02 -.504834965397396D+01 0.915471260924733D+01
 0.171282434473065D+03 -.460834745048615D+02 -.204089399313311D+02 -.163699300265636D+03
 0.000000000000000D+00 -.000000000000000D+00 0.000000000000000D+00 0.000000000000000D+00
 0.217745358335852D+03 0.000000000000000D+00 0.000000000000000D+00 0.217745358335852D+03
 0.190730654203130D+03 0.000000000000000D+00 0.000000000000000D+00 -.190730654203130D+03
 0.167768030175583D+03 0.396360782980488D+02 0.138225783507721D+02 0.154544587656389D+03
 0.241826224756060D+02 0.213685294131260D+02 -.666156269655546D+01 0.915471260924733D+01
 0.170028056120599D+03 -.327048778533497D+02 -.322873028493897D+02 -.163699300265636D+03
 0.464973037671935D+02 -.282997298578251D+02 0.251262871951730D+02 0.270147041327214D+02
0.873831071655D-05 0.000000000000D+00 0.000000000000D+00 0.126887588573D-04 0.000000000000D+00  6 22 -2 9900012 11 -1 21 0 0.16325258D-01 0.46972765D-01 0.43995317D+04 0.43995317D+04 0.43995317D+04 0.12481521D+01  1  2  2  1  6  2       -2 0.834494965860D-04 0.100000000000D+01
0.238382772668D-06 0.000000000000D+00 -.167787070008D-07 0.126887588573D-04 0.000000000000D+00  6 22 -2 9900012 11 -1 21 2 0.16325258D-01 0.46972765D-01 0.43995317D+04 0.43995317D+04 0.43995317D+04 0.12481521D+01  1  2  3  1  6  2       -2 0.354655027585D-05 0.100000000000D+01
-.126520694480D-05 0.000000000000D+00 0.000000000000D+00 0.126887588573D-04 0.000000000000D+00  6 22 -2 9900012 11 -1 21 2 0.16325258D-01 0.46972765D-01 0.43995317D+04 0.43995317D+04 0.43995317D+04 0.12481521D+01  1  2 15  1  6  2       -2 -.188231724502D-04 0.100000000000D+01
-.428555494949D-07 0.000000000000D+00 0.000000000000D+00 0.126887588573D-04 0.000000000000D+00  6 22 -2 9900012 11 -1 21 2 0.16325258D-01 0.46972765D-01 0.43995317D+04 0.43995317D+04 0.43995317D+04 0.12481521D+01  1  2  4  1  6  2       -2 -.637585338829D-06 0.100000000000D+01
  </mgrwgt>
  </event>
  <event>
  7     66 -.64871765E-06 0.35569522E+02 0.78161638E-02 0.12519227E+00
       22 -1    0    0    0    0 0.00000000E+00 0.00000000E+00 0.33893007E+02 0.33893007E+02 0.00000000E+00 0.0000E+00 0.9000E+01
       -2 -1    0    0    0  501 -.00000000E+00 -.00000000E+00 -.14003770E+03 0.14003770E+03 0.00000000E+00 0.0000E+00 0.9000E+01
      -24  2    1    2    0    0 -.25242782E+02 0.22492812E+02 -.75171543E+02 0.11596866E+03 0.81577231E+02 0.0000E+00 0.0000E+00
  9900012  1    3    3    0    0 -.51366091E+01 0.76594217E+01 -.18624041E+02 0.54147081E+02 0.50000000E+02 0.0000E+00 0.9000E+01
       11  1    3    3    0    0 -.20106173E+02 0.14833390E+02 -.56547502E+02 0.61821579E+02 0.00000000E+00 0.0000E+00 0.9000E+01
       -1  1    1    2    0  502 0.34046420E+02 -.21052982E+02 -.24384376E+02 0.46872002E+02 0.00000000E+00 0.0000E+00 0.9000E+01
       21  1    1    2  502  501 -.88036378E+01 -.14398297E+01 -.65887704E+01 0.11090043E+02 0.00000000E+00 0.0000E+00 0.9000E+01
#aMCatNLO 2  0  0  5  2 0.13650690D+02 0.00000000D+00  -5  6  0 0.00000000D+00 0.00000000D+00 0.00000000D+00 0.00000000D+00 0.00000000D+00
  <mgrwgt>
 -.8864132580D-05    2    2    0
 0.688933865454520D+02 0.000000000000000D+00 0.000000000000000D+00 0.688933865454520D+02
 0.688933865454520D+02 -.000000000000000D+00 -.000000000000000D+00 -.688933865454520D+02
 0.550442291220395D+02 -.977539593013119D+01 0.117928551997676D+02 0.171824724730195D+02
 0.379982265036880D+02 -.231891877350030D+02 0.175805391259975D+02 -.244346359427685D+02
 0.447443174651764D+02 0.329645836651342D+02 -.293733943257652D+02 0.725216346974898D+01
 0.000000000000000D+00 -.000000000000000D+00 0.000000000000000D+00 0.000000000000000D+00
 0.688933865454520D+02 0.000000000000000D+00 0.000000000000000D+00 0.688933865454520D+02
 0.688933865454520D+02 -.000000000000000D+00 -.000000000000000D+00 -.688933865454520D+02
 0.540037098330654D+02 -.513660911805265D+01 0.765942170615863D+01 0.182029992481867D+02
 0.344768487300464D+02 -.201061728112908D+02 0.148333904288884D+02 -.237563768622485D+02
 0.403827461212408D+02 0.340464196944053D+02 -.210529824776310D+02 0.532723371756514D+01
 0.892346840655134D+01 -.880363776506181D+01 -.143982965741604D+01 0.226143896496678D+00
-.686015288046D-07 0.000000000000D+00 0.000000000000D+00 0.606991991586D-08 0.000000000000D+00  6 22 -2 9900012 11 -1 21 2 0.52143088D-02 0.21544261D-01 0.38924857D+04 0.38924857D+04 0.38924857D+04 0.12542777D+01  1  2 13  2  6  5       -1 -.190881919345D-04 0.100000000000D+01
0.367445017708D-07 0.000000000000D+00 0.000000000000D+00 0.606991991586D-08 0.180409701075D-09  6 22 -2 9900012 11 -1 21 2 0.52143088D-02 0.21544261D-01 0.38924857D+04 0.38924857D+04 0.38924857D+04 0.12542777D+01  1  2  1  2  6  5       -1 0.102240593550D-04 0.100000000000D+01
  </mgrwgt>
  </event>
  <event>
  6     66 0.64871765E-06 0.22108559E+02 0.78161638E-02 0.13026470E+00
       22 -1    0    0    0    0 0.00000000E+00 0.00000000E+00 0.44951953E+03 0.44951953E+03 0.00000000E+00 0.0000E+00 0.9000E+01
       -2 -1    0    0    0  501 0.00000000E+00 0.00000000E+00 -.15728394E+02 0.15728394E+02 0.00000000E+00 0.0000E+00 0.9000E+01
      -24  2    1    2    0    0 -.18079305E+02 -.12725058E+02 0.43509317E+03 0.44310105E+03 0.80893067E+02 0.0000E+00 0.0000E+00
  9900012  1    3    3    0    0 0.39432071E+01 0.54269431E+00 0.36521278E+03 0.36864104E+03 0.50000000E+02 0.0000E+00 0.9000E+01
       11  1    3    3    0    0 -.22022512E+02 -.13267752E+02 0.69880389E+02 0.74460010E+02 0.00000000E+00 0.0000E+00 0.9000E+01
       -1  1    1    2    0  501 0.18079305E+02 0.12725058E+02 -.13020388E+01 0.22146866E+02 0.00000000E+00 0.0000E+00 0.9000E+01
#aMCatNLO 1  0  0  5  5 0.58635046D+00 0.00000000D+00  -5  6  0 0.00000000D+00 0.00000000D+00 0.00000000D+00 0.00000000D+00 0.00000000D+00
  <mgrwgt>
 0.2136600799D-04    7    2    0
 0.840846008976810D+02 0.000000000000000D+00 0.000000000000000D+00 0.840846008976810D+02
 0.840846008976810D+02 -.000000000000000D+00 -.000000000000000D+00 -.840846008976810D+02
 0.777991013185108D+02 0.394320710395219D+01 0.542694305297116D+00 0.594714785976795D+02
 0.257411672884518D+02 -.220225117937386D+02 -.132677523612678D+02 0.125833816868837D+01
 0.646289331883993D+02 0.180793046897865D+02 0.127250580559707D+02 -.607298167663679D+02
 0.000000000000000D+00 0.000000000000000D+00 0.000000000000000D+00 0.000000000000000D+00
 0.840846008976810D+02 0.000000000000000D+00 0.000000000000000D+00 0.840846008976810D+02
 0.840846008976810D+02 -.000000000000000D+00 -.000000000000000D+00 -.840846008976810D+02
 0.776874626320563D+02 0.398767909830846D+01 0.573995769582300D+00 0.593220936453911D+02
 0.257208635474393D+02 -.220077927139240D+02 -.132573923862364D+02 0.120889561348773D+01
 0.642552014752806D+02 0.178176351908946D+02 0.122203469069385D+02 -.605138489463955D+02
 0.505674140585799D+00 0.202478424720901D+00 0.463049709715600D+00 -.171403124833585D-01
0.192244168521D-06 0.000000000000D+00 0.000000000000D+00 0.440825093470D-06 0.000000000000D+00  6 22 -2 9900012 11 -1 21 0 0.69156850D-01 0.24197529D-02 0.23998797D+04 0.23998797D+04 0.23998797D+04 0.12794225D+01  1  2  2  2  6  5       -1 0.171325064573D-04 0.100000000000D+01
0.140769010418D-07 0.000000000000D+00 -.369134113086D-09 0.440825093470D-06 0.000000000000D+00  6 22 -2 9900012 11 -1 21 2 0.69156850D-01 0.24197529D-02 0.23998797D+04 0.23998797D+04 0.23998797D+04 0.12794225D+01  1  2  3  2  6  5       -1 0.205353814756D-05 0.100000000000D+01
-.279832876874D-07 0.000000000000D+00 0.000000000000D+00 0.440825093470D-06 0.000000000000D+00  6 22 -2 9900012 11 -1 21 2 0.69156850D-01 0.24197529D-02 0.23998797D+04 0.23998797D+04 0.23998797D+04 0.12794225D+01  1  2 15  2  6  5       -1 -.408220165713D-05 0.100000000000D+01
-.254199916605D-06 0.000000000000D+00 0.000000000000D+00 0.440825093470D-06 0.000000000000D+00  6 22 -2 9900012 11 -1 21 2 0.69156850D-01 0.24197529D-02 0.23998797D+04 0.23998797D+04 0.23998797D+04 0.12794225D+01  1  2  4  2  6  5       -1 -.370826806485D-04 0.100000000000D+01
-.568077340905D-05 0.000000000000D+00 0.000000000000D+00 0.440825093470D-06 0.000000000000D+00  6 22 -2 9900012 11 -1 21 2 0.69156850D-01 0.24197529D-02 0.23998797D+04 0.23998797D+04 0.23998797D+04 0.12794225D+01  1  2  5  2  6  5       -1 -.828711153719D-03 0.100000000000D+01
0.572539518755D-05 0.000000000000D+00 -.000000000000D+00 0.440825093470D-06 0.000000000000D+00  6 22 -2 9900012 11 -1 21 2 0.69156850D-01 0.24197529D-02 0.23998797D+04 0.23998797D+04 0.23998797D+04 0.12794225D+01  1  2  6  2  6  5       -1 0.835220578206D-03 0.100000000000D+01
0.252507361419D-06 0.000000000000D+00 0.000000000000D+00 0.440825093470D-06 0.681500489500D-06  6 22 -2 9900012 11 -1 21 2 0.69156850D-01 0.24197529D-02 0.23993118D+04 0.23993118D+04 0.23993118D+04 0.12794352D+01  1  2 11  2  6  5       -1 0.368354212021D-04 0.100000000000D+01
  </mgrwgt>
  </event>
  <event>
  6     66 0.64871765E-06 0.37627030E+02 0.78161638E-02 0.12409052E+00
       22 -1    0    0    0    0 0.00000000E+00 0.00000000E+00 0.12389457E+04 0.12389457E+04 0.00000000E+00 0.0000E+00 0.9000E+01
       -2 -1    0    0    0  501 0.00000000E+00 0.00000000E+00 -.44372460E+02 0.44372460E+02 0.00000000E+00 0.0000E+00 0.9000E+01
      -24  2    1    2    0    0 -.34122297E+02 -.22441143E+02 0.12277824E+04 0.12306798E+04 0.73859438E+02 0.0000E+00 0.0000E+00
  9900012  1    3    3    0    0 -.11426491E+02 0.16289396E+01 0.74339997E+03 0.74516893E+03 0.50000000E+02 0.0000E+00 0.9000E+01
       11  1    3    3    0    0 -.22695806E+02 -.24070083E+02 0.48438246E+03 0.48551091E+03 0.00000000E+00 0.0000E+00 0.9000E+01
       -1  1    1    2    0  501 0.34122297E+02 0.22441143E+02 -.33209232E+02 0.52638286E+02 0.00000000E+00 0.0000E+00 0.9000E+01
#aMCatNLO 1  0  0  2  5 0.94823229D+01 0.00000000D+00  -5  6  0 0.00000000D+00 0.00000000D+00 0.00000000D+00 0.00000000D+00 0.00000000D+00
  <mgrwgt>
 0.1903241197D-03   11    4    0
 0.234467623071453D+03 0.000000000000000D+00 0.000000000000000D+00 0.234467623071453D+03
 0.234467623071453D+03 0.000000000000000D+00 0.000000000000000D+00 -.234467623071453D+03
 0.145527785455597D+03 -.114264905469761D+02 0.162893963863652D+01 0.136180461921099D+03
 0.947564365728829D+02 -.226958060656287D+02 -.240700830676800D+02 0.887936583328851D+02
 0.228651024114426D+03 0.341222966126047D+02 0.224411434290435D+02 -.224974120253984D+03
 0.000000000000000D+00 0.000000000000000D+00 0.000000000000000D+00 -.000000000000000D+00
 0.236697705763362D+03 0.000000000000000D+00 0.000000000000000D+00 0.236697705763362D+03
 0.242510331682623D+03 0.000000000000000D+00 0.000000000000000D+00 -.242510331682623D+03
 0.145744598192946D+03 -.139711246486468D+02 0.108506655622843D+01 0.136180461921099D+03
 0.952580436507937D+02 -.243558238130435D+02 -.244248841640521D+02 0.887936583328851D+02
 0.228007460745086D+03 0.301328049250133D+02 0.215884561448688D+02 -.224974120253984D+03
 0.101979348571589D+02 0.819414353667701D+01 0.175136146295486D+01 -.581262591926126D+01
 0.234467623071453D+03 0.000000000000000D+00 0.000000000000000D+00 0.234467623071453D+03
 0.234467623071453D+03 0.000000000000000D+00 0.000000000000000D+00 -.234467623071453D+03
 0.145527785455597D+03 -.114264905469761D+02 0.162893963863652D+01 0.136180461921099D+03
 0.947564365728829D+02 -.226958060656287D+02 -.240700830676800D+02 0.887936583328851D+02
 0.000000000000000D+00 0.000000000000000D+00 0.000000000000000D+00 -.000000000000000D+00
 0.228651024114426D+03 0.341222966126047D+02 0.224411434290435D+02 -.224974120253984D+03
 0.236697705763362D+03 0.000000000000000D+00 0.000000000000000D+00 0.236697705763362D+03
 0.242510331682623D+03 0.000000000000000D+00 0.000000000000000D+00 -.242510331682623D+03
 0.145744598192946D+03 -.139711246486468D+02 0.108506655622843D+01 0.136180461921099D+03
 0.952580436507937D+02 -.243558238130435D+02 -.244248841640521D+02 0.887936583328851D+02
 0.101979348571589D+02 0.819414353667701D+01 0.175136146295486D+01 -.581262591926126D+01
 0.228007460745086D+03 0.301328049250133D+02 0.215884561448688D+02 -.224974120253984D+03
0.167136684885D-04 0.000000000000D+00 0.000000000000D+00 0.199930799708D-05 0.000000000000D+00  6 22 -2 9900012 11 -1 21 0 0.19060702D+00 0.68265323D-02 0.39211402D+04 0.39211402D+04 0.39211402D+04 0.12539082D+01  1  2  2  1  6  2       -2 0.452064678741D-04 0.100000000000D+01
0.891872309912D-06 0.000000000000D+00 -.320924439028D-07 0.199930799708D-05 0.000000000000D+00  6 22 -2 9900012 11 -1 21 2 0.19060702D+00 0.68265323D-02 0.39211402D+04 0.39211402D+04 0.39211402D+04 0.12539082D+01  1  2  3  1  6  2       -2 0.379282619498D-05 0.100000000000D+01
-.249991523884D-05 0.000000000000D+00 0.000000000000D+00 0.199930799708D-05 0.000000000000D+00  6 22 -2 9900012 11 -1 21 2 0.19060702D+00 0.68265323D-02 0.39211402D+04 0.39211402D+04 0.39211402D+04 0.12539082D+01  1  2 15  1  6  2       -2 -.106312797221D-04 0.100000000000D+01
0.366042601877D-04 0.000000000000D+00 0.000000000000D+00 0.199930799708D-05 0.000000000000D+00  6 22 -2 9900012 11 -1 21 2 0.19060702D+00 0.71278521D-02 0.43472359D+04 0.43472359D+04 0.43472359D+04 0.12487463D+01  1  2 12  1  6  2       -2 0.146109033228D-03 0.100000000000D+01
-.691015407246D-06 0.000000000000D+00 0.000000000000D+00 0.199930799708D-05 0.000000000000D+00  6 22 -2 9900012 11 -1 21 2 0.19060702D+00 0.68265323D-02 0.39211402D+04 0.39211402D+04 0.39211402D+04 0.12539082D+01  1  2  4  1  6  2       -2 -.293865086808D-05 0.100000000000D+01
-.240057559408D-03 0.000000000000D+00 -.459575859796D-04 0.199930799708D-05 0.000000000000D+00  6 22 -2 9900012 11 -1 21 2 0.19060702D+00 0.71290355D-02 0.39211402D+04 0.39211402D+04 0.39211402D+04 0.12539082D+01  1  2  5  1  6  2       -2 -.957671370032D-03 0.100000000000D+01
0.241866015302D-03 0.000000000000D+00 0.459144193544D-04 0.199930799708D-05 0.000000000000D+00  6 22 -2 9900012 11 -1 21 2 0.19060702D+00 0.68265323D-02 0.39211402D+04 0.39211402D+04 0.39211402D+04 0.12539082D+01  1  2  6  1  6  2       -2 0.102857297880D-02 0.100000000000D+01
0.237425192406D-10 0.000000000000D+00 0.000000000000D+00 0.199930799708D-05 0.104401022172D-07  6 22 -2 9900012 11 -1 21 2 0.19241994D+00 0.70606960D-02 0.43472359D+04 0.43472359D+04 0.43472359D+04 0.12487463D+01  1  2 11  1  6  2       -2 0.939193772645D-10 0.100000000000D+01
0.796827466374D-06 0.000000000000D+00 0.000000000000D+00 0.199930799708D-05 0.000000000000D+00  6 22 21 9900012 11 2 -1 2 0.19060702D+00 0.71278521D-02 0.43472359D+04 0.43472359D+04 0.43472359D+04 0.12487463D+01  3  4 12  3  5  2       -2 0.493319758085D-04 0.100000000000D+01
-.180007806039D-05 0.000000000000D+00 -.350486167538D-06 0.199930799708D-05 0.000000000000D+00  6 22 21 9900012 11 2 -1 2 0.19060702D+00 0.71290355D-02 0.39211402D+04 0.39211402D+04 0.39211402D+04 0.12539082D+01  3  4  5  3  5  2       -2 -.111448226230D-03 0.100000000000D+01
0.440758766064D-11 0.000000000000D+00 0.000000000000D+00 0.199930799708D-05 0.193102108984D-08  6 22 21 9900012 11 2 -1 2 0.19241994D+00 0.70606960D-02 0.43472359D+04 0.43472359D+04 0.43472359D+04 0.12487463D+01  3  4 11  3  5  2       -2 0.270745354486D-09 0.100000000000D+01
  </mgrwgt>
  </event>
  <event>
  6     66 0.64871765E-06 0.48776535E+02 0.78161638E-02 0.11457231E+00
       22 -1    0    0    0    0 0.00000000E+00 0.00000000E+00 0.52753282E+02 0.52753282E+02 0.00000000E+00 0.0000E+00 0.9000E+01
       -2 -1    0    0    0  501 0.00000000E+00 0.00000000E+00 -.28823746E+03 0.28823746E+03 0.00000000E+00 0.0000E+00 0.9000E+01
      -24  2    1    2    0    0 0.69454882E+02 -.34783442E+02 -.22234128E+02 0.11403380E+03 0.80470389E+02 0.0000E+00 0.0000E+00
  9900012  1    3    3    0    0 0.29960960E+02 -.28885677E+02 -.32618663E+02 0.72773750E+02 0.50000000E+02 0.0000E+00 0.9000E+01
       11  1    3    3    0    0 0.39493922E+02 -.58977646E+01 0.10384535E+02 0.41260054E+02 0.00000000E+00 0.0000E+00 0.9000E+01
       -1  1    1    2    0  501 -.69454882E+02 0.34783442E+02 -.21325005E+03 0.22695694E+03 0.00000000E+00 0.0000E+00 0.9000E+01
#aMCatNLO 1  0  0  2  5 0.45580169D+02 0.00000000D+00  -5  6  0 0.00000000D+00 0.00000000D+00 0.00000000D+00 0.00000000D+00 0.00000000D+00
  <mgrwgt>
 0.4015152742D-04    9    4    0
 0.123310469991776D+03 0.000000000000000D+00 0.000000000000000D+00 0.123310469991776D+03
 0.123310469991776D+03 0.000000000000000D+00 0.000000000000000D+00 -.123310469991776D+03
 0.694750246686331D+02 0.299609600467105D+02 -.288856773723544D+02 0.243872419212762D+02
 0.669638589949654D+02 0.394939215343013D+02 -.589776456020011D+01 0.537550457774199D+02
 0.110182056319954D+03 -.694548815810118D+02 0.347834419325545D+02 -.781422876986960D+02
 0.000000000000000D+00 0.000000000000000D+00 0.000000000000000D+00 -.000000000000000D+00
 0.137158489184138D+03 0.000000000000000D+00 0.000000000000000D+00 0.137158489184138D+03
 0.152581835547665D+03 0.000000000000000D+00 0.000000000000000D+00 -.152581835547665D+03
 0.679739835047562D+02 0.205817913288900D+02 -.331981133601300D+02 0.243872419212762D+02
 0.626752720172592D+02 0.306476788559879D+02 -.996516716594193D+01 0.537550457774199D+02
 0.118769710123860D+03 -.850779644555763D+02 0.276001246413043D+02 -.781422876986960D+02
 0.403213590859287D+02 0.338484942706984D+02 0.155631558847676D+02 -.154233463635271D+02
 0.123310469991776D+03 0.000000000000000D+00 0.000000000000000D+00 0.123310469991776D+03
 0.123310469991776D+03 0.000000000000000D+00 0.000000000000000D+00 -.123310469991776D+03
 0.694750246686331D+02 0.299609600467105D+02 -.288856773723544D+02 0.243872419212762D+02
 0.669638589949654D+02 0.394939215343013D+02 -.589776456020011D+01 0.537550457774199D+02
 0.000000000000000D+00 0.000000000000000D+00 0.000000000000000D+00 -.000000000000000D+00
 0.110182056319954D+03 -.694548815810118D+02 0.347834419325545D+02 -.781422876986960D+02
 0.137158489184138D+03 0.000000000000000D+00 0.000000000000000D+00 0.137158489184138D+03
 0.152581835547665D+03 0.000000000000000D+00 0.000000000000000D+00 -.152581835547665D+03
 0.679739835047562D+02 0.205817913288900D+02 -.331981133601300D+02 0.243872419212762D+02
 0.626752720172592D+02 0.306476788559879D+02 -.996516716594193D+01 0.537550457774199D+02
 0.403213590859287D+02 0.338484942706984D+02 0.155631558847676D+02 -.154233463635271D+02
 0.118769710123860D+03 -.850779644555763D+02 0.276001246413043D+02 -.781422876986960D+02
0.785414387856D-06 0.000000000000D+00 0.000000000000D+00 0.121423556916D-05 0.000000000000D+00  6 22 -2 9900012 11 -1 21 0 0.81158896D-02 0.44344224D-01 0.83415326D+04 0.83415326D+04 0.83415326D+04 0.12175820D+01  1  2  2  1  6  2       -2 0.235774819839D-04 0.100000000000D+01
-.345684401063D-08 0.000000000000D+00 -.150809902686D-08 0.121423556916D-05 0.000000000000D+00  6 22 -2 9900012 11 -1 21 2 0.81158896D-02 0.44344224D-01 0.83415326D+04 0.83415326D+04 0.83415326D+04 0.12175820D+01  1  2  3  1  6  2       -2 -.153841960022D-06 0.100000000000D+01
-.105274154695D-06 0.000000000000D+00 0.000000000000D+00 0.121423556916D-05 0.000000000000D+00  6 22 -2 9900012 11 -1 21 2 0.81158896D-02 0.44344224D-01 0.83415326D+04 0.83415326D+04 0.83415326D+04 0.12175820D+01  1  2 15  1  6  2       -2 -.468507755865D-05 0.100000000000D+01
0.331413077097D-06 0.000000000000D+00 0.000000000000D+00 0.121423556916D-05 0.000000000000D+00  6 22 -2 9900012 11 -1 21 2 0.81158896D-02 0.61032714D-01 0.12362495D+05 0.12362495D+05 0.12362495D+05 0.11998992D+01  1  2 12  1  6  2       -2 0.798755082046D-05 0.100000000000D+01
-.832332799373D-07 0.000000000000D+00 0.000000000000D+00 0.121423556916D-05 0.000000000000D+00  6 22 -2 9900012 11 -1 21 2 0.81158896D-02 0.44344224D-01 0.83415326D+04 0.83415326D+04 0.83415326D+04 0.12175820D+01  1  2  4  1  6  2       -2 -.370417955951D-05 0.100000000000D+01
-.892768041129D-06 0.000000000000D+00 -.351467639872D-06 0.121423556916D-05 0.000000000000D+00  6 22 -2 9900012 11 -1 21 2 0.81158896D-02 0.60114882D-01 0.83415326D+04 0.83415326D+04 0.83415326D+04 0.12175820D+01  1  2  5  1  6  2       -2 -.222758366942D-04 0.100000000000D+01
0.970120007055D-06 0.000000000000D+00 0.335802492426D-06 0.121423556916D-05 0.000000000000D+00  6 22 -2 9900012 11 -1 21 2 0.81158896D-02 0.44344224D-01 0.83415326D+04 0.83415326D+04 0.83415326D+04 0.12175820D+01  1  2  6  1  6  2       -2 0.431738206534D-04 0.100000000000D+01
0.134040503506D-07 0.000000000000D+00 0.000000000000D+00 0.121423556916D-05 0.000000000000D+00  6 22 21 9900012 11 2 -1 2 0.81158896D-02 0.61032714D-01 0.12362495D+05 0.12362495D+05 0.12362495D+05 0.11998992D+01  3  4 12  3  5  2       -2 0.343712217128D-05 0.100000000000D+01
-.268097639510D-07 0.000000000000D+00 -.137256195656D-07 0.121423556916D-05 0.000000000000D+00  6 22 21 9900012 11 2 -1 2 0.81158896D-02 0.60114882D-01 0.83415326D+04 0.83415326D+04 0.83415326D+04 0.12175820D+01  3  4  5  3  5  2       -2 -.720551244107D-05 0.100000000000D+01
  </mgrwgt>
  </event>
  <event>
  6     66 0.64871765E-06 0.46977491E+02 0.78161638E-02 0.11900676E+00
       22 -1    0    0    0    0 0.00000000E+00 0.00000000E+00 0.27468033E+04 0.27468033E+04 0.00000000E+00 0.0000E+00 0.9000E+01
       -2 -1    0    0    0  501 0.00000000E+00 0.00000000E+00 -.51581442E+02 0.51581442E+02 0.00000000E+00 0.0000E+00 0.9000E+01
      -24  2    1    2    0    0 0.51750439E+02 0.42138597E+02 0.27237863E+04 0.27257920E+04 0.80477743E+02 0.0000E+00 0.0000E+00
  9900012  1    3    3    0    0 0.18261551E+02 0.14207001E+02 0.10564789E+04 0.10579145E+04 0.50000000E+02 0.0000E+00 0.9000E+01
       11  1    3    3    0    0 0.33488888E+02 0.27931596E+02 0.16673074E+04 0.16678775E+04 0.00000000E+00 0.0000E+00 0.9000E+01
       -1  1    1    2    0  501 -.51750439E+02 -.42138597E+02 -.28564461E+02 0.72592684E+02 0.00000000E+00 0.0000E+00 0.9000E+01
#aMCatNLO 1  0  0  2  5 0.14428360D+02 0.00000000D+00  -5  6  0 0.00000000D+00 0.00000000D+00 0.00000000D+00 0.00000000D+00 0.00000000D+00
  <mgrwgt>
 0.8047430807D-04    6    4    0
 0.376409449452096D+03 0.000000000000000D+00 0.000000000000000D+00 0.376409449452096D+03
 0.376409449452096D+03 0.000000000000000D+00 0.000000000000000D+00 -.376409449452096D+03
 0.150111323608510D+03 0.182615512808242D+02 0.142070011336320D+02 0.139635548264422D+03
 0.230599736216372D+03 0.334888880878028D+02 0.279315957846826D+02 0.226438862995343D+03
 0.372107839079310D+03 -.517504393686271D+02 -.421385969183146D+02 -.366074411259765D+03
 0.000000000000000D+00 0.000000000000000D+00 -.000000000000000D+00 0.000000000000000D+00
 0.382893818307557D+03 0.000000000000000D+00 0.000000000000000D+00 0.382893818307557D+03
 0.378078669706588D+03 0.000000000000000D+00 0.000000000000000D+00 -.378078669706588D+03
 0.150001531156954D+03 0.170146277423146D+02 0.145902519894419D+02 0.139635548264422D+03
 0.230401502185040D+03 0.315734976394529D+02 0.285203047198091D+02 0.226438862995343D+03
 0.372444312950248D+03 -.548439409940046D+02 -.411877870981773D+02 -.366074411259765D+03
 0.812514172190255D+01 0.625581561223717D+01 -.192276961107366D+01 0.481514860096996D+01
 0.376409449452096D+03 0.000000000000000D+00 0.000000000000000D+00 0.376409449452096D+03
 0.376409449452096D+03 0.000000000000000D+00 0.000000000000000D+00 -.376409449452096D+03
 0.150111323608510D+03 0.182615512808242D+02 0.142070011336320D+02 0.139635548264422D+03
 0.230599736216372D+03 0.334888880878028D+02 0.279315957846826D+02 0.226438862995343D+03
 0.000000000000000D+00 0.000000000000000D+00 -.000000000000000D+00 0.000000000000000D+00
 0.372107839079310D+03 -.517504393686271D+02 -.421385969183146D+02 -.366074411259765D+03
 0.382893818307557D+03 0.000000000000000D+00 0.000000000000000D+00 0.382893818307557D+03
 0.378078669706588D+03 0.000000000000000D+00 0.000000000000000D+00 -.378078669706588D+03
 0.150001531156954D+03 0.170146277423146D+02 0.145902519894419D+02 0.139635548264422D+03
 0.230401502185040D+03 0.315734976394529D+02 0.285203047198091D+02 0.226438862995343D+03
 0.812514172190255D+01 0.625581561223717D+01 -.192276961107366D+01 0.481514860096996D+01
 0.372444312950248D+03 -.548439409940046D+02 -.411877870981773D+02 -.366074411259765D+03
0.362514124790D-03 0.000000000000D+00 0.000000000000D+00 0.263636394779D-03 0.000000000000D+00  6 22 -2 9900012 11 -1 21 0 0.42258512D+00 0.79356065D-02 0.68424814D+04 0.68424814D+04 0.68424814D+04 0.12268002D+01  1  2  2  1  6  2       -2 0.645428845776D-04 0.100000000000D+01
0.964265401163D-05 0.000000000000D+00 -.696074845678D-06 0.263636394779D-03 0.000000000000D+00  6 22 -2 9900012 11 -1 21 2 0.42258512D+00 0.79356065D-02 0.68424814D+04 0.68424814D+04 0.68424814D+04 0.12268002D+01  1  2  3  1  6  2       -2 0.258385232915D-05 0.100000000000D+01
-.534905956582D-04 0.000000000000D+00 0.000000000000D+00 0.263636394779D-03 0.000000000000D+00  6 22 -2 9900012 11 -1 21 2 0.42258512D+00 0.79356065D-02 0.68424814D+04 0.68424814D+04 0.68424814D+04 0.12268002D+01  1  2 15  1  6  2       -2 -.143333775133D-04 0.100000000000D+01
0.572382450739D-04 0.000000000000D+00 0.000000000000D+00 0.263636394779D-03 0.000000000000D+00  6 22 -2 9900012 11 -1 21 2 0.42258512D+00 0.81081098D-02 0.74368145D+04 0.74368145D+04 0.74368145D+04 0.12228994D+01  1  2 12  1  6  2       -2 0.148309348261D-04 0.100000000000D+01
-.287517866847D-06 0.000000000000D+00 0.000000000000D+00 0.263636394779D-03 0.000000000000D+00  6 22 -2 9900012 11 -1 21 2 0.42258512D+00 0.79356065D-02 0.68424814D+04 0.68424814D+04 0.68424814D+04 0.12268002D+01  1  2  4  1  6  2       -2 -.770434891708D-07 0.100000000000D+01
0.328405282694D-05 0.000000000000D+00 0.000000000000D+00 0.263636394779D-03 0.000000000000D+00  6 22 21 9900012 11 2 -1 2 0.42258512D+00 0.81081098D-02 0.74368145D+04 0.74368145D+04 0.74368145D+04 0.12228994D+01  3  4 12  3  5  2       -2 0.129270573428D-04 0.100000000000D+01
  </mgrwgt>
  </event>
  <event>
  6     66 0.64871765E-06 0.69496000E+02 0.78161638E-02 0.11525067E+00
       22 -1    0    0    0    0 0.00000000E+00 0.00000000E+00 0.27966472E+03 0.27966472E+03 0.00000000E+00 0.0000E+00 0.9000E+01
       -2 -1    0    0    0  501 0.00000000E+00 0.00000000E+00 -.96314324E+02 0.96314324E+02 0.00000000E+00 0.0000E+00 0.9000E+01
      -24  2    1    2    0    0 -.40354837E+02 0.78000879E+02 0.24240338E+03 0.27014945E+03 0.80676360E+02 0.0000E+00 0.0000E+00
  9900012  1    3    3    0    0 -.15305051E+02 0.77124056E+02 0.20423446E+03 0.22448626E+03 0.50000000E+02 0.0000E+00 0.9000E+01
       11  1    3    3    0    0 -.25049785E+02 0.87682358E+00 0.38168921E+02 0.45663192E+02 0.00000000E+00 0.0000E+00 0.9000E+01
       -1  1    1    2    0  501 0.40354837E+02 -.78000879E+02 -.59052980E+02 0.10582960E+03 0.00000000E+00 0.0000E+00 0.9000E+01
#aMCatNLO 1  0  0  2  5 0.44168571D+02 0.00000000D+00  -5  6  0 0.00000000D+00 0.00000000D+00 0.00000000D+00 0.00000000D+00 0.00000000D+00
  <mgrwgt>
 0.1984291314D-04    6    4    0
 0.164121049230325D+03 0.000000000000000D+00 0.000000000000000D+00 0.164121049230325D+03
 0.164121049230325D+03 0.000000000000000D+00 0.000000000000000D+00 -.164121049230325D+03
 0.143051908686232D+03 -.153050514000596D+02 0.771240559112030D+02 0.108542544563048D+03
 0.309835834867349D+02 -.250497851201503D+02 0.876823580869239D+00 0.182132339665915D+02
 0.154206606287683D+03 0.403548365202099D+02 -.780008794920722D+02 -.126755778529639D+03
 0.000000000000000D+00 0.000000000000000D+00 0.000000000000000D+00 0.000000000000000D+00
 0.187364757219213D+03 0.000000000000000D+00 0.000000000000000D+00 0.187364757219213D+03
 0.164783077998787D+03 0.000000000000000D+00 0.000000000000000D+00 -.164783077998787D+03
 0.142624708847828D+03 -.182653336684714D+02 0.756749706289076D+02 0.108542544563048D+03
 0.315021550267751D+02 -.256972844687034D+02 0.559866719594141D+00 0.182132339665915D+02
 0.154202629718632D+03 0.371589908096134D+02 -.795652752367376D+02 -.126755778529639D+03
 0.238183416247643D+02 0.680362732756132D+01 0.333043788823589D+01 0.225816792204265D+02
 0.164121049230325D+03 0.000000000000000D+00 0.000000000000000D+00 0.164121049230325D+03
 0.164121049230325D+03 0.000000000000000D+00 0.000000000000000D+00 -.164121049230325D+03
 0.143051908686232D+03 -.153050514000596D+02 0.771240559112030D+02 0.108542544563048D+03
 0.309835834867349D+02 -.250497851201503D+02 0.876823580869239D+00 0.182132339665915D+02
 0.000000000000000D+00 0.000000000000000D+00 0.000000000000000D+00 0.000000000000000D+00
 0.154206606287683D+03 0.403548365202099D+02 -.780008794920722D+02 -.126755778529639D+03
 0.187364757219213D+03 0.000000000000000D+00 0.000000000000000D+00 0.187364757219213D+03
 0.164783077998787D+03 0.000000000000000D+00 0.000000000000000D+00 -.164783077998787D+03
 0.142624708847828D+03 -.182653336684714D+02 0.756749706289076D+02 0.108542544563048D+03
 0.315021550267751D+02 -.256972844687034D+02 0.559866719594141D+00 0.182132339665915D+02
 0.238183416247643D+02 0.680362732756132D+01 0.333043788823589D+01 0.225816792204265D+02
 0.154202629718632D+03 0.371589908096134D+02 -.795652752367376D+02 -.126755778529639D+03
0.966759377549D-06 0.000000000000D+00 0.000000000000D+00 0.247857414699D-05 0.000000000000D+00  6 22 -2 9900012 11 -1 21 0 0.43025342D-01 0.14817588D-01 0.10615802D+05 0.10615802D+05 0.10615802D+05 0.12066495D+01  1  2  2  1  6  2       -2 0.153687436939D-04 0.100000000000D+01
0.567729444671D-08 0.000000000000D+00 -.185630528169D-08 0.247857414699D-05 0.000000000000D+00  6 22 -2 9900012 11 -1 21 2 0.43025342D-01 0.14817588D-01 0.10615802D+05 0.10615802D+05 0.10615802D+05 0.12066495D+01  1  2  3  1  6  2       -2 0.131408553158D-06 0.100000000000D+01
-.141736083359D-06 0.000000000000D+00 0.000000000000D+00 0.247857414699D-05 0.000000000000D+00  6 22 -2 9900012 11 -1 21 2 0.43025342D-01 0.14817588D-01 0.10615802D+05 0.10615802D+05 0.10615802D+05 0.12066495D+01  1  2 15  1  6  2       -2 -.328067071725D-05 0.100000000000D+01
0.336864904894D-06 0.000000000000D+00 0.000000000000D+00 0.247857414699D-05 0.000000000000D+00  6 22 -2 9900012 11 -1 21 2 0.43025342D-01 0.16984371D-01 0.11407858D+05 0.11407858D+05 0.11407858D+05 0.12034462D+01  1  2 12  1  6  2       -2 0.629021169770D-05 0.100000000000D+01
-.197602453296D-07 0.000000000000D+00 0.000000000000D+00 0.247857414699D-05 0.000000000000D+00  6 22 -2 9900012 11 -1 21 2 0.43025342D-01 0.14817588D-01 0.10615802D+05 0.10615802D+05 0.10615802D+05 0.12066495D+01  1  2  4  1  6  2       -2 -.457377237202D-06 0.100000000000D+01
0.711389725189D-08 0.000000000000D+00 0.000000000000D+00 0.247857414699D-05 0.000000000000D+00  6 22 21 9900012 11 2 -1 2 0.43025342D-01 0.16984371D-01 0.11407858D+05 0.11407858D+05 0.11407858D+05 0.12034462D+01  3  4 12  3  5  2       -2 0.179059714755D-05 0.100000000000D+01
  </mgrwgt>
  </event>
  <event>
  6     66 0.64871765E-06 0.46466824E+02 0.78161638E-02 0.12273868E+00
       22 -1    0    0    0    0 0.00000000E+00 0.00000000E+00 0.14143860E+03 0.14143860E+03 0.00000000E+00 0.0000E+00 0.9000E+01
       -2 -1    0    0    0  501 0.00000000E+00 0.00000000E+00 -.36688212E+02 0.36688212E+02 0.00000000E+00 0.0000E+00 0.9000E+01
      -24  2    1    2    0    0 -.49256029E+02 -.73064627E+01 0.58921213E+02 0.11045219E+03 0.79047054E+02 0.0000E+00 0.0000E+00
  9900012  1    3    3    0    0 -.39126075E+02 0.15714706E+02 0.29512312E+02 0.71754988E+02 0.50000000E+02 0.0000E+00 0.9000E+01
       11  1    3    3    0    0 -.10129953E+02 -.23021169E+02 0.29408901E+02 0.38697204E+02 0.00000000E+00 0.0000E+00 0.9000E+01
       -1  1    1    2    0  501 0.49256029E+02 0.73064627E+01 0.45829174E+02 0.67674618E+02 0.00000000E+00 0.0000E+00 0.9000E+01
#aMCatNLO 1  0  0  2  5 0.17892906D+01 0.00000000D+00  -5  6  0 0.00000000D+00 0.00000000D+00 0.00000000D+00 0.00000000D+00 0.00000000D+00
  <mgrwgt>
 0.1062640979D-03    8    4    0
 0.720356110334199D+02 0.000000000000000D+00 0.000000000000000D+00 0.720356110334199D+02
 0.720356110334199D+02 0.000000000000000D+00 0.000000000000000D+00 -.720356110334199D+02
 0.672588245086180D+02 -.391260753076854D+02 0.157147058517107D+02 -.156827205960129D+02
 0.264620217420035D+02 -.101299534139966D+02 -.230211685840323D+02 0.822486690044811D+01
 0.503503758162183D+02 0.492560287216821D+02 0.730646273232156D+01 0.745785369556481D+01
 0.000000000000000D+00 -.000000000000000D+00 0.000000000000000D+00 0.000000000000000D+00
 0.727956328709274D+02 0.000000000000000D+00 0.000000000000000D+00 0.727956328709274D+02
 0.723388438275930D+02 0.000000000000000D+00 0.000000000000000D+00 -.723388438275930D+02
 0.669816734845135D+02 -.386983150429075D+02 0.155896526687819D+02 -.156827205960129D+02
 0.264409374259451D+02 -.996137698468113D+01 -.230704509059039D+02 0.822486690044811D+01
 0.506517870185286D+02 0.495778743089917D+02 0.721237307879669D+01 0.745785369556481D+01
 0.106007876953316D+01 -.918182281403098D+00 0.268425158325303D+00 0.456789043334432D+00
 0.720356110334199D+02 0.000000000000000D+00 0.000000000000000D+00 0.720356110334199D+02
 0.720356110334199D+02 0.000000000000000D+00 0.000000000000000D+00 -.720356110334199D+02
 0.672588245086180D+02 -.391260753076854D+02 0.157147058517107D+02 -.156827205960129D+02
 0.264620217420035D+02 -.101299534139966D+02 -.230211685840323D+02 0.822486690044811D+01
 0.000000000000000D+00 -.000000000000000D+00 0.000000000000000D+00 0.000000000000000D+00
 0.503503758162183D+02 0.492560287216821D+02 0.730646273232156D+01 0.745785369556481D+01
 0.727956328709274D+02 0.000000000000000D+00 0.000000000000000D+00 0.727956328709274D+02
 0.723388438275930D+02 0.000000000000000D+00 0.000000000000000D+00 -.723388438275930D+02
 0.669816734845135D+02 -.386983150429075D+02 0.155896526687819D+02 -.156827205960129D+02
 0.264409374259451D+02 -.996137698468113D+01 -.230704509059039D+02 0.822486690044811D+01
 0.106007876953316D+01 -.918182281403098D+00 0.268425158325303D+00 0.456789043334432D+00
 0.506517870185286D+02 0.495778743089917D+02 0.721237307879669D+01 0.745785369556481D+01
0.562802515658D-06 0.000000000000D+00 0.000000000000D+00 0.492027728236D-07 0.000000000000D+00  6 22 -2 9900012 11 -1 21 0 0.21759784D-01 0.56443403D-02 0.49246175D+04 0.49246175D+04 0.49246175D+04 0.12425893D+01  1  2  2  1  6  2       -2 0.103067202796D-03 0.100000000000D+01
-.228099700350D-07 0.000000000000D+00 -.108065492472D-08 0.492027728236D-07 0.000000000000D+00  6 22 -2 9900012 11 -1 21 2 0.21759784D-01 0.56443403D-02 0.49246175D+04 0.49246175D+04 0.49246175D+04 0.12425893D+01  1  2  3  1  6  2       -2 -.644977215197D-05 0.100000000000D+01
-.686622242877D-07 0.000000000000D+00 0.000000000000D+00 0.492027728236D-07 0.000000000000D+00  6 22 -2 9900012 11 -1 21 2 0.21759784D-01 0.56443403D-02 0.49246175D+04 0.49246175D+04 0.49246175D+04 0.12425893D+01  1  2 15  1  6  2       -2 -.194150058691D-04 0.100000000000D+01
0.545405792845D-10 0.000000000000D+00 0.000000000000D+00 0.492027728236D-07 0.000000000000D+00  6 22 -2 9900012 11 -1 21 2 0.21759784D-01 0.57279021D-02 0.49918026D+04 0.49918026D+04 0.49918026D+04 0.12419258D+01  1  2 12  1  6  2       -2 0.150999726161D-07 0.100000000000D+01
-.918024370478D-06 0.000000000000D+00 0.000000000000D+00 0.492027728236D-07 0.000000000000D+00  6 22 -2 9900012 11 -1 21 2 0.21759784D-01 0.56443403D-02 0.49246175D+04 0.49246175D+04 0.49246175D+04 0.12425893D+01  1  2  4  1  6  2       -2 -.259581578163D-03 0.100000000000D+01
0.908592547307D-06 0.000000000000D+00 0.000000000000D+00 0.492027728236D-07 0.821727991693D-07  6 22 -2 9900012 11 -1 21 2 0.21989364D-01 0.56681000D-02 0.49918026D+04 0.49918026D+04 0.49918026D+04 0.12419258D+01  1  2 11  1  6  2       -2 0.251483359939D-03 0.100000000000D+01
0.518674906638D-11 0.000000000000D+00 0.000000000000D+00 0.492027728236D-07 0.000000000000D+00  6 22 21 9900012 11 2 -1 2 0.21759784D-01 0.57279021D-02 0.49918026D+04 0.49918026D+04 0.49918026D+04 0.12419258D+01  3  4 12  3  5  2       -2 0.228587246279D-07 0.100000000000D+01
0.841490883907D-08 0.000000000000D+00 0.000000000000D+00 0.492027728236D-07 0.337603402661D-09  6 22 21 9900012 11 2 -1 2 0.21989364D-01 0.56681000D-02 0.49918026D+04 0.49918026D+04 0.49918026D+04 0.12419258D+01  3  4 11  3  5  2       -2 0.371219326130D-04 0.100000000000D+01
  </mgrwgt>
  </event>
  <event>
  6     66 0.64871765E-06 0.71547524E+02 0.78161638E-02 0.11371956E+00
       22 -1    0    0    0    0 0.00000000E+00 0.00000000E+00 0.87739500E+01 0.87739500E+01 0.00000000E+00 0.0000E+00 0.9000E+01
       -2 -1    0    0    0  501 0.00000000E+00 0.00000000E+00 -.25278178E+04 0.25278178E+04 0.00000000E+00 0.0000E+00 0.9000E+01
      -24  2    1    2    0    0 0.73015601E+01 0.10325756E+03 -.56844201E+03 0.58324514E+03 0.79581017E+02 0.0000E+00 0.0000E+00
  9900012  1    3    3    0    0 0.29184637E+02 0.72218817E+02 -.39702918E+03 0.40767569E+03 0.50000000E+02 0.0000E+00 0.9000E+01
       11  1    3    3    0    0 -.21883076E+02 0.31038747E+02 -.17141283E+03 0.17556945E+03 0.00000000E+00 0.0000E+00 0.9000E+01
       -1  1    1    2    0  501 -.73015601E+01 -.10325756E+03 -.19506018E+04 0.19533466E+04 0.00000000E+00 0.0000E+00 0.9000E+01
#aMCatNLO 1  0  0  2  5 0.17892906D+01 0.00000000D+00  -5  6  0 0.00000000D+00 0.00000000D+00 0.00000000D+00 0.00000000D+00 0.00000000D+00
  <mgrwgt>
 0.2271167196D-06    1    2    0
 0.148925977276130D+03 0.000000000000000D+00 0.000000000000000D+00 0.148925977276130D+03
 0.148925977276130D+03 0.000000000000000D+00 0.000000000000000D+00 -.148925977276130D+03
 0.114059630737414D+03 0.291846365282841D+02 0.722188169179523D+02 0.666505726729977D+02
 0.454976989452576D+02 -.218830764540872D+02 0.310387472687131D+02 0.250552936962796D+02
 0.138294624869588D+03 -.730156007419682D+01 -.103257564186665D+03 -.917058663692772D+02
 0.000000000000000D+00 0.000000000000000D+00 -.000000000000000D+00 -.000000000000000D+00
 0.179772103454562D+03 0.000000000000000D+00 0.000000000000000D+00 0.179772103454562D+03
 0.196548571030608D+03 0.000000000000000D+00 0.000000000000000D+00 -.196548571030608D+03
 0.113756596328865D+03 0.378790932110791D+01 0.773557762139641D+02 0.666505726729977D+02
 0.530513041761432D+02 -.328692216512211D+02 0.332608989750088D+02 0.250552936962796D+02
 0.138851079467285D+03 -.381974885175930D+02 -.970082894068278D+02 -.917058663692772D+02
 0.706616945128766D+02 0.672788008477062D+02 -.136083857821451D+02 -.167764675760453D+02
0.235731986176D-06 0.000000000000D+00 0.000000000000D+00 0.104928188759D-05 0.000000000000D+00  6 22 -2 9900012 11 -1 21 2 0.13498385D-02 0.38889504D+00 0.13695129D+05 0.13695129D+05 0.13695129D+05 0.11954255D+01  1  2 14  1  6  2       -2 0.227116719557D-06 0.100000000000D+01
  </mgrwgt>
  </event>
  <event>
  6     66 0.64871765E-06 0.31110980E+02 0.78161638E-02 0.12049305E+00
       22 -1    0    0    0    0 0.00000000E+00 0.00000000E+00 0.11680824E+03 0.11680824E+03 0.00000000E+00 0.0000E+00 0.9000E+01
       -2 -1    0    0    0  501 -.00000000E+00 -.00000000E+00 -.31651370E+03 0.31651370E+03 0.00000000E+00 0.0000E+00 0.9000E+01
      -24  2    1    2    0    0 -.24650558E+02 -.18980070E+02 0.99571981E+02 0.13243180E+03 0.81582535E+02 0.0000E+00 0.0000E+00
  9900012  1    3    3    0    0 0.48351501E+00 -.29138236E+02 0.81083042E+02 0.99617921E+02 0.50000000E+02 0.0000E+00 0.9000E+01
       11  1    3    3    0    0 -.25134073E+02 0.10158166E+02 0.18488940E+02 0.32813882E+02 0.00000000E+00 0.0000E+00 0.9000E+01
       -1  1    1    2    0  501 0.24650558E+02 0.18980070E+02 -.29927744E+03 0.30089014E+03 0.00000000E+00 0.0000E+00 0.9000E+01
#aMCatNLO 1  0  0  5  2 0.29064585D+00 0.00000000D+00  -5  6  0 0.00000000D+00 0.00000000D+00 0.00000000D+00 0.00000000D+00 0.00000000D+00
  <mgrwgt>
 0.6767078703D-04    6    2    0
 0.192279510128734D+03 0.000000000000000D+00 0.000000000000000D+00 0.192279510128734D+03
 0.192279510128734D+03 -.000000000000000D+00 -.000000000000000D+00 -.192279510128734D+03
 0.154356950207133D+03 0.483515011344195D+00 -.291382360594835D+02 0.143097161012450D+03
 0.465762511342634D+02 -.251340732516371D+02 0.101581661202517D+02 0.378739645743178D+02
 0.183625818916071D+03 0.246505582402929D+02 0.189800699392318D+02 -.180971125586767D+03
 0.000000000000000D+00 0.000000000000000D+00 0.000000000000000D+00 0.000000000000000D+00
 0.192279510128734D+03 0.000000000000000D+00 0.000000000000000D+00 0.192279510128734D+03
 0.192279510128734D+03 -.000000000000000D+00 -.000000000000000D+00 -.192279510128734D+03
 0.149516173591720D+03 0.118190915306254D+01 -.286004969330203D+02 0.137969927272023D+03
 0.452454949810733D+02 -.249230385646348D+02 0.103206554675461D+02 0.363246615332926D+02
 0.993702475615024D+02 0.268584176018902D+02 -.216072069722884D+02 -.931997860041183D+02
 0.904271041231723D+02 -.311728819031792D+01 0.398870484377626D+02 -.810948028011976D+02
0.562355403123D-05 0.000000000000D+00 0.000000000000D+00 0.900221586604D-05 0.000000000000D+00  6 22 -2 9900012 11 -1 21 0 0.17970499D-01 0.48694416D-01 0.33694012D+04 0.33694012D+04 0.33694012D+04 0.12616170D+01  1  2  2  2  6  5       -1 0.429519637753D-04 0.100000000000D+01
0.456095284282D-06 0.000000000000D+00 -.107979640978D-07 0.900221586604D-05 0.000000000000D+00  6 22 -2 9900012 11 -1 21 2 0.17970499D-01 0.48694416D-01 0.33694012D+04 0.33694012D+04 0.33694012D+04 0.12616170D+01  1  2  3  2  6  5       -1 0.554476096386D-05 0.100000000000D+01
-.789622702582D-06 0.000000000000D+00 0.000000000000D+00 0.900221586604D-05 0.000000000000D+00  6 22 -2 9900012 11 -1 21 2 0.17970499D-01 0.48694416D-01 0.33694012D+04 0.33694012D+04 0.33694012D+04 0.12616170D+01  1  2 15  2  6  5       -1 -.959946153433D-05 0.100000000000D+01
-.187045829007D-06 0.000000000000D+00 0.000000000000D+00 0.900221586604D-05 0.000000000000D+00  6 22 -2 9900012 11 -1 21 2 0.17970499D-01 0.48694416D-01 0.33694012D+04 0.33694012D+04 0.33694012D+04 0.12616170D+01  1  2  4  2  6  5       -1 -.227392048739D-05 0.100000000000D+01
-.432620167502D-05 0.000000000000D+00 0.000000000000D+00 0.900221586604D-05 0.000000000000D+00  6 22 -2 9900012 11 -1 21 2 0.17970499D-01 0.48694416D-01 0.33694012D+04 0.33694012D+04 0.33694012D+04 0.12616170D+01  1  2  5  2  6  5       -1 -.525937342396D-04 0.100000000000D+01
0.688007063945D-05 0.000000000000D+00 -.000000000000D+00 0.900221586604D-05 0.000000000000D+00  6 22 -2 9900012 11 -1 21 2 0.17970499D-01 0.48694416D-01 0.33694012D+04 0.33694012D+04 0.33694012D+04 0.12616170D+01  1  2  6  2  6  5       -1 0.836411785539D-04 0.100000000000D+01
  </mgrwgt>
  </event>
  <event>
  6     66 -.64871765E-06 0.61144781E+02 0.78161638E-02 0.10770585E+00
       22 -1    0    0    0    0 0.00000000E+00 0.00000000E+00 0.89304879E+03 0.89304879E+03 0.00000000E+00 0.0000E+00 0.9000E+01
       -2 -1    0    0    0  501 0.00000000E+00 0.00000000E+00 -.94730477E+02 0.94730477E+02 0.00000000E+00 0.0000E+00 0.9000E+01
      -24  2    1    2    0    0 -.14388691E+03 -.83418979E+02 0.80036758E+03 0.82144716E+03 0.80777485E+02 0.0000E+00 0.0000E+00
  9900012  1    3    3    0    0 -.90001826E+02 -.52906018E+02 0.62085827E+03 0.63155710E+03 0.50000000E+02 0.0000E+00 0.9000E+01
       11  1    3    3    0    0 -.53885084E+02 -.30512961E+02 0.17950932E+03 0.18989007E+03 0.00000000E+00 0.0000E+00 0.9000E+01
       -1  1    1    2    0  501 0.14388691E+03 0.83418979E+02 -.20492727E+01 0.16633210E+03 0.00000000E+00 0.0000E+00 0.9000E+01
#aMCatNLO 1  0  0  5  2 0.52343487D+01 0.00000000D+00  -5  6  0 0.00000000D+00 0.00000000D+00 0.00000000D+00 0.00000000D+00 0.00000000D+00
  <mgrwgt>
 -.5226015444D-04    8    2    0
 0.290858965500119D+03 0.000000000000000D+00 0.000000000000000D+00 0.290858965500119D+03
 0.290858965500119D+03 -.000000000000000D+00 -.000000000000000D+00 -.290858965500119D+03
 0.220375671243631D+03 -.900018258575874D+02 -.529060179547732D+02 0.187526161061732D+03
 0.760916842193622D+02 -.538850841861350D+02 -.305129614658823D+02 0.442187889044222D+02
 0.285250575537244D+03 0.143886910043722D+03 0.834189794206555D+02 -.231744949966154D+03
 0.000000000000000D+00 0.000000000000000D+00 0.000000000000000D+00 -.000000000000000D+00
 0.290858965500119D+03 0.000000000000000D+00 0.000000000000000D+00 0.290858965500119D+03
 0.290858965500119D+03 -.000000000000000D+00 -.000000000000000D+00 -.290858965500119D+03
 0.220222858246627D+03 -.899221554544738D+02 -.528598287377295D+02 0.187397843526956D+03
 0.760400628242189D+02 -.538575752481743D+02 -.304970130552247D+02 0.441744828765188D+02
 0.247535084225808D+03 0.127756534939278D+03 0.755413679514356D+02 -.198104486145601D+03
 0.379199257035836D+02 0.160231957633700D+02 0.781547384151860D+01 -.334678402578739D+02
0.472568910757D-06 0.000000000000D+00 0.000000000000D+00 0.365568233626D-05 0.000000000000D+00  6 22 -2 9900012 11 -1 21 0 0.13739212D+00 0.14573920D-01 0.29583939D+05 0.29583939D+05 0.29583939D+05 0.11633444D+01  1  2  2  2  6  5       -1 0.974701565640D-06 0.100000000000D+01
-.138877829963D-08 0.000000000000D+00 -.907394523778D-09 0.365568233626D-05 0.000000000000D+00  6 22 -2 9900012 11 -1 21 2 0.13739212D+00 0.14573920D-01 0.29583939D+05 0.29583939D+05 0.29583939D+05 0.11633444D+01  1  2  3  2  6  5       -1 -.387664539109D-08 0.100000000000D+01
-.704080008274D-07 0.000000000000D+00 0.000000000000D+00 0.365568233626D-05 0.000000000000D+00  6 22 -2 9900012 11 -1 21 2 0.13739212D+00 0.14573920D-01 0.29583939D+05 0.29583939D+05 0.29583939D+05 0.11633444D+01  1  2 15  2  6  5       -1 -.196537382515D-06 0.100000000000D+01
0.193140221315D-04 0.000000000000D+00 0.000000000000D+00 0.365568233626D-05 0.000000000000D+00  6 22 -2 9900012 11 -1 21 2 0.13739212D+00 0.14573920D-01 0.29551683D+05 0.29551683D+05 0.29551683D+05 0.11633880D+01  1  2 12  2  6  5       -1 0.539140417333D-04 0.100000000000D+01
-.745389151487D-04 0.000000000000D+00 0.000000000000D+00 0.365568233626D-05 0.000000000000D+00  6 22 -2 9900012 11 -1 21 2 0.13739212D+00 0.14573920D-01 0.29583939D+05 0.29583939D+05 0.29583939D+05 0.11633444D+01  1  2  4  2  6  5       -1 -.208068445442D-03 0.100000000000D+01
-.391079199528D-04 0.000000000000D+00 0.000000000000D+00 0.365568233626D-05 0.000000000000D+00  6 22 -2 9900012 11 -1 21 2 0.13739212D+00 0.14573920D-01 0.29583939D+05 0.29583939D+05 0.29583939D+05 0.11633444D+01  1  2  5  2  6  5       -1 -.109166119373D-03 0.100000000000D+01
0.446488192082D-04 0.000000000000D+00 -.000000000000D+00 0.365568233626D-05 0.000000000000D+00  6 22 -2 9900012 11 -1 21 2 0.13739212D+00 0.14573920D-01 0.29583939D+05 0.29583939D+05 0.29583939D+05 0.11633444D+01  1  2  6  2  6  5       -1 0.124633024038D-03 0.100000000000D+01
0.306841221064D-04 0.000000000000D+00 0.000000000000D+00 0.365568233626D-05 0.116275801751D-05  6 22 -2 9900012 11 -1 21 2 0.13739212D+00 0.14573920D-01 0.29551683D+05 0.29551683D+05 0.29551683D+05 0.11633880D+01  1  2 11  2  6  5       -1 0.856530570656D-04 0.100000000000D+01
  </mgrwgt>
  </event>
  <event>
  6     66 0.64871765E-06 0.71434840E+02 0.78161638E-02 0.10833805E+00
       22 -1    0    0    0    0 0.00000000E+00 0.00000000E+00 0.51909545E+02 0.51909545E+02 0.00000000E+00 0.0000E+00 0.9000E+01
       -2 -1    0    0    0  501 0.00000000E+00 0.00000000E+00 -.17164682E+03 0.17164682E+03 0.00000000E+00 0.0000E+00 0.9000E+01
      -24  2    1    2    0    0 -.34268433E+02 -.62678632E+02 -.35457939E+02 0.11307586E+03 0.80162006E+02 0.0000E+00 0.0000E+00
  9900012  1    3    3    0    0 -.82043389E+01 -.27520420E+02 -.38294771E+02 0.69218308E+02 0.50000000E+02 0.0000E+00 0.9000E+01
       11  1    3    3    0    0 -.26064094E+02 -.35158212E+02 0.28368313E+01 0.43857547E+02 0.00000000E+00 0.0000E+00 0.9000E+01
       -1  1    1    2    0  501 0.34268433E+02 0.62678632E+02 -.84279335E+02 0.11048051E+03 0.00000000E+00 0.0000E+00 0.9000E+01
#aMCatNLO 1  0  0  2  5 0.13087953D+03 0.00000000D+00  -5  6  0 0.00000000D+00 0.00000000D+00 0.00000000D+00 0.00000000D+00 0.00000000D+00
  <mgrwgt>
 0.2901053117D-04    5    4    0
 0.943933693491424D+02 0.000000000000000D+00 0.000000000000000D+00 0.943933693491424D+02
 0.943933693491424D+02 0.000000000000000D+00 0.000000000000000D+00 -.943933693491424D+02
 0.576782132870239D+02 -.820433890250107D+01 -.275204204929429D+02 -.144622510278911D+01
 0.537342200363768D+02 -.260640937578274D+02 -.351582115415194D+02 0.311757851657773D+02
 0.773743053748841D+02 0.342684326603285D+02 0.626786320344623D+02 -.297295600629882D+02
 0.000000000000000D+00 0.000000000000000D+00 0.000000000000000D+00 -.000000000000000D+00
 0.127368803948043D+03 0.000000000000000D+00 0.000000000000000D+00 0.127368803948043D+03
 0.348805887782031D+03 0.000000000000000D+00 0.000000000000000D+00 -.348805887782031D+03
 0.827368407597437D+02 -.419819980820253D+02 -.508016248647232D+02 -.144622510278911D+01
 0.902202321568968D+02 -.606931757787623D+02 -.590262579165401D+02 0.311757851657773D+02
 0.510661599020873D+02 0.337133056228653D+01 0.413828476043700D+02 -.297295600629882D+02
 0.252151458911346D+03 0.993038432985011D+02 0.684450351768934D+02 -.221437083833988D+03
 0.943933693491424D+02 0.000000000000000D+00 0.000000000000000D+00 0.943933693491424D+02
 0.943933693491424D+02 0.000000000000000D+00 0.000000000000000D+00 -.943933693491424D+02
 0.576782132870239D+02 -.820433890250107D+01 -.275204204929429D+02 -.144622510278911D+01
 0.537342200363768D+02 -.260640937578274D+02 -.351582115415194D+02 0.311757851657773D+02
 0.000000000000000D+00 0.000000000000000D+00 0.000000000000000D+00 -.000000000000000D+00
 0.773743053748841D+02 0.342684326603285D+02 0.626786320344623D+02 -.297295600629882D+02
 0.127368803948043D+03 0.000000000000000D+00 0.000000000000000D+00 0.127368803948043D+03
 0.348805887782031D+03 0.000000000000000D+00 0.000000000000000D+00 -.348805887782031D+03
 0.827368407597437D+02 -.419819980820253D+02 -.508016248647232D+02 -.144622510278911D+01
 0.902202321568968D+02 -.606931757787623D+02 -.590262579165401D+02 0.311757851657773D+02
 0.252151458911346D+03 0.993038432985011D+02 0.684450351768934D+02 -.221437083833988D+03
 0.510661599020873D+02 0.337133056228653D+01 0.413828476043700D+02 -.297295600629882D+02
0.546353886192D-06 0.000000000000D+00 0.000000000000D+00 0.328581734222D-06 0.000000000000D+00  6 22 -2 9900012 11 -1 21 0 0.79860838D-02 0.26407203D-01 0.74701987D+04 0.74701987D+04 0.74701987D+04 0.12226907D+01  1  2  2  1  6  2       -2 0.409564097154D-04 0.100000000000D+01
-.124024448185D-07 0.000000000000D+00 -.104907139063D-08 0.328581734222D-06 0.000000000000D+00  6 22 -2 9900012 11 -1 21 2 0.79860838D-02 0.26407203D-01 0.74701987D+04 0.74701987D+04 0.74701987D+04 0.12226907D+01  1  2  3  1  6  2       -2 -.138991538440D-05 0.100000000000D+01
-.711752025968D-07 0.000000000000D+00 0.000000000000D+00 0.328581734222D-06 0.000000000000D+00  6 22 -2 9900012 11 -1 21 2 0.79860838D-02 0.26407203D-01 0.74701987D+04 0.74701987D+04 0.74701987D+04 0.12226907D+01  1  2 15  1  6  2       -2 -.797645226605D-05 0.100000000000D+01
-.160129134263D-06 0.000000000000D+00 -.191444869287D-06 0.328581734222D-06 0.000000000000D+00  6 22 -2 9900012 11 -1 21 2 0.79860838D-02 0.12076696D+00 0.74701987D+04 0.74701987D+04 0.74701987D+04 0.12226907D+01  1  2  5  1  6  2       -2 -.873418473525D-06 0.100000000000D+01
-.317171800117D-07 0.000000000000D+00 -.352415250269D-07 0.328581734222D-06 0.000000000000D+00  6 22 21 9900012 11 2 -1 2 0.79860838D-02 0.12076696D+00 0.74701987D+04 0.74701987D+04 0.74701987D+04 0.12226907D+01  3  4  5  3  5  2       -2 -.170609241737D-05 0.100000000000D+01
  </mgrwgt>
  </event>
</LesHouchesEvents>
