<LesHouchesEvents version="3.0">
  <!--
  <scalesfunctionalform>
    muR  H_T/2 := sum_i mT(i)/2, i=final state
    muF1 H_T/2 := sum_i mT(i)/2, i=final state
    muF2 H_T/2 := sum_i mT(i)/2, i=final state
    QES  H_T/2 := sum_i mT(i)/2, i=final state
  </scalesfunctionalform>
PYTHIA8   
  -->
  <header>
        7
  </header>
  <init>
   2212   2212 0.65000000D+04 0.65000000D+04 -1 -1  82200  82200 -4   1
 0.75854972D-05 0.15143510D-06 0.14468664D-05     66
  </init>
  <event>
  7     66 0.14468664E-05 0.17658144E+02 0.78161638E-02 0.12987957E+00
       22 -1    0    0    0    0 0.00000000E+00 0.00000000E+00 0.61428097E+01 0.61428097E+01 0.00000000E+00 0.0000E+00 0.9000E+01
        2 -1    0    0  502    0 0.00000000E+00 0.00000000E+00 -.46655719E+03 0.46655719E+03 0.00000000E+00 0.0000E+00 0.9000E+01
       24  2    1    2    0    0 -.16823663E+02 0.42067143E+01 -.34792781E+03 0.35764687E+03 0.80973999E+02 0.0000E+00 0.0000E+00
  9900012  1    3    3    0    0 -.24812441E+02 -.15525581E+02 -.29429306E+03 0.29994183E+03 0.50000000E+02 0.0000E+00 0.9000E+01
      -13  1    3    3    0    0 0.79887776E+01 0.19732295E+02 -.53634755E+02 0.57705034E+02 0.00000000E+00 0.0000E+00 0.9000E+01
        1  1    1    2  501    0 -.15200996E+01 -.11187753E+01 -.12314716E+01 0.22536378E+01 0.00000000E+00 0.0000E+00 0.9000E+01
       21  1    1    2  502  501 0.18343763E+02 -.30879391E+01 -.11125509E+03 0.11279949E+03 0.00000000E+00 0.0000E+00 0.9000E+01
#aMCatNLO 2  0  0  2  5 0.29964006D+03 0.00000000D+00  -5  6  0 0.00000000D+00 0.00000000D+00 0.00000000D+00 0.00000000D+00 0.00000000D+00
  <mgrwgt>
 0.6478075381D-05    1    2    0
 0.426325595455563D+02 0.000000000000000D+00 0.000000000000000D+00 0.426325595455563D+02
 0.426325595455563D+02 0.000000000000000D+00 0.000000000000000D+00 -.426325595455563D+02
 0.561408229931023D+02 -.125158913176197D+02 -.175955484790722D+02 -.136213488535093D+02
 0.249411553460927D+02 0.131269585154821D+02 0.188673477799734D+02 0.968335571381516D+01
 0.418314075191766D+01 -.611067197862408D+00 -.127179930090119D+01 0.393799313969413D+01
 0.000000000000000D+00 0.000000000000000D+00 -.000000000000000D+00 -.000000000000000D+00
 0.499093156479527D+02 0.000000000000000D+00 0.000000000000000D+00 0.499093156479527D+02
 0.574235883167266D+02 0.000000000000000D+00 0.000000000000000D+00 -.574235883167266D+02
 0.595167373913595D+02 -.248124409447281D+02 -.155255808099868D+02 -.136213488535093D+02
 0.233869924909177D+02 0.798877761067481D+01 0.197322951573592D+02 0.968335571381516D+01
 0.436693839078540D+01 -.152009962206767D+01 -.111877525876608D+01 0.393799313969413D+01
 0.200622356916168D+02 0.183437629561210D+02 -.308793908860640D+01 -.751427266877386D+01
0.449424884345D-08 0.000000000000D+00 0.000000000000D+00 0.128516576582D-05 0.139180738773D-07  6 22 2 9900012 -13 1 21 2 0.94504764D-03 0.71778028D-01 0.24857423D+04 0.24857423D+04 0.24857423D+04 0.12775425D+01  1  2  1  1  6  2        2 0.647807538133D-05 0.100000000000D+01
  </mgrwgt>
  </event>
  <event>
  6     66 0.14468664E-05 0.52878511E+02 0.78161638E-02 0.11679189E+00
       22 -1    0    0    0    0 0.00000000E+00 0.00000000E+00 0.22347192E+03 0.22347192E+03 0.00000000E+00 0.0000E+00 0.9000E+01
        2 -1    0    0  501    0 0.00000000E+00 0.00000000E+00 -.56379991E+02 0.56379991E+02 0.00000000E+00 0.0000E+00 0.9000E+01
       24  2    1    2    0    0 -.41777074E+02 0.32416246E+02 0.38948818E+01 0.10830188E+03 0.94435110E+02 0.0000E+00 0.0000E+00
  9900012  1    3    3    0    0 -.18271681E+02 0.42254708E+02 -.22520418E+02 0.71599469E+02 0.50000000E+02 0.0000E+00 0.9000E+01
      -13  1    3    3    0    0 -.23505393E+02 -.98384627E+01 0.26415300E+02 0.36702410E+02 0.00000000E+00 0.0000E+00 0.9000E+01
        1  1    1    2  501    0 0.41777074E+02 -.32416246E+02 0.16319705E+03 0.17155003E+03 0.00000000E+00 0.0000E+00 0.9000E+01
#aMCatNLO 1  0  0  2  2 0.65866368D+02 0.00000000D+00  -5  6  0 0.00000000D+00 0.00000000D+00 0.00000000D+00 0.00000000D+00 0.00000000D+00
  <mgrwgt>
 0.8502566891D-05    7    2    0
 0.112246802810518D+03 0.000000000000000D+00 0.000000000000000D+00 0.112246802810518D+03
 0.112246802810518D+03 0.000000000000000D+00 0.000000000000000D+00 -.112246802810518D+03
 0.106017399659905D+03 -.182716814513928D+02 0.422547084114377D+02 -.813656825980782D+02
 0.260918621483274D+02 -.235053929657797D+02 -.983846270304167D+01 0.561127646195173D+01
 0.923843438128034D+02 0.417770744171725D+02 -.324162457083960D+02 0.757544061361265D+02
 0.000000000000000D+00 0.000000000000000D+00 -.000000000000000D+00 -.000000000000000D+00
 0.136948949064743D+03 0.000000000000000D+00 0.000000000000000D+00 0.136948949064743D+03
 0.140967653413239D+03 0.000000000000000D+00 0.000000000000000D+00 -.140967653413239D+03
 0.116569074756306D+03 -.382549733054052D+02 0.548136105569851D+02 -.813656825980782D+02
 0.298309273027494D+02 -.285260099004894D+02 -.668315489620318D+01 0.561127646195173D+01
 0.831992118330108D+02 0.260135944193960D+02 -.225093692932563D+02 0.757544061361265D+02
 0.483173885859156D+02 0.407673887864986D+02 -.256210863675257D+02 -.401870434849596D+01
0.131069812999D-06 0.000000000000D+00 0.000000000000D+00 0.144078692634D-08 0.000000000000D+00  6 22 2 9900012 -13 1 21 0 0.34380295D-01 0.86738447D-02 0.53527803D+04 0.53527803D+04 0.53527803D+04 0.12385257D+01  1  2  2  1  6  2        2 0.883335849273D-05 0.100000000000D+01
-.815739249867D-08 0.000000000000D+00 -.251671296695D-09 0.144078692634D-08 0.000000000000D+00  6 22 2 9900012 -13 1 21 2 0.34380295D-01 0.86738447D-02 0.53527803D+04 0.53527803D+04 0.53527803D+04 0.12385257D+01  1  2  3  1  6  2        2 -.843304819638D-06 0.100000000000D+01
0.862654436519D-08 0.000000000000D+00 0.000000000000D+00 0.144078692634D-08 0.000000000000D+00  6 22 2 9900012 -13 1 21 2 0.34380295D-01 0.86738447D-02 0.53527803D+04 0.53527803D+04 0.53527803D+04 0.12385257D+01  1  2 15  1  6  2        2 0.891805370549D-06 0.100000000000D+01
-.322851994672D-07 0.000000000000D+00 0.000000000000D+00 0.144078692634D-08 0.000000000000D+00  6 22 2 9900012 -13 1 21 2 0.34380295D-01 0.86738447D-02 0.53527803D+04 0.53527803D+04 0.53527803D+04 0.12385257D+01  1  2  4  1  6  2        2 -.333761852432D-05 0.100000000000D+01
-.457623274787D-07 0.000000000000D+00 -.398274213544D-07 0.144078692634D-08 0.000000000000D+00  6 22 2 9900012 -13 1 21 2 0.34380295D-01 0.13236609D-01 0.53527803D+04 0.53527803D+04 0.53527803D+04 0.12385257D+01  1  2  5  1  6  2        2 -.283897332789D-05 0.100000000000D+01
0.604284049425D-07 0.000000000000D+00 0.365166536019D-07 0.144078692634D-08 0.000000000000D+00  6 22 2 9900012 -13 1 21 2 0.34380295D-01 0.86738447D-02 0.53527803D+04 0.53527803D+04 0.53527803D+04 0.12385257D+01  1  2  6  1  6  2        2 0.624704096798D-05 0.100000000000D+01
-.805813115542D-09 0.000000000000D+00 -.197456958485D-08 0.144078692634D-08 0.000000000000D+00  6 22 21 9900012 -13 1 -2 2 0.34380295D-01 0.13236609D-01 0.53527803D+04 0.53527803D+04 0.53527803D+04 0.12385257D+01  1  2  5  3  6  2        2 -.449741268633D-06 0.100000000000D+01
  </mgrwgt>
  </event>
  <event>
  5     66 0.14468664E-05 0.26341246E+02 0.78161638E-02 0.11412164E+00
       22 -1    0    0    0    0 0.00000000E+00 0.00000000E+00 0.11092133E+03 0.11092133E+03 0.00000000E+00 0.0000E+00 0.9000E+01
        2 -1    0    0  501    0 0.00000000E+00 0.00000000E+00 -.14102515E+03 0.14102515E+03 0.00000000E+00 0.0000E+00 0.9000E+01
  9900012  1    1    2    0    0 -.18190039E+02 -.74245634E+01 -.80820280E+02 0.97045965E+02 0.50000000E+02 0.0000E+00 0.9000E+01
      -13  1    1    2    0    0 0.44453547E+02 0.54023374E+01 0.94062683E+02 0.10417817E+03 0.00000000E+00 0.0000E+00 0.9000E+01
        1  1    1    2  501    0 -.26263508E+02 0.20222260E+01 -.43346223E+02 0.50722345E+02 0.00000000E+00 0.0000E+00 0.9000E+01
#aMCatNLO 1  0  0  2  5 0.15579468D+02 0.00000000D+00  -5  6  0 0.00000000D+00 0.00000000D+00 0.00000000D+00 0.00000000D+00 0.00000000D+00
  <mgrwgt>
 0.1230530397D-03    3    2    0
 0.125070769455690D+03 0.000000000000000D+00 0.000000000000000D+00 0.125070769455690D+03
 0.125070769455690D+03 0.000000000000000D+00 0.000000000000000D+00 -.125070769455690D+03
 0.880197280766958D+02 -.181900392923912D+02 -.742456335858895D+01 -.697242487243214D+02
 0.116250063512900D+03 0.444535473319154D+02 0.540233738038859D+01 0.107278954819624D+03
 0.458717473217842D+02 -.262635080395242D+02 0.202222597820036D+01 -.375547060953026D+02
 0.000000000000000D+00 -.000000000000000D+00 -.000000000000000D+00 0.000000000000000D+00
 0.266851394413909D+03 0.000000000000000D+00 0.000000000000000D+00 0.266851394413909D+03
 0.142471590073444D+03 0.000000000000000D+00 0.000000000000000D+00 -.142471590073444D+03
 0.891186641147322D+02 -.142187165672055D+02 0.194549102440721D+02 -.697242487243214D+02
 0.125572555276420D+03 0.498750465878425D+02 0.420971759066945D+02 0.107278954819624D+03
 0.475048550116119D+02 -.241700678865476D+02 0.161914520080624D+02 -.375547060953026D+02
 0.147126910084589D+03 -.114862621340894D+02 -.777435381588291D+02 0.124379804340465D+03
0.200235611945D-05 0.000000000000D+00 0.000000000000D+00 0.170358213431D-08 0.000000000000D+00  6 22 2 9900012 -13 1 21 0 0.17064820D-01 0.21696177D-01 0.38964672D+04 0.38964672D+04 0.38964672D+04 0.12542261D+01  1  2  2  1  6  2        2 0.128513732613D-03 0.100000000000D+01
-.187001671835D-08 0.000000000000D+00 -.384478736559D-08 0.170358213431D-08 0.000000000000D+00  6 22 2 9900012 -13 1 21 2 0.17064820D-01 0.21696177D-01 0.38964672D+04 0.38964672D+04 0.38964672D+04 0.12542261D+01  1  2  3  1  6  2        2 -.188801481308D-06 0.100000000000D+01
-.522163544616D-07 0.000000000000D+00 0.000000000000D+00 0.170358213431D-08 0.000000000000D+00  6 22 2 9900012 -13 1 21 2 0.17064820D-01 0.21696177D-01 0.38964672D+04 0.38964672D+04 0.38964672D+04 0.12542261D+01  1  2 15  1  6  2        2 -.527189140833D-05 0.100000000000D+01
  </mgrwgt>
  </event>
  <event>
  6     66 0.14468664E-05 0.16079451E+02 0.78161638E-02 0.12675096E+00
       22 -1    0    0    0    0 0.00000000E+00 0.00000000E+00 0.16138665E+02 0.16138665E+02 0.00000000E+00 0.0000E+00 0.9000E+01
        2 -1    0    0  501    0 0.00000000E+00 0.00000000E+00 -.16974514E+03 0.16974514E+03 0.00000000E+00 0.0000E+00 0.9000E+01
       24  2    1    2    0    0 0.12727889E+02 -.98259654E+01 -.14683371E+03 0.16843620E+03 0.80944829E+02 0.0000E+00 0.0000E+00
  9900012  1    3    3    0    0 0.27118226E+02 0.55389348E+01 -.12804399E+03 0.14021891E+03 0.50000000E+02 0.0000E+00 0.9000E+01
      -13  1    3    3    0    0 -.14390337E+02 -.15364900E+02 -.18789718E+02 0.28217290E+02 0.00000000E+00 0.0000E+00 0.9000E+01
        1  1    1    2  501    0 -.12727889E+02 0.98259654E+01 -.67727686E+01 0.17447612E+02 0.00000000E+00 0.0000E+00 0.9000E+01
#aMCatNLO 1  0  0  2  2 0.18560795D+02 0.00000000D+00  -5  6  0 0.00000000D+00 0.00000000D+00 0.00000000D+00 0.00000000D+00 0.00000000D+00
  <mgrwgt>
 0.2045221217D-04    7    2    0
 0.523398510342241D+02 0.000000000000000D+00 0.000000000000000D+00 0.523398510342241D+02
 0.523398510342241D+02 0.000000000000000D+00 0.000000000000000D+00 -.523398510342241D+02
 0.611010312011441D+02 0.271182261956315D+02 0.553893476799699D+01 -.216161519119762D+02
 0.225345973720345D+02 -.143903372039687D+02 -.153649001805254D+02 0.804028086065831D+01
 0.210440734952695D+02 -.127278889916628D+02 0.982596541252844D+01 0.135758710513179D+02
 0.000000000000000D+00 0.000000000000000D+00 -.000000000000000D+00 -.000000000000000D+00
 0.608427040189615D+02 0.000000000000000D+00 0.000000000000000D+00 0.608427040189615D+02
 0.648875938010927D+02 0.000000000000000D+00 0.000000000000000D+00 -.648875938010927D+02
 0.601406549993897D+02 0.209616946061482D+02 0.144999213622887D+02 -.216161519119762D+02
 0.220835925571832D+02 -.166560042725580D+02 -.120671647699838D+02 0.804028086065831D+01
 0.241526049026218D+02 -.150229311262310D+02 0.131664569705239D+02 0.135758710513179D+02
 0.193534453608596D+02 0.107172407926408D+02 -.155992135628288D+02 -.404488978213125D+01
0.260092970699D-07 0.000000000000D+00 0.000000000000D+00 0.566031490591D-07 0.000000000000D+00  6 22 2 9900012 -13 1 21 0 0.24828716D-02 0.26114637D-01 0.22222020D+04 0.22222020D+04 0.22222020D+04 0.12835662D+01  1  2  2  1  6  2        2 0.183561056862D-04 0.100000000000D+01
-.576071594389D-09 0.000000000000D+00 -.499412745768D-10 0.566031490591D-07 0.000000000000D+00  6 22 2 9900012 -13 1 21 2 0.24828716D-02 0.26114637D-01 0.22222020D+04 0.22222020D+04 0.22222020D+04 0.12835662D+01  1  2  3  1  6  2        2 -.669830575544D-06 0.100000000000D+01
-.969133058992D-10 0.000000000000D+00 0.000000000000D+00 0.566031490591D-07 0.000000000000D+00  6 22 2 9900012 -13 1 21 2 0.24828716D-02 0.26114637D-01 0.22222020D+04 0.22222020D+04 0.22222020D+04 0.12835662D+01  1  2 15  1  6  2        2 -.112686506505D-06 0.100000000000D+01
-.412394302984D-08 0.000000000000D+00 0.000000000000D+00 0.566031490591D-07 0.000000000000D+00  6 22 2 9900012 -13 1 21 2 0.24828716D-02 0.26114637D-01 0.22222020D+04 0.22222020D+04 0.22222020D+04 0.12835662D+01  1  2  4  1  6  2        2 -.479513859058D-05 0.100000000000D+01
-.202783352116D-07 0.000000000000D+00 -.874539145401D-08 0.566031490591D-07 0.000000000000D+00  6 22 2 9900012 -13 1 21 2 0.24828716D-02 0.37221601D-01 0.22222020D+04 0.22222020D+04 0.22222020D+04 0.12835662D+01  1  2  5  1  6  2        2 -.161551046388D-04 0.100000000000D+01
0.224733867856D-07 0.000000000000D+00 0.822354726048D-08 0.566031490591D-07 0.000000000000D+00  6 22 2 9900012 -13 1 21 2 0.24828716D-02 0.26114637D-01 0.22222020D+04 0.22222020D+04 0.22222020D+04 0.12835662D+01  1  2  6  1  6  2        2 0.261310603606D-04 0.100000000000D+01
-.632073879857D-09 0.000000000000D+00 -.381206599604D-09 0.566031490591D-07 0.000000000000D+00  6 22 21 9900012 -13 1 -2 2 0.24828716D-02 0.37221601D-01 0.22222020D+04 0.22222020D+04 0.22222020D+04 0.12835662D+01  1  2  5  3  6  2        2 -.230219356124D-05 0.100000000000D+01
  </mgrwgt>
  </event>
  <event>
  6     66 0.14468664E-05 0.47420805E+02 0.78161638E-02 0.11466376E+00
       22 -1    0    0    0    0 0.00000000E+00 0.00000000E+00 0.16369579E+02 0.16369579E+02 0.00000000E+00 0.0000E+00 0.9000E+01
        2 -1    0    0  501    0 0.00000000E+00 0.00000000E+00 -.30658444E+03 0.30658444E+03 0.00000000E+00 0.0000E+00 0.9000E+01
       24  2    1    2    0    0 -.16713862E+02 0.44377692E+02 -.17974279E+03 0.20273417E+03 0.80900818E+02 0.0000E+00 0.0000E+00
  9900012  1    3    3    0    0 0.55906504E+01 0.49020735E+02 -.12397887E+03 0.14249578E+03 0.50000000E+02 0.0000E+00 0.9000E+01
      -13  1    3    3    0    0 -.22304513E+02 -.46430432E+01 -.55763915E+02 0.60238388E+02 0.00000000E+00 0.0000E+00 0.9000E+01
        1  1    1    2  501    0 0.16713862E+02 -.44377692E+02 -.11047208E+03 0.12021985E+03 0.00000000E+00 0.0000E+00 0.9000E+01
#aMCatNLO 1  0  0  2  5 0.16589452D+03 0.00000000D+00  -5  6  0 0.00000000D+00 0.00000000D+00 0.00000000D+00 0.00000000D+00 0.00000000D+00
  <mgrwgt>
 0.5399116795D-05    3    2    0
 0.708424901837694D+02 0.000000000000000D+00 0.000000000000000D+00 0.708424901837694D+02
 0.708424901837694D+02 0.000000000000000D+00 0.000000000000000D+00 -.708424901837694D+02
 0.708549017487169D+02 0.559065041080212D+01 0.490207352823423D+02 0.928058415095959D+01
 0.230843989971326D+02 -.223045125288875D+02 -.464304324983786D+01 -.372026172300463D+01
 0.477456796216893D+02 0.167138621180853D+02 -.443776920325044D+02 -.556032242795496D+01
 0.000000000000000D+00 0.000000000000000D+00 -.000000000000000D+00 0.000000000000000D+00
 0.190044713765771D+03 0.000000000000000D+00 0.000000000000000D+00 0.190044713765771D+03
 0.879009427820170D+02 0.000000000000000D+00 0.000000000000000D+00 -.879009427820170D+02
 0.950379518231176D+02 -.161786351110362D+02 0.786405417739103D+02 0.928058415095959D+01
 0.298807598095031D+02 -.292548641561315D+02 0.481377011414707D+01 -.372026172300463D+01
 0.313979453427492D+02 0.632824193018434D+01 -.302467707419570D+02 -.556032242795496D+01
 0.121628999572418D+03 0.391052573369833D+02 -.532075411461004D+02 0.102143770983754D+03
0.145524690997D-07 0.000000000000D+00 0.000000000000D+00 0.577834267712D-07 0.000000000000D+00  6 22 2 9900012 -13 1 21 0 0.25183968D-02 0.47166838D-01 0.49314060D+04 0.49314060D+04 0.49314060D+04 0.12425218D+01  1  2  2  1  6  2        2 0.584992326124D-05 0.100000000000D+01
-.370506929807D-09 0.000000000000D+00 -.279426565481D-10 0.577834267712D-07 0.000000000000D+00  6 22 2 9900012 -13 1 21 2 0.25183968D-02 0.47166838D-01 0.49314060D+04 0.49314060D+04 0.49314060D+04 0.12425218D+01  1  2  3  1  6  2        2 -.229941750293D-06 0.100000000000D+01
-.355881034587D-09 0.000000000000D+00 0.000000000000D+00 0.577834267712D-07 0.000000000000D+00  6 22 2 9900012 -13 1 21 2 0.25183968D-02 0.47166838D-01 0.49314060D+04 0.49314060D+04 0.49314060D+04 0.12425218D+01  1  2 15  1  6  2        2 -.220864716435D-06 0.100000000000D+01
  </mgrwgt>
  </event>
  <event>
  7     66 0.14468664E-05 0.14172719E+02 0.78161638E-02 0.13141171E+00
       22 -1    0    0    0    0 0.00000000E+00 0.00000000E+00 0.10782223E+03 0.10782223E+03 0.00000000E+00 0.0000E+00 0.9000E+01
        4 -1    0    0  501    0 0.00000000E+00 0.00000000E+00 -.28308797E+02 0.28308797E+02 0.00000000E+00 0.0000E+00 0.9000E+01
       24  2    1    2    0    0 -.13514033E+01 -.13399183E+02 0.35841405E+02 0.89059447E+02 0.80409044E+02 0.0000E+00 0.0000E+00
  9900012  1    3    3    0    0 -.19747644E+02 -.18915442E+02 0.11643816E+02 0.58166501E+02 0.50000000E+02 0.0000E+00 0.9000E+01
      -13  1    3    3    0    0 0.18396240E+02 0.55162589E+01 0.24197589E+02 0.30892946E+02 0.00000000E+00 0.0000E+00 0.9000E+01
        3  1    1    2  502    0 0.63543871E+00 -.16323110E+01 0.10508421E+02 0.10653410E+02 0.00000000E+00 0.0000E+00 0.9000E+01
       21  1    1    2  501  502 0.71596457E+00 0.15031494E+02 0.33163609E+02 0.36418174E+02 0.00000000E+00 0.0000E+00 0.9000E+01
#aMCatNLO 2  0  0  5  2 0.22348777D+02 0.00000000D+00  -5  6  0 0.00000000D+00 0.00000000D+00 0.00000000D+00 0.00000000D+00 0.00000000D+00
  <mgrwgt>
 0.2254119466D-04    1    2    0
 0.552477850269823D+02 0.000000000000000D+00 0.000000000000000D+00 0.552477850269823D+02
 0.552477850269823D+02 -.000000000000000D+00 -.000000000000000D+00 -.552477850269823D+02
 0.640910267693787D+02 -.198298985687940D+02 -.197310003045009D+02 -.287249449449141D+02
 0.204141045982055D+02 0.183697237757796D+02 0.525334603765028D+01 0.718966413379201D+01
 0.259904386863803D+02 0.146017479301437D+01 0.144776542668506D+02 0.215352808111221D+02
 0.000000000000000D+00 0.000000000000000D+00 0.000000000000000D+00 0.000000000000000D+00
 0.552477850269823D+02 0.000000000000000D+00 0.000000000000000D+00 0.552477850269823D+02
 0.552477850269823D+02 -.000000000000000D+00 -.000000000000000D+00 -.552477850269823D+02
 0.632824093983479D+02 -.197476436926996D+02 -.189154420141141D+02 -.275118149393488D+02
 0.206474801373628D+02 0.183962404158757D+02 0.551625890908615D+01 0.758074285489354D+01
 0.556310953803824D+01 0.635438709550473D+00 -.163231100126267D+01 0.528014830982746D+01
 0.210025709802156D+02 0.715964567273460D+00 0.150314941062907D+02 0.146509237746278D+02
0.564582044742D-07 0.000000000000D+00 0.000000000000D+00 0.134860680090D-06 0.584732758860D-07  6 22 4 9900012 -13 3 21 2 0.16588036D-01 0.43551996D-02 0.21620086D+04 0.21620086D+04 0.21620086D+04 0.12850558D+01  1  2  1  2  6  5        3 0.225411946573D-04 0.100000000000D+01
  </mgrwgt>
  </event>
  <event>
  7     66 0.14468664E-05 0.58718611E+02 0.78161638E-02 0.11554185E+00
       22 -1    0    0    0    0 0.00000000E+00 0.00000000E+00 0.12196761E+03 0.12196761E+03 0.00000000E+00 0.0000E+00 0.9000E+01
       21 -1    0    0  501  502 0.00000000E+00 0.00000000E+00 -.55733695E+03 0.55733695E+03 0.00000000E+00 0.0000E+00 0.9000E+01
       24  2    1    2    0    0 0.80791070E+02 0.41098828E+02 -.66749598E+02 0.13797882E+03 0.79789327E+02 0.0000E+00 0.0000E+00
  9900012  1    3    3    0    0 0.32601975E+02 0.15604373E+02 -.54000478E+02 0.81990468E+02 0.50000000E+02 0.0000E+00 0.9000E+01
      -13  1    3    3    0    0 0.48189094E+02 0.25494455E+02 -.12749120E+02 0.55988357E+02 0.00000000E+00 0.0000E+00 0.9000E+01
        3  1    1    2  501    0 0.16676785E+01 -.49587105E-01 0.81682309E+02 0.81699346E+02 0.00000000E+00 0.0000E+00 0.9000E+01
       -4  1    1    2    0  502 -.82458748E+02 -.41049240E+02 -.45030205E+03 0.45962640E+03 0.00000000E+00 0.0000E+00 0.9000E+01
#aMCatNLO 2  0  0  2  5 0.94243182D+02 0.00000000D+00  -5  6  0 0.00000000D+00 0.00000000D+00 0.00000000D+00 0.00000000D+00 0.00000000D+00
  <mgrwgt>
 0.4132943617D-03    1    2    0
 0.994372008020798D+02 0.000000000000000D+00 0.000000000000000D+00 0.994372008020798D+02
 0.994372008020798D+02 0.000000000000000D+00 0.000000000000000D+00 -.994372008020798D+02
 0.778834466371456D+02 0.303830707482941D+00 -.474143167876941D+00 -.597119262395600D+02
 0.375596772044524D+02 0.295399207390274D+02 0.162106075635577D+02 -.165933310958037D+02
 0.834312777625615D+02 -.298437514465103D+02 -.157364643956808D+02 0.763052573353637D+02
 0.000000000000000D+00 -.000000000000000D+00 -.000000000000000D+00 -.000000000000000D+00
 0.113940360018037D+03 0.000000000000000D+00 0.000000000000000D+00 0.113940360018037D+03
 0.596602096099782D+03 0.000000000000000D+00 0.000000000000000D+00 -.596602096099782D+03
 0.858597658229998D+02 0.326019753799509D+02 0.156043728892508D+02 -.597119262395600D+02
 0.569867938505303D+02 0.481890943720926D+02 0.254944546932352D+02 -.165933310958037D+02
 0.763234951206811D+02 0.166767848806551D+01 -.495871052330319D-01 0.763052573353637D+02
 0.491372401323608D+03 -.824587482401091D+02 -.410492404772530D+02 -.482661736081745D+03
0.115525166828D-04 0.000000000000D+00 0.000000000000D+00 0.111701479963D-06 0.583022485711D-07  6 22 21 9900012 -13 3 -4 2 0.18764248D-01 0.85744147D-01 0.11024273D+05 0.11024273D+05 0.11024273D+05 0.12049655D+01  1  2  1  3  6  2        4 0.413294361664D-03 0.100000000000D+01
  </mgrwgt>
  </event>
</LesHouchesEvents>
