<LesHouchesEvents version="3.0">
  <!--
  <scalesfunctionalform>
    muR  H_T/2 := sum_i mT(i)/2, i=final state
    muF1 H_T/2 := sum_i mT(i)/2, i=final state
    muF2 H_T/2 := sum_i mT(i)/2, i=final state
    QES  H_T/2 := sum_i mT(i)/2, i=final state
  </scalesfunctionalform>
PYTHIA8   
  -->
  <header>
       32
  </header>
  <init>
   2212   2212 0.65000000D+04 0.65000000D+04 -1 -1  82200  82200 -4   1
 0.21631395D-04 0.52870987D-06 0.90883824D-06     66
  </init>
  <event>
  6     66 0.90883824E-06 0.26490414E+02 0.78161638E-02 0.11303576E+00
       -1 -1    0    0    0  501 0.00000000E+00 0.00000000E+00 0.10086128E+02 0.10086128E+02 0.00000000E+00 0.0000E+00 0.9000E+01
       22 -1    0    0    0    0 0.00000000E+00 0.00000000E+00 -.25385276E+03 0.25385276E+03 0.00000000E+00 0.0000E+00 0.9000E+01
       24  2    1    2    0    0 -.24464546E+02 0.10160120E+02 -.13993024E+03 0.15677668E+03 0.65549324E+02 0.0000E+00 0.0000E+00
  9900012  1    3    3    0    0 -.89544411E+01 0.17189684E+02 -.10857080E+03 0.12109205E+03 0.50000000E+02 0.0000E+00 0.9000E+01
      -13  1    3    3    0    0 -.15510105E+02 -.70295637E+01 -.31359443E+02 0.35684629E+02 0.00000000E+00 0.0000E+00 0.9000E+01
       -2  1    1    2    0  501 0.24464546E+02 -.10160120E+02 -.10383639E+03 0.10716220E+03 0.00000000E+00 0.0000E+00 0.9000E+01
#aMCatNLO 1  0  0  1  5 0.29108886D+02 0.00000000D+00  -5  6  0 0.00000000D+00 0.00000000D+00 0.00000000D+00 0.00000000D+00 0.00000000D+00
  <mgrwgt>
 0.1821718646D-04    3    2    0
 0.506003097535568D+02 0.000000000000000D+00 0.000000000000000D+00 0.506003097535568D+02
 0.506003097535568D+02 0.000000000000000D+00 0.000000000000000D+00 -.506003097535568D+02
 0.542977317244118D+02 -.895444112609005D+01 0.171896836986505D+02 0.851918005889833D+01
 0.175312717453882D+02 -.155101045033194D+02 -.702956369070520D+01 0.416741906041114D+01
 0.293716160373135D+02 0.244645456294095D+02 -.101601200079453D+02 -.126865991193095D+02
 0.000000000000000D+00 -.000000000000000D+00 0.000000000000000D+00 -.000000000000000D+00
 0.970622285856612D+02 0.000000000000000D+00 0.000000000000000D+00 0.970622285856612D+02
 0.176360805322098D+03 0.000000000000000D+00 0.000000000000000D+00 -.176360805322098D+03
 0.576378583366089D+02 0.111438742545201D+02 -.250072059885646D+02 0.851918005889833D+01
 0.246084767113696D+02 -.794380718821349D+01 -.229151843061632D+02 0.416741906041114D+01
 0.616944578372272D+02 0.408156871404043D+02 -.444897293076949D+02 -.126865991193095D+02
 0.129482241022553D+03 -.440157542067109D+02 0.924121196024228D+02 -.792985767364363D+02
0.449126377031D-07 0.000000000000D+00 0.000000000000D+00 0.595524702848D-09 0.000000000000D+00  6 -1 22 9900012 -13 -2 21 0 0.15517120D-02 0.39054270D-01 0.23592589D+04 0.23592589D+04 0.23592589D+04 0.12803386D+01  1  2  2  1  6  1       -1 0.189857563181D-04 0.100000000000D+01
-.178991552672D-08 0.000000000000D+00 -.862381772745D-10 0.595524702848D-09 0.000000000000D+00  6 -1 22 9900012 -13 -2 21 2 0.15517120D-02 0.39054270D-01 0.23592589D+04 0.23592589D+04 0.23592589D+04 0.12803386D+01  1  2  3  1  6  1       -1 -.124034226356D-05 0.100000000000D+01
0.680806243360D-09 0.000000000000D+00 0.000000000000D+00 0.595524702848D-09 0.000000000000D+00  6 -1 22 9900012 -13 -2 21 2 0.15517120D-02 0.39054270D-01 0.23592589D+04 0.23592589D+04 0.23592589D+04 0.12803386D+01  1  2 15  1  6  1       -1 0.471772407316D-06 0.100000000000D+01
  </mgrwgt>
  </event>
  <event>
  7     66 0.90883824E-06 0.52151317E+02 0.78161638E-02 0.11556387E+00
       21 -1    0    0  502  501 0.00000000E+00 0.00000000E+00 0.32830408E+03 0.32830408E+03 0.00000000E+00 0.0000E+00 0.9000E+01
       22 -1    0    0    0    0 0.00000000E+00 0.00000000E+00 -.48614405E+03 0.48614405E+03 0.00000000E+00 0.0000E+00 0.9000E+01
       24  2    1    2    0    0 -.57476560E+02 0.69930970E+02 -.22920190E+03 0.25855130E+03 0.78239202E+02 0.0000E+00 0.0000E+00
  9900012  1    3    3    0    0 -.63690485E+02 0.52234397E+02 -.21294084E+03 0.23372786E+03 0.50000000E+02 0.0000E+00 0.9000E+01
      -13  1    3    3    0    0 0.62139252E+01 0.17696573E+02 -.16261053E+02 0.24823445E+02 0.00000000E+00 0.0000E+00 0.9000E+01
        3  1    1    2  502    0 0.60003001E+02 -.69846051E+02 0.30686380E+03 0.32038137E+03 0.00000000E+00 0.0000E+00 0.9000E+01
       -4  1    1    2    0  501 -.25264404E+01 -.84919277E-01 -.23550188E+03 0.23551545E+03 0.00000000E+00 0.0000E+00 0.9000E+01
#aMCatNLO 2  0  0  1  1 0.92748203D+02 0.00000000D+00  -5  6  0 0.00000000D+00 0.00000000D+00 0.00000000D+00 0.00000000D+00 0.00000000D+00
  <mgrwgt>
 0.1740989726D-02    1    2    0
 0.701311718695450D+02 0.000000000000000D+00 0.000000000000000D+00 0.701311718695450D+02
 0.701311718695450D+02 0.000000000000000D+00 0.000000000000000D+00 -.701311718695450D+02
 0.645416600031518D+02 -.319374990638112D+02 0.152725673222412D+02 0.203069130322438D+02
 0.274106672740180D+02 0.170184578545091D+02 0.511963637837243D+01 0.208687828110425D+02
 0.000000000000000D+00 0.000000000000000D+00 -.000000000000000D+00 0.000000000000000D+00
 0.483100164619203D+02 0.149190412093021D+02 -.203922037006137D+02 -.411756958432864D+02
 0.187600320992373D+04 0.000000000000000D+00 0.000000000000000D+00 0.187600320992373D+04
 0.850761192745893D+02 0.000000000000000D+00 0.000000000000000D+00 -.850761192745893D+02
 0.984747730064441D+02 -.636904854219282D+02 0.522343973688864D+02 0.203069130322438D+02
 0.280586468207624D+02 0.621392519955897D+01 0.176965730866769D+02 0.208687828110425D+02
 0.179329269082502D+04 0.600030005936326D+02 -.698460511782275D+02 0.179092709064914D+04
 0.412532185460970D+02 -.252644037126338D+01 -.849192773358887D-01 -.411756958432864D+02
0.140317882372D-03 0.000000000000D+00 0.000000000000D+00 0.844354358434D-07 0.423189885986D-07  6 21 22 9900012 -13 3 -4 2 0.50508320D-01 0.74791392D-01 0.10995883D+05 0.10995883D+05 0.10995883D+05 0.12050802D+01  1  2  1  3  5  1       -3 0.174098972570D-02 0.100000000000D+01
  </mgrwgt>
  </event>
  <event>
  7     66 0.90883824E-06 0.13713290E+02 0.78161638E-02 0.13028322E+00
       21 -1    0    0  502  501 0.00000000E+00 0.00000000E+00 0.13270489E+02 0.13270489E+02 0.00000000E+00 0.0000E+00 0.9000E+01
       22 -1    0    0    0    0 0.00000000E+00 0.00000000E+00 -.25480674E+03 0.25480674E+03 0.00000000E+00 0.0000E+00 0.9000E+01
       24  2    1    2    0    0 -.14334303E+02 0.57936560E+01 -.23665569E+03 0.25138430E+03 0.83361337E+02 0.0000E+00 0.0000E+00
  9900012  1    3    3    0    0 0.22065113E+01 0.25626764E+02 -.18892573E+03 0.19711553E+03 0.50000000E+02 0.0000E+00 0.9000E+01
      -13  1    3    3    0    0 -.16540815E+02 -.19833108E+02 -.47729962E+02 0.54268775E+02 0.00000000E+00 0.0000E+00 0.9000E+01
        1  1    1    2  502    0 0.55402067E+01 -.40524789E+01 -.31938821E+01 0.75708228E+01 0.00000000E+00 0.0000E+00 0.9000E+01
       -2  1    1    2    0  501 0.87940966E+01 -.17411771E+01 -.16866744E+01 0.91220998E+01 0.00000000E+00 0.0000E+00 0.9000E+01
#aMCatNLO 2  0  0  1  1 0.37523183D+02 0.00000000D+00  -5  6  0 0.00000000D+00 0.00000000D+00 0.00000000D+00 0.00000000D+00 0.00000000D+00
  <mgrwgt>
 0.3180190569D-04    1    2    0
 0.524628101061516D+02 0.000000000000000D+00 0.000000000000000D+00 0.524628101061516D+02
 0.524628101061516D+02 0.000000000000000D+00 0.000000000000000D+00 -.524628101061516D+02
 0.593679983432136D+02 0.535751198783616D+01 0.233219106907545D+02 -.212589927868769D+02
 0.262092815339094D+02 -.151570572160751D+02 -.208452810210751D+02 0.476070522346831D+01
 0.000000000000000D+00 0.000000000000000D+00 -.000000000000000D+00 0.000000000000000D+00
 0.193483403351801D+02 0.979954522823893D+01 -.247662966967937D+01 0.164982875634086D+02
 0.629574222260779D+02 0.000000000000000D+00 0.000000000000000D+00 0.629574222260779D+02
 0.537094717343887D+02 0.000000000000000D+00 0.000000000000000D+00 -.537094717343887D+02
 0.601127648762327D+02 0.220651126642560D+01 0.256267640326259D+02 -.212589927868769D+02
 0.262605223857395D+02 -.165408146139034D+02 -.198331080180501D+02 0.476070522346831D+01
 0.115169902382660D+02 0.554020672141627D+01 -.405247891241319D+01 0.924795049168921D+01
 0.187766164602285D+02 0.879409662606155D+01 -.174117710216262D+01 0.164982875634086D+02
0.378216099004D-08 0.000000000000D+00 0.000000000000D+00 0.244024261027D-07 0.163354139710D-09  6 21 22 9900012 -13 1 -2 2 0.20416136D-02 0.39201036D-01 0.23952434D+04 0.23952434D+04 0.23952434D+04 0.12795262D+01  1  2  1  3  5  1       -1 0.318019056918D-04 0.100000000000D+01
  </mgrwgt>
  </event>
  <event>
  7     66 0.90883824E-06 0.28850332E+02 0.78161638E-02 0.12672707E+00
       21 -1    0    0  502  501 0.00000000E+00 0.00000000E+00 0.17324308E+03 0.17324308E+03 0.00000000E+00 0.0000E+00 0.9000E+01
       22 -1    0    0    0    0 0.00000000E+00 0.00000000E+00 -.28138943E+02 0.28138943E+02 0.00000000E+00 0.0000E+00 0.9000E+01
       24  2    1    2    0    0 -.23829335E+02 -.15191048E+02 0.14427080E+03 0.16733082E+03 0.79918293E+02 0.0000E+00 0.0000E+00
  9900012  1    3    3    0    0 -.12488660E+02 0.13984924E+02 0.94092031E+02 0.10818898E+03 0.50000000E+02 0.0000E+00 0.9000E+01
      -13  1    3    3    0    0 -.11340675E+02 -.29175972E+02 0.50178772E+02 0.59141841E+02 0.00000000E+00 0.0000E+00 0.9000E+01
        3  1    1    2  502    0 0.25266750E+02 0.15370394E+02 0.46783771E+01 0.29942359E+02 0.00000000E+00 0.0000E+00 0.9000E+01
       -4  1    1    2    0  501 -.14374145E+01 -.17934632E+00 -.38450381E+01 0.41088495E+01 0.00000000E+00 0.0000E+00 0.9000E+01
#aMCatNLO 2  0  0  1  5 0.52775079D+02 0.00000000D+00  -5  6  0 0.00000000D+00 0.00000000D+00 0.00000000D+00 0.00000000D+00 0.00000000D+00
  <mgrwgt>
 0.3314974520D-04    1    2    0
 0.468975136290130D+02 0.000000000000000D+00 0.000000000000000D+00 0.468975136290130D+02
 0.468975136290130D+02 0.000000000000000D+00 0.000000000000000D+00 -.468975136290130D+02
 0.558061910306913D+02 0.198322834944659D+01 0.227885351832613D+02 0.954360659652422D+01
 0.251386155794899D+02 -.389946148611233D+01 -.246492963649941D+02 0.302595143424187D+01
 0.000000000000000D+00 0.000000000000000D+00 0.000000000000000D+00 -.000000000000000D+00
 0.128502206478448D+02 0.191623313666574D+01 0.186076118173274D+01 -.125695580307661D+02
 0.546324291453045D+02 0.000000000000000D+00 0.000000000000000D+00 0.546324291453045D+02
 0.892304704115837D+02 0.000000000000000D+00 0.000000000000000D+00 -.892304704115837D+02
 0.542459692030737D+02 -.124886603048402D+02 0.139849244439112D+02 0.954360659652422D+01
 0.314484442053426D+02 -.113406750592042D+02 -.291759721355725D+02 0.302595143424187D+01
 0.455157348780740D+02 0.252667498901801D+02 0.153703940097530D+02 -.345980412662792D+02
 0.126527512703979D+02 -.143741452613566D+01 -.179346318091703D+00 -.125695580307661D+02
0.103014590531D-07 0.000000000000D+00 0.000000000000D+00 0.370048885277D-05 0.390811979258D-08  6 21 22 9900012 -13 3 -4 2 0.26652782D-01 0.43290682D-02 0.33481011D+04 0.33481011D+04 0.33481011D+04 0.12619427D+01  1  2  1  3  5  1       -3 0.331497451997D-04 0.100000000000D+01
  </mgrwgt>
  </event>
  <event>
  6     66 0.90883824E-06 0.16907200E+02 0.78161638E-02 0.12331963E+00
       -3 -1    0    0    0  501 0.00000000E+00 0.00000000E+00 0.22349456E+03 0.22349456E+03 0.00000000E+00 0.0000E+00 0.9000E+01
       22 -1    0    0    0    0 0.00000000E+00 0.00000000E+00 -.13224228E+02 0.13224228E+02 0.00000000E+00 0.0000E+00 0.9000E+01
       24  2    1    2    0    0 -.14245124E+02 0.91065838E+01 0.20156731E+03 0.21770311E+03 0.80494789E+02 0.0000E+00 0.0000E+00
  9900012  1    3    3    0    0 -.34304035E+02 0.64126785E+01 0.13509364E+03 0.14821667E+03 0.50000000E+02 0.0000E+00 0.9000E+01
      -13  1    3    3    0    0 0.20058911E+02 0.26939053E+01 0.66473667E+02 0.69486441E+02 0.00000000E+00 0.0000E+00 0.9000E+01
       -4  1    1    2    0  501 0.14245124E+02 -.91065838E+01 0.87030259E+01 0.19015680E+02 0.00000000E+00 0.0000E+00 0.9000E+01
#aMCatNLO 1  0  0  1  5 0.43183418D+02 0.00000000D+00  -5  6  0 0.00000000D+00 0.00000000D+00 0.00000000D+00 0.00000000D+00 0.00000000D+00
  <mgrwgt>
 0.1609099759D-04    6    4    0
 0.543649064938546D+02 0.000000000000000D+00 0.000000000000000D+00 0.543649064938546D+02
 0.543649064938546D+02 0.000000000000000D+00 0.000000000000000D+00 -.543649064938546D+02
 0.614319611158359D+02 -.343040348525594D+02 0.641267850319284D+01 0.748308718288451D+01
 0.227288720426991D+02 0.200589109603553D+02 0.269390532707585D+01 0.103433355116557D+02
 0.245689798291743D+02 0.142451238922041D+02 -.910658383026868D+01 -.178264226945402D+02
 0.000000000000000D+00 0.000000000000000D+00 -.000000000000000D+00 0.000000000000000D+00
 0.898725233775827D+02 0.000000000000000D+00 0.000000000000000D+00 0.898725233775827D+02
 0.674404827293173D+02 0.000000000000000D+00 0.000000000000000D+00 -.674404827293173D+02
 0.744488111487129D+02 -.500829067466310D+02 0.218707873538728D+02 0.748308718288451D+01
 0.198072802431103D+02 0.151194887993023D+02 0.753291574161035D+01 0.103433355116557D+02
 0.203763810516121D+02 0.902593739692856D+01 -.399349631060379D+01 -.178264226945402D+02
 0.426805336634647D+02 0.259374805504002D+02 -.254102067848794D+02 0.224320406482653D+02
 0.543649064938546D+02 0.000000000000000D+00 0.000000000000000D+00 0.543649064938546D+02
 0.543649064938546D+02 0.000000000000000D+00 0.000000000000000D+00 -.543649064938546D+02
 0.614319611158359D+02 -.343040348525594D+02 0.641267850319284D+01 0.748308718288451D+01
 0.227288720426991D+02 0.200589109603553D+02 0.269390532707585D+01 0.103433355116557D+02
 0.000000000000000D+00 0.000000000000000D+00 -.000000000000000D+00 0.000000000000000D+00
 0.245689798291743D+02 0.142451238922041D+02 -.910658383026868D+01 -.178264226945402D+02
 0.898725233775827D+02 0.000000000000000D+00 0.000000000000000D+00 0.898725233775827D+02
 0.674404827293173D+02 0.000000000000000D+00 0.000000000000000D+00 -.674404827293173D+02
 0.744488111487129D+02 -.500829067466310D+02 0.218707873538728D+02 0.748308718288451D+01
 0.198072802431103D+02 0.151194887993023D+02 0.753291574161035D+01 0.103433355116557D+02
 0.426805336634647D+02 0.259374805504002D+02 -.254102067848794D+02 0.224320406482653D+02
 0.203763810516121D+02 0.902593739692856D+01 -.399349631060379D+01 -.178264226945402D+02
0.544558848224D-07 0.000000000000D+00 0.000000000000D+00 0.210803335313D-06 0.000000000000D+00  6 -3 22 9900012 -13 -4 21 0 0.34383779D-01 0.20344966D-02 0.24069177D+04 0.24069177D+04 0.24069177D+04 0.12792656D+01  1  2  2  1  6  1       -3 0.108133556509D-04 0.100000000000D+01
-.177274780473D-08 0.000000000000D+00 -.104562468141D-09 0.210803335313D-06 0.000000000000D+00  6 -3 22 9900012 -13 -4 21 2 0.34383779D-01 0.20344966D-02 0.24069177D+04 0.24069177D+04 0.24069177D+04 0.12792656D+01  1  2  3  1  6  1       -3 -.576081678494D-06 0.100000000000D+01
0.694102519829D-09 0.000000000000D+00 0.000000000000D+00 0.210803335313D-06 0.000000000000D+00  6 -3 22 9900012 -13 -4 21 2 0.34383779D-01 0.20344966D-02 0.24069177D+04 0.24069177D+04 0.24069177D+04 0.12792656D+01  1  2 15  1  6  1       -3 0.225559294787D-06 0.100000000000D+01
-.181038833248D-07 0.000000000000D+00 -.136332985610D-07 0.210803335313D-06 0.000000000000D+00  6 -3 22 9900012 -13 -4 21 2 0.68243591D-01 0.20344966D-02 0.24069177D+04 0.24069177D+04 0.24069177D+04 0.12792656D+01  1  2  5  1  6  1       -3 -.150250198477D-05 0.100000000000D+01
0.242113533425D-07 0.000000000000D+00 0.109566001502D-07 0.210803335313D-06 0.000000000000D+00  6 -3 22 9900012 -13 -4 21 2 0.34383779D-01 0.20344966D-02 0.24069177D+04 0.24069177D+04 0.24069177D+04 0.12792656D+01  1  2  6  1  6  1       -3 0.786785183711D-05 0.100000000000D+01
-.530446188402D-09 0.000000000000D+00 -.101158792631D-08 0.210803335313D-06 0.000000000000D+00  6 21 22 9900012 -13 3 -4 2 0.68243591D-01 0.20344966D-02 0.24069177D+04 0.24069177D+04 0.24069177D+04 0.12792656D+01  3  4  5  3  5  1       -3 -.737185526286D-06 0.100000000000D+01
  </mgrwgt>
  </event>
  <event>
  7     66 0.90883824E-06 0.18316570E+02 0.78161638E-02 0.13301729E+00
       21 -1    0    0  502  501 0.00000000E+00 0.00000000E+00 0.19960880E+02 0.19960880E+02 0.00000000E+00 0.0000E+00 0.9000E+01
       22 -1    0    0    0    0 0.00000000E+00 0.00000000E+00 -.17080352E+03 0.17080352E+03 0.00000000E+00 0.0000E+00 0.9000E+01
       24  2    1    2    0    0 -.66717326E+01 0.17098177E+02 -.84923037E+02 0.11804190E+03 0.79906871E+02 0.0000E+00 0.0000E+00
  9900012  1    3    3    0    0 0.49695425E+01 0.40414943E+01 -.86875075E+02 0.10044057E+03 0.50000000E+02 0.0000E+00 0.9000E+01
      -13  1    3    3    0    0 -.11641275E+02 0.13056683E+02 0.19520373E+01 0.17601327E+02 0.00000000E+00 0.0000E+00 0.9000E+01
        1  1    1    2  502    0 0.69222186E+01 -.17093396E+02 -.21598304E+02 0.28400494E+02 0.00000000E+00 0.0000E+00 0.9000E+01
       -2  1    1    2    0  501 -.25048601E+00 -.47812622E-02 -.44321297E+02 0.44322005E+02 0.00000000E+00 0.0000E+00 0.9000E+01
#aMCatNLO 2  0  0  1  5 0.15645026D+02 0.00000000D+00  -5  6  0 0.00000000D+00 0.00000000D+00 0.00000000D+00 0.00000000D+00 0.00000000D+00
  <mgrwgt>
 0.8256586950D-02    1    2    0
 0.482644751066226D+02 0.000000000000000D+00 0.000000000000000D+00 0.482644751066226D+02
 0.482644751066226D+02 0.000000000000000D+00 0.000000000000000D+00 -.482644751066226D+02
 0.522654574593672D+02 0.866352395684841D+01 -.508024695102500D+01 -.114373286654987D+02
 0.290725569886492D+02 -.948364476128996D+01 0.772873353727825D+01 0.263731061843247D+02
 0.000000000000000D+00 0.000000000000000D+00 -.000000000000000D+00 0.000000000000000D+00
 0.151909357652288D+02 0.820120804441548D+00 -.264848658625325D+01 -.149357775188259D+02
 0.592293858490650D+02 0.000000000000000D+00 0.000000000000000D+00 0.592293858490650D+02
 0.575624490488148D+02 0.000000000000000D+00 0.000000000000000D+00 -.575624490488148D+02
 0.516898686041578D+02 0.496954253689859D+01 0.404149431354412D+01 -.114373286654987D+02
 0.316470691676569D+02 -.116412751525470D+02 0.130566829599055D+02 0.263731061843247D+02
 0.185170185553656D+02 0.692221862450301D+01 -.170933960112761D+02 0.166693680025028D+01
 0.149378785706996D+02 -.250486008854644D+00 -.478126217356989D-02 -.149357775188259D+02
0.987976061412D-06 0.000000000000D+00 0.000000000000D+00 0.108445398870D-04 0.107786752191D-05  6 21 22 9900012 -13 1 -2 2 0.30709046D-02 0.26277464D-01 0.18746192D+04 0.18746192D+04 0.18746192D+04 0.12928823D+01  1  2  1  3  5  1       -1 0.825658694955D-02 0.100000000000D+01
  </mgrwgt>
  </event>
  <event>
  6     66 0.90883824E-06 0.25591367E+02 0.78161638E-02 0.12792065E+00
       -3 -1    0    0    0  501 0.00000000E+00 0.00000000E+00 0.88571047E+01 0.88571047E+01 0.00000000E+00 0.0000E+00 0.9000E+01
       22 -1    0    0    0    0 -.00000000E+00 -.00000000E+00 -.11803076E+04 0.11803076E+04 0.00000000E+00 0.0000E+00 0.9000E+01
       24  2    1    2    0    0 0.36559319E+01 0.32500278E+02 -.20529470E+03 0.22245552E+03 0.79189071E+02 0.0000E+00 0.0000E+00
  9900012  1    3    3    0    0 -.12656582E+02 0.32685048E+02 -.19179566E+03 0.20128109E+03 0.50000000E+02 0.0000E+00 0.9000E+01
      -13  1    3    3    0    0 0.16312514E+02 -.18477001E+00 -.13499036E+02 0.21174424E+02 0.00000000E+00 0.0000E+00 0.9000E+01
       -4  1    1    2    0  501 -.36559319E+01 -.32500278E+02 -.96615576E+03 0.96670915E+03 0.00000000E+00 0.0000E+00 0.9000E+01
#aMCatNLO 1  0  0  5  1 0.10767926D+02 0.00000000D+00  -5  6  0 0.00000000D+00 0.00000000D+00 0.00000000D+00 0.00000000D+00 0.00000000D+00
  <mgrwgt>
 0.1840405577D-04    7    2    0
 0.102245330858732D+03 0.000000000000000D+00 0.000000000000000D+00 0.102245330858732D+03
 0.102245330858732D+03 -.000000000000000D+00 -.000000000000000D+00 -.102245330858732D+03
 0.717746460889171D+02 -.126565821458413D+02 0.326850477224276D+02 0.377239765263088D+02
 0.458036808102540D+02 0.163125140495527D+02 -.184770013811798D+00 0.428000574905311D+02
 0.869123348182921D+02 -.365593190371140D+01 -.325002777086158D+02 -.805240340168399D+02
 0.000000000000000D+00 0.000000000000000D+00 0.000000000000000D+00 -.000000000000000D+00
 0.102245330858732D+03 0.000000000000000D+00 0.000000000000000D+00 0.102245330858732D+03
 0.102245330858732D+03 -.000000000000000D+00 -.000000000000000D+00 -.102245330858732D+03
 0.711539349345849D+02 -.126970046811442D+02 0.323257019639089D+02 0.368336465930633D+02
 0.452662799510915D+02 0.162867579783908D+02 -.413734744964324D+00 0.422327649902860D+02
 0.376839025978857D+02 -.272792221013063D+01 -.234010076318645D+02 -.294113549030953D+02
 0.503865442339010D+02 -.861831087115909D+00 -.851095958708000D+01 -.496550566802540D+02
0.544952500585D-06 0.000000000000D+00 0.000000000000D+00 0.541119279711D-06 0.000000000000D+00  6 -3 22 9900012 -13 -4 21 0 0.13626315D-02 0.18158578D+00 0.30294167D+04 0.30294167D+04 0.30294167D+04 0.12671152D+01  1  2  2  2  6  5       -4 0.147063200173D-04 0.100000000000D+01
-.287178693570D-07 0.000000000000D+00 -.104638054577D-08 0.541119279711D-06 0.000000000000D+00  6 -3 22 9900012 -13 -4 21 2 0.13626315D-02 0.18158578D+00 0.30294167D+04 0.30294167D+04 0.30294167D+04 0.12671152D+01  1  2  3  2  6  5       -4 -.124431330778D-05 0.100000000000D+01
0.164762189319D-07 0.000000000000D+00 0.000000000000D+00 0.541119279711D-06 0.000000000000D+00  6 -3 22 9900012 -13 -4 21 2 0.13626315D-02 0.18158578D+00 0.30294167D+04 0.30294167D+04 0.30294167D+04 0.12671152D+01  1  2 15  2  6  5       -4 0.713896223426D-06 0.100000000000D+01
0.896039949845D-06 0.000000000000D+00 0.000000000000D+00 0.541119279711D-06 0.000000000000D+00  6 -3 22 9900012 -13 -4 21 2 0.13626315D-02 0.18158578D+00 0.29857617D+04 0.29857617D+04 0.29857617D+04 0.12678715D+01  1  2 12  2  6  5       -4 0.387984040393D-04 0.100000000000D+01
-.140248328997D-05 0.000000000000D+00 0.000000000000D+00 0.541119279711D-06 0.000000000000D+00  6 -3 22 9900012 -13 -4 21 2 0.13626315D-02 0.18158578D+00 0.30294167D+04 0.30294167D+04 0.30294167D+04 0.12671152D+01  1  2  4  2  6  5       -4 -.607680395766D-04 0.100000000000D+01
-.864015927469D-06 0.000000000000D+00 0.000000000000D+00 0.541119279711D-06 0.000000000000D+00  6 -3 22 9900012 -13 -4 21 2 0.13626315D-02 0.18158578D+00 0.30294167D+04 0.30294167D+04 0.30294167D+04 0.12671152D+01  1  2  5  2  6  5       -4 -.374368482326D-04 0.100000000000D+01
0.146864231812D-05 0.000000000000D+00 -.000000000000D+00 0.541119279711D-06 0.000000000000D+00  6 -3 22 9900012 -13 -4 21 2 0.13626315D-02 0.18158578D+00 0.30294167D+04 0.30294167D+04 0.30294167D+04 0.12671152D+01  1  2  6  2  6  5       -4 0.636346366119D-04 0.100000000000D+01
  </mgrwgt>
  </event>
  <event>
  7     66 0.90883824E-06 0.21276094E+02 0.78161638E-02 0.13085679E+00
       -3 -1    0    0    0  501 0.00000000E+00 0.00000000E+00 0.16027018E+02 0.16027018E+02 0.00000000E+00 0.0000E+00 0.9000E+01
       22 -1    0    0    0    0 -.00000000E+00 -.00000000E+00 -.22158978E+03 0.22158978E+03 0.00000000E+00 0.0000E+00 0.9000E+01
       24  2    1    2    0    0 -.16867317E+02 0.17607948E+02 -.16789651E+03 0.18726195E+03 0.79266984E+02 0.0000E+00 0.0000E+00
  9900012  1    3    3    0    0 -.19522388E+02 0.83237984E+00 -.15954712E+03 0.16833627E+03 0.50000000E+02 0.0000E+00 0.9000E+01
      -13  1    3    3    0    0 0.26550701E+01 0.16775568E+02 -.83493872E+01 0.18925680E+02 0.00000000E+00 0.0000E+00 0.9000E+01
       -4  1    1    2    0  502 0.59212967E+00 -.21970193E+01 -.23990846E+02 0.24098510E+02 0.00000000E+00 0.0000E+00 0.9000E+01
       21  1    1    2  502  501 0.16275188E+02 -.15410929E+02 -.13675409E+02 0.26256338E+02 0.00000000E+00 0.0000E+00 0.9000E+01
#aMCatNLO 2  0  0  5  1 0.89328082D+01 0.00000000D+00  -5  6  0 0.00000000D+00 0.00000000D+00 0.00000000D+00 0.00000000D+00 0.00000000D+00
  <mgrwgt>
 0.2812772062D-03    2    2    0
 0.595938207843465D+02 0.000000000000000D+00 0.000000000000000D+00 0.595938207843465D+02
 0.595938207843465D+02 -.000000000000000D+00 -.000000000000000D+00 -.595938207843465D+02
 0.623918082099532D+02 -.223033070888705D+02 0.373540740177505D+01 -.296874882088378D+02
 0.235606797783452D+02 0.159336410009071D+01 0.178838932268290D+02 0.152555952199069D+02
 0.332351535803947D+02 0.207099429887798D+02 -.216193006286040D+02 0.144318929889309D+02
 0.000000000000000D+00 0.000000000000000D+00 0.000000000000000D+00 0.000000000000000D+00
 0.595938207843465D+02 0.000000000000000D+00 0.000000000000000D+00 0.595938207843465D+02
 0.595938207843465D+02 -.000000000000000D+00 -.000000000000000D+00 -.595938207843465D+02
 0.604305862765305D+02 -.195223875631850D+02 0.832379842388652D+00 -.277495817149732D+02
 0.233307444455855D+02 0.265507013307218D+01 0.167755684999737D+02 0.159954537439980D+02
 0.666668376652879D+01 0.592129666909208D+00 -.219701932721849D+01 -.626635148840956D+01
 0.287596270800482D+02 0.162751877632036D+02 -.154109290151438D+02 0.180204794593847D+02
-.231835486176D-07 0.000000000000D+00 0.000000000000D+00 0.243042779841D-06 0.000000000000D+00  6 -3 22 9900012 -13 -4 21 2 0.24656951D-02 0.34090736D-01 0.22731987D+04 0.22731987D+04 0.22731987D+04 0.12823396D+01  1  2 13  2  6  5       -4 -.949268434096D-05 0.100000000000D+01
0.710133999226D-06 0.000000000000D+00 0.000000000000D+00 0.243042779841D-06 0.942789688281D-07  6 -3 22 9900012 -13 -4 21 2 0.24656951D-02 0.34090736D-01 0.22731987D+04 0.22731987D+04 0.22731987D+04 0.12823396D+01  1  2  1  2  6  5       -4 0.290769890564D-03 0.100000000000D+01
  </mgrwgt>
  </event>
  <event>
  7     66 0.90883824E-06 0.48248233E+02 0.78161638E-02 0.12106088E+00
       -1 -1    0    0    0  501 0.00000000E+00 0.00000000E+00 0.26651004E+03 0.26651004E+03 0.00000000E+00 0.0000E+00 0.9000E+01
       22 -1    0    0    0    0 0.00000000E+00 0.00000000E+00 -.28507244E+02 0.28507244E+02 0.00000000E+00 0.0000E+00 0.9000E+01
       24  2    1    2    0    0 0.18159392E+02 0.49552226E+02 0.17473065E+03 0.19886740E+03 0.78944636E+02 0.0000E+00 0.0000E+00
  9900012  1    3    3    0    0 -.11003747E+01 0.50960603E+02 0.15773241E+03 0.17314071E+03 0.50000000E+02 0.0000E+00 0.9000E+01
      -13  1    3    3    0    0 0.19259766E+02 -.14083769E+01 0.16998241E+02 0.25726685E+02 0.00000000E+00 0.0000E+00 0.9000E+01
       -2  1    1    2    0  502 -.97376398E+01 0.31435057E+01 -.33713391E+01 0.10773541E+02 0.00000000E+00 0.0000E+00 0.9000E+01
       21  1    1    2  502  501 -.84217519E+01 -.52695731E+02 0.66643483E+02 0.85376342E+02 0.00000000E+00 0.0000E+00 0.9000E+01
#aMCatNLO 2  0  0  5  1 0.22693072D+02 0.00000000D+00  -5  6  0 0.00000000D+00 0.00000000D+00 0.00000000D+00 0.00000000D+00 0.00000000D+00
  <mgrwgt>
 0.3836974221D-05    2    2    0
 0.871634478173506D+02 0.000000000000000D+00 0.000000000000000D+00 0.871634478173506D+02
 0.871634478173506D+02 -.000000000000000D+00 -.000000000000000D+00 -.871634478173506D+02
 0.843419566571258D+02 0.170299459419818D+01 0.586102633119770D+02 0.342856018857090D+02
 0.206966891683109D+02 0.199697133037709D+02 0.528882508401950D+00 -.541144864035287D+01
 0.692882498092646D+02 -.216727078979691D+02 -.591391458203790D+02 -.288741532453562D+02
 0.000000000000000D+00 0.000000000000000D+00 0.000000000000000D+00 0.000000000000000D+00
 0.871634478173506D+02 0.000000000000000D+00 0.000000000000000D+00 0.871634478173506D+02
 0.871634478173506D+02 -.000000000000000D+00 -.000000000000000D+00 -.871634478173506D+02
 0.776629936795483D+02 -.110037465457871D+01 0.509606025694300D+02 0.305507241919028D+02
 0.203307000181472D+02 0.192597663486693D+02 -.140837686408402D+01 -.635729801340700D+01
 0.228350813467647D+02 -.973763979171394D+01 0.314350565305987D+01 -.204141540018040D+02
 0.534981205902411D+02 -.842175190237662D+01 -.526957313584059D+02 -.377927217669177D+01
-.112829377951D-07 0.000000000000D+00 0.000000000000D+00 0.349287710002D-07 0.000000000000D+00  6 -1 22 9900012 -13 -2 21 2 0.41001544D-01 0.43857299D-02 0.59528750D+04 0.59528750D+04 0.59528750D+04 0.12334082D+01  1  2 13  2  6  5       -2 -.153535716787D-05 0.100000000000D+01
0.394798566364D-07 0.000000000000D+00 0.000000000000D+00 0.349287710002D-07 0.304645349033D-09  6 -1 22 9900012 -13 -2 21 2 0.41001544D-01 0.43857299D-02 0.59528750D+04 0.59528750D+04 0.59528750D+04 0.12334082D+01  1  2  1  2  6  5       -2 0.537233138869D-05 0.100000000000D+01
  </mgrwgt>
  </event>
  <event>
  6     66 0.90883824E-06 0.24823041E+02 0.78161638E-02 0.12305817E+00
       -3 -1    0    0    0  501 0.00000000E+00 0.00000000E+00 0.19993592E+03 0.19993592E+03 0.00000000E+00 0.0000E+00 0.9000E+01
       22 -1    0    0    0    0 0.00000000E+00 0.00000000E+00 -.19199944E+02 0.19199944E+02 0.00000000E+00 0.0000E+00 0.9000E+01
       24  2    1    2    0    0 -.42921412E+01 0.24449149E+02 0.17408417E+03 0.19343704E+03 0.80600286E+02 0.0000E+00 0.0000E+00
  9900012  1    3    3    0    0 0.84289548E+00 0.39345894E+02 0.16042713E+03 0.17258527E+03 0.50000000E+02 0.0000E+00 0.9000E+01
      -13  1    3    3    0    0 -.51350367E+01 -.14896746E+02 0.13657037E+02 0.20851769E+02 0.00000000E+00 0.0000E+00 0.9000E+01
       -4  1    1    2    0  501 0.42921412E+01 -.24449149E+02 0.66518122E+01 0.25698832E+02 0.00000000E+00 0.0000E+00 0.9000E+01
#aMCatNLO 1  0  0  1  1 0.37378885D+02 0.00000000D+00  -5  6  0 0.00000000D+00 0.00000000D+00 0.00000000D+00 0.00000000D+00 0.00000000D+00
  <mgrwgt>
 0.4778917979D-05    7    4    0
 0.619577154285671D+02 0.000000000000000D+00 0.000000000000000D+00 0.619577154285671D+02
 0.619577154285671D+02 0.000000000000000D+00 0.000000000000000D+00 -.619577154285671D+02
 0.712152418756981D+02 0.842895484890689D+00 0.393458942875265D+02 0.319812570942814D+02
 0.169555367824521D+02 -.513503671684061D+01 -.148967456148903D+02 -.626167673894384D+01
 0.357446521989840D+02 0.429214123194992D+01 -.244491486726362D+02 -.257195803553375D+02
 0.000000000000000D+00 0.000000000000000D+00 -.000000000000000D+00 0.000000000000000D+00
 0.905966111522889D+02 0.000000000000000D+00 0.000000000000000D+00 0.905966111522889D+02
 0.730792702236465D+02 0.000000000000000D+00 0.000000000000000D+00 -.730792702236465D+02
 0.768617532534551D+02 -.163131971556115D+02 0.460305106035839D+02 0.319812570942814D+02
 0.173305629949001D+02 -.910739922695713D+01 -.133489736481121D+02 -.626167673894384D+01
 0.336150630789433D+02 -.374382478552029D+01 -.213180540416333D+02 -.257195803553375D+02
 0.358685020486368D+02 0.291644211680889D+02 -.113634829138385D+02 0.175173409286424D+02
 0.619577154285671D+02 0.000000000000000D+00 0.000000000000000D+00 0.619577154285671D+02
 0.619577154285671D+02 0.000000000000000D+00 0.000000000000000D+00 -.619577154285671D+02
 0.712152418756981D+02 0.842895484890689D+00 0.393458942875265D+02 0.319812570942814D+02
 0.169555367824521D+02 -.513503671684061D+01 -.148967456148903D+02 -.626167673894384D+01
 0.000000000000000D+00 0.000000000000000D+00 -.000000000000000D+00 0.000000000000000D+00
 0.357446521989840D+02 0.429214123194992D+01 -.244491486726362D+02 -.257195803553375D+02
 0.905966111522889D+02 0.000000000000000D+00 0.000000000000000D+00 0.905966111522889D+02
 0.730792702236465D+02 0.000000000000000D+00 0.000000000000000D+00 -.730792702236465D+02
 0.768617532534551D+02 -.163131971556115D+02 0.460305106035839D+02 0.319812570942814D+02
 0.173305629949001D+02 -.910739922695713D+01 -.133489736481121D+02 -.626167673894384D+01
 0.358685020486368D+02 0.291644211680889D+02 -.113634829138385D+02 0.175173409286424D+02
 0.336150630789433D+02 -.374382478552029D+01 -.213180540416333D+02 -.257195803553375D+02
0.361959017437D-07 0.000000000000D+00 0.000000000000D+00 0.427028416075D-07 0.000000000000D+00  6 -3 22 9900012 -13 -4 21 0 0.30759373D-01 0.29538375D-02 0.27149443D+04 0.27149443D+04 0.27149443D+04 0.12728616D+01  1  2  2  1  6  1       -3 0.545398404220D-05 0.100000000000D+01
-.183855202047D-08 0.000000000000D+00 -.695008966478D-10 0.427028416075D-07 0.000000000000D+00  6 -3 22 9900012 -13 -4 21 2 0.30759373D-01 0.29538375D-02 0.27149443D+04 0.27149443D+04 0.27149443D+04 0.12728616D+01  1  2  3  1  6  1       -3 -.448841247000D-06 0.100000000000D+01
0.188737140471D-09 0.000000000000D+00 0.000000000000D+00 0.427028416075D-07 0.000000000000D+00  6 -3 22 9900012 -13 -4 21 2 0.30759373D-01 0.29538375D-02 0.27149443D+04 0.27149443D+04 0.27149443D+04 0.12728616D+01  1  2 15  1  6  1       -3 0.460759404907D-07 0.100000000000D+01
-.125581875390D-07 0.000000000000D+00 0.000000000000D+00 0.427028416075D-07 0.000000000000D+00  6 -3 22 9900012 -13 -4 21 2 0.30759373D-01 0.29538375D-02 0.27149443D+04 0.27149443D+04 0.27149443D+04 0.12728616D+01  1  2  4  1  6  1       -3 -.306579987529D-05 0.100000000000D+01
-.180230243057D-07 0.000000000000D+00 -.101365711110D-07 0.427028416075D-07 0.000000000000D+00  6 -3 22 9900012 -13 -4 21 2 0.51973237D-01 0.29538375D-02 0.27149443D+04 0.27149443D+04 0.27149443D+04 0.12728616D+01  1  2  5  1  6  1       -3 -.161041633266D-05 0.100000000000D+01
0.215565835017D-07 0.000000000000D+00 0.888587314495D-08 0.427028416075D-07 0.000000000000D+00  6 -3 22 9900012 -13 -4 21 2 0.30759373D-01 0.29538375D-02 0.27149443D+04 0.27149443D+04 0.27149443D+04 0.12728616D+01  1  2  6  1  6  1       -3 0.526255646413D-05 0.100000000000D+01
-.574114150928D-09 0.000000000000D+00 -.593911237663D-09 0.427028416075D-07 0.000000000000D+00  6 21 22 9900012 -13 3 -4 2 0.51973237D-01 0.29538375D-02 0.27149443D+04 0.27149443D+04 0.27149443D+04 0.12728616D+01  3  4  5  3  5  1       -3 -.858641012437D-06 0.100000000000D+01
  </mgrwgt>
  </event>
  <event>
  6     66 0.90883824E-06 0.36686242E+02 0.78161638E-02 0.12390517E+00
       -3 -1    0    0    0  501 0.00000000E+00 0.00000000E+00 0.10102546E+02 0.10102546E+02 0.00000000E+00 0.0000E+00 0.9000E+01
       22 -1    0    0    0    0 -.00000000E+00 -.00000000E+00 -.52313397E+03 0.52313397E+03 0.00000000E+00 0.0000E+00 0.9000E+01
       24  2    1    2    0    0 -.74724058E+01 -.42728970E+02 -.23581633E+03 0.25264819E+03 0.79625142E+02 0.0000E+00 0.0000E+00
  9900012  1    3    3    0    0 0.95492076E+01 -.50553250E+02 -.19346918E+03 0.20634229E+03 0.50000000E+02 0.0000E+00 0.9000E+01
      -13  1    3    3    0    0 -.17021613E+02 0.78242802E+01 -.42347152E+02 0.46305896E+02 0.00000000E+00 0.0000E+00 0.9000E+01
       -4  1    1    2    0  501 0.74724058E+01 0.42728970E+02 -.27721510E+03 0.28058833E+03 0.00000000E+00 0.0000E+00 0.9000E+01
#aMCatNLO 1  0  0  5  1 0.18164362D+01 0.00000000D+00  -5  6  0 0.00000000D+00 0.00000000D+00 0.00000000D+00 0.00000000D+00 0.00000000D+00
  <mgrwgt>
 0.4515005187D-01    6    2    0
 0.726979016416375D+02 0.000000000000000D+00 0.000000000000000D+00 0.726979016416375D+02
 0.726979016416375D+02 -.000000000000000D+00 -.000000000000000D+00 -.726979016416375D+02
 0.740975768792355D+02 0.954920762160396D+01 -.505532500552356D+02 0.185373256438610D+02
 0.204034412825000D+02 -.170216134679307D+02 0.782428022041797D+01 0.808367058638350D+01
 0.508947851215394D+02 0.747240584632672D+01 0.427289698348176D+02 -.266209962302445D+02
 0.000000000000000D+00 0.000000000000000D+00 0.000000000000000D+00 0.000000000000000D+00
 0.726979016416375D+02 0.000000000000000D+00 0.000000000000000D+00 0.726979016416375D+02
 0.726979016416375D+02 -.000000000000000D+00 -.000000000000000D+00 -.726979016416375D+02
 0.737765223807076D+02 0.961821974337081D+01 -.501586225510748D+02 0.182914648767696D+02
 0.204028462591099D+02 -.170025693723198D+02 0.793317882732212D+01 0.801582459301925D+01
 0.187536432646309D+01 -.843431845884490D-02 0.237130809887631D-03 -.187534534499942D+01
 0.493410703169944D+02 0.739278394740786D+01 0.422252065929428D+02 -.244319441247894D+02
0.172292988647D-07 0.000000000000D+00 0.000000000000D+00 0.948773932008D-07 0.000000000000D+00  6 -3 22 9900012 -13 -4 21 0 0.15542378D-02 0.80482149D-01 0.44791262D+04 0.44791262D+04 0.44791262D+04 0.12472626D+01  1  2  2  2  6  5       -4 0.215683250907D-05 0.100000000000D+01
-.929922779779D-09 0.000000000000D+00 -.330825221094D-10 0.948773932008D-07 0.000000000000D+00  6 -3 22 9900012 -13 -4 21 2 0.15542378D-02 0.80482149D-01 0.44791262D+04 0.44791262D+04 0.44791262D+04 0.12472626D+01  1  2  3  2  6  5       -4 -.181097104006D-06 0.100000000000D+01
0.566049976866D-09 0.000000000000D+00 0.000000000000D+00 0.948773932008D-07 0.000000000000D+00  6 -3 22 9900012 -13 -4 21 2 0.15542378D-02 0.80482149D-01 0.44791262D+04 0.44791262D+04 0.44791262D+04 0.12472626D+01  1  2 15  2  6  5       -4 0.110234971937D-06 0.100000000000D+01
0.277102758700D-11 0.000000000000D+00 0.000000000000D+00 0.948773932008D-07 0.000000000000D+00  6 -3 22 9900012 -13 -4 21 2 0.15542378D-02 0.80482149D-01 0.44296509D+04 0.44296509D+04 0.44296509D+04 0.12478134D+01  1  2 12  2  6  5       -4 0.539342358635D-09 0.100000000000D+01
-.342933936049D-08 0.000000000000D+00 0.000000000000D+00 0.948773932008D-07 0.000000000000D+00  6 -3 22 9900012 -13 -4 21 2 0.15542378D-02 0.80482149D-01 0.44791262D+04 0.44791262D+04 0.44791262D+04 0.12472626D+01  1  2  5  2  6  5       -4 -.667844083769D-06 0.100000000000D+01
0.231964180282D-03 0.000000000000D+00 0.000000000000D+00 0.948773932008D-07 0.244048189322D-03  6 -3 22 9900012 -13 -4 21 2 0.15542378D-02 0.80482149D-01 0.44296509D+04 0.44296509D+04 0.44296509D+04 0.12478134D+01  1  2 11  2  6  5       -4 0.451486331997D-01 0.100000000000D+01
  </mgrwgt>
  </event>
  <event>
  7     66 -.90883824E-06 0.11053714E+02 0.78161638E-02 0.13244041E+00
       -1 -1    0    0    0  501 0.00000000E+00 0.00000000E+00 0.28116264E+03 0.28116264E+03 0.00000000E+00 0.0000E+00 0.9000E+01
       22 -1    0    0    0    0 0.00000000E+00 0.00000000E+00 -.11362351E+02 0.11362351E+02 0.00000000E+00 0.0000E+00 0.9000E+01
       24  2    1    2    0    0 -.10757016E+01 0.12207742E+02 0.23934354E+03 0.25579887E+03 0.89428997E+02 0.0000E+00 0.0000E+00
  9900012  1    3    3    0    0 0.41651300E+01 -.65110936E+01 0.75984667E+02 0.91287525E+02 0.50000000E+02 0.0000E+00 0.9000E+01
      -13  1    3    3    0    0 -.52408316E+01 0.18718836E+02 0.16335887E+03 0.16451134E+03 0.00000000E+00 0.0000E+00 0.9000E+01
       -2  1    1    2    0  502 -.51188829E+01 -.13238385E+02 0.19907923E+02 0.24449605E+02 0.00000000E+00 0.0000E+00 0.9000E+01
       21  1    1    2  502  501 0.61945846E+01 0.10306426E+01 0.10548826E+02 0.12276515E+02 0.00000000E+00 0.0000E+00 0.9000E+01
#aMCatNLO 2  0  0  5  1 0.75072948D+01 0.00000000D+00  -5  6  0 0.00000000D+00 0.00000000D+00 0.00000000D+00 0.00000000D+00 0.00000000D+00
  <mgrwgt>
 -.1736924363D-04    1    2    0
 0.565213986187971D+02 0.000000000000000D+00 0.000000000000000D+00 0.565213986187971D+02
 0.565213986187971D+02 -.000000000000000D+00 -.000000000000000D+00 -.565213986187971D+02
 0.538041963530636D+02 0.390936176050152D+01 -.360847393165546D+01 -.191464709988321D+02
 0.380911744852647D+02 -.541478082762736D+01 0.206929209945501D+02 0.315185777434349D+02
 0.211474263992658D+02 0.150541906712583D+01 -.170844470628947D+02 -.123721067446028D+02
 0.000000000000000D+00 0.000000000000000D+00 0.000000000000000D+00 0.000000000000000D+00
 0.565213986187971D+02 0.000000000000000D+00 0.000000000000000D+00 0.565213986187971D+02
 0.565213986187971D+02 -.000000000000000D+00 -.000000000000000D+00 -.565213986187971D+02
 0.548747683101904D+02 0.416512999876421D+01 -.651109355591151D+01 -.212484717073168D+02
 0.358219048789709D+02 -.524083163559983D+01 0.187188356201027D+02 0.300889970911778D+02
 0.157547153752413D+02 -.511888294616045D+01 -.132383846538652D+02 -.683763597266466D+01
 0.659140867319159D+01 0.619458458299608D+01 0.103064258967401D+01 -.200288941119639D+01
-.413857282699D-07 0.000000000000D+00 0.000000000000D+00 0.716204663841D-08 0.000000000000D+00  6 -1 22 9900012 -13 -2 21 2 0.43255790D-01 0.17480540D-02 0.20478281D+04 0.20478281D+04 0.20478281D+04 0.12880150D+01  1  2 13  2  6  5       -2 -.173692436346D-04 0.100000000000D+01
  </mgrwgt>
  </event>
  <event>
  6     66 0.90883824E-06 0.42827706E+02 0.78161638E-02 0.12268533E+00
       -1 -1    0    0    0  501 0.00000000E+00 0.00000000E+00 0.32908367E+03 0.32908367E+03 0.00000000E+00 0.0000E+00 0.9000E+01
       22 -1    0    0    0    0 0.00000000E+00 0.00000000E+00 -.34146703E+02 0.34146703E+02 0.00000000E+00 0.0000E+00 0.9000E+01
  9900012  1    1    2    0    0 0.51394388E+02 -.26988038E+02 0.10082414E+03 0.12663034E+03 0.50000000E+02 0.0000E+00 0.9000E+01
      -13  1    1    2    0    0 -.21400672E+02 -.37515735E+01 0.17987530E+03 0.18118274E+03 0.00000000E+00 0.0000E+00 0.9000E+01
       -2  1    1    2    0  502 -.21094257E+00 -.28098111E+00 -.73093694E+01 0.73178089E+01 0.00000000E+00 0.0000E+00 0.9000E+01
       21  1    1    2  502  501 -.29782774E+02 0.31020593E+02 0.21546900E+02 0.48099477E+02 0.00000000E+00 0.0000E+00 0.9000E+01
#aMCatNLO 2  0  0  5  1 0.14693302D+02 0.00000000D+00  -5  6  0 0.00000000D+00 0.00000000D+00 0.00000000D+00 0.00000000D+00 0.00000000D+00
  <mgrwgt>
 0.4600862360D-02    2    2    0
 0.106005293382352D+03 0.000000000000000D+00 0.000000000000000D+00 0.106005293382352D+03
 0.106005293382352D+03 -.000000000000000D+00 -.000000000000000D+00 -.106005293382352D+03
 0.778420512390956D+02 0.525643111332817D+02 -.281870558025114D+02 -.136675578639898D+01
 0.614450135016988D+02 -.204798684789227D+02 -.469527548398340D+01 0.577409651758566D+02
 0.727235220239095D+02 -.320844426543589D+02 0.328823312864948D+02 -.563742093894576D+02
 0.000000000000000D+00 0.000000000000000D+00 0.000000000000000D+00 0.000000000000000D+00
 0.106005293382352D+03 0.000000000000000D+00 0.000000000000000D+00 0.106005293382352D+03
 0.106005293382352D+03 -.000000000000000D+00 -.000000000000000D+00 -.106005293382352D+03
 0.766906121713537D+02 0.513943878717763D+02 -.269880384258025D+02 -.342237818334095D+01
 0.601818996767494D+02 -.214006715752534D+02 -.375157349142096D+01 0.561230612241433D+02
 0.227057230608272D+02 -.210942570216379D+00 -.280981105024841D+00 -.227030044832324D+02
 0.524323518557735D+02 -.297827737263066D+02 0.310205930222483D+02 -.299976785575700D+02
-.216878035797D-07 0.000000000000D+00 0.000000000000D+00 0.352346544528D-09 0.000000000000D+00  6 -1 22 9900012 -13 -2 21 2 0.50628257D-01 0.52533389D-02 0.50194359D+04 0.50194359D+04 0.50194359D+04 0.12416559D+01  1  2 13  2  6  5       -2 -.161224097321D-05 0.100000000000D+01
0.619123113601D-04 0.000000000000D+00 0.000000000000D+00 0.352346544528D-09 0.615964566559D-08  6 -1 22 9900012 -13 -2 21 2 0.50628257D-01 0.52533389D-02 0.50194359D+04 0.50194359D+04 0.50194359D+04 0.12416559D+01  1  2  1  2  6  5       -2 0.460247460072D-02 0.100000000000D+01
  </mgrwgt>
  </event>
  <event>
  7     66 -.90883824E-06 0.18194320E+02 0.78161638E-02 0.12559929E+00
       -1 -1    0    0    0  501 0.00000000E+00 0.00000000E+00 0.67859932E+01 0.67859932E+01 0.00000000E+00 0.0000E+00 0.9000E+01
       22 -1    0    0    0    0 -.00000000E+00 -.00000000E+00 -.70758223E+03 0.70758223E+03 0.00000000E+00 0.0000E+00 0.9000E+01
       24  2    1    2    0    0 0.25936362E+02 0.34086586E+01 -.59827193E+03 0.60407283E+03 0.79311848E+02 0.0000E+00 0.0000E+00
  9900012  1    3    3    0    0 0.31579577E+02 0.22317633E+02 -.48394054E+03 0.48805101E+03 0.50000000E+02 0.0000E+00 0.9000E+01
      -13  1    3    3    0    0 -.56432154E+01 -.18908974E+02 -.11433139E+03 0.11602182E+03 0.00000000E+00 0.0000E+00 0.9000E+01
       -2  1    1    2    0  502 -.23009781E+02 0.10386211E+02 -.51448132E+02 0.57308234E+02 0.00000000E+00 0.0000E+00 0.9000E+01
       21  1    1    2  502  501 -.29265811E+01 -.13794870E+02 -.51076182E+02 0.52987165E+02 0.00000000E+00 0.0000E+00 0.9000E+01
#aMCatNLO 2  0  0  5  1 0.14220383D+02 0.00000000D+00  -5  6  0 0.00000000D+00 0.00000000D+00 0.00000000D+00 0.00000000D+00 0.00000000D+00
  <mgrwgt>
 -.1337328610D-04    2    2    0
 0.692939262950877D+02 0.000000000000000D+00 0.000000000000000D+00 0.692939262950877D+02
 0.692939262950877D+02 -.000000000000000D+00 -.000000000000000D+00 -.692939262950877D+02
 0.722894969498880D+02 0.353729647652048D+02 0.228161748935759D+02 -.308860307617085D+02
 0.196989479414099D+02 -.457661313667875D+01 -.187687973897512D+02 -.385167583501328D+01
 0.465994076988776D+02 -.307963516285261D+02 -.404737750382469D+01 0.347377065967218D+02
 0.000000000000000D+00 0.000000000000000D+00 -.000000000000000D+00 0.000000000000000D+00
 0.692939262950877D+02 0.000000000000000D+00 0.000000000000000D+00 0.692939262950877D+02
 0.692939262950877D+02 -.000000000000000D+00 -.000000000000000D+00 -.692939262950877D+02
 0.685805182169060D+02 0.315795774699907D+02 0.223176330342304D+02 -.266071610936917D+02
 0.199100504634424D+02 -.564321535963740D+01 -.189089744436699D+02 -.264856854738805D+01
 0.352449654865514D+02 -.230097810384326D+02 0.103862111199949D+02 0.245943934115579D+02
 0.148523184232757D+02 -.292658107192076D+01 -.137948697105553D+02 0.466133622952189D+01
-.811004750163D-07 0.000000000000D+00 0.000000000000D+00 0.357920111611D-06 0.000000000000D+00  6 -1 22 9900012 -13 -2 21 2 0.10439990D-02 0.10885881D+00 0.37386503D+04 0.37386503D+04 0.37386503D+04 0.12563149D+01  1  2 13  2  6  5       -2 -.165355204868D-04 0.100000000000D+01
0.155095638480D-07 0.000000000000D+00 0.000000000000D+00 0.357920111611D-06 0.216619479285D-08  6 -1 22 9900012 -13 -2 21 2 0.10439990D-02 0.10885881D+00 0.37386503D+04 0.37386503D+04 0.37386503D+04 0.12563149D+01  1  2  1  2  6  5       -2 0.316223438516D-05 0.100000000000D+01
  </mgrwgt>
  </event>
  <event>
  6     66 0.90883824E-06 0.24786791E+02 0.78161638E-02 0.12320661E+00
       -3 -1    0    0    0  501 0.00000000E+00 0.00000000E+00 0.20697472E+02 0.20697472E+02 0.00000000E+00 0.0000E+00 0.9000E+01
       22 -1    0    0    0    0 0.00000000E+00 0.00000000E+00 -.29801908E+03 0.29801908E+03 0.00000000E+00 0.0000E+00 0.9000E+01
       24  2    1    2    0    0 0.23544094E+02 0.39671969E+02 -.24801877E+03 0.26406451E+03 0.78029257E+02 0.0000E+00 0.0000E+00
  9900012  1    3    3    0    0 0.30465851E+02 0.10375681E+02 -.18292744E+03 0.19234935E+03 0.50000000E+02 0.0000E+00 0.9000E+01
      -13  1    3    3    0    0 -.69217573E+01 0.29296288E+02 -.65091328E+02 0.71715160E+02 0.00000000E+00 0.0000E+00 0.9000E+01
       -4  1    1    2    0  501 -.23544094E+02 -.39671969E+02 -.29302839E+02 0.54652044E+02 0.00000000E+00 0.0000E+00 0.9000E+01
#aMCatNLO 1  0  0  1  5 0.23043154D+01 0.00000000D+00  -5  6  0 0.00000000D+00 0.00000000D+00 0.00000000D+00 0.00000000D+00 0.00000000D+00
  <mgrwgt>
 0.2289790590D-04    9    4    0
 0.785381532587855D+02 0.000000000000000D+00 0.000000000000000D+00 0.785381532587855D+02
 0.785381532587855D+02 0.000000000000000D+00 0.000000000000000D+00 -.785381532587855D+02
 0.673251680231031D+02 0.304658510423021D+02 0.103756814976699D+02 -.315730170092476D+02
 0.305938998610659D+02 -.692175727598369D+01 0.292962880016596D+02 -.545925766429013D+01
 0.591572386334020D+02 -.235440937663184D+02 -.396719694993295D+02 0.370322746735378D+02
 0.000000000000000D+00 -.000000000000000D+00 -.000000000000000D+00 0.000000000000000D+00
 0.163415407633029D+03 0.000000000000000D+00 0.000000000000000D+00 0.163415407633029D+03
 0.785622360791783D+02 0.000000000000000D+00 0.000000000000000D+00 -.785622360791783D+02
 0.678042355525117D+02 0.314133297470713D+02 0.106659115876713D+02 -.315730170092476D+02
 0.306259710591829D+02 -.649250559225823D+01 0.294277756585049D+02 -.545925766429013D+01
 0.586629947201342D+02 -.227179807284485D+02 -.394189159371486D+02 0.370322746735378D+02
 0.848844423803781D+02 -.220284342636456D+01 -.674771309027668D+00 0.848531715538504D+02
 0.785381532587855D+02 0.000000000000000D+00 0.000000000000000D+00 0.785381532587855D+02
 0.785381532587855D+02 0.000000000000000D+00 0.000000000000000D+00 -.785381532587855D+02
 0.673251680231031D+02 0.304658510423021D+02 0.103756814976699D+02 -.315730170092476D+02
 0.305938998610659D+02 -.692175727598369D+01 0.292962880016596D+02 -.545925766429013D+01
 0.000000000000000D+00 -.000000000000000D+00 -.000000000000000D+00 0.000000000000000D+00
 0.591572386334020D+02 -.235440937663184D+02 -.396719694993295D+02 0.370322746735378D+02
 0.163415407633029D+03 0.000000000000000D+00 0.000000000000000D+00 0.163415407633029D+03
 0.785622360791783D+02 0.000000000000000D+00 0.000000000000000D+00 -.785622360791783D+02
 0.678042355525117D+02 0.314133297470713D+02 0.106659115876713D+02 -.315730170092476D+02
 0.306259710591829D+02 -.649250559225823D+01 0.294277756585049D+02 -.545925766429013D+01
 0.848844423803781D+02 -.220284342636456D+01 -.674771309027668D+00 0.848531715538504D+02
 0.586629947201342D+02 -.227179807284485D+02 -.394189159371486D+02 0.370322746735378D+02
0.855691250695D-08 0.000000000000D+00 0.000000000000D+00 0.115451355087D-06 0.000000000000D+00  6 -3 22 9900012 -13 -4 21 0 0.31842264D-02 0.45849090D-01 0.46034846D+04 0.46034846D+04 0.46034846D+04 0.12459076D+01  1  2  2  1  6  1       -3 0.100648458533D-05 0.100000000000D+01
0.184361009649D-10 0.000000000000D+00 -.164303985568D-10 0.115451355087D-06 0.000000000000D+00  6 -3 22 9900012 -13 -4 21 2 0.31842264D-02 0.45849090D-01 0.46034846D+04 0.46034846D+04 0.46034846D+04 0.12459076D+01  1  2  3  1  6  1       -3 0.336612916236D-08 0.100000000000D+01
0.573367188503D-11 0.000000000000D+00 0.000000000000D+00 0.115451355087D-06 0.000000000000D+00  6 -3 22 9900012 -13 -4 21 2 0.31842264D-02 0.45849090D-01 0.46034846D+04 0.46034846D+04 0.46034846D+04 0.12459076D+01  1  2 15  1  6  1       -3 0.104687429172D-08 0.100000000000D+01
0.855073967260D-08 0.000000000000D+00 0.000000000000D+00 0.115451355087D-06 0.000000000000D+00  6 -3 22 9900012 -13 -4 21 2 0.66274950D-02 0.45849090D-01 0.47569153D+04 0.47569153D+04 0.47569153D+04 0.12442909D+01  1  2 12  1  6  1       -3 0.522272041808D-06 0.100000000000D+01
-.283654463814D-05 0.000000000000D+00 -.217421549314D-08 0.115451355087D-06 0.000000000000D+00  6 -3 22 9900012 -13 -4 21 2 0.66261593D-02 0.45849090D-01 0.46034846D+04 0.46034846D+04 0.46034846D+04 0.12459076D+01  1  2  5  1  6  1       -3 -.173145215622D-03 0.100000000000D+01
0.304668567806D-05 0.000000000000D+00 0.000000000000D+00 0.115451355087D-06 0.247643626251D-06  6 -3 22 9900012 -13 -4 21 2 0.66254633D-02 0.45863149D-01 0.47569153D+04 0.47569153D+04 0.47569153D+04 0.12442909D+01  1  2 11  1  6  1       -3 0.186083191026D-03 0.100000000000D+01
0.677779131272D-09 0.000000000000D+00 0.000000000000D+00 0.115451355087D-06 0.000000000000D+00  6 21 22 9900012 -13 3 -4 2 0.66274950D-02 0.45849090D-01 0.47569153D+04 0.47569153D+04 0.47569153D+04 0.12442909D+01  3  4 12  3  5  1       -3 0.742286541064D-06 0.100000000000D+01
-.224643984081D-06 0.000000000000D+00 -.172292647902D-09 0.115451355087D-06 0.000000000000D+00  6 21 22 9900012 -13 3 -4 2 0.66261593D-02 0.45849090D-01 0.46034846D+04 0.46034846D+04 0.46034846D+04 0.12459076D+01  3  4  5  3  5  1       -3 -.245982870870D-03 0.100000000000D+01
0.231625284904D-06 0.000000000000D+00 0.000000000000D+00 0.115451355087D-06 0.188252796810D-07  6 21 22 9900012 -13 3 -4 2 0.66254633D-02 0.45863149D-01 0.47569153D+04 0.47569153D+04 0.47569153D+04 0.12442909D+01  3  4 11  3  5  1       -3 0.253667345191D-03 0.100000000000D+01
  </mgrwgt>
  </event>
  <event>
  7     66 0.90883824E-06 0.38684909E+02 0.78161638E-02 0.12099894E+00
       -3 -1    0    0    0  502 0.00000000E+00 0.00000000E+00 0.33380175E+02 0.33380175E+02 0.00000000E+00 0.0000E+00 0.9000E+01
       22 -1    0    0    0    0 0.00000000E+00 0.00000000E+00 -.22339723E+03 0.22339723E+03 0.00000000E+00 0.0000E+00 0.9000E+01
       24  2    1    2    0    0 -.14789550E+02 0.54037485E+02 -.12407171E+03 0.16008727E+03 0.84233991E+02 0.0000E+00 0.0000E+00
  9900012  1    3    3    0    0 -.35491335E+02 0.45692772E+02 -.79897121E+02 0.11059392E+03 0.50000000E+02 0.0000E+00 0.9000E+01
      -13  1    3    3    0    0 0.20701785E+02 0.83447129E+01 -.44174585E+02 0.49493354E+02 0.00000000E+00 0.0000E+00 0.9000E+01
       -4  1    1    2    0  501 0.11423489E+02 -.42974426E+02 -.71234517E+02 0.83974126E+02 0.00000000E+00 0.0000E+00 0.9000E+01
       21  1    1    2  501  502 0.33660610E+01 -.11063058E+02 0.52891676E+01 0.12716010E+02 0.00000000E+00 0.0000E+00 0.9000E+01
#aMCatNLO 2  0  0  1  5 0.11914838D+02 0.00000000D+00  -5  6  0 0.00000000D+00 0.00000000D+00 0.00000000D+00 0.00000000D+00 0.00000000D+00
  <mgrwgt>
 0.5142183262D-05    2    2    0
 0.729515637072626D+02 0.000000000000000D+00 0.000000000000000D+00 0.729515637072626D+02
 0.729515637072626D+02 0.000000000000000D+00 0.000000000000000D+00 -.729515637072626D+02
 0.737635505839126D+02 -.337457122537572D+02 0.399555243573860D+02 0.143472775312385D+02
 0.235033424946825D+02 0.212441056830908D+02 0.656229662920584D+01 -.761783073442382D+01
 0.486362343359300D+02 0.125016065706664D+02 -.465178209865919D+02 -.672944679681473D+01
 0.000000000000000D+00 0.000000000000000D+00 -.000000000000000D+00 0.000000000000000D+00
 0.100205668185579D+03 0.000000000000000D+00 0.000000000000000D+00 0.100205668185579D+03
 0.744173348934473D+02 0.000000000000000D+00 0.000000000000000D+00 -.744173348934473D+02
 0.778030117175057D+02 -.354913349210511D+02 0.456927719150165D+02 0.143472775312385D+02
 0.235845180915669D+02 0.207017852956279D+02 0.834471294214729D+01 -.761783073442382D+01
 0.449731350472008D+02 0.114234885835254D+02 -.429744264692929D+02 -.672944679681473D+01
 0.282623382227534D+02 0.336606104189777D+01 -.110630583878709D+02 0.257883332921320D+02
-.598695971237D-07 0.000000000000D+00 0.000000000000D+00 0.524765575139D-08 0.000000000000D+00  6 -3 22 9900012 -13 -4 21 2 0.52385943D-02 0.33691855D-01 0.59922838D+04 0.59922838D+04 0.59922838D+04 0.12330927D+01  1  2 13  1  6  1       -3 -.862184478445D-05 0.100000000000D+01
0.956879332119D-07 0.000000000000D+00 0.000000000000D+00 0.524765575139D-08 0.575671728652D-09  6 -3 22 9900012 -13 -4 21 2 0.51354116D-02 0.34368805D-01 0.59922838D+04 0.59922838D+04 0.59922838D+04 0.12330927D+01  1  2  1  1  6  1       -3 0.137640280466D-04 0.100000000000D+01
  </mgrwgt>
  </event>
  <event>
  6     66 0.90883824E-06 0.83074575E+02 0.78161638E-02 0.99500420E-01
       -1 -1    0    0    0  501 0.00000000E+00 0.00000000E+00 0.70322947E+03 0.70322947E+03 0.00000000E+00 0.0000E+00 0.9000E+01
       22 -1    0    0    0    0 0.00000000E+00 0.00000000E+00 -.24741067E+02 0.24741067E+02 0.00000000E+00 0.0000E+00 0.9000E+01
       24  2    1    2    0    0 -.57098834E+02 0.60341596E+02 0.59535749E+03 0.61044551E+03 0.10626281E+03 0.0000E+00 0.0000E+00
  9900012  1    3    3    0    0 -.38926003E+02 0.26430016E+02 0.16984086E+03 0.18319306E+03 0.50000000E+02 0.0000E+00 0.9000E+01
      -13  1    3    3    0    0 -.18172831E+02 0.33911580E+02 0.42551663E+03 0.42725244E+03 0.00000000E+00 0.0000E+00 0.9000E+01
       -2  1    1    2    0  501 0.57098834E+02 -.60341596E+02 0.83130908E+02 0.11752503E+03 0.00000000E+00 0.0000E+00 0.9000E+01
#aMCatNLO 1  0  0  1  5 0.13136784D+04 0.00000000D+00  -5  6  0 0.00000000D+00 0.00000000D+00 0.00000000D+00 0.00000000D+00 0.00000000D+00
  <mgrwgt>
 0.9563837898D-04    3    2    0
 0.131903933673294D+03 0.000000000000000D+00 0.000000000000000D+00 0.131903933673294D+03
 0.131903933673294D+03 0.000000000000000D+00 0.000000000000000D+00 -.131903933673294D+03
 0.687018797605699D+02 -.389260029409498D+02 0.264300156888003D+02 -.248371664381138D+01
 0.846035857067092D+02 -.181728307821316D+02 0.339115803840597D+02 0.753493175261194D+02
 0.110502401879308D+03 0.570988337230815D+02 -.603415960728600D+02 -.728656008823080D+02
 0.000000000000000D+00 0.000000000000000D+00 -.000000000000000D+00 -.000000000000000D+00
 0.211696010496988D+03 0.000000000000000D+00 0.000000000000000D+00 0.211696010496988D+03
 0.231389990935170D+04 0.000000000000000D+00 0.000000000000000D+00 -.231389990935170D+04
 0.154598743108745D+03 -.950910913871316D+02 0.111140842453353D+03 -.248371664381138D+01
 0.172802983264433D+03 -.829163255701128D+02 0.131560762871713D+03 0.753493175261194D+02
 0.742793368809753D+02 0.106221039793208D+02 0.975679263846958D+01 -.728656008823080D+02
 0.212391485659454D+04 0.167385312977924D+03 -.252458397963536D+03 -.210220389885472D+04
0.565673918269D-05 0.000000000000D+00 0.000000000000D+00 0.812499042412D-09 0.000000000000D+00  6 -1 22 9900012 -13 -2 21 0 0.10818915D+00 0.38063181D-02 0.90445353D+04 0.90445353D+04 0.90445353D+04 0.12138774D+01  1  2  2  1  6  1       -1 0.101082140468D-03 0.100000000000D+01
-.362237110410D-06 0.000000000000D+00 -.108616839576D-07 0.812499042412D-09 0.000000000000D+00  6 -1 22 9900012 -13 -2 21 2 0.10818915D+00 0.38063181D-02 0.90445353D+04 0.90445353D+04 0.90445353D+04 0.12138774D+01  1  2  3  1  6  1       -1 -.953785866533D-05 0.100000000000D+01
0.155489191424D-06 0.000000000000D+00 0.000000000000D+00 0.812499042412D-09 0.000000000000D+00  6 -1 22 9900012 -13 -2 21 2 0.10818915D+00 0.38063181D-02 0.90445353D+04 0.90445353D+04 0.90445353D+04 0.12138774D+01  1  2 15  1  6  1       -1 0.409409717880D-05 0.100000000000D+01
  </mgrwgt>
  </event>
  <event>
  6     66 -.90883824E-06 0.25477077E+02 0.78161638E-02 0.11775011E+00
       -1 -1    0    0    0  501 0.00000000E+00 0.00000000E+00 0.10524959E+03 0.10524959E+03 0.00000000E+00 0.0000E+00 0.9000E+01
       22 -1    0    0    0    0 -.00000000E+00 -.00000000E+00 -.14782224E+03 0.14782224E+03 0.00000000E+00 0.0000E+00 0.9000E+01
       24  2    1    2    0    0 0.16468209E+01 0.80837597E+02 -.10180774E+03 0.15284097E+03 0.80362414E+02 0.0000E+00 0.0000E+00
  9900012  1    3    3    0    0 0.14870135E+02 0.68033472E+02 -.10345598E+03 0.13436076E+03 0.50000000E+02 0.0000E+00 0.9000E+01
      -13  1    3    3    0    0 -.13223314E+02 0.12804125E+02 0.16482349E+01 0.18480214E+02 0.00000000E+00 0.0000E+00 0.9000E+01
       -2  1    1    2    0  501 -.16468209E+01 -.80837597E+02 0.59235088E+02 0.10023086E+03 0.00000000E+00 0.0000E+00 0.9000E+01
#aMCatNLO 1  0  0  5  1 0.18258705D+01 0.00000000D+00  -5  6  0 0.00000000D+00 0.00000000D+00 0.00000000D+00 0.00000000D+00 0.00000000D+00
  <mgrwgt>
 -.4447769820D-04    8    2    0
 0.124732634069950D+03 0.000000000000000D+00 0.000000000000000D+00 0.124732634069950D+03
 0.124732634069950D+03 -.000000000000000D+00 -.000000000000000D+00 -.124732634069950D+03
 0.118647888751733D+03 0.148701351102910D+02 0.680334721106565D+02 -.820222363729123D+02
 0.190286665878589D+02 -.132233142527178D+02 0.128041246304720D+02 0.482581648357091D+01
 0.111788712800308D+03 -.164682085757318D+01 -.808375967411286D+02 0.771964198893414D+02
 0.000000000000000D+00 0.000000000000000D+00 0.000000000000000D+00 0.000000000000000D+00
 0.124732634069950D+03 0.000000000000000D+00 0.000000000000000D+00 0.124732634069950D+03
 0.124732634069950D+03 -.000000000000000D+00 -.000000000000000D+00 -.124732634069950D+03
 0.118622061209800D+03 0.148697094490474D+02 0.680125776510074D+02 -.820022830647307D+02
 0.190272711422507D+02 -.132233825249023D+02 0.128007733495558D+02 0.482901681236851D+01
 0.634498898295210D+02 0.118242433601635D+00 -.469049462239380D+02 0.427293875200047D+02
 0.483660459583282D+02 -.176456935774680D+01 -.339084047766252D+02 0.344438787323576D+02
0.482196919131D-07 0.000000000000D+00 0.000000000000D+00 0.137226521556D-05 0.000000000000D+00  6 -1 22 9900012 -13 -2 21 0 0.16192244D-01 0.22741883D-01 0.85554338D+04 0.85554338D+04 0.85554338D+04 0.12164188D+01  1  2  2  2  6  5       -2 0.186161004576D-05 0.100000000000D+01
-.373973599524D-09 0.000000000000D+00 -.925881567414D-10 0.137226521556D-05 0.000000000000D+00  6 -1 22 9900012 -13 -2 21 2 0.16192244D-01 0.22741883D-01 0.85554338D+04 0.85554338D+04 0.85554338D+04 0.12164188D+01  1  2  3  2  6  5       -2 -.213634539337D-07 0.100000000000D+01
-.181940124150D-10 0.000000000000D+00 0.000000000000D+00 0.137226521556D-05 0.000000000000D+00  6 -1 22 9900012 -13 -2 21 2 0.16192244D-01 0.22741883D-01 0.85554338D+04 0.85554338D+04 0.85554338D+04 0.12164188D+01  1  2 15  2  6  5       -2 -.103934327608D-08 0.100000000000D+01
0.448928081279D-08 0.000000000000D+00 0.000000000000D+00 0.137226521556D-05 0.000000000000D+00  6 -1 22 9900012 -13 -2 21 2 0.16192244D-01 0.22741883D-01 0.85541460D+04 0.85541460D+04 0.85541460D+04 0.12164257D+01  1  2 12  2  6  5       -2 0.256452419913D-06 0.100000000000D+01
-.111552477239D-04 0.000000000000D+00 0.000000000000D+00 0.137226521556D-05 0.000000000000D+00  6 -1 22 9900012 -13 -2 21 2 0.16192244D-01 0.22741883D-01 0.85554338D+04 0.85554338D+04 0.85554338D+04 0.12164188D+01  1  2  4  2  6  5       -2 -.637249851789D-03 0.100000000000D+01
-.648654367792D-05 0.000000000000D+00 0.000000000000D+00 0.137226521556D-05 0.000000000000D+00  6 -1 22 9900012 -13 -2 21 2 0.16192244D-01 0.22741883D-01 0.85554338D+04 0.85554338D+04 0.85554338D+04 0.12164188D+01  1  2  5  2  6  5       -2 -.370547485781D-03 0.100000000000D+01
0.981412377379D-05 0.000000000000D+00 -.000000000000D+00 0.137226521556D-05 0.000000000000D+00  6 -1 22 9900012 -13 -2 21 2 0.16192244D-01 0.22741883D-01 0.85554338D+04 0.85554338D+04 0.85554338D+04 0.12164188D+01  1  2  6  2  6  5       -2 0.560637385655D-03 0.100000000000D+01
0.701239516915D-05 0.000000000000D+00 0.000000000000D+00 0.137226521556D-05 0.131742121537D-05  6 -1 22 9900012 -13 -2 21 2 0.16192244D-01 0.22741883D-01 0.85541460D+04 0.85541460D+04 0.85541460D+04 0.12164257D+01  1  2 11  2  6  5       -2 0.400586594046D-03 0.100000000000D+01
  </mgrwgt>
  </event>
  <event>
  6     66 0.90883824E-06 0.27604001E+02 0.78161638E-02 0.12556915E+00
       -1 -1    0    0    0  501 0.00000000E+00 0.00000000E+00 0.14668802E+03 0.14668802E+03 0.00000000E+00 0.0000E+00 0.9000E+01
       22 -1    0    0    0    0 0.00000000E+00 0.00000000E+00 -.40092229E+02 0.40092229E+02 0.00000000E+00 0.0000E+00 0.9000E+01
       24  2    1    2    0    0 -.42031480E+02 -.18560336E+02 0.10657506E+03 0.14083319E+03 0.79778528E+02 0.0000E+00 0.0000E+00
  9900012  1    3    3    0    0 -.23417870E+02 -.14804438E+02 0.35554263E+02 0.67317707E+02 0.50000000E+02 0.0000E+00 0.9000E+01
      -13  1    3    3    0    0 -.18613610E+02 -.37558981E+01 0.71020795E+02 0.73515485E+02 0.00000000E+00 0.0000E+00 0.9000E+01
       -2  1    1    2    0  501 0.42031480E+02 0.18560336E+02 0.20730092E-01 0.45947055E+02 0.00000000E+00 0.0000E+00 0.9000E+01
#aMCatNLO 1  0  0  1  5 0.51306659D+01 0.00000000D+00  -5  6  0 0.00000000D+00 0.00000000D+00 0.00000000D+00 0.00000000D+00 0.00000000D+00
  <mgrwgt>
 0.7315419706D-04   10    4    0
 0.766880019518424D+02 0.000000000000000D+00 0.000000000000000D+00 0.766880019518424D+02
 0.766880019518424D+02 0.000000000000000D+00 0.000000000000000D+00 -.766880019518424D+02
 0.572689532600849D+02 -.234178700546736D+02 -.148044380616598D+02 -.348783360937608D+01
 0.401674493806189D+02 -.186136103499328D+02 -.375589810324852D+01 0.353956314949101D+02
 0.559396012629810D+02 0.420314804046064D+02 0.185603361649084D+02 -.319077978855340D+02
 0.000000000000000D+00 -.000000000000000D+00 -.000000000000000D+00 -.000000000000000D+00
 0.767037562638043D+02 0.000000000000000D+00 0.000000000000000D+00 0.767037562638043D+02
 0.792884672970902D+02 0.000000000000000D+00 0.000000000000000D+00 -.792884672970902D+02
 0.571988003319421D+02 -.232756447346953D+02 -.147574434883195D+02 -.348783360937608D+01
 0.401182483588227D+02 -.185138559763878D+02 -.372293692429460D+01 0.353956314949101D+02
 0.560594804768256D+02 0.421706384184388D+02 0.186063172285329D+02 -.319077978855340D+02
 0.261569439330404D+01 -.381137707355615D+00 -.125936815918864D+00 -.258471103328595D+01
 0.766880019518424D+02 0.000000000000000D+00 0.000000000000000D+00 0.766880019518424D+02
 0.766880019518424D+02 0.000000000000000D+00 0.000000000000000D+00 -.766880019518424D+02
 0.572689532600849D+02 -.234178700546736D+02 -.148044380616598D+02 -.348783360937608D+01
 0.401674493806189D+02 -.186136103499328D+02 -.375589810324852D+01 0.353956314949101D+02
 0.000000000000000D+00 -.000000000000000D+00 -.000000000000000D+00 -.000000000000000D+00
 0.559396012629810D+02 0.420314804046064D+02 0.185603361649084D+02 -.319077978855340D+02
 0.767037562638043D+02 0.000000000000000D+00 0.000000000000000D+00 0.767037562638043D+02
 0.792884672970902D+02 0.000000000000000D+00 0.000000000000000D+00 -.792884672970902D+02
 0.571988003319421D+02 -.232756447346953D+02 -.147574434883195D+02 -.348783360937608D+01
 0.401182483588227D+02 -.185138559763878D+02 -.372293692429460D+01 0.353956314949101D+02
 0.261569439330404D+01 -.381137707355615D+00 -.125936815918864D+00 -.258471103328595D+01
 0.560594804768256D+02 0.421706384184388D+02 0.186063172285329D+02 -.319077978855340D+02
0.393478994380D-06 0.000000000000D+00 0.000000000000D+00 0.295605674135D-06 0.000000000000D+00  6 -1 22 9900012 -13 -2 21 0 0.22567387D-01 0.61680353D-02 0.37270086D+04 0.37270086D+04 0.37270086D+04 0.12564729D+01  1  2  2  1  6  1       -1 0.547177162485D-04 0.100000000000D+01
-.235202692077D-07 0.000000000000D+00 -.755531471909D-09 0.295605674135D-06 0.000000000000D+00  6 -1 22 9900012 -13 -2 21 2 0.22567387D-01 0.61680353D-02 0.37270086D+04 0.37270086D+04 0.37270086D+04 0.12564729D+01  1  2  3  1  6  1       -1 -.516362824894D-05 0.100000000000D+01
0.118687157782D-07 0.000000000000D+00 0.000000000000D+00 0.295605674135D-06 0.000000000000D+00  6 -1 22 9900012 -13 -2 21 2 0.22567387D-01 0.61680353D-02 0.37270086D+04 0.37270086D+04 0.37270086D+04 0.12564729D+01  1  2 15  1  6  1       -1 0.260565198170D-05 0.100000000000D+01
0.542855462480D-07 0.000000000000D+00 0.000000000000D+00 0.295605674135D-06 0.000000000000D+00  6 -1 22 9900012 -13 -2 21 2 0.23337433D-01 0.61680353D-02 0.37497963D+04 0.37497963D+04 0.37497963D+04 0.12561642D+01  1  2 12  1  6  1       -1 0.113185612500D-04 0.100000000000D+01
-.944453550341D-07 0.000000000000D+00 0.000000000000D+00 0.295605674135D-06 0.000000000000D+00  6 -1 22 9900012 -13 -2 21 2 0.22567387D-01 0.61680353D-02 0.37270086D+04 0.37270086D+04 0.37270086D+04 0.12564729D+01  1  2  4  1  6  1       -1 -.207344864520D-04 0.100000000000D+01
0.219572028708D-06 0.000000000000D+00 0.000000000000D+00 0.295605674135D-06 0.000000000000D+00  6 -1 22 9900012 -13 -2 21 2 0.23322453D-01 0.61680353D-02 0.37270086D+04 0.37270086D+04 0.37270086D+04 0.12564729D+01  1  2  5  1  6  1       -1 0.458207965549D-04 0.100000000000D+01
-.219453171506D-06 0.000000000000D+00 0.000000000000D+00 0.295605674135D-06 0.000000000000D+00  6 -1 22 9900012 -13 -2 21 2 0.22567387D-01 0.61680353D-02 0.37270086D+04 0.37270086D+04 0.37270086D+04 0.12564729D+01  1  2  6  1  6  1       -1 -.481786405462D-04 0.100000000000D+01
0.799524141575D-07 0.000000000000D+00 0.000000000000D+00 0.295605674135D-06 0.258255783477D-06  6 -1 22 9900012 -13 -2 21 2 0.22572023D-01 0.63771914D-02 0.37497963D+04 0.37497963D+04 0.37497963D+04 0.12561642D+01  1  2 11  1  6  1       -1 0.167629465265D-04 0.100000000000D+01
0.166498267663D-08 0.000000000000D+00 0.000000000000D+00 0.295605674135D-06 0.000000000000D+00  6 21 22 9900012 -13 1 -2 2 0.23337433D-01 0.61680353D-02 0.37497963D+04 0.37497963D+04 0.37497963D+04 0.12561642D+01  3  4 12  3  5  1       -1 0.420171216115D-05 0.100000000000D+01
0.461351267378D-08 0.000000000000D+00 0.000000000000D+00 0.295605674135D-06 0.130128035183D-08  6 21 22 9900012 -13 1 -2 2 0.22572023D-01 0.63771914D-02 0.37497963D+04 0.37497963D+04 0.37497963D+04 0.12561642D+01  3  4 11  3  5  1       -1 0.118035675849D-04 0.100000000000D+01
  </mgrwgt>
  </event>
  <event>
  6     66 0.90883824E-06 0.27948383E+02 0.78161638E-02 0.12760527E+00
       -1 -1    0    0    0  501 0.00000000E+00 0.00000000E+00 0.27067493E+02 0.27067493E+02 0.00000000E+00 0.0000E+00 0.9000E+01
       22 -1    0    0    0    0 -.00000000E+00 -.00000000E+00 -.76816590E+03 0.76816590E+03 0.00000000E+00 0.0000E+00 0.9000E+01
       24  2    1    2    0    0 -.97390411E+01 -.26196626E+02 -.39774544E+02 0.93352868E+02 0.79697123E+02 0.0000E+00 0.0000E+00
  9900012  1    3    3    0    0 -.27893898E+02 -.29701106E+02 -.37794194E+02 0.74757116E+02 0.50000000E+02 0.0000E+00 0.9000E+01
      -13  1    3    3    0    0 0.18154857E+02 0.35044798E+01 -.19803505E+01 0.18595752E+02 0.00000000E+00 0.0000E+00 0.9000E+01
       -2  1    1    2    0  501 0.97390411E+01 0.26196626E+02 -.70132386E+03 0.70188052E+03 0.00000000E+00 0.0000E+00 0.9000E+01
#aMCatNLO 1  0  0  5  1 0.74441163D+01 0.00000000D+00  -5  6  0 0.00000000D+00 0.00000000D+00 0.00000000D+00 0.00000000D+00 0.00000000D+00
  <mgrwgt>
 0.7434109628D-05    1    2    0
 0.144195440772586D+03 0.000000000000000D+00 0.000000000000000D+00 0.144195440772586D+03
 0.144195440772586D+03 -.000000000000000D+00 -.000000000000000D+00 -.144195440772586D+03
 0.109019180656641D+03 -.278938979771848D+02 -.297011058329385D+02 0.878917318010307D+02
 0.461884518567508D+02 0.181548568450460D+02 0.350447978987677D+01 0.423260307525004D+02
 0.133183249031781D+03 0.973904113213873D+01 0.261966260430617D+02 -.130217762553531D+03
 0.000000000000000D+00 0.000000000000000D+00 0.000000000000000D+00 0.000000000000000D+00
 0.144195440772586D+03 0.000000000000000D+00 0.000000000000000D+00 0.144195440772586D+03
 0.144195440772586D+03 -.000000000000000D+00 -.000000000000000D+00 -.144195440772586D+03
 0.107449589148138D+03 -.277601792252106D+02 -.293414215382648D+02 0.861038189606112D+02
 0.455298931509741D+02 0.182115138059491D+02 0.365687890159389D+01 0.415684877272907D+02
 0.128638765039913D+03 0.896113303792817D+01 0.189800903209545D+02 -.126914877524579D+03
 0.677263420614770D+01 0.587532381333320D+00 0.670445231571634D+01 -.757429163323152D+00
0.297580628472D-06 0.000000000000D+00 0.000000000000D+00 0.151478549848D-05 0.000000000000D+00  6 -1 22 9900012 -13 -2 21 2 0.41642297D-02 0.11817937D+00 0.30768207D+04 0.30768207D+04 0.30768207D+04 0.12663077D+01  1  2 14  2  6  5       -2 0.743410962808D-05 0.100000000000D+01
  </mgrwgt>
  </event>
  <event>
  6     66 0.90883824E-06 0.71866138E+02 0.78161638E-02 0.10780681E+00
       -1 -1    0    0    0  501 0.00000000E+00 0.00000000E+00 0.37579529E+03 0.37579529E+03 0.00000000E+00 0.0000E+00 0.9000E+01
       22 -1    0    0    0    0 0.00000000E+00 0.00000000E+00 -.88081213E+02 0.88081213E+02 0.00000000E+00 0.0000E+00 0.9000E+01
       24  2    1    2    0    0 0.12660774E+03 -.10482494E+03 0.22053601E+03 0.28630770E+03 0.79486970E+02 0.0000E+00 0.0000E+00
  9900012  1    3    3    0    0 0.74067470E+02 -.51022193E+02 0.95449678E+02 0.14035632E+03 0.50000000E+02 0.0000E+00 0.9000E+01
      -13  1    3    3    0    0 0.52540273E+02 -.53802743E+02 0.12508634E+03 0.14595139E+03 0.00000000E+00 0.0000E+00 0.9000E+01
       -2  1    1    2    0  501 -.12660774E+03 0.10482494E+03 0.67178067E+02 0.17756881E+03 0.00000000E+00 0.0000E+00 0.9000E+01
#aMCatNLO 1  0  0  5  1 0.14133464D+02 0.00000000D+00  -5  6  0 0.00000000D+00 0.00000000D+00 0.00000000D+00 0.00000000D+00 0.00000000D+00
  <mgrwgt>
 0.2659506061D-04    7    2    0
 0.181935442254432D+03 0.000000000000000D+00 0.000000000000000D+00 0.181935442254432D+03
 0.181935442254432D+03 -.000000000000000D+00 -.000000000000000D+00 -.181935442254432D+03
 0.103459173298029D+03 0.740674701713537D+02 -.510221927572691D+02 0.107026280962800D+02
 0.871581650069729D+02 0.525402729929565D+02 -.538027433028148D+02 0.440605294373518D+02
 0.173253546203863D+03 -.126607743164310D+03 0.104824936060084D+03 -.547631575336319D+02
 0.000000000000000D+00 0.000000000000000D+00 0.000000000000000D+00 0.000000000000000D+00
 0.181935442254432D+03 0.000000000000000D+00 0.000000000000000D+00 0.181935442254432D+03
 0.181935442254432D+03 -.000000000000000D+00 -.000000000000000D+00 -.181935442254432D+03
 0.999119152192959D+02 0.710127334845335D+02 -.484930221878139D+02 0.938132639526958D+01
 0.837412752474902D+02 0.499732768987311D+02 -.516773977692920D+02 0.429501959934183D+02
 0.172810091090315D+03 -.125366653900426D+03 0.105048820194417D+03 -.557788046502855D+02
 0.740760295176342D+01 0.438064351716170D+01 -.487840023731118D+01 0.344728226159761D+01
0.153270126886D-05 0.000000000000D+00 0.000000000000D+00 0.272827573334D-06 0.000000000000D+00  6 -1 22 9900012 -13 -2 21 0 0.57814661D-01 0.13550956D-01 0.29322479D+05 0.29322479D+05 0.29322479D+05 0.11636991D+01  1  2  2  2  6  5       -2 0.171477852364D-04 0.100000000000D+01
-.908326813464D-07 0.000000000000D+00 -.294298822097D-08 0.272827573334D-06 0.000000000000D+00  6 -1 22 9900012 -13 -2 21 2 0.57814661D-01 0.13550956D-01 0.29322479D+05 0.29322479D+05 0.29322479D+05 0.11636991D+01  1  2  3  2  6  5       -2 -.137617632233D-05 0.100000000000D+01
0.438898719154D-07 0.000000000000D+00 0.000000000000D+00 0.272827573334D-06 0.000000000000D+00  6 -1 22 9900012 -13 -2 21 2 0.57814661D-01 0.13550956D-01 0.29322479D+05 0.29322479D+05 0.29322479D+05 0.11636991D+01  1  2 15  2  6  5       -2 0.664961131004D-06 0.100000000000D+01
0.113105695304D-05 0.000000000000D+00 0.000000000000D+00 0.272827573334D-06 0.000000000000D+00  6 -1 22 9900012 -13 -2 21 2 0.57814661D-01 0.13550956D-01 0.29151400D+05 0.29151400D+05 0.29151400D+05 0.11639331D+01  1  2 12  2  6  5       -2 0.171380733633D-04 0.100000000000D+01
-.366559374585D-06 0.000000000000D+00 0.000000000000D+00 0.272827573334D-06 0.000000000000D+00  6 -1 22 9900012 -13 -2 21 2 0.57814661D-01 0.13550956D-01 0.29322479D+05 0.29322479D+05 0.29322479D+05 0.11636991D+01  1  2  4  2  6  5       -2 -.555362150007D-05 0.100000000000D+01
0.215527371510D-05 0.000000000000D+00 0.000000000000D+00 0.272827573334D-06 0.000000000000D+00  6 -1 22 9900012 -13 -2 21 2 0.57814661D-01 0.13550956D-01 0.29322479D+05 0.29322479D+05 0.29322479D+05 0.11636991D+01  1  2  5  2  6  5       -2 0.326538489331D-04 0.100000000000D+01
-.224939238739D-05 0.000000000000D+00 0.000000000000D+00 0.272827573334D-06 0.000000000000D+00  6 -1 22 9900012 -13 -2 21 2 0.57814661D-01 0.13550956D-01 0.29322479D+05 0.29322479D+05 0.29322479D+05 0.11636991D+01  1  2  6  2  6  5       -2 -.340798102322D-04 0.100000000000D+01
  </mgrwgt>
  </event>
  <event>
  6     66 0.90883824E-06 0.22139672E+02 0.78161638E-02 0.12396826E+00
       -1 -1    0    0    0  501 0.00000000E+00 0.00000000E+00 0.45542799E+02 0.45542799E+02 0.00000000E+00 0.0000E+00 0.9000E+01
       22 -1    0    0    0    0 0.00000000E+00 0.00000000E+00 -.41603969E+03 0.41603969E+03 0.00000000E+00 0.0000E+00 0.9000E+01
       24  2    1    2    0    0 -.56697424E+01 -.21401381E+02 -.34075308E-01 0.90458706E+02 0.87707532E+02 0.0000E+00 0.0000E+00
  9900012  1    3    3    0    0 0.16612054E+02 -.78536567E+01 -.20736111E+02 0.57163157E+02 0.50000000E+02 0.0000E+00 0.9000E+01
      -13  1    3    3    0    0 -.22281796E+02 -.13547724E+02 0.20702036E+02 0.33295548E+02 0.00000000E+00 0.0000E+00 0.9000E+01
       -2  1    1    2    0  501 0.56697424E+01 0.21401381E+02 -.37046282E+03 0.37112378E+03 0.00000000E+00 0.0000E+00 0.9000E+01
#aMCatNLO 1  0  0  1  5 0.42803538D+02 0.00000000D+00  -5  6  0 0.00000000D+00 0.00000000D+00 0.00000000D+00 0.00000000D+00 0.00000000D+00
  <mgrwgt>
 0.1103675877D-04    7    4    0
 0.137650325414780D+03 0.000000000000000D+00 0.000000000000000D+00 0.137650325414780D+03
 0.137650325414780D+03 0.000000000000000D+00 0.000000000000000D+00 -.137650325414780D+03
 0.679360827925398D+02 0.166120538725099D+02 -.785365665347098D+01 0.421624369374097D+02
 0.836855340120558D+02 -.222817962978359D+02 -.135477238542673D+02 0.795188615046343D+02
 0.123679034024964D+03 0.566974242532600D+01 0.214013805077383D+02 -.121681298442044D+03
 0.000000000000000D+00 -.000000000000000D+00 0.000000000000000D+00 0.000000000000000D+00
 0.164121509530628D+03 0.000000000000000D+00 0.000000000000000D+00 0.164121509530628D+03
 0.150681713134328D+03 0.000000000000000D+00 0.000000000000000D+00 -.150681713134328D+03
 0.698889624081989D+02 0.184354173715399D+02 -.163380342860063D+02 0.421624369374097D+02
 0.854344297432464D+02 -.200444150699207D+02 -.239585866666887D+02 0.795188615046343D+02
 0.122168826227449D+03 0.892219929226181D+01 0.626722195553735D+01 -.121681298442044D+03
 0.373110042860614D+02 -.731320159388100D+01 0.340293989971577D+02 0.134397963962997D+02
 0.137650325414780D+03 0.000000000000000D+00 0.000000000000000D+00 0.137650325414780D+03
 0.137650325414780D+03 0.000000000000000D+00 0.000000000000000D+00 -.137650325414780D+03
 0.679360827925398D+02 0.166120538725099D+02 -.785365665347098D+01 0.421624369374097D+02
 0.836855340120558D+02 -.222817962978359D+02 -.135477238542673D+02 0.795188615046343D+02
 0.000000000000000D+00 -.000000000000000D+00 0.000000000000000D+00 0.000000000000000D+00
 0.123679034024964D+03 0.566974242532600D+01 0.214013805077383D+02 -.121681298442044D+03
 0.164121509530628D+03 0.000000000000000D+00 0.000000000000000D+00 0.164121509530628D+03
 0.150681713134328D+03 0.000000000000000D+00 0.000000000000000D+00 -.150681713134328D+03
 0.698889624081989D+02 0.184354173715399D+02 -.163380342860063D+02 0.421624369374097D+02
 0.854344297432464D+02 -.200444150699207D+02 -.239585866666887D+02 0.795188615046343D+02
 0.373110042860614D+02 -.731320159388100D+01 0.340293989971577D+02 0.134397963962997D+02
 0.122168826227449D+03 0.892219929226181D+01 0.626722195553735D+01 -.121681298442044D+03
0.319255295494D-05 0.000000000000D+00 0.000000000000D+00 0.112726687195D-06 0.000000000000D+00  6 -1 22 9900012 -13 -2 21 0 0.70065845D-02 0.64006106D-01 0.25748702D+04 0.25748702D+04 0.25748702D+04 0.12756668D+01  1  2  2  1  6  1       -1 0.726240549628D-04 0.100000000000D+01
-.485457815700D-07 0.000000000000D+00 -.613012198273D-08 0.112726687195D-06 0.000000000000D+00  6 -1 22 9900012 -13 -2 21 2 0.70065845D-02 0.64006106D-01 0.25748702D+04 0.25748702D+04 0.25748702D+04 0.12756668D+01  1  2  3  1  6  1       -1 -.179708396577D-05 0.100000000000D+01
0.166382898384D-06 0.000000000000D+00 0.000000000000D+00 0.112726687195D-06 0.000000000000D+00  6 -1 22 9900012 -13 -2 21 2 0.70065845D-02 0.64006106D-01 0.25748702D+04 0.25748702D+04 0.25748702D+04 0.12756668D+01  1  2 15  1  6  1       -1 0.615921773623D-05 0.100000000000D+01
-.232680575742D-05 0.000000000000D+00 0.000000000000D+00 0.112726687195D-06 0.000000000000D+00  6 -1 22 9900012 -13 -2 21 2 0.70065845D-02 0.64006106D-01 0.25748702D+04 0.25748702D+04 0.25748702D+04 0.12756668D+01  1  2  4  1  6  1       -1 -.861344731284D-04 0.100000000000D+01
-.204776067706D-05 0.000000000000D+00 -.145827408560D-05 0.112726687195D-06 0.000000000000D+00  6 -1 22 9900012 -13 -2 21 2 0.91311909D-02 0.64006106D-01 0.25748702D+04 0.25748702D+04 0.25748702D+04 0.12756668D+01  1  2  5  1  6  1       -1 -.517278778236D-04 0.100000000000D+01
0.239903800619D-05 0.000000000000D+00 0.140858331725D-05 0.112726687195D-06 0.000000000000D+00  6 -1 22 9900012 -13 -2 21 2 0.70065845D-02 0.64006106D-01 0.25748702D+04 0.25748702D+04 0.25748702D+04 0.12756668D+01  1  2  6  1  6  1       -1 0.888083906527D-04 0.100000000000D+01
-.454607390803D-07 0.000000000000D+00 -.514891748730D-07 0.112726687195D-06 0.000000000000D+00  6 21 22 9900012 -13 1 -2 2 0.91311909D-02 0.64006106D-01 0.25748702D+04 0.25748702D+04 0.25748702D+04 0.12756668D+01  3  4  5  3  5  1       -1 -.168954696624D-04 0.100000000000D+01
  </mgrwgt>
  </event>
  <event>
  6     66 0.90883824E-06 0.26430649E+02 0.78161638E-02 0.11241787E+00
       -1 -1    0    0    0  501 0.00000000E+00 0.00000000E+00 0.62810914E+02 0.62810914E+02 0.00000000E+00 0.0000E+00 0.9000E+01
       22 -1    0    0    0    0 0.00000000E+00 0.00000000E+00 -.11478479E+03 0.11478479E+03 0.00000000E+00 0.0000E+00 0.9000E+01
       24  2    1    2    0    0 0.22170451E+02 0.14389242E+02 0.31645771E+02 0.89898357E+02 0.79885422E+02 0.0000E+00 0.0000E+00
  9900012  1    3    3    0    0 -.83750865E+01 0.59641746E+01 0.11422523E+02 0.52308580E+02 0.50000000E+02 0.0000E+00 0.9000E+01
      -13  1    3    3    0    0 0.30545538E+02 0.84250670E+01 0.20223248E+02 0.37589778E+02 0.00000000E+00 0.0000E+00 0.9000E+01
       -2  1    1    2    0  501 -.22170451E+02 -.14389242E+02 -.83619651E+02 0.87697351E+02 0.00000000E+00 0.0000E+00 0.9000E+01
#aMCatNLO 1  0  0  1  5 0.14571706D+02 0.00000000D+00  -5  6  0 0.00000000D+00 0.00000000D+00 0.00000000D+00 0.00000000D+00 0.00000000D+00
  <mgrwgt>
 0.2920268819D-04    5    4    0
 0.849101750284473D+02 0.000000000000000D+00 0.000000000000000D+00 0.849101750284473D+02
 0.849101750284473D+02 0.000000000000000D+00 0.000000000000000D+00 -.849101750284473D+02
 0.581994565167080D+02 -.837508649836850D+01 0.596417456084725D+01 0.279546648485144D+02
 0.455002235096421D+02 0.305455379775859D+02 0.842506695519077D+01 0.326536168882988D+02
 0.661206700305445D+02 -.221704514792174D+02 -.143892415160380D+02 -.606082817368133D+02
 0.000000000000000D+00 0.000000000000000D+00 -.000000000000000D+00 0.000000000000000D+00
 0.170784979480595D+03 0.000000000000000D+00 0.000000000000000D+00 0.170784979480595D+03
 0.137272669177841D+03 0.000000000000000D+00 0.000000000000000D+00 -.137272669177841D+03
 0.730892995373251D+02 -.182958440933456D+02 0.415432847639189D+02 0.279546648485144D+02
 0.532678086691106D+02 0.230821897455787D+02 0.351910963323151D+02 0.326536168882988D+02
 0.726566020237139D+02 -.326570743791698D+02 0.232192483844071D+02 -.606082817368133D+02
 0.109043938428286D+03 0.278707287269366D+02 -.999536294806411D+02 0.335123103027544D+02
 0.849101750284473D+02 0.000000000000000D+00 0.000000000000000D+00 0.849101750284473D+02
 0.849101750284473D+02 0.000000000000000D+00 0.000000000000000D+00 -.849101750284473D+02
 0.581994565167080D+02 -.837508649836850D+01 0.596417456084725D+01 0.279546648485144D+02
 0.455002235096421D+02 0.305455379775859D+02 0.842506695519077D+01 0.326536168882988D+02
 0.000000000000000D+00 0.000000000000000D+00 -.000000000000000D+00 0.000000000000000D+00
 0.661206700305445D+02 -.221704514792174D+02 -.143892415160380D+02 -.606082817368133D+02
 0.170784979480595D+03 0.000000000000000D+00 0.000000000000000D+00 0.170784979480595D+03
 0.137272669177841D+03 0.000000000000000D+00 0.000000000000000D+00 -.137272669177841D+03
 0.730892995373251D+02 -.182958440933456D+02 0.415432847639189D+02 0.279546648485144D+02
 0.532678086691106D+02 0.230821897455787D+02 0.351910963323151D+02 0.326536168882988D+02
 0.109043938428286D+03 0.278707287269366D+02 -.999536294806411D+02 0.335123103027544D+02
 0.726566020237139D+02 -.326570743791698D+02 0.232192483844071D+02 -.606082817368133D+02
0.222177802098D-06 0.000000000000D+00 0.000000000000D+00 0.909496589217D-06 0.000000000000D+00  6 -1 22 9900012 -13 -2 21 0 0.96632175D-02 0.17659199D-01 0.29791391D+04 0.29791391D+04 0.29791391D+04 0.12679874D+01  1  2  2  1  6  1       -1 0.242932480664D-04 0.100000000000D+01
-.136241878799D-07 0.000000000000D+00 -.426610630408D-09 0.909496589217D-06 0.000000000000D+00  6 -1 22 9900012 -13 -2 21 2 0.96632175D-02 0.17659199D-01 0.29791391D+04 0.29791391D+04 0.29791391D+04 0.12679874D+01  1  2  3  1  6  1       -1 -.239510968828D-05 0.100000000000D+01
0.729419234775D-08 0.000000000000D+00 0.000000000000D+00 0.909496589217D-06 0.000000000000D+00  6 -1 22 9900012 -13 -2 21 2 0.96632175D-02 0.17659199D-01 0.29791391D+04 0.29791391D+04 0.29791391D+04 0.12679874D+01  1  2 15  1  6  1       -1 0.128230694660D-05 0.100000000000D+01
0.667494240116D-07 0.000000000000D+00 -.580025670947D-07 0.909496589217D-06 0.000000000000D+00  6 -1 22 9900012 -13 -2 21 2 0.30766816D-01 0.17659199D-01 0.29791391D+04 0.29791391D+04 0.29791391D+04 0.12679874D+01  1  2  5  1  6  1       -1 0.204951794532D-05 0.100000000000D+01
0.114355686452D-07 0.000000000000D+00 -.772873789639D-08 0.909496589217D-06 0.000000000000D+00  6 21 22 9900012 -13 1 -2 2 0.30766816D-01 0.17659199D-01 0.29791391D+04 0.29791391D+04 0.29791391D+04 0.12679874D+01  3  4  5  3  5  1       -1 0.397272492158D-05 0.100000000000D+01
  </mgrwgt>
  </event>
  <event>
  6     66 0.90883824E-06 0.25200399E+02 0.78161638E-02 0.12758748E+00
       -1 -1    0    0    0  501 0.00000000E+00 0.00000000E+00 0.54819762E+02 0.54819762E+02 0.00000000E+00 0.0000E+00 0.9000E+01
       22 -1    0    0    0    0 0.00000000E+00 0.00000000E+00 -.59205916E+02 0.59205916E+02 0.00000000E+00 0.0000E+00 0.9000E+01
       24  2    1    2    0    0 0.24916659E+02 0.37709689E+01 -.16686790E+02 0.85983465E+02 0.80496256E+02 0.0000E+00 0.0000E+00
  9900012  1    3    3    0    0 0.21337104E+02 0.25269128E+02 -.21458401E+02 0.63673101E+02 0.50000000E+02 0.0000E+00 0.9000E+01
      -13  1    3    3    0    0 0.35795549E+01 -.21498159E+02 0.47716113E+01 0.22310364E+02 0.00000000E+00 0.0000E+00 0.9000E+01
       -2  1    1    2    0  501 -.24916659E+02 -.37709689E+01 0.12300636E+02 0.28042213E+02 0.00000000E+00 0.0000E+00 0.9000E+01
#aMCatNLO 1  0  0  1  5 0.56853141D+01 0.00000000D+00  -5  6  0 0.00000000D+00 0.00000000D+00 0.00000000D+00 0.00000000D+00 0.00000000D+00
  <mgrwgt>
 0.1694625835D-04    8    4    0
 0.569706437507902D+02 0.000000000000000D+00 0.000000000000000D+00 0.569706437507902D+02
 0.569706437507902D+02 0.000000000000000D+00 0.000000000000000D+00 -.569706437507902D+02
 0.628942226754223D+02 0.213371038751643D+02 0.252691282057258D+02 -.190232069822267D+02
 0.225105707410508D+02 0.357955485976670D+01 -.214981593224682D+02 0.563397975143227D+01
 0.285364940851072D+02 -.249166587349310D+02 -.377096888325766D+01 0.133892272307945D+02
 0.000000000000000D+00 0.000000000000000D+00 -.000000000000000D+00 -.000000000000000D+00
 0.589659393207811D+02 0.000000000000000D+00 0.000000000000000D+00 0.589659393207811D+02
 0.590329929130253D+02 0.000000000000000D+00 0.000000000000000D+00 -.590329929130253D+02
 0.634695356821411D+02 0.205023603740205D+02 0.273157971677879D+02 -.190232069822267D+02
 0.217804340925096D+02 0.328697390993988D+01 -.207807936309945D+02 0.563397975143227D+01
 0.287610640554647D+02 -.252951593818801D+02 -.284294066240951D+01 0.133892272307945D+02
 0.398789840369103D+01 0.150582509791965D+01 -.369206287438390D+01 -.670535922441497D-01
 0.569706437507902D+02 0.000000000000000D+00 0.000000000000000D+00 0.569706437507902D+02
 0.569706437507902D+02 0.000000000000000D+00 0.000000000000000D+00 -.569706437507902D+02
 0.628942226754223D+02 0.213371038751643D+02 0.252691282057258D+02 -.190232069822267D+02
 0.225105707410508D+02 0.357955485976670D+01 -.214981593224682D+02 0.563397975143227D+01
 0.000000000000000D+00 0.000000000000000D+00 -.000000000000000D+00 -.000000000000000D+00
 0.285364940851072D+02 -.249166587349310D+02 -.377096888325766D+01 0.133892272307945D+02
 0.589659393207811D+02 0.000000000000000D+00 0.000000000000000D+00 0.589659393207811D+02
 0.590329929130253D+02 0.000000000000000D+00 0.000000000000000D+00 -.590329929130253D+02
 0.634695356821411D+02 0.205023603740205D+02 0.273157971677879D+02 -.190232069822267D+02
 0.217804340925096D+02 0.328697390993988D+01 -.207807936309945D+02 0.563397975143227D+01
 0.398789840369103D+01 0.150582509791965D+01 -.369206287438390D+01 -.670535922441497D-01
 0.287610640554647D+02 -.252951593818801D+02 -.284294066240951D+01 0.133892272307945D+02
0.208062223274D-07 0.000000000000D+00 0.000000000000D+00 0.207568463430D-06 0.000000000000D+00  6 -1 22 9900012 -13 -2 21 0 0.84338096D-02 0.91086025D-02 0.28591931D+04 0.28591931D+04 0.28591931D+04 0.12701375D+01  1  2  2  1  6  1       -1 0.707512202980D-05 0.100000000000D+01
0.285496393520D-09 0.000000000000D+00 -.399506860706D-10 0.207568463430D-06 0.000000000000D+00  6 -1 22 9900012 -13 -2 21 2 0.84338096D-02 0.91086025D-02 0.28591931D+04 0.28591931D+04 0.28591931D+04 0.12701375D+01  1  2  3  1  6  1       -1 0.156618418726D-06 0.100000000000D+01
-.189275153615D-09 0.000000000000D+00 0.000000000000D+00 0.207568463430D-06 0.000000000000D+00  6 -1 22 9900012 -13 -2 21 2 0.84338096D-02 0.91086025D-02 0.28591931D+04 0.28591931D+04 0.28591931D+04 0.12701375D+01  1  2 15  1  6  1       -1 -.103833098898D-06 0.100000000000D+01
0.172513412405D-07 0.000000000000D+00 0.000000000000D+00 0.207568463430D-06 0.000000000000D+00  6 -1 22 9900012 -13 -2 21 2 0.90451872D-02 0.91086025D-02 0.30820553D+04 0.30820553D+04 0.30820553D+04 0.12662194D+01  1  2 12  1  6  1       -1 0.857506205420D-05 0.100000000000D+01
-.378464003264D-08 0.000000000000D+00 0.000000000000D+00 0.207568463430D-06 0.000000000000D+00  6 -1 22 9900012 -13 -2 21 2 0.84338096D-02 0.91086025D-02 0.28591931D+04 0.28591931D+04 0.28591931D+04 0.12701375D+01  1  2  4  1  6  1       -1 -.207618852922D-05 0.100000000000D+01
0.132416595925D-08 0.000000000000D+00 0.000000000000D+00 0.207568463430D-06 0.226296392643D-07  6 -1 22 9900012 -13 -2 21 2 0.87291888D-02 0.94383358D-02 0.30820553D+04 0.30820553D+04 0.30820553D+04 0.12662194D+01  1  2 11  1  6  1       -1 0.659520647880D-06 0.100000000000D+01
0.251422905941D-09 0.000000000000D+00 0.000000000000D+00 0.207568463430D-06 0.000000000000D+00  6 21 22 9900012 -13 1 -2 2 0.90451872D-02 0.91086025D-02 0.30820553D+04 0.30820553D+04 0.30820553D+04 0.12662194D+01  3  4 12  3  5  1       -1 0.183889555745D-05 0.100000000000D+01
0.111380577562D-09 0.000000000000D+00 0.000000000000D+00 0.207568463430D-06 0.684438195228D-09  6 21 22 9900012 -13 1 -2 2 0.87291888D-02 0.94383358D-02 0.30820553D+04 0.30820553D+04 0.30820553D+04 0.12662194D+01  3  4 11  3  5  1       -1 0.821061273687D-06 0.100000000000D+01
  </mgrwgt>
  </event>
  <event>
  6     66 0.90883824E-06 0.41264336E+02 0.78161638E-02 0.11592921E+00
       -1 -1    0    0    0  501 0.00000000E+00 0.00000000E+00 0.49752659E+03 0.49752659E+03 0.00000000E+00 0.0000E+00 0.9000E+01
       22 -1    0    0    0    0 0.00000000E+00 0.00000000E+00 -.40117262E+02 0.40117262E+02 0.00000000E+00 0.0000E+00 0.9000E+01
       24  2    1    2    0    0 0.40248131E+02 0.47470289E+02 0.46104218E+03 0.47530174E+03 0.97357638E+02 0.0000E+00 0.0000E+00
  9900012  1    3    3    0    0 0.53184713E+01 0.56414729E+02 0.24897724E+03 0.26019334E+03 0.50000000E+02 0.0000E+00 0.9000E+01
      -13  1    3    3    0    0 0.34929660E+02 -.89444401E+01 0.21206495E+03 0.21510840E+03 0.00000000E+00 0.0000E+00 0.9000E+01
       -2  1    1    2    0  501 -.40248131E+02 -.47470289E+02 -.36328607E+01 0.62342105E+02 0.00000000E+00 0.0000E+00 0.9000E+01
#aMCatNLO 1  0  0  1  5 0.47040441D+02 0.00000000D+00  -5  6  0 0.00000000D+00 0.00000000D+00 0.00000000D+00 0.00000000D+00 0.00000000D+00
  <mgrwgt>
 0.8828599767D-05    6    4    0
 0.141277755700440D+03 0.000000000000000D+00 0.000000000000000D+00 0.141277755700440D+03
 0.141277755700440D+03 0.000000000000000D+00 0.000000000000000D+00 -.141277755700440D+03
 0.920415136877181D+02 0.531847134345876D+01 0.564147294949263D+02 0.525426721866094D+02
 0.660090693076564D+02 0.349296596459694D+02 -.894444013229012D+01 0.552911665512639D+02
 0.124504928405506D+03 -.402481309894281D+02 -.474702893626362D+02 -.107833838737873D+03
 0.000000000000000D+00 -.000000000000000D+00 -.000000000000000D+00 -.000000000000000D+00
 0.157388389520525D+03 0.000000000000000D+00 0.000000000000000D+00 0.157388389520525D+03
 0.159395763252699D+03 0.000000000000000D+00 0.000000000000000D+00 -.159395763252699D+03
 0.954137795876050D+02 0.153656548704210D+02 0.600579185876907D+02 0.525426721866094D+02
 0.698472949605473D+02 0.422112562403301D+02 -.630407497728971D+01 0.552911665512639D+02
 0.119137285257036D+03 -.271894544761565D+02 -.427351088305579D+02 -.107833838737873D+03
 0.323857929680363D+02 -.303874566345946D+02 -.110187347798431D+02 -.200737373217369D+01
 0.141277755700440D+03 0.000000000000000D+00 0.000000000000000D+00 0.141277755700440D+03
 0.141277755700440D+03 0.000000000000000D+00 0.000000000000000D+00 -.141277755700440D+03
 0.920415136877181D+02 0.531847134345876D+01 0.564147294949263D+02 0.525426721866094D+02
 0.660090693076564D+02 0.349296596459694D+02 -.894444013229012D+01 0.552911665512639D+02
 0.000000000000000D+00 -.000000000000000D+00 -.000000000000000D+00 -.000000000000000D+00
 0.124504928405506D+03 -.402481309894281D+02 -.474702893626362D+02 -.107833838737873D+03
 0.157388389520525D+03 0.000000000000000D+00 0.000000000000000D+00 0.157388389520525D+03
 0.159395763252699D+03 0.000000000000000D+00 0.000000000000000D+00 -.159395763252699D+03
 0.954137795876050D+02 0.153656548704210D+02 0.600579185876907D+02 0.525426721866094D+02
 0.698472949605473D+02 0.422112562403301D+02 -.630407497728971D+01 0.552911665512639D+02
 0.323857929680363D+02 -.303874566345946D+02 -.110187347798431D+02 -.200737373217369D+01
 0.119137285257036D+03 -.271894544761565D+02 -.427351088305579D+02 -.107833838737873D+03
0.653074992867D-06 0.000000000000D+00 0.000000000000D+00 0.192086989314D-08 0.000000000000D+00  6 -1 22 9900012 -13 -2 21 0 0.76542552D-01 0.61718864D-02 0.75571200D+04 0.75571200D+04 0.75571200D+04 0.12221521D+01  1  2  2  1  6  1       -1 0.122202515883D-04 0.100000000000D+01
-.394782909295D-07 0.000000000000D+00 -.125398996560D-08 0.192086989314D-08 0.000000000000D+00  6 -1 22 9900012 -13 -2 21 2 0.76542552D-01 0.61718864D-02 0.75571200D+04 0.75571200D+04 0.75571200D+04 0.12221521D+01  1  2  3  1  6  1       -1 -.110338211937D-05 0.100000000000D+01
0.334096521073D-07 0.000000000000D+00 0.000000000000D+00 0.192086989314D-08 0.000000000000D+00  6 -1 22 9900012 -13 -2 21 2 0.76542552D-01 0.61718864D-02 0.75571200D+04 0.75571200D+04 0.75571200D+04 0.12221521D+01  1  2 15  1  6  1       -1 0.933769215476D-06 0.100000000000D+01
0.171540262899D-06 0.000000000000D+00 0.000000000000D+00 0.192086989314D-08 0.000000000000D+00  6 -1 22 9900012 -13 -2 21 2 0.96206591D-01 0.61718864D-02 0.10536771D+05 0.10536771D+05 0.10536771D+05 0.12069836D+01  1  2 12  1  6  1       -1 0.299283684034D-05 0.100000000000D+01
-.248315801131D-06 0.000000000000D+00 0.000000000000D+00 0.192086989314D-08 0.000000000000D+00  6 -1 22 9900012 -13 -2 21 2 0.76542552D-01 0.61718864D-02 0.75571200D+04 0.75571200D+04 0.75571200D+04 0.12221521D+01  1  2  4  1  6  1       -1 -.694019949886D-05 0.100000000000D+01
0.543294269225D-08 0.000000000000D+00 0.000000000000D+00 0.192086989314D-08 0.000000000000D+00  6 21 22 9900012 -13 1 -2 2 0.96206591D-01 0.61718864D-02 0.10536771D+05 0.10536771D+05 0.10536771D+05 0.12069836D+01  3  4 12  3  5  1       -1 0.725323741278D-06 0.100000000000D+01
  </mgrwgt>
  </event>
  <event>
  7     66 0.90883824E-06 0.20059283E+02 0.78161638E-02 0.12792961E+00
       -3 -1    0    0    0  501 0.00000000E+00 0.00000000E+00 0.58775354E+02 0.58775354E+02 0.00000000E+00 0.0000E+00 0.9000E+01
       22 -1    0    0    0    0 0.00000000E+00 0.00000000E+00 -.55042998E+02 0.55042998E+02 0.00000000E+00 0.0000E+00 0.9000E+01
       24  2    1    2    0    0 -.16311205E+02 -.16345283E+02 0.13349719E+02 0.87049994E+02 0.82862916E+02 0.0000E+00 0.0000E+00
  9900012  1    3    3    0    0 -.15344479E+02 -.37807846E+02 0.10037056E+02 0.65311781E+02 0.50000000E+02 0.0000E+00 0.9000E+01
      -13  1    3    3    0    0 -.96672647E+00 0.21462563E+02 0.33126629E+01 0.21738213E+02 0.00000000E+00 0.0000E+00 0.9000E+01
       -4  1    1    2    0  502 0.12242800E+02 0.10704620E+02 -.11057817E+02 0.19665970E+02 0.00000000E+00 0.0000E+00 0.9000E+01
       21  1    1    2  502  501 0.40684055E+01 0.56406632E+01 0.14404547E+01 0.71023879E+01 0.00000000E+00 0.0000E+00 0.9000E+01
#aMCatNLO 2  0  0  5  1 0.41829115D+01 0.00000000D+00  -5  6  0 0.00000000D+00 0.00000000D+00 0.00000000D+00 0.00000000D+00 0.00000000D+00
  <mgrwgt>
 0.5548549680D-05    2    2    0
 0.568785696468602D+02 0.000000000000000D+00 0.000000000000000D+00 0.568785696468602D+02
 0.568785696468602D+02 -.000000000000000D+00 -.000000000000000D+00 -.568785696468602D+02
 0.656003228572892D+02 -.159884568876796D+02 -.384531696647012D+02 0.831416550647691D+01
 0.214577275893209D+02 -.117921470942177D+01 0.212496308419349D+02 0.273801297441755D+01
 0.266990888471104D+02 0.171676715971014D+02 0.172035388227663D+02 -.110521784808945D+02
 0.000000000000000D+00 0.000000000000000D+00 0.000000000000000D+00 0.000000000000000D+00
 0.568785696468602D+02 0.000000000000000D+00 0.000000000000000D+00 0.568785696468602D+02
 0.568785696468602D+02 -.000000000000000D+00 -.000000000000000D+00 -.568785696468602D+02
 0.650176109759058D+02 -.153444789160918D+02 -.378078462745981D+02 0.789958631095255D+01
 0.216412223382041D+02 -.966726473408669D+00 0.214625630148831D+02 0.260121760899922D+01
 0.200393574275140D+02 0.122427999156591D+02 0.107046200901340D+02 -.117090052975775D+02
 0.705894855209662D+01 0.406840547384135D+01 0.564066316958104D+01 0.120820137762570D+01
-.999136023070D-08 0.000000000000D+00 0.000000000000D+00 0.158890474406D-07 0.000000000000D+00  6 -3 22 9900012 -13 -4 21 2 0.90423622D-02 0.84681535D-02 0.29832202D+04 0.29832202D+04 0.29832202D+04 0.12679160D+01  1  2 13  2  6  5       -4 -.456192352011D-05 0.100000000000D+01
0.221435934640D-07 0.000000000000D+00 0.000000000000D+00 0.158890474406D-07 0.102146430363D-07  6 -3 22 9900012 -13 -4 21 2 0.90423622D-02 0.84681535D-02 0.29832202D+04 0.29832202D+04 0.29832202D+04 0.12679160D+01  1  2  1  2  6  5       -4 0.101104731999D-04 0.100000000000D+01
  </mgrwgt>
  </event>
  <event>
  6     66 -.90883824E-06 0.15017208E+02 0.78161638E-02 0.13221574E+00
       -1 -1    0    0    0  501 0.00000000E+00 0.00000000E+00 0.62757937E+02 0.62757937E+02 0.00000000E+00 0.0000E+00 0.9000E+01
       22 -1    0    0    0    0 0.00000000E+00 0.00000000E+00 -.53623955E+02 0.53623955E+02 0.00000000E+00 0.0000E+00 0.9000E+01
       24  2    1    2    0    0 -.15009070E+02 0.49431645E+00 0.36002933E+02 0.85601102E+02 0.76195937E+02 0.0000E+00 0.0000E+00
  9900012  1    3    3    0    0 -.40485471E+01 -.17917306E+02 0.14412290E+02 0.55182739E+02 0.50000000E+02 0.0000E+00 0.9000E+01
      -13  1    3    3    0    0 -.10960523E+02 0.18411623E+02 0.21590643E+02 0.30418362E+02 0.00000000E+00 0.0000E+00 0.9000E+01
       -2  1    1    2    0  501 0.15009070E+02 -.49431645E+00 -.26868951E+02 0.30780791E+02 0.00000000E+00 0.0000E+00 0.9000E+01
#aMCatNLO 1  0  0  5  1 0.10543056D+01 0.00000000D+00  -5  6  0 0.00000000D+00 0.00000000D+00 0.00000000D+00 0.00000000D+00 0.00000000D+00
  <mgrwgt>
 -.5191337867D-03    7    2    0
 0.580114540458836D+02 0.000000000000000D+00 0.000000000000000D+00 0.580114540458836D+02
 0.580114540458836D+02 -.000000000000000D+00 -.000000000000000D+00 -.580114540458836D+02
 0.542188616044489D+02 -.404854709242126D+01 -.179173061816921D+02 0.101125842055497D+02
 0.288127414107662D+02 -.109605229036100D+02 0.184116226338140D+02 0.192627401288901D+02
 0.329913050765521D+02 0.150090699960312D+02 -.494316452121880D+00 -.293753243344397D+02
 0.000000000000000D+00 0.000000000000000D+00 0.000000000000000D+00 -.000000000000000D+00
 0.580114540458836D+02 0.000000000000000D+00 0.000000000000000D+00 0.580114540458836D+02
 0.580114540458836D+02 -.000000000000000D+00 -.000000000000000D+00 -.580114540458836D+02
 0.541934092010912D+02 -.398883703023291D+01 -.179192727036755D+02 0.999572137239106D+01
 0.287585559416047D+02 -.109288144473657D+02 0.184105783311625D+02 0.192006812413930D+02
 0.309450488427983D+02 0.148671132946553D+02 0.442543146596598D-01 -.271396947610450D+02
 0.212589410627300D+01 0.505381829433319D-01 -.535559942146717D+00 -.205670785273915D+01
0.546090183882D-07 0.000000000000D+00 0.000000000000D+00 0.419189491395D-07 0.000000000000D+00  6 -1 22 9900012 -13 -2 21 0 0.96550672D-02 0.82498393D-02 0.20120499D+04 0.20120499D+04 0.20120499D+04 0.12889810D+01  1  2  2  2  6  5       -2 0.167719415107D-04 0.100000000000D+01
-.293220086055D-08 0.000000000000D+00 -.104856504748D-09 0.419189491395D-07 0.000000000000D+00  6 -1 22 9900012 -13 -2 21 2 0.96550672D-02 0.82498393D-02 0.20120499D+04 0.20120499D+04 0.20120499D+04 0.12889810D+01  1  2  3  2  6  5       -2 -.149625528314D-05 0.100000000000D+01
0.192660953534D-08 0.000000000000D+00 0.000000000000D+00 0.419189491395D-07 0.000000000000D+00  6 -1 22 9900012 -13 -2 21 2 0.96550672D-02 0.82498393D-02 0.20120499D+04 0.20120499D+04 0.20120499D+04 0.12889810D+01  1  2 15  2  6  5       -2 0.983118085320D-06 0.100000000000D+01
0.408558377397D-11 0.000000000000D+00 0.000000000000D+00 0.419189491395D-07 0.000000000000D+00  6 -1 22 9900012 -13 -2 21 2 0.96550672D-02 0.82498393D-02 0.20285442D+04 0.20285442D+04 0.20285442D+04 0.12885332D+01  1  2 12  2  6  5       -2 0.208548929855D-08 0.100000000000D+01
-.112253464415D-05 0.000000000000D+00 0.000000000000D+00 0.419189491395D-07 0.000000000000D+00  6 -1 22 9900012 -13 -2 21 2 0.96550672D-02 0.82498393D-02 0.20120499D+04 0.20120499D+04 0.20120499D+04 0.12889810D+01  1  2  4  2  6  5       -2 -.572811506336D-03 0.100000000000D+01
-.110248081725D-05 0.000000000000D+00 0.000000000000D+00 0.419189491395D-07 0.000000000000D+00  6 -1 22 9900012 -13 -2 21 2 0.96550672D-02 0.82498393D-02 0.20120499D+04 0.20120499D+04 0.20120499D+04 0.12889810D+01  1  2  5  2  6  5       -2 -.562578358654D-03 0.100000000000D+01
0.117580631314D-05 0.000000000000D+00 -.000000000000D+00 0.419189491395D-07 0.000000000000D+00  6 -1 22 9900012 -13 -2 21 2 0.96550672D-02 0.82498393D-02 0.20120499D+04 0.20120499D+04 0.20120499D+04 0.12889810D+01  1  2  6  2  6  5       -2 0.599995188477D-03 0.100000000000D+01
  </mgrwgt>
  </event>
  <event>
  6     66 0.90883824E-06 0.37748043E+02 0.78161638E-02 0.12501504E+00
       -1 -1    0    0    0  501 0.00000000E+00 0.00000000E+00 0.43566422E+02 0.43566422E+02 0.00000000E+00 0.0000E+00 0.9000E+01
       22 -1    0    0    0    0 -.00000000E+00 -.00000000E+00 -.17526581E+03 0.17526581E+03 0.00000000E+00 0.0000E+00 0.9000E+01
       24  2    1    2    0    0 -.16071551E+02 -.34155819E+02 -.70599050E+01 0.88601991E+02 0.79847078E+02 0.0000E+00 0.0000E+00
  9900012  1    3    3    0    0 -.35348730E+02 -.31247697E+02 -.70557173E+01 0.69106689E+02 0.50000000E+02 0.0000E+00 0.9000E+01
      -13  1    3    3    0    0 0.19277179E+02 -.29081225E+01 -.41876535E-02 0.19495303E+02 0.00000000E+00 0.0000E+00 0.9000E+01
       -2  1    1    2    0  501 0.16071551E+02 0.34155819E+02 -.12463948E+03 0.13023024E+03 0.00000000E+00 0.0000E+00 0.9000E+01
#aMCatNLO 1  0  0  5  1 0.84700581D+00 0.00000000D+00  -5  6  0 0.00000000D+00 0.00000000D+00 0.00000000D+00 0.00000000D+00 0.00000000D+00
  <mgrwgt>
 0.5977861340D-02    6    2    0
 0.873825161242177D+02 0.000000000000000D+00 0.000000000000000D+00 0.873825161242177D+02
 0.873825161242177D+02 -.000000000000000D+00 -.000000000000000D+00 -.873825161242177D+02
 0.812149717976045D+02 -.353487303610222D+02 -.312476969543390D+02 0.432425755592707D+02
 0.244079090900864D+02 0.192771789761957D+02 -.290812247895184D+01 0.146860212623113D+02
 0.691421513607444D+02 0.160715513848265D+02 0.341558194332909D+02 -.579285968215820D+02
 0.000000000000000D+00 0.000000000000000D+00 0.000000000000000D+00 0.000000000000000D+00
 0.873825161242177D+02 0.000000000000000D+00 0.000000000000000D+00 0.873825161242177D+02
 0.873825161242177D+02 -.000000000000000D+00 -.000000000000000D+00 -.873825161242177D+02
 0.811323779313804D+02 -.353226816026341D+02 -.311923372279094D+02 0.431486849331432D+02
 0.243951483225815D+02 0.192850094646715D+02 -.289148085276082D+01 0.146577969049376D+02
 0.152388873580171D+01 0.279610170351790D-01 0.947833244917073D-02 -.152360271128826D+01
 0.677136172586717D+02 0.160097111209274D+02 0.340743397482211D+02 -.562828791267925D+02
0.473906508122D-07 0.000000000000D+00 0.000000000000D+00 0.160466909123D-06 0.000000000000D+00  6 -1 22 9900012 -13 -2 21 0 0.67025265D-02 0.26963970D-01 0.39683007D+04 0.39683007D+04 0.39683007D+04 0.12533066D+01  1  2  2  2  6  5       -2 0.484192866931D-05 0.100000000000D+01
-.305095009908D-08 0.000000000000D+00 -.909962886819D-10 0.160466909123D-06 0.000000000000D+00  6 -1 22 9900012 -13 -2 21 2 0.67025265D-02 0.26963970D-01 0.39683007D+04 0.39683007D+04 0.39683007D+04 0.12533066D+01  1  2  3  2  6  5       -2 -.489638432764D-06 0.100000000000D+01
0.214988324581D-08 0.000000000000D+00 0.000000000000D+00 0.160466909123D-06 0.000000000000D+00  6 -1 22 9900012 -13 -2 21 2 0.67025265D-02 0.26963970D-01 0.39683007D+04 0.39683007D+04 0.39683007D+04 0.12533066D+01  1  2 15  2  6  5       -2 0.345028738235D-06 0.100000000000D+01
0.643684361195D-13 0.000000000000D+00 0.000000000000D+00 0.160466909123D-06 0.000000000000D+00  6 -1 22 9900012 -13 -2 21 2 0.67025265D-02 0.26963970D-01 0.39617648D+04 0.39617648D+04 0.39617648D+04 0.12533895D+01  1  2 12  2  6  5       -2 0.103298326612D-10 0.100000000000D+01
-.292073378406D-07 0.000000000000D+00 0.000000000000D+00 0.160466909123D-06 0.000000000000D+00  6 -1 22 9900012 -13 -2 21 2 0.67025265D-02 0.26963970D-01 0.39683007D+04 0.39683007D+04 0.39683007D+04 0.12533066D+01  1  2  5  2  6  5       -2 -.468740381227D-05 0.100000000000D+01
0.372498722448D-04 0.000000000000D+00 0.000000000000D+00 0.160466909123D-06 0.246348250940D-04  6 -1 22 9900012 -13 -2 21 2 0.67025265D-02 0.26963970D-01 0.39617648D+04 0.39617648D+04 0.39617648D+04 0.12533895D+01  1  2 11  2  6  5       -2 0.597785141500D-02 0.100000000000D+01
  </mgrwgt>
  </event>
  <event>
  7     66 0.90883824E-06 0.23842141E+02 0.78161638E-02 0.12701091E+00
       -1 -1    0    0    0  501 0.00000000E+00 0.00000000E+00 0.49294783E+02 0.49294783E+02 0.00000000E+00 0.0000E+00 0.9000E+01
       22 -1    0    0    0    0 -.00000000E+00 -.00000000E+00 -.15112754E+03 0.15112754E+03 0.00000000E+00 0.0000E+00 0.9000E+01
       24  2    1    2    0    0 -.23285242E+02 0.15925836E+01 0.34621991E+01 0.89476936E+02 0.86309886E+02 0.0000E+00 0.0000E+00
  9900012  1    3    3    0    0 -.32369736E+02 0.24022088E+02 0.84207212E+01 0.64774757E+02 0.50000000E+02 0.0000E+00 0.9000E+01
      -13  1    3    3    0    0 0.90844944E+01 -.22429505E+02 -.49585221E+01 0.24702179E+02 0.00000000E+00 0.0000E+00 0.9000E+01
       -2  1    1    2    0  502 -.10826540E+01 0.63371520E+00 -.54995788E+02 0.55010093E+02 0.00000000E+00 0.0000E+00 0.9000E+01
       21  1    1    2  502  501 0.24367896E+02 -.22262988E+01 -.50299167E+02 0.55935292E+02 0.00000000E+00 0.0000E+00 0.9000E+01
#aMCatNLO 2  0  0  5  1 0.12989056D+02 0.00000000D+00  -5  6  0 0.00000000D+00 0.00000000D+00 0.00000000D+00 0.00000000D+00 0.00000000D+00
  <mgrwgt>
 0.3884362757D-03    2    2    0
 0.863122195179058D+02 0.000000000000000D+00 0.000000000000000D+00 0.863122195179058D+02
 0.863122195179058D+02 -.000000000000000D+00 -.000000000000000D+00 -.863122195179058D+02
 0.819933672475889D+02 -.333257151512481D+02 0.240874721875668D+02 0.503200026417830D+02
 0.258957404808876D+02 0.878001101798701D+01 -.224086798329152D+02 0.955781615869459D+01
 0.647353313073352D+02 0.245457041332611D+02 -.167879235465158D+01 -.598778188004776D+02
 0.000000000000000D+00 0.000000000000000D+00 -.000000000000000D+00 0.000000000000000D+00
 0.863122195179058D+02 0.000000000000000D+00 0.000000000000000D+00 0.863122195179058D+02
 0.863122195179058D+02 -.000000000000000D+00 -.000000000000000D+00 -.863122195179058D+02
 0.801729604348383D+02 -.323697359374100D+02 0.240220884207503D+02 0.479879469047609D+02
 0.257549174442532D+02 0.908449442131221D+01 -.224295048378467D+02 0.881504659082737D+01
 0.314258983381329D+02 -.108265399754253D+01 0.633715200017199D+00 -.314008495382774D+02
 0.352706628185873D+02 0.243678955136403D+02 -.222629878292080D+01 -.254021439573109D+02
-.228760453645D-07 0.000000000000D+00 0.000000000000D+00 0.669832422435D-08 0.000000000000D+00  6 -1 22 9900012 -13 -2 21 2 0.75838128D-02 0.23250391D-01 0.32574610D+04 0.32574610D+04 0.32574610D+04 0.12633551D+01  1  2 13  2  6  5       -2 -.381887590322D-05 0.100000000000D+01
0.234970888573D-05 0.000000000000D+00 0.000000000000D+00 0.669832422435D-08 0.981329835289D-08  6 -1 22 9900012 -13 -2 21 2 0.75838128D-02 0.23250391D-01 0.32574610D+04 0.32574610D+04 0.32574610D+04 0.12633551D+01  1  2  1  2  6  5       -2 0.392255151637D-03 0.100000000000D+01
  </mgrwgt>
  </event>
  <event>
  7     66 0.90883824E-06 0.46451564E+02 0.78161638E-02 0.12282740E+00
       21 -1    0    0  502  501 0.00000000E+00 0.00000000E+00 0.43432881E+02 0.43432881E+02 0.00000000E+00 0.0000E+00 0.9000E+01
       22 -1    0    0    0    0 0.00000000E+00 0.00000000E+00 -.13109758E+03 0.13109758E+03 0.00000000E+00 0.0000E+00 0.9000E+01
       24  2    1    2    0    0 -.37809837E+02 0.36503811E+02 -.50457614E+02 0.10744152E+03 0.78965801E+02 0.0000E+00 0.0000E+00
  9900012  1    3    3    0    0 -.23721088E+02 0.45250381E+02 -.22513906E+02 0.74947735E+02 0.50000000E+02 0.0000E+00 0.9000E+01
      -13  1    3    3    0    0 -.14088749E+02 -.87465701E+01 -.27943708E+02 0.32493786E+02 0.00000000E+00 0.0000E+00 0.9000E+01
        3  1    1    2  502    0 0.28414172E+02 -.28546064E+02 -.17640815E+02 0.43970914E+02 0.00000000E+00 0.0000E+00 0.9000E+01
       -4  1    1    2    0  501 0.93956648E+01 -.79577472E+01 -.19566274E+02 0.23118031E+02 0.00000000E+00 0.0000E+00 0.9000E+01
#aMCatNLO 2  0  0  1  5 0.53664390D+02 0.00000000D+00  -5  6  0 0.00000000D+00 0.00000000D+00 0.00000000D+00 0.00000000D+00 0.00000000D+00
  <mgrwgt>
 0.2433536510D-05    1    2    0
 0.512840343894418D+02 0.000000000000000D+00 0.000000000000000D+00 0.512840343894418D+02
 0.512840343894418D+02 0.000000000000000D+00 0.000000000000000D+00 -.512840343894418D+02
 0.608658831657316D+02 -.564388663741763D+01 0.270892702058604D+02 0.209516996179870D+02
 0.208155143848602D+02 -.853871721476186D+01 -.143223642080821D+02 -.124597684939849D+02
 0.000000000000000D+00 0.000000000000000D+00 -.000000000000000D+00 0.000000000000000D+00
 0.208866712282919D+02 0.141826038521795D+02 -.127669059977782D+02 -.849193112400201D+01
 0.790606761679297D+02 0.000000000000000D+00 0.000000000000000D+00 0.790606761679297D+02
 0.720199486676174D+02 0.000000000000000D+00 0.000000000000000D+00 -.720199486676174D+02
 0.744933600081771D+02 -.237210875831101D+02 0.452503809077885D+02 0.209516996179870D+02
 0.207422559365465D+02 -.140887494647930D+02 -.874657012387104D+01 -.124597684939849D+02
 0.408878316622380D+02 0.284141722774488D+02 -.285460636181825D+02 0.704072750031232D+01
 0.149571772285854D+02 0.939566477045434D+01 -.795774716573502D+01 -.849193112400201D+01
0.630692643068D-09 0.000000000000D+00 0.000000000000D+00 0.285752560701D-07 0.100367978506D-09  6 21 22 9900012 -13 3 -4 2 0.66819818D-02 0.20168859D-01 0.49462456D+04 0.49462456D+04 0.49462456D+04 0.12423746D+01  1  2  1  3  5  1       -3 0.243353651049D-05 0.100000000000D+01
  </mgrwgt>
  </event>
  <event>
  6     66 0.90883824E-06 0.22913031E+02 0.78161638E-02 0.12892644E+00
       -3 -1    0    0    0  501 0.00000000E+00 0.00000000E+00 0.69136370E+02 0.69136370E+02 0.00000000E+00 0.0000E+00 0.9000E+01
       22 -1    0    0    0    0 0.00000000E+00 0.00000000E+00 -.39559431E+02 0.39559431E+02 0.00000000E+00 0.0000E+00 0.9000E+01
       24  2    1    2    0    0 0.16768068E+02 0.15615341E+02 0.31848684E+02 0.85670428E+02 0.76158234E+02 0.0000E+00 0.0000E+00
  9900012  1    3    3    0    0 0.33442788E+02 0.11910199E+02 0.18683022E+02 0.64104042E+02 0.50000000E+02 0.0000E+00 0.9000E+01
      -13  1    3    3    0    0 -.16674720E+02 0.37051420E+01 0.13165661E+02 0.21566386E+02 0.00000000E+00 0.0000E+00 0.9000E+01
       -4  1    1    2    0  501 -.16768068E+02 -.15615341E+02 -.22717446E+01 0.23025373E+02 0.00000000E+00 0.0000E+00 0.9000E+01
#aMCatNLO 1  0  0  1  5 0.10644639D+02 0.00000000D+00  -5  6  0 0.00000000D+00 0.00000000D+00 0.00000000D+00 0.00000000D+00 0.00000000D+00
  <mgrwgt>
 0.3597530647D-04    6    4    0
 0.522971842579930D+02 0.000000000000000D+00 0.000000000000000D+00 0.522971842579930D+02
 0.522971842579930D+02 0.000000000000000D+00 0.000000000000000D+00 -.522971842579930D+02
 0.613345988854388D+02 0.334427879414534D+02 0.119101993448357D+02 0.128845128232574D+01
 0.186891099462692D+02 -.166747201941376D+02 0.370514204206646D+01 0.758343322506818D+01
 0.245706596842781D+02 -.167680677473157D+02 -.156153413869022D+02 -.887188450739391D+01
 0.000000000000000D+00 -.000000000000000D+00 0.000000000000000D+00 -.000000000000000D+00
 0.527160819752338D+02 0.000000000000000D+00 0.000000000000000D+00 0.527160819752338D+02
 0.576706780582615D+02 0.000000000000000D+00 0.000000000000000D+00 -.576706780582615D+02
 0.619471822642110D+02 0.348701394223100D+02 0.109483633679702D+02 0.128845128232574D+01
 0.182523775543507D+02 -.162470131445043D+02 0.341692709752495D+01 0.758343322506818D+01
 0.244355915646062D+02 -.162006753504910D+02 -.159976847883597D+02 -.887188450739391D+01
 0.575160865032742D+01 -.242245092731472D+01 0.163239432286452D+01 -.495459608302765D+01
 0.522971842579930D+02 0.000000000000000D+00 0.000000000000000D+00 0.522971842579930D+02
 0.522971842579930D+02 0.000000000000000D+00 0.000000000000000D+00 -.522971842579930D+02
 0.613345988854388D+02 0.334427879414534D+02 0.119101993448357D+02 0.128845128232574D+01
 0.186891099462692D+02 -.166747201941376D+02 0.370514204206646D+01 0.758343322506818D+01
 0.000000000000000D+00 -.000000000000000D+00 0.000000000000000D+00 -.000000000000000D+00
 0.245706596842781D+02 -.167680677473157D+02 -.156153413869022D+02 -.887188450739391D+01
 0.527160819752338D+02 0.000000000000000D+00 0.000000000000000D+00 0.527160819752338D+02
 0.576706780582615D+02 0.000000000000000D+00 0.000000000000000D+00 -.576706780582615D+02
 0.619471822642110D+02 0.348701394223100D+02 0.109483633679702D+02 0.128845128232574D+01
 0.182523775543507D+02 -.162470131445043D+02 0.341692709752495D+01 0.758343322506818D+01
 0.575160865032742D+01 -.242245092731472D+01 0.163239432286452D+01 -.495459608302765D+01
 0.244355915646062D+02 -.162006753504910D+02 -.159976847883597D+02 -.887188450739391D+01
0.566472152473D-07 0.000000000000D+00 0.000000000000D+00 0.120371617194D-07 0.000000000000D+00  6 -3 22 9900012 -13 -4 21 0 0.10636365D-01 0.60860663D-02 0.25662076D+04 0.25662076D+04 0.25662076D+04 0.12758458D+01  1  2  2  1  6  1       -3 0.192508143438D-04 0.100000000000D+01
-.129198527553D-08 0.000000000000D+00 -.108770111052D-09 0.120371617194D-07 0.000000000000D+00  6 -3 22 9900012 -13 -4 21 2 0.10636365D-01 0.60860663D-02 0.25662076D+04 0.25662076D+04 0.25662076D+04 0.12758458D+01  1  2  3  1  6  1       -3 -.714701205912D-06 0.100000000000D+01
0.621841691103D-09 0.000000000000D+00 0.000000000000D+00 0.120371617194D-07 0.000000000000D+00  6 -3 22 9900012 -13 -4 21 2 0.10636365D-01 0.60860663D-02 0.25662076D+04 0.25662076D+04 0.25662076D+04 0.12758458D+01  1  2 15  1  6  1       -3 0.343990767492D-06 0.100000000000D+01
0.317003046765D-07 0.000000000000D+00 0.000000000000D+00 0.120371617194D-07 0.000000000000D+00  6 -3 22 9900012 -13 -4 21 2 0.11823193D-01 0.60860663D-02 0.27157373D+04 0.27157373D+04 0.27157373D+04 0.12728462D+01  1  2 12  1  6  1       -3 0.148542464045D-04 0.100000000000D+01
-.396702289112D-08 0.000000000000D+00 0.000000000000D+00 0.120371617194D-07 0.000000000000D+00  6 -3 22 9900012 -13 -4 21 2 0.10636365D-01 0.60860663D-02 0.25662076D+04 0.25662076D+04 0.25662076D+04 0.12758458D+01  1  2  4  1  6  1       -3 -.219448015227D-05 0.100000000000D+01
0.540411704205D-09 0.000000000000D+00 0.000000000000D+00 0.120371617194D-07 0.000000000000D+00  6 21 22 9900012 -13 3 -4 2 0.11823193D-01 0.60860663D-02 0.27157373D+04 0.27157373D+04 0.27157373D+04 0.12728462D+01  3  4 12  3  5  1       -3 0.443543630973D-05 0.100000000000D+01
  </mgrwgt>
  </event>
  <event>
  6     66 0.90883824E-06 0.23393283E+02 0.78161638E-02 0.12564862E+00
       -3 -1    0    0    0  501 0.00000000E+00 0.00000000E+00 0.63477691E+02 0.63477691E+02 0.00000000E+00 0.0000E+00 0.9000E+01
       22 -1    0    0    0    0 0.00000000E+00 0.00000000E+00 -.49493787E+02 0.49493787E+02 0.00000000E+00 0.0000E+00 0.9000E+01
       24  2    1    2    0    0 -.21622594E+02 0.89279960E+01 -.42033691E+01 0.83340033E+02 0.79878953E+02 0.0000E+00 0.0000E+00
  9900012  1    3    3    0    0 -.54540521E+01 0.20975179E+02 -.19661222E+02 0.57933310E+02 0.50000000E+02 0.0000E+00 0.9000E+01
      -13  1    3    3    0    0 -.16168542E+02 -.12047183E+02 0.15457852E+02 0.25406723E+02 0.00000000E+00 0.0000E+00 0.9000E+01
       -4  1    1    2    0  501 0.21622594E+02 -.89279960E+01 0.18187273E+02 0.29631446E+02 0.00000000E+00 0.0000E+00 0.9000E+01
#aMCatNLO 1  0  0  1  1 0.61039016D+02 0.00000000D+00  -5  6  0 0.00000000D+00 0.00000000D+00 0.00000000D+00 0.00000000D+00 0.00000000D+00
  <mgrwgt>
 0.1670604999D-04    4    2    0
 0.560513279127042D+02 0.000000000000000D+00 0.000000000000000D+00 0.560513279127042D+02
 0.560513279127042D+02 0.000000000000000D+00 0.000000000000000D+00 -.560513279127042D+02
 0.608348866206062D+02 -.545405211157116D+01 0.209751785377002D+02 -.270403149208341D+02
 0.236753882655231D+02 -.161685419060226D+02 -.120471825114089D+02 0.124083703883009D+02
 0.275923809392790D+02 0.216225940175938D+02 -.892799602629125D+01 0.146319445325332D+02
 0.000000000000000D+00 0.000000000000000D+00 -.000000000000000D+00 -.000000000000000D+00
 0.605377041643497D+02 0.000000000000000D+00 0.000000000000000D+00 0.605377041643497D+02
 0.922761999981417D+02 0.000000000000000D+00 0.000000000000000D+00 -.922761999981417D+02
 0.648960690083928D+02 -.161469395321434D+02 0.268253142659970D+02 -.270403149208341D+02
 0.257691002088520D+02 -.203735870850663D+02 -.974657987028346D+01 0.124083703883009D+02
 0.235644973240233D+02 0.172719173101685D+02 -.654771759939880D+01 0.146319445325332D+02
 0.385842376212232D+02 0.192486093070413D+02 -.105310167963148D+02 -.317384958337920D+02
0.591411104176D-07 0.000000000000D+00 0.000000000000D+00 0.325845882476D-06 0.000000000000D+00  6 -3 22 9900012 -13 -4 21 0 0.97657987D-02 0.76144288D-02 0.24035253D+04 0.24035253D+04 0.24035253D+04 0.12793412D+01  1  2  2  1  6  1       -3 0.167632673688D-04 0.100000000000D+01
0.736102791793D-09 0.000000000000D+00 -.113558718108D-09 0.325845882476D-06 0.000000000000D+00  6 -3 22 9900012 -13 -4 21 2 0.97657987D-02 0.76144288D-02 0.24035253D+04 0.24035253D+04 0.24035253D+04 0.12793412D+01  1  2  3  1  6  1       -3 0.341491907852D-06 0.100000000000D+01
-.396746702902D-09 0.000000000000D+00 0.000000000000D+00 0.325845882476D-06 0.000000000000D+00  6 -3 22 9900012 -13 -4 21 2 0.97657987D-02 0.76144288D-02 0.24035253D+04 0.24035253D+04 0.24035253D+04 0.12793412D+01  1  2 15  1  6  1       -3 -.184058245694D-06 0.100000000000D+01
-.462690993923D-09 0.000000000000D+00 0.000000000000D+00 0.325845882476D-06 0.000000000000D+00  6 -3 22 9900012 -13 -4 21 2 0.97657987D-02 0.76144288D-02 0.24035253D+04 0.24035253D+04 0.24035253D+04 0.12793412D+01  1  2  4  1  6  1       -3 -.214651040619D-06 0.100000000000D+01
  </mgrwgt>
  </event>
</LesHouchesEvents>
