<LesHouchesEvents version="3.0">
  <!--
  <scalesfunctionalform>
    muR  H_T/2 := sum_i mT(i)/2, i=final state
    muF1 H_T/2 := sum_i mT(i)/2, i=final state
    muF2 H_T/2 := sum_i mT(i)/2, i=final state
    QES  H_T/2 := sum_i mT(i)/2, i=final state
  </scalesfunctionalform>
PYTHIA8   
  -->
  <header>
       53
  </header>
  <init>
   2212   2212 0.65000000D+04 0.65000000D+04 -1 -1  82200  82200 -4   1
 0.35012676D-04 0.18402504D-06 0.12711138D-05     66
  </init>
  <event>
  6     66 -.12711138E-05 0.13239493E+02 0.78161638E-02 0.13103453E+00
       -2 -1    0    0    0  501 0.00000000E+00 0.00000000E+00 0.89229435E+02 0.89229435E+02 0.00000000E+00 0.0000E+00 0.9000E+01
       22 -1    0    0    0    0 0.00000000E+00 0.00000000E+00 -.50283790E+02 0.50283790E+02 0.00000000E+00 0.0000E+00 0.9000E+01
      -24  2    1    2    0    0 -.11783016E+02 0.60369456E+01 -.16048687E+02 0.82947680E+02 0.80296159E+02 0.0000E+00 0.0000E+00
  9900012  1    3    3    0    0 0.11225730E+02 0.19341375E+02 -.97698679E+01 0.55637722E+02 0.50000000E+02 0.0000E+00 0.9000E+01
       11  1    3    3    0    0 -.23008746E+02 -.13304430E+02 -.62788194E+01 0.27309958E+02 0.00000000E+00 0.0000E+00 0.9000E+01
       -1  1    1    2    0  501 0.11783016E+02 -.60369456E+01 0.54994333E+02 0.56565545E+02 0.00000000E+00 0.0000E+00 0.9000E+01
#aMCatNLO 1  0  0  0  0 0.00000000D+00 0.00000000D+00  -5  6  0 0.00000000D+00 0.00000000D+00 0.00000000D+00 0.00000000D+00 0.00000000D+00
  <mgrwgt>
 -.3031386985D-05    1    2    0
 0.669835364518268D+02 0.000000000000000D+00 0.000000000000000D+00 0.669835364518268D+02
 0.669835364518268D+02 0.000000000000000D+00 0.000000000000000D+00 -.669835364518268D+02
 0.607812927130000D+02 0.112257302820721D+02 0.193413752933654D+02 -.263488088015142D+02
 0.302658924120192D+02 -.230087459903499D+02 -.133044297154828D+02 -.144780524033191D+02
 0.429198877786343D+02 0.117830157082778D+02 -.603694557788254D+01 0.408268612048334D+02
 0.000000000000000D+00 0.000000000000000D+00 0.000000000000000D+00 0.000000000000000D+00
 0.699589442821075D+02 0.000000000000000D+00 0.000000000000000D+00 0.699589442821075D+02
 0.682057032987441D+02 0.000000000000000D+00 0.000000000000000D+00 -.682057032987441D+02
 0.603716874122211D+02 0.957543392720157D+01 0.189418051105480D+02 -.263488088015142D+02
 0.309925142507648D+02 -.238431829568717D+02 -.135064638109219D+02 -.144780524033191D+02
 0.426555105354496D+02 0.106173426248888D+02 -.631917864811889D+01 0.408268612048334D+02
 0.414493538241605D+01 0.365040640478136D+01 0.883837348492755D+00 0.175324098336338D+01
-.942817785355D-08 0.000000000000D+00 0.000000000000D+00 0.362753954691D-06 0.000000000000D+00  6 -2 22 9900012 11 -1 21 2 0.13727605D-01 0.77359676D-02 0.22368688D+04 0.22368688D+04 0.22368688D+04 0.12832102D+01  1  2 14  1  6  1       -2 -.303138698547D-05 0.100000000000D+01
  </mgrwgt>
  </event>
  <event>
  7     66 -.12711138E-05 0.20387695E+02 0.78161638E-02 0.12373286E+00
       21 -1    0    0  502  501 0.00000000E+00 0.00000000E+00 0.41924045E+03 0.41924045E+03 0.00000000E+00 0.0000E+00 0.9000E+01
       22 -1    0    0    0    0 0.00000000E+00 0.00000000E+00 -.63478632E+02 0.63478632E+02 0.00000000E+00 0.0000E+00 0.9000E+01
      -24  2    1    2    0    0 -.32121694E+02 0.23934449E+02 -.29465714E+02 0.93668774E+02 0.79378522E+02 0.0000E+00 0.0000E+00
  9900012  1    3    3    0    0 -.30008868E+02 -.44242450E+01 -.28883611E+02 0.65225525E+02 0.50000000E+02 0.0000E+00 0.9000E+01
       11  1    3    3    0    0 -.21128266E+01 0.28358694E+02 -.58210318E+00 0.28443249E+02 0.00000000E+00 0.0000E+00 0.9000E+01
        2  1    1    2  502    0 0.34212577E+01 -.17654917E+02 0.63895029E+02 0.66377525E+02 0.00000000E+00 0.0000E+00 0.9000E+01
       -1  1    1    2    0  501 0.28700437E+02 -.62795319E+01 0.32133250E+03 0.32267278E+03 0.00000000E+00 0.0000E+00 0.9000E+01
#aMCatNLO 2  0  0  1  5 0.19081479D+02 0.00000000D+00  -5  6  0 0.00000000D+00 0.00000000D+00 0.00000000D+00 0.00000000D+00 0.00000000D+00
  <mgrwgt>
 -.5840163041D-05    2    2    0
 0.148181195872706D+03 0.000000000000000D+00 0.000000000000000D+00 0.148181195872706D+03
 0.148181195872706D+03 0.000000000000000D+00 0.000000000000000D+00 -.148181195872706D+03
 0.119993984996531D+03 -.286257030450604D+02 -.115618708944261D+02 -.104620498478761D+03
 0.388176922284597D+02 -.165566644694228D+01 0.259995839687451D+02 -.287766160625613D+02
 0.000000000000000D+00 0.000000000000000D+00 -.000000000000000D+00 0.000000000000000D+00
 0.137550714520420D+03 0.302813694920027D+02 -.144377130743190D+02 0.133397114541322D+03
 0.175761325573967D+03 0.000000000000000D+00 0.000000000000000D+00 0.175761325573967D+03
 0.151414481510027D+03 0.000000000000000D+00 0.000000000000000D+00 -.151414481510027D+03
 0.119856392349905D+03 -.300088677061064D+02 -.442424504152452D+01 -.104620498478761D+03
 0.404570538263934D+02 -.211282656680352D+01 0.283586941906400D+02 -.287766160625613D+02
 0.302682990108604D+02 0.342125773980342D+01 -.176549172927789D+02 0.243468440639403D+02
 0.136594061896835D+03 0.287004365331065D+02 -.627953185633654D+01 0.133397114541322D+03
-.720475787854D-07 0.000000000000D+00 0.000000000000D+00 0.780378913258D-05 0.000000000000D+00  6 21 22 9900012 11 2 -1 2 0.65905876D-01 0.95574027D-02 0.45078934D+04 0.45078934D+04 0.45078934D+04 0.12469455D+01  1  2 13  3  5  1       -2 -.129413972890D-04 0.100000000000D+01
0.388900581929D-07 0.000000000000D+00 0.000000000000D+00 0.780378913258D-05 0.908546258863D-08  6 21 22 9900012 11 2 -1 2 0.64498530D-01 0.97659434D-02 0.45078934D+04 0.45078934D+04 0.45078934D+04 0.12469455D+01  1  2  1  3  5  1       -2 0.710123424804D-05 0.100000000000D+01
  </mgrwgt>
  </event>
  <event>
  7     66 -.12711138E-05 0.45039663E+02 0.78161638E-02 0.12354520E+00
       -4 -1    0    0    0  501 0.00000000E+00 0.00000000E+00 0.27231270E+01 0.27231270E+01 0.00000000E+00 0.0000E+00 0.9000E+01
       22 -1    0    0    0    0 -.00000000E+00 -.00000000E+00 -.24501259E+04 0.24501259E+04 0.00000000E+00 0.0000E+00 0.9000E+01
      -24  2    1    2    0    0 0.37321033E+02 0.25070218E+02 -.19523841E+04 0.19545112E+04 0.79302116E+02 0.0000E+00 0.0000E+00
  9900012  1    3    3    0    0 0.27836171E+02 -.39790303E+01 -.14997596E+04 0.15008563E+04 0.50000000E+02 0.0000E+00 0.9000E+01
       11  1    3    3    0    0 0.94848610E+01 0.29049249E+02 -.45262454E+03 0.45365493E+03 0.00000000E+00 0.0000E+00 0.9000E+01
       -3  1    1    2    0  502 -.37268698E+02 -.26808874E+02 -.31665553E+03 0.31996624E+03 0.00000000E+00 0.0000E+00 0.9000E+01
       21  1    1    2  502  501 -.52334437E-01 0.17386557E+01 -.17836313E+03 0.17837161E+03 0.00000000E+00 0.0000E+00 0.9000E+01
#aMCatNLO 2  0  0  5  1 0.10300874D+02 0.00000000D+00  -5  6  0 0.00000000D+00 0.00000000D+00 0.00000000D+00 0.00000000D+00 0.00000000D+00
  <mgrwgt>
 -.2046227982D-04    3    2    0
 0.816823364305276D+02 0.000000000000000D+00 0.000000000000000D+00 0.816823364305276D+02
 0.816823364305276D+02 -.000000000000000D+00 -.000000000000000D+00 -.816823364305276D+02
 0.690377187591472D+02 0.308210744744042D+02 -.197393659105455D+01 -.362266690995024D+02
 0.318924316734407D+02 0.108605956732358D+02 0.299733915519544D+02 -.877757677725446D+00
 0.624345224284672D+02 -.416816701476399D+02 -.279994549608998D+02 0.371044267772278D+02
 0.000000000000000D+00 0.000000000000000D+00 0.000000000000000D+00 -.000000000000000D+00
 0.816823364305276D+02 0.000000000000000D+00 0.000000000000000D+00 0.816823364305276D+02
 0.816823364305276D+02 -.000000000000000D+00 -.000000000000000D+00 -.816823364305276D+02
 0.664650275754097D+02 0.278361714985016D+02 -.397903034426565D+01 -.335695511501926D+02
 0.305604609696867D+02 0.948486100994027D+01 0.290492486227807D+02 0.346901648504395D+00
 0.602655647026478D+02 -.372686980713852D+02 -.268088739299080D+02 0.390418584547824D+02
 0.607361961331088D+01 -.523344370567256D-01 0.173865565139298D+01 -.581920895309421D+01
-.108500916189D-05 0.000000000000D+00 0.000000000000D+00 0.189692062918D-06 0.000000000000D+00  6 -4 22 9900012 11 -3 21 2 0.41894262D-03 0.37694245D+00 0.45949291D+04 0.45949291D+04 0.45949291D+04 0.12459995D+01  1  2 13  2  6  5       -3 -.233010547363D-04 0.100000000000D+01
-.175907395126D-07 0.000000000000D+00 0.000000000000D+00 0.189692062918D-06 0.000000000000D+00  6 -4 22 9900012 11 -3 21 2 0.41894262D-03 0.37694245D+00 0.49605642D+04 0.49605642D+04 0.49605642D+04 0.12422330D+01  1  2  8  2  6  5       -3 -.379865276292D-06 0.100000000000D+01
0.149875365811D-06 0.000000000000D+00 0.000000000000D+00 0.189692062918D-06 0.218451453607D-08  6 -4 22 9900012 11 -3 21 2 0.41894262D-03 0.37694245D+00 0.45949291D+04 0.45949291D+04 0.45949291D+04 0.12459995D+01  1  2  1  2  6  5       -3 0.321864019683D-05 0.100000000000D+01
  </mgrwgt>
  </event>
  <event>
  6     66 0.12711138E-05 0.15967109E+02 0.78161638E-02 0.12966011E+00
       -4 -1    0    0    0  501 0.00000000E+00 0.00000000E+00 0.14799296E+02 0.14799296E+02 0.00000000E+00 0.0000E+00 0.9000E+01
       22 -1    0    0    0    0 0.00000000E+00 0.00000000E+00 -.25919904E+03 0.25919904E+03 0.00000000E+00 0.0000E+00 0.9000E+01
      -24  2    1    2    0    0 0.15115941E+02 0.51436291E+01 -.24461405E+03 0.25802979E+03 0.80550539E+02 0.0000E+00 0.0000E+00
  9900012  1    3    3    0    0 0.16083857E+02 -.16203299E+02 -.21221923E+03 0.21922190E+03 0.50000000E+02 0.0000E+00 0.9000E+01
       11  1    3    3    0    0 -.96791598E+00 0.21346928E+02 -.32394816E+02 0.38807890E+02 0.00000000E+00 0.0000E+00 0.9000E+01
       -3  1    1    2    0  501 -.15115941E+02 -.51436291E+01 0.21430584E+00 0.15968547E+02 0.00000000E+00 0.0000E+00 0.9000E+01
#aMCatNLO 1  0  0  1  5 0.11699482D+02 0.00000000D+00  -5  6  0 0.00000000D+00 0.00000000D+00 0.00000000D+00 0.00000000D+00 0.00000000D+00
  <mgrwgt>
 0.8515771499D-05    6    4    0
 0.619351530981167D+02 0.000000000000000D+00 0.000000000000000D+00 0.619351530981167D+02
 0.619351530981167D+02 0.000000000000000D+00 0.000000000000000D+00 -.619351530981167D+02
 0.661991471682101D+02 0.160838566384081D+02 -.162032990226674D+02 -.368929497630036D+02
 0.219262590826454D+02 -.967915977383293D+00 0.213469280851678D+02 0.491249807599855D+01
 0.357448999453780D+02 -.151159406610248D+02 -.514362906250044D+01 0.319804516870050D+02
 0.000000000000000D+00 0.000000000000000D+00 -.000000000000000D+00 -.000000000000000D+00
 0.659009730203941D+02 0.000000000000000D+00 0.000000000000000D+00 0.659009730203941D+02
 0.663143136979534D+02 0.000000000000000D+00 0.000000000000000D+00 -.663143136979534D+02
 0.649013495722347D+02 0.139526278670961D+02 -.125067825472515D+02 -.368929497630036D+02
 0.232093387127841D+02 -.170166060096343D+01 0.226195737655947D+02 0.491249807599855D+01
 0.360223252392513D+02 -.162826210242085D+02 -.312007662078022D+01 0.319804516870050D+02
 0.808227319407744D+01 0.403165375807589D+01 -.699271459756296D+01 -.413340677559278D+00
 0.619351530981167D+02 0.000000000000000D+00 0.000000000000000D+00 0.619351530981167D+02
 0.619351530981167D+02 0.000000000000000D+00 0.000000000000000D+00 -.619351530981167D+02
 0.661991471682101D+02 0.160838566384081D+02 -.162032990226674D+02 -.368929497630036D+02
 0.219262590826454D+02 -.967915977383293D+00 0.213469280851678D+02 0.491249807599855D+01
 0.000000000000000D+00 0.000000000000000D+00 -.000000000000000D+00 -.000000000000000D+00
 0.357448999453780D+02 -.151159406610248D+02 -.514362906250044D+01 0.319804516870050D+02
 0.659009730203941D+02 0.000000000000000D+00 0.000000000000000D+00 0.659009730203941D+02
 0.663143136979534D+02 0.000000000000000D+00 0.000000000000000D+00 -.663143136979534D+02
 0.649013495722347D+02 0.139526278670961D+02 -.125067825472515D+02 -.368929497630036D+02
 0.232093387127841D+02 -.170166060096343D+01 0.226195737655947D+02 0.491249807599855D+01
 0.808227319407744D+01 0.403165375807589D+01 -.699271459756296D+01 -.413340677559278D+00
 0.360223252392513D+02 -.162826210242085D+02 -.312007662078022D+01 0.319804516870050D+02
0.190121817623D-07 0.000000000000D+00 0.000000000000D+00 0.131571095440D-06 0.000000000000D+00  6 -4 22 9900012 11 -3 21 0 0.22768147D-02 0.39876775D-01 0.21299034D+04 0.21299034D+04 0.21299034D+04 0.12858696D+01  1  2  2  1  6  1       -4 0.318178573596D-05 0.100000000000D+01
0.153523342361D-08 0.000000000000D+00 -.365058919948D-10 0.131571095440D-06 0.000000000000D+00  6 -4 22 9900012 11 -3 21 2 0.22768147D-02 0.39876775D-01 0.21299034D+04 0.21299034D+04 0.21299034D+04 0.12858696D+01  1  2  3  1  6  1       -4 0.424822216257D-06 0.100000000000D+01
-.275075501093D-08 0.000000000000D+00 0.000000000000D+00 0.131571095440D-06 0.000000000000D+00  6 -4 22 9900012 11 -3 21 2 0.22768147D-02 0.39876775D-01 0.21299034D+04 0.21299034D+04 0.21299034D+04 0.12858696D+01  1  2 15  1  6  1       -4 -.761175351028D-06 0.100000000000D+01
0.166568751229D-07 0.000000000000D+00 0.000000000000D+00 0.131571095440D-06 0.000000000000D+00  6 -4 22 9900012 11 -3 21 2 0.25938948D-02 0.39876775D-01 0.25366180D+04 0.25366180D+04 0.25366180D+04 0.12764627D+01  1  2 12  1  6  1       -4 0.386659744019D-05 0.100000000000D+01
-.508053016180D-09 0.000000000000D+00 0.000000000000D+00 0.131571095440D-06 0.000000000000D+00  6 -4 22 9900012 11 -3 21 2 0.22768147D-02 0.39876775D-01 0.21299034D+04 0.21299034D+04 0.21299034D+04 0.12858696D+01  1  2  4  1  6  1       -4 -.140585923281D-06 0.100000000000D+01
0.338725665129D-09 0.000000000000D+00 0.000000000000D+00 0.131571095440D-06 0.000000000000D+00  6 21 22 9900012 11 4 -3 2 0.25938948D-02 0.39876775D-01 0.25366180D+04 0.25366180D+04 0.25366180D+04 0.12764627D+01  3  4 12  3  5  1       -4 0.194432738098D-05 0.100000000000D+01
  </mgrwgt>
  </event>
  <event>
  6     66 0.12711138E-05 0.41385823E+02 0.78161638E-02 0.11515837E+00
       -4 -1    0    0    0  501 0.00000000E+00 0.00000000E+00 0.18158222E+03 0.18158222E+03 0.00000000E+00 0.0000E+00 0.9000E+01
       22 -1    0    0    0    0 0.00000000E+00 0.00000000E+00 -.12954000E+03 0.12954000E+03 0.00000000E+00 0.0000E+00 0.9000E+01
      -24  2    1    2    0    0 0.61437317E+02 -.59437053E+02 -.88431569E+02 0.14668319E+03 0.79928145E+02 0.0000E+00 0.0000E+00
  9900012  1    3    3    0    0 0.20938407E+02 -.52678571E+02 -.62881897E+02 0.98323861E+02 0.50000000E+02 0.0000E+00 0.9000E+01
       11  1    3    3    0    0 0.40498911E+02 -.67584816E+01 -.25549672E+02 0.48359328E+02 0.00000000E+00 0.0000E+00 0.9000E+01
       -3  1    1    2    0  501 -.61437317E+02 0.59437053E+02 0.14047380E+03 0.16443903E+03 0.00000000E+00 0.0000E+00 0.9000E+01
#aMCatNLO 1  0  0  1  5 0.51226588D+02 0.00000000D+00  -5  6  0 0.00000000D+00 0.00000000D+00 0.00000000D+00 0.00000000D+00 0.00000000D+00
  <mgrwgt>
 0.1414237868D-04    6    4    0
 0.153369359868621D+03 0.000000000000000D+00 0.000000000000000D+00 0.153369359868621D+03
 0.153369359868621D+03 0.000000000000000D+00 0.000000000000000D+00 -.153369359868621D+03
 0.110397709019852D+03 0.209384065278277D+02 -.526785710186324D+02 -.804624474170547D+02
 0.533852503436495D+02 0.404989107819581D+02 -.675848164030356D+01 -.341195853674515D+02
 0.142955760373740D+03 -.614373173097857D+02 0.594370526589360D+02 0.114582032784506D+03
 0.000000000000000D+00 0.000000000000000D+00 -.000000000000000D+00 -.000000000000000D+00
 0.154721985300224D+03 0.000000000000000D+00 0.000000000000000D+00 0.154721985300224D+03
 0.180421896440204D+03 0.000000000000000D+00 0.000000000000000D+00 -.180421896440204D+03
 0.109078814523907D+03 0.170264894161650D+02 -.513232987225084D+02 -.804624474170547D+02
 0.518955506816612D+02 0.386224013475522D+02 -.610837040909071D+01 -.341195853674515D+02
 0.145982720140892D+03 -.665873140743265D+02 0.612212540468698D+02 0.114582032784506D+03
 0.281867963939677D+02 0.109384233106093D+02 -.378958491527066D+01 -.256999111399798D+02
 0.153369359868621D+03 0.000000000000000D+00 0.000000000000000D+00 0.153369359868621D+03
 0.153369359868621D+03 0.000000000000000D+00 0.000000000000000D+00 -.153369359868621D+03
 0.110397709019852D+03 0.209384065278277D+02 -.526785710186324D+02 -.804624474170547D+02
 0.533852503436495D+02 0.404989107819581D+02 -.675848164030356D+01 -.341195853674515D+02
 0.000000000000000D+00 0.000000000000000D+00 -.000000000000000D+00 -.000000000000000D+00
 0.142955760373740D+03 -.614373173097857D+02 0.594370526589360D+02 0.114582032784506D+03
 0.154721985300224D+03 0.000000000000000D+00 0.000000000000000D+00 0.154721985300224D+03
 0.180421896440204D+03 0.000000000000000D+00 0.000000000000000D+00 -.180421896440204D+03
 0.109078814523907D+03 0.170264894161650D+02 -.513232987225084D+02 -.804624474170547D+02
 0.518955506816612D+02 0.386224013475522D+02 -.610837040909071D+01 -.341195853674515D+02
 0.281867963939677D+02 0.109384233106093D+02 -.378958491527066D+01 -.256999111399798D+02
 0.145982720140892D+03 -.665873140743265D+02 0.612212540468698D+02 0.114582032784506D+03
0.120116450287D-05 0.000000000000D+00 0.000000000000D+00 0.264880957987D-05 0.000000000000D+00  6 -4 22 9900012 11 -3 21 0 0.27935727D-01 0.19929230D-01 0.10214045D+05 0.10214045D+05 0.10214045D+05 0.12083778D+01  1  2  2  1  6  1       -4 0.126119206779D-04 0.100000000000D+01
0.575833957915D-08 0.000000000000D+00 -.230639398245D-08 0.264880957987D-05 0.000000000000D+00  6 -4 22 9900012 11 -3 21 2 0.27935727D-01 0.19929230D-01 0.10214045D+05 0.10214045D+05 0.10214045D+05 0.12083778D+01  1  2  3  1  6  1       -4 0.882838976054D-07 0.100000000000D+01
-.187063067867D-06 0.000000000000D+00 0.000000000000D+00 0.264880957987D-05 0.000000000000D+00  6 -4 22 9900012 11 -3 21 2 0.27935727D-01 0.19929230D-01 0.10214045D+05 0.10214045D+05 0.10214045D+05 0.12083778D+01  1  2 15  1  6  1       -4 -.286795464255D-05 0.100000000000D+01
0.269562957085D-06 0.000000000000D+00 0.000000000000D+00 0.264880957987D-05 0.000000000000D+00  6 -4 22 9900012 11 -3 21 2 0.33153092D-01 0.19929230D-01 0.11532649D+05 0.11532649D+05 0.11532649D+05 0.12029641D+01  1  2 12  1  6  1       -4 0.298269638473D-05 0.100000000000D+01
-.219660628761D-07 0.000000000000D+00 0.000000000000D+00 0.264880957987D-05 0.000000000000D+00  6 -4 22 9900012 11 -3 21 2 0.27935727D-01 0.19929230D-01 0.10214045D+05 0.10214045D+05 0.10214045D+05 0.12083778D+01  1  2  4  1  6  1       -4 -.336772366251D-06 0.100000000000D+01
0.683563740645D-08 0.000000000000D+00 0.000000000000D+00 0.264880957987D-05 0.000000000000D+00  6 21 22 9900012 11 4 -3 2 0.33153092D-01 0.19929230D-01 0.11532649D+05 0.11532649D+05 0.11532649D+05 0.12029641D+01  3  4 12  3  5  1       -4 0.166420472748D-05 0.100000000000D+01
  </mgrwgt>
  </event>
  <event>
  6     66 0.12711138E-05 0.21517892E+02 0.78161638E-02 0.12936953E+00
       -4 -1    0    0    0  501 0.00000000E+00 0.00000000E+00 0.81332153E+02 0.81332153E+02 0.00000000E+00 0.0000E+00 0.9000E+01
       22 -1    0    0    0    0 0.00000000E+00 0.00000000E+00 -.41059863E+02 0.41059863E+02 0.00000000E+00 0.0000E+00 0.9000E+01
      -24  2    1    2    0    0 0.75592636E+01 0.20146394E+02 0.47203988E+01 0.80835348E+02 0.77775650E+02 0.0000E+00 0.0000E+00
  9900012  1    3    3    0    0 0.10064034E+02 -.74126993E+01 0.10420866E+02 0.52581625E+02 0.50000000E+02 0.0000E+00 0.9000E+01
       11  1    3    3    0    0 -.25047704E+01 0.27559094E+02 -.57004671E+01 0.28253723E+02 0.00000000E+00 0.0000E+00 0.9000E+01
       -3  1    1    2    0  501 -.75592636E+01 -.20146394E+02 0.35551891E+02 0.41556668E+02 0.00000000E+00 0.0000E+00 0.9000E+01
#aMCatNLO 1  0  0  5  1 0.73256887D+01 0.00000000D+00  -5  6  0 0.00000000D+00 0.00000000D+00 0.00000000D+00 0.00000000D+00 0.00000000D+00
  <mgrwgt>
 0.3394988956D-04    6    2    0
 0.577882952674310D+02 0.000000000000000D+00 0.000000000000000D+00 0.577882952674310D+02
 0.577882952674310D+02 -.000000000000000D+00 -.000000000000000D+00 -.577882952674310D+02
 0.520511895527232D+02 0.100640339518300D+02 -.741269934156170D+01 -.728652475062998D+01
 0.319061234031083D+02 -.250477037245434D+01 0.275590937674502D+02 -.158815360312705D+02
 0.316192775790305D+02 -.755926357937564D+01 -.201463944258885D+02 0.231680607819005D+02
 0.000000000000000D+00 0.000000000000000D+00 0.000000000000000D+00 -.000000000000000D+00
 0.577882952674310D+02 0.000000000000000D+00 0.000000000000000D+00 0.577882952674310D+02
 0.577882952674310D+02 -.000000000000000D+00 -.000000000000000D+00 -.577882952674310D+02
 0.519643158572263D+02 0.926748628713765D+01 -.953559970922390D+01 -.484522018207080D+01
 0.301377166452784D+02 -.297990026490939D+01 0.262928124536135D+02 -.144253309245019D+02
 0.285658114473527D+02 -.108046175137374D+02 -.160146082006373D+02 0.210427694994654D+02
 0.490874658500456D+01 0.451703149150915D+01 -.742604543752341D+00 -.177221839289263D+01
0.105638884517D-06 0.000000000000D+00 0.000000000000D+00 0.379595165479D-07 0.000000000000D+00  6 -4 22 9900012 11 -3 21 0 0.12512639D-01 0.63169020D-02 0.25365945D+04 0.25365945D+04 0.25365945D+04 0.12764632D+01  1  2  2  2  6  5       -3 0.195124631731D-04 0.100000000000D+01
0.425113551644D-08 0.000000000000D+00 -.202840565952D-09 0.379595165479D-07 0.000000000000D+00  6 -4 22 9900012 11 -3 21 2 0.12512639D-01 0.63169020D-02 0.25365945D+04 0.25365945D+04 0.25365945D+04 0.12764632D+01  1  2  3  2  6  5       -3 0.127941027823D-05 0.100000000000D+01
-.136900397469D-07 0.000000000000D+00 0.000000000000D+00 0.379595165479D-07 0.000000000000D+00  6 -4 22 9900012 11 -3 21 2 0.12512639D-01 0.63169020D-02 0.25365945D+04 0.25365945D+04 0.25365945D+04 0.12764632D+01  1  2 15  2  6  5       -3 -.412011743541D-05 0.100000000000D+01
0.665088443592D-07 0.000000000000D+00 0.000000000000D+00 0.379595165479D-07 0.000000000000D+00  6 -4 22 9900012 11 -3 21 2 0.12512639D-01 0.63169020D-02 0.26058635D+04 0.26058635D+04 0.26058635D+04 0.12750316D+01  1  2 12  2  6  5       -3 0.200551539637D-04 0.100000000000D+01
-.941810051161D-08 0.000000000000D+00 0.000000000000D+00 0.379595165479D-07 0.000000000000D+00  6 -4 22 9900012 11 -3 21 2 0.12512639D-01 0.63169020D-02 0.25365945D+04 0.25365945D+04 0.25365945D+04 0.12764632D+01  1  2  4  2  6  5       -3 -.283444612606D-05 0.100000000000D+01
0.190440685710D-09 0.000000000000D+00 0.000000000000D+00 0.379595165479D-07 0.711551560632D-09  6 -4 22 9900012 11 -3 21 2 0.12512639D-01 0.63169020D-02 0.26058635D+04 0.26058635D+04 0.26058635D+04 0.12750316D+01  1  2 11  2  6  5       -3 0.574257049522D-07 0.100000000000D+01
  </mgrwgt>
  </event>
  <event>
  7     66 -.12711138E-05 0.17769515E+02 0.78161638E-02 0.12517615E+00
       -4 -1    0    0    0  502 0.00000000E+00 0.00000000E+00 0.11412445E+03 0.11412445E+03 0.00000000E+00 0.0000E+00 0.9000E+01
       22 -1    0    0    0    0 0.00000000E+00 0.00000000E+00 -.16301767E+03 0.16301767E+03 0.00000000E+00 0.0000E+00 0.9000E+01
      -24  2    1    2    0    0 -.36316859E+02 0.14606757E+02 -.14584316E+03 0.17006076E+03 0.78218684E+02 0.0000E+00 0.0000E+00
  9900012  1    3    3    0    0 -.32550547E+02 -.97782891E+01 -.84151285E+02 0.10361753E+03 0.50000000E+02 0.0000E+00 0.9000E+01
       11  1    3    3    0    0 -.37663119E+01 0.24385046E+02 -.61691875E+02 0.66443232E+02 0.00000000E+00 0.0000E+00 0.9000E+01
       -3  1    1    2    0  501 0.24318175E+02 -.61976766E+01 0.83508745E+02 0.87198024E+02 0.00000000E+00 0.0000E+00 0.9000E+01
       21  1    1    2  501  502 0.11998684E+02 -.84090806E+01 0.13441196E+02 0.19883330E+02 0.00000000E+00 0.0000E+00 0.9000E+01
#aMCatNLO 2  0  0  1  5 0.15612011D+02 0.00000000D+00  -5  6  0 0.00000000D+00 0.00000000D+00 0.00000000D+00 0.00000000D+00 0.00000000D+00
  <mgrwgt>
 -.1997749879D-04    2    2    0
 0.124581119090238D+03 0.000000000000000D+00 0.000000000000000D+00 0.124581119090238D+03
 0.124581119090238D+03 0.000000000000000D+00 0.000000000000000D+00 -.124581119090238D+03
 0.846944565772253D+02 -.284493055034168D+02 -.126525767073983D+02 -.608580339310116D+02
 0.521641300014110D+02 -.123450223938286D+01 0.226106690173317D+02 -.469928729661610D+02
 0.112303651601839D+03 0.296838077427996D+02 -.995809230993344D+01 0.107850906897173D+03
 0.000000000000000D+00 0.000000000000000D+00 -.000000000000000D+00 0.000000000000000D+00
 0.146131681660731D+03 0.000000000000000D+00 0.000000000000000D+00 0.146131681660731D+03
 0.127311892309003D+03 0.000000000000000D+00 0.000000000000000D+00 -.127311892309003D+03
 0.857837590817956D+02 -.325505467018278D+02 -.977828909715383D+01 -.608580339310116D+02
 0.530767905827317D+02 -.376631193477339D+01 0.243850463062796D+02 -.469928729661610D+02
 0.110732122468097D+03 0.243181749445031D+02 -.619767659011664D+01 0.107850906897173D+03
 0.238509018371090D+02 0.119986836920981D+02 -.840908061900913D+01 0.188197893517274D+02
-.910747976685D-06 0.000000000000D+00 0.000000000000D+00 0.153858567750D-05 0.000000000000D+00  6 -4 22 9900012 11 -3 21 2 0.17942464D-01 0.24541696D-01 0.38987263D+04 0.38987263D+04 0.38987263D+04 0.12541969D+01  1  2 13  1  6  1       -4 -.220800917785D-04 0.100000000000D+01
0.863112813391D-07 0.000000000000D+00 0.000000000000D+00 0.153858567750D-05 0.278296296348D-07  6 -4 22 9900012 11 -3 21 2 0.17557607D-01 0.25079641D-01 0.38987263D+04 0.38987263D+04 0.38987263D+04 0.12541969D+01  1  2  1  1  6  1       -4 0.210259298953D-05 0.100000000000D+01
  </mgrwgt>
  </event>
  <event>
  6     66 0.12711138E-05 0.99839041E+02 0.78161638E-02 0.10049941E+00
       -2 -1    0    0    0  501 0.00000000E+00 0.00000000E+00 0.11128654E+03 0.11128654E+03 0.00000000E+00 0.0000E+00 0.9000E+01
       22 -1    0    0    0    0 0.00000000E+00 0.00000000E+00 -.13676030E+04 0.13676030E+04 0.00000000E+00 0.0000E+00 0.9000E+01
      -24  2    1    2    0    0 -.26423060E+03 -.79783605E+02 -.11462910E+04 0.11817552E+04 0.79868029E+02 0.0000E+00 0.0000E+00
  9900012  1    3    3    0    0 -.18392885E+03 -.78561363E+02 -.86462205E+03 0.88886051E+03 0.50000000E+02 0.0000E+00 0.9000E+01
       11  1    3    3    0    0 -.80301744E+02 -.12222416E+01 -.28166897E+03 0.29289464E+03 0.00000000E+00 0.0000E+00 0.9000E+01
       -1  1    1    2    0  501 0.26423060E+03 0.79783605E+02 -.11002541E+03 0.29713435E+03 0.00000000E+00 0.0000E+00 0.9000E+01
#aMCatNLO 1  0  0  1  5 0.13901916D+03 0.00000000D+00  -5  6  0 0.00000000D+00 0.00000000D+00 0.00000000D+00 0.00000000D+00 0.00000000D+00
  <mgrwgt>
 0.3407442701D-05    6    4    0
 0.390122797672012D+03 0.000000000000000D+00 0.000000000000000D+00 0.390122797672012D+03
 0.390122797672012D+03 0.000000000000000D+00 0.000000000000000D+00 -.390122797672012D+03
 0.292584267455612D+03 -.183928852375455D+03 -.785613634777463D+02 -.207614650241506D+03
 0.101626282853479D+03 -.803017438176134D+02 -.122224156038912D+01 -.622738904520493D+02
 0.386035045034933D+03 0.264230596193068D+03 0.797836050381354D+02 0.269888540693555D+03
 0.000000000000000D+00 -.000000000000000D+00 0.000000000000000D+00 -.000000000000000D+00
 0.391196798442055D+03 0.000000000000000D+00 0.000000000000000D+00 0.391196798442055D+03
 0.465457285009968D+03 0.000000000000000D+00 0.000000000000000D+00 -.465457285009968D+03
 0.291535931272648D+03 -.179984857494664D+03 -.836349645825984D+02 -.207614650241506D+03
 0.100587591246397D+03 -.789363904434088D+02 -.297864809672061D+01 -.622738904520493D+02
 0.388310968900945D+03 0.269459000760438D+03 0.730577243026352D+02 0.269888540693555D+03
 0.762195920320330D+02 -.105377528223647D+02 0.135558883766838D+02 -.742604865679129D+02
 0.390122797672012D+03 0.000000000000000D+00 0.000000000000000D+00 0.390122797672012D+03
 0.390122797672012D+03 0.000000000000000D+00 0.000000000000000D+00 -.390122797672012D+03
 0.292584267455612D+03 -.183928852375455D+03 -.785613634777463D+02 -.207614650241506D+03
 0.101626282853479D+03 -.803017438176134D+02 -.122224156038912D+01 -.622738904520493D+02
 0.000000000000000D+00 -.000000000000000D+00 0.000000000000000D+00 -.000000000000000D+00
 0.386035045034933D+03 0.264230596193068D+03 0.797836050381354D+02 0.269888540693555D+03
 0.391196798442055D+03 0.000000000000000D+00 0.000000000000000D+00 0.391196798442055D+03
 0.465457285009968D+03 0.000000000000000D+00 0.000000000000000D+00 -.465457285009968D+03
 0.291535931272648D+03 -.179984857494664D+03 -.836349645825984D+02 -.207614650241506D+03
 0.100587591246397D+03 -.789363904434088D+02 -.297864809672061D+01 -.622738904520493D+02
 0.762195920320330D+02 -.105377528223647D+02 0.135558883766838D+02 -.742604865679129D+02
 0.388310968900945D+03 0.269459000760438D+03 0.730577243026352D+02 0.269888540693555D+03
0.557816314622D-05 0.000000000000D+00 0.000000000000D+00 0.275518486545D-05 0.000000000000D+00  6 -2 22 9900012 11 -1 21 0 0.17121006D-01 0.21040046D+00 0.79096943D+05 0.79096943D+05 0.79096943D+05 0.11260050D+01  1  2  2  1  6  1       -2 0.342964658964D-05 0.100000000000D+01
-.550268555178D-07 0.000000000000D+00 -.107108076228D-07 0.275518486545D-05 0.000000000000D+00  6 -2 22 9900012 11 -1 21 2 0.17121006D-01 0.21040046D+00 0.79096943D+05 0.79096943D+05 0.79096943D+05 0.11260050D+01  1  2  3  1  6  1       -2 -.428956765885D-07 0.100000000000D+01
-.815866095885D-06 0.000000000000D+00 0.000000000000D+00 0.275518486545D-05 0.000000000000D+00  6 -2 22 9900012 11 -1 21 2 0.17121006D-01 0.21040046D+00 0.79096943D+05 0.79096943D+05 0.79096943D+05 0.11260050D+01  1  2 15  1  6  1       -2 -.636000873742D-06 0.100000000000D+01
0.971023264010D-06 0.000000000000D+00 0.000000000000D+00 0.275518486545D-05 0.000000000000D+00  6 -2 22 9900012 11 -1 21 2 0.20483385D-01 0.21040046D+00 0.84105439D+05 0.84105439D+05 0.84105439D+05 0.11237940D+01  1  2 12  1  6  1       -2 0.563044746968D-06 0.100000000000D+01
-.119493144652D-06 0.000000000000D+00 0.000000000000D+00 0.275518486545D-05 0.000000000000D+00  6 -2 22 9900012 11 -1 21 2 0.17121006D-01 0.21040046D+00 0.79096943D+05 0.79096943D+05 0.79096943D+05 0.11260050D+01  1  2  4  1  6  1       -2 -.931497764013D-07 0.100000000000D+01
0.255325506944D-07 0.000000000000D+00 0.000000000000D+00 0.275518486545D-05 0.000000000000D+00  6 21 22 9900012 11 2 -1 2 0.20483385D-01 0.21040046D+00 0.84105439D+05 0.84105439D+05 0.84105439D+05 0.11237940D+01  3  4 12  3  5  1       -2 0.186797690755D-06 0.100000000000D+01
  </mgrwgt>
  </event>
  <event>
  7     66 -.12711138E-05 0.26328264E+03 0.78161638E-02 0.10116246E+00
       -2 -1    0    0    0  502 0.00000000E+00 0.00000000E+00 0.65629497E+02 0.65629497E+02 0.00000000E+00 0.0000E+00 0.9000E+01
       22 -1    0    0    0    0 0.00000000E+00 0.00000000E+00 -.17915338E+04 0.17915338E+04 0.00000000E+00 0.0000E+00 0.9000E+01
      -24  2    1    2    0    0 -.19068732E+03 0.17616401E+03 -.13900165E+04 0.14163270E+04 0.80254564E+02 0.0000E+00 0.0000E+00
  9900012  1    3    3    0    0 -.14816502E+03 0.11788777E+03 -.11114698E+04 0.11285900E+04 0.50000000E+02 0.0000E+00 0.9000E+01
       11  1    3    3    0    0 -.42522299E+02 0.58276240E+02 -.27854676E+03 0.28773697E+03 0.00000000E+00 0.0000E+00 0.9000E+01
       -1  1    1    2    0  501 0.20384651E+03 -.17685332E+03 -.33028014E+03 0.42651549E+03 0.00000000E+00 0.0000E+00 0.9000E+01
       21  1    1    2  501  502 -.13159197E+02 0.68931183E+00 -.56076169E+01 0.14320788E+02 0.00000000E+00 0.0000E+00 0.9000E+01
#aMCatNLO 2  0  0  1  5 0.13718168D+02 0.00000000D+00  -5  6  0 0.00000000D+00 0.00000000D+00 0.00000000D+00 0.00000000D+00 0.00000000D+00
  <mgrwgt>
 -.7394815269D-05    3    2    0
 0.330330961555671D+03 0.000000000000000D+00 0.000000000000000D+00 0.330330961555671D+03
 0.330330961555671D+03 0.000000000000000D+00 0.000000000000000D+00 -.330330961555671D+03
 0.256995143368877D+03 -.153252273384010D+03 0.118154249708095D+03 -.161554379989339D+03
 0.782103196987217D+02 -.440707606928140D+02 0.583573521610458D+02 -.277315994505303D+02
 0.325456460043742D+03 0.197323034076824D+03 -.176511601869141D+03 0.189285979439869D+03
 0.000000000000000D+00 -.000000000000000D+00 0.000000000000000D+00 0.000000000000000D+00
 0.353888305189330D+03 0.000000000000000D+00 0.000000000000000D+00 0.353888305189330D+03
 0.332244548737647D+03 0.000000000000000D+00 0.000000000000000D+00 -.332244548737647D+03
 0.253870469992164D+03 -.148165017340622D+03 0.117887766442306D+03 -.161554379989339D+03
 0.772871767880712D+02 -.425222994966696D+02 0.582762398692765D+02 -.277315994505303D+02
 0.329635676629345D+03 0.203846513724123D+03 -.176853318139345D+03 0.189285979439869D+03
 0.253395305173963D+02 -.131591968868318D+02 0.689311827762929D+00 0.216437564516827D+02
-.158216839357D-04 0.000000000000D+00 0.000000000000D+00 0.128020661112D-05 0.000000000000D+00  6 -2 22 9900012 11 -1 21 2 0.10155336D-01 0.27403312D+00 0.75906221D+05 0.75906221D+05 0.75906221D+05 0.11274950D+01  1  2 13  1  6  1       -2 -.135286798860D-04 0.100000000000D+01
-.109790375019D-05 0.000000000000D+00 0.000000000000D+00 0.128020661112D-05 0.000000000000D+00  6 -2 22 9900012 11 -1 21 2 0.94247273D-02 0.27403312D+00 0.72292614D+05 0.72292614D+05 0.72292614D+05 0.11292676D+01  1  2  8  1  6  1       -2 -.105528035929D-05 0.100000000000D+01
0.847998946820D-05 0.000000000000D+00 0.000000000000D+00 0.128020661112D-05 0.232326004194D-07  6 -2 22 9900012 11 -1 21 2 0.10096846D-01 0.27562058D+00 0.75906221D+05 0.75906221D+05 0.75906221D+05 0.11274950D+01  1  2  1  1  6  1       -2 0.718914497609D-05 0.100000000000D+01
  </mgrwgt>
  </event>
  <event>
  7     66 0.12711138E-05 0.44730299E+02 0.78161638E-02 0.12329813E+00
       -2 -1    0    0    0  501 0.00000000E+00 0.00000000E+00 0.12769642E+03 0.12769642E+03 0.00000000E+00 0.0000E+00 0.9000E+01
       22 -1    0    0    0    0 0.00000000E+00 0.00000000E+00 -.75204717E+02 0.75204717E+02 0.00000000E+00 0.0000E+00 0.9000E+01
      -24  2    1    2    0    0 -.43450571E+02 -.11549420E+02 -.14284729E+02 0.90884505E+02 0.77682678E+02 0.0000E+00 0.0000E+00
  9900012  1    3    3    0    0 -.15312830E+02 0.10806282E+02 -.42174755E+01 0.53563473E+02 0.50000000E+02 0.0000E+00 0.9000E+01
       11  1    3    3    0    0 -.28137741E+02 -.22355702E+02 -.10067253E+02 0.37321032E+02 0.00000000E+00 0.0000E+00 0.9000E+01
       -1  1    1    2    0  502 -.26394723E+00 -.21371861E+01 -.16678424E+02 0.16816868E+02 0.00000000E+00 0.0000E+00 0.9000E+01
       21  1    1    2  502  501 0.43714518E+02 0.13686606E+02 0.83454857E+02 0.95199766E+02 0.00000000E+00 0.0000E+00 0.9000E+01
#aMCatNLO 2  0  0  5  1 0.32425941D+02 0.00000000D+00  -5  6  0 0.00000000D+00 0.00000000D+00 0.00000000D+00 0.00000000D+00 0.00000000D+00
  <mgrwgt>
 0.1342068101D-03    2    2    0
 0.979968021500686D+02 0.000000000000000D+00 0.000000000000000D+00 0.979968021500686D+02
 0.979968021500686D+02 -.000000000000000D+00 -.000000000000000D+00 -.979968021500686D+02
 0.626417211261346D+02 -.247730511990249D+02 0.829169912335998D+01 -.272310279934963D+02
 0.507499673596572D+02 -.354444278216207D+02 -.242978623948267D+02 -.269975111157724D+02
 0.826019158143455D+02 0.602174790206455D+02 0.160061632714667D+02 0.542285391092687D+02
 0.000000000000000D+00 -.000000000000000D+00 0.000000000000000D+00 0.000000000000000D+00
 0.979968021500686D+02 0.000000000000000D+00 0.000000000000000D+00 0.979968021500686D+02
 0.979968021500686D+02 -.000000000000000D+00 -.000000000000000D+00 -.979968021500686D+02
 0.565807853055094D+02 -.153128299890427D+02 0.108062820606373D+02 -.187116747390705D+02
 0.413326098549123D+02 -.281377407194287D+02 -.223557016030887D+02 -.204175118576740D+02
 0.218764308567651D+02 -.263947232352114D+00 -.213718612143450D+01 -.217701859057681D+02
 0.762037782829505D+02 0.437145179408235D+02 0.136866056638859D+02 0.608993725025126D+02
-.134234743289D-06 0.000000000000D+00 0.000000000000D+00 0.109053070987D-06 0.000000000000D+00  6 -2 22 9900012 11 -1 21 2 0.19645603D-01 0.11569956D-01 0.47124926D+04 0.47124926D+04 0.47124926D+04 0.12447530D+01  1  2 13  2  6  5       -1 -.143357024626D-04 0.100000000000D+01
0.139090261465D-05 0.000000000000D+00 0.000000000000D+00 0.109053070987D-06 0.279500063160D-08  6 -2 22 9900012 11 -1 21 2 0.19645603D-01 0.11569956D-01 0.47124926D+04 0.47124926D+04 0.47124926D+04 0.12447530D+01  1  2  1  2  6  5       -1 0.148542512538D-03 0.100000000000D+01
  </mgrwgt>
  </event>
  <event>
  6     66 0.12711138E-05 0.26830361E+02 0.78161638E-02 0.12431642E+00
       -2 -1    0    0    0  501 0.00000000E+00 0.00000000E+00 0.29005073E+02 0.29005073E+02 0.00000000E+00 0.0000E+00 0.9000E+01
       22 -1    0    0    0    0 0.00000000E+00 0.00000000E+00 -.11052096E+03 0.11052096E+03 0.00000000E+00 0.0000E+00 0.9000E+01
      -24  2    1    2    0    0 -.14350464E+02 -.22670078E+02 -.50538093E+02 0.98544427E+02 0.80231148E+02 0.0000E+00 0.0000E+00
  9900012  1    3    3    0    0 -.17469215E+01 -.38161559E+02 -.29362797E+02 0.69437239E+02 0.50000000E+02 0.0000E+00 0.9000E+01
       11  1    3    3    0    0 -.12603542E+02 0.15491481E+02 -.21175296E+02 0.29107188E+02 0.00000000E+00 0.0000E+00 0.9000E+01
       -1  1    1    2    0  501 0.14350464E+02 0.22670078E+02 -.30977790E+02 0.40981602E+02 0.00000000E+00 0.0000E+00 0.9000E+01
#aMCatNLO 1  0  0  1  5 0.38249657D+02 0.00000000D+00  -5  6  0 0.00000000D+00 0.00000000D+00 0.00000000D+00 0.00000000D+00 0.00000000D+00
  <mgrwgt>
 0.6038651244D-04    4    2    0
 0.566186226658864D+02 0.000000000000000D+00 0.000000000000000D+00 0.566186226658864D+02
 0.566186226658864D+02 0.000000000000000D+00 0.000000000000000D+00 -.566186226658864D+02
 0.644202171321696D+02 -.174692151247788D+01 -.381615588763287D+02 0.138060879583471D+02
 0.206211962207077D+02 -.126035421020440D+02 0.154914806847381D+02 -.513794572269131D+01
 0.281958319788955D+02 0.143504636145219D+02 0.226700781915906D+02 -.866814223565578D+01
 0.000000000000000D+00 -.000000000000000D+00 -.000000000000000D+00 -.000000000000000D+00
 0.623035647727708D+02 0.000000000000000D+00 0.000000000000000D+00 0.623035647727708D+02
 0.757219433114152D+02 0.000000000000000D+00 0.000000000000000D+00 -.757219433114152D+02
 0.603649967124721D+02 0.516902889316966D+01 -.304402020966474D+02 0.138060879583471D+02
 0.214314697250126D+02 -.102728641062684D+02 0.180935809440518D+02 -.513794572269131D+01
 0.330144194977748D+02 0.177429093257334D+02 0.264575957640957D+02 -.866814223565578D+01
 0.232146221489264D+02 -.126390741126347D+02 -.141109746115001D+02 -.134183785386444D+02
0.250357567604D-06 0.000000000000D+00 0.000000000000D+00 0.690628324335D-07 0.000000000000D+00  6 -2 22 9900012 11 -1 21 0 0.44623189D-02 0.17003224D-01 0.30098740D+04 0.30098740D+04 0.30098740D+04 0.12674522D+01  1  2  2  1  6  1       -2 0.874707255824D-04 0.100000000000D+01
-.639278389495D-08 0.000000000000D+00 -.480719490130D-09 0.690628324335D-07 0.000000000000D+00  6 -2 22 9900012 11 -1 21 2 0.44623189D-02 0.17003224D-01 0.30098740D+04 0.30098740D+04 0.30098740D+04 0.12674522D+01  1  2  3  1  6  1       -2 -.358802302160D-05 0.100000000000D+01
-.287421529291D-07 0.000000000000D+00 0.000000000000D+00 0.690628324335D-07 0.000000000000D+00  6 -2 22 9900012 11 -1 21 2 0.44623189D-02 0.17003224D-01 0.30098740D+04 0.30098740D+04 0.30098740D+04 0.12674522D+01  1  2 15  1  6  1       -2 -.161318618140D-04 0.100000000000D+01
-.131210304773D-07 0.000000000000D+00 0.000000000000D+00 0.690628324335D-07 0.000000000000D+00  6 -2 22 9900012 11 -1 21 2 0.44623189D-02 0.17003224D-01 0.30098740D+04 0.30098740D+04 0.30098740D+04 0.12674522D+01  1  2  4  1  6  1       -2 -.736432831038D-05 0.100000000000D+01
  </mgrwgt>
  </event>
  <event>
  6     66 0.12711138E-05 0.53988703E+02 0.78161638E-02 0.10762873E+00
       -2 -1    0    0    0  501 0.00000000E+00 0.00000000E+00 0.33200031E+03 0.33200031E+03 0.00000000E+00 0.0000E+00 0.9000E+01
       22 -1    0    0    0    0 0.00000000E+00 0.00000000E+00 -.43146980E+03 0.43146980E+03 0.00000000E+00 0.0000E+00 0.9000E+01
      -24  2    1    2    0    0 0.32094892E+01 -.53893221E+02 -.42384160E+03 0.43463575E+03 0.79697905E+02 0.0000E+00 0.0000E+00
  9900012  1    3    3    0    0 -.21878951E+02 -.37528142E+02 -.28384058E+03 0.29146616E+03 0.50000000E+02 0.0000E+00 0.9000E+01
       11  1    3    3    0    0 0.25088440E+02 -.16365079E+02 -.14000102E+03 0.14316959E+03 0.00000000E+00 0.0000E+00 0.9000E+01
       -1  1    1    2    0  501 -.32094892E+01 0.53893221E+02 0.32437210E+03 0.32883437E+03 0.00000000E+00 0.0000E+00 0.9000E+01
#aMCatNLO 1  0  0  1  5 0.16790766D+03 0.00000000D+00  -5  6  0 0.00000000D+00 0.00000000D+00 0.00000000D+00 0.00000000D+00 0.00000000D+00
  <mgrwgt>
 0.7844076903D-04    7    4    0
 0.378481319564574D+03 0.000000000000000D+00 0.000000000000000D+00 0.378481319564574D+03
 0.378481319564574D+03 0.000000000000000D+00 0.000000000000000D+00 -.378481319564574D+03
 0.256673466119183D+03 -.218789511659339D+02 -.375281418150330D+02 -.247980278000943D+03
 0.126003407926472D+03 0.250884403611783D+02 -.163650792168116D+02 -.122391229880069D+03
 0.374285765083494D+03 -.320948919524440D+01 0.538932210318446D+02 0.370371507881012D+03
 0.000000000000000D+00 0.000000000000000D+00 0.000000000000000D+00 0.000000000000000D+00
 0.604956542404440D+03 0.000000000000000D+00 0.000000000000000D+00 0.604956542404440D+03
 0.413535967231005D+03 0.000000000000000D+00 0.000000000000000D+00 -.413535967231005D+03
 0.270818644289618D+03 -.475650964952319D+02 -.841788655948793D+02 -.247980278000943D+03
 0.129054366013184D+03 0.126684421858427D+02 -.389220606866199D+02 -.122391229880069D+03
 0.372679353967614D+03 -.395828381520537D+02 -.121674133443313D+02 0.370371507881012D+03
 0.245940145365030D+03 0.744794924614429D+02 0.135268339625830D+03 0.191420575173435D+03
 0.378481319564574D+03 0.000000000000000D+00 0.000000000000000D+00 0.378481319564574D+03
 0.378481319564574D+03 0.000000000000000D+00 0.000000000000000D+00 -.378481319564574D+03
 0.256673466119183D+03 -.218789511659339D+02 -.375281418150330D+02 -.247980278000943D+03
 0.126003407926472D+03 0.250884403611783D+02 -.163650792168116D+02 -.122391229880069D+03
 0.000000000000000D+00 0.000000000000000D+00 0.000000000000000D+00 0.000000000000000D+00
 0.374285765083494D+03 -.320948919524440D+01 0.538932210318446D+02 0.370371507881012D+03
 0.604956542404440D+03 0.000000000000000D+00 0.000000000000000D+00 0.604956542404440D+03
 0.413535967231005D+03 0.000000000000000D+00 0.000000000000000D+00 -.413535967231005D+03
 0.270818644289618D+03 -.475650964952319D+02 -.841788655948793D+02 -.247980278000943D+03
 0.129054366013184D+03 0.126684421858427D+02 -.389220606866199D+02 -.122391229880069D+03
 0.245940145365030D+03 0.744794924614429D+02 0.135268339625830D+03 0.191420575173435D+03
 0.372679353967614D+03 -.395828381520537D+02 -.121674133443313D+02 0.370371507881012D+03
0.725138139123D-04 0.000000000000D+00 0.000000000000D+00 0.307399477088D-03 0.000000000000D+00  6 -2 22 9900012 11 -1 21 0 0.51076971D-01 0.66379970D-01 0.56383258D+04 0.56383258D+04 0.56383258D+04 0.12360143D+01  1  2  2  1  6  1       -2 0.660992820712D-04 0.100000000000D+01
0.302190851870D-05 0.000000000000D+00 -.139236069375D-06 0.307399477088D-03 0.000000000000D+00  6 -2 22 9900012 11 -1 21 2 0.51076971D-01 0.66379970D-01 0.56383258D+04 0.56383258D+04 0.56383258D+04 0.12360143D+01  1  2  3  1  6  1       -2 0.420827663144D-05 0.100000000000D+01
-.119977502938D-04 0.000000000000D+00 0.000000000000D+00 0.307399477088D-03 0.000000000000D+00  6 -2 22 9900012 11 -1 21 2 0.51076971D-01 0.66379970D-01 0.56383258D+04 0.56383258D+04 0.56383258D+04 0.12360143D+01  1  2 15  1  6  1       -2 -.167079353589D-04 0.100000000000D+01
-.107002810660D-05 0.000000000000D+00 0.000000000000D+00 0.307399477088D-03 0.000000000000D+00  6 -2 22 9900012 11 -1 21 2 0.51076971D-01 0.66379970D-01 0.56383258D+04 0.56383258D+04 0.56383258D+04 0.12360143D+01  1  2  4  1  6  1       -2 -.149010939547D-05 0.100000000000D+01
-.934519214227D-05 0.000000000000D+00 -.213918079550D-04 0.307399477088D-03 0.000000000000D+00  6 -2 22 9900012 11 -1 21 2 0.86727279D-01 0.66379970D-01 0.56383258D+04 0.56383258D+04 0.56383258D+04 0.12360143D+01  1  2  5  1  6  1       -2 -.443494326539D-05 0.100000000000D+01
0.204245214410D-04 0.000000000000D+00 0.187080450840D-04 0.307399477088D-03 0.000000000000D+00  6 -2 22 9900012 11 -1 21 2 0.51076971D-01 0.66379970D-01 0.56383258D+04 0.56383258D+04 0.56383258D+04 0.12360143D+01  1  2  6  1  6  1       -2 0.284429643573D-04 0.100000000000D+01
0.475283192694D-06 0.000000000000D+00 -.126289107473D-05 0.307399477088D-03 0.000000000000D+00  6 21 22 9900012 11 2 -1 2 0.86727279D-01 0.66379970D-01 0.56383258D+04 0.56383258D+04 0.56383258D+04 0.12360143D+01  3  4  5  3  5  1       -2 0.232323398808D-05 0.100000000000D+01
  </mgrwgt>
  </event>
  <event>
  6     66 0.12711138E-05 0.41550250E+02 0.78161638E-02 0.12126421E+00
       -2 -1    0    0    0  501 0.00000000E+00 0.00000000E+00 0.11089739E+03 0.11089739E+03 0.00000000E+00 0.0000E+00 0.9000E+01
       22 -1    0    0    0    0 0.00000000E+00 0.00000000E+00 -.68506324E+02 0.68506324E+02 0.00000000E+00 0.0000E+00 0.9000E+01
      -24  2    1    2    0    0 0.15558493E+02 -.62061438E+02 -.35656521E+01 0.10062739E+03 0.77585242E+02 0.0000E+00 0.0000E+00
  9900012  1    3    3    0    0 0.22305908E+01 -.48636682E+02 -.23024318E+02 0.73488921E+02 0.50000000E+02 0.0000E+00 0.9000E+01
       11  1    3    3    0    0 0.13327902E+02 -.13424756E+02 0.19458666E+02 0.27138473E+02 0.00000000E+00 0.0000E+00 0.9000E+01
       -1  1    1    2    0  501 -.15558493E+02 0.62061438E+02 0.45956721E+02 0.78776322E+02 0.00000000E+00 0.0000E+00 0.9000E+01
#aMCatNLO 1  0  0  5  1 0.17764447D+01 0.00000000D+00  -5  6  0 0.00000000D+00 0.00000000D+00 0.00000000D+00 0.00000000D+00 0.00000000D+00
  <mgrwgt>
 0.3772419040D-04    8    2    0
 0.871617615467401D+02 0.000000000000000D+00 0.000000000000000D+00 0.871617615467401D+02
 0.871617615467401D+02 -.000000000000000D+00 -.000000000000000D+00 -.871617615467401D+02
 0.812294907181612D+02 0.223059083639680D+01 -.486366816713342D+02 -.415659454704657D+02
 0.231974962394617D+02 0.133279020334206D+02 -.134247559899920D+02 0.134263467025306D+02
 0.698965361358573D+02 -.155584928698174D+02 0.620614376613262D+02 0.281395987679351D+02
 0.000000000000000D+00 0.000000000000000D+00 0.000000000000000D+00 0.000000000000000D+00
 0.871617615467401D+02 0.000000000000000D+00 0.000000000000000D+00 0.871617615467401D+02
 0.871617615467401D+02 -.000000000000000D+00 -.000000000000000D+00 -.871617615467401D+02
 0.811910410381785D+02 0.221908137744020D+01 -.485907714681077D+02 -.415451290867848D+02
 0.231914642380527D+02 0.133246148145519D+02 -.134116435676895D+02 0.134322920740265D+02
 0.500546355785199D+02 -.123209315569704D+02 0.436349378413283D+02 0.212050321398082D+02
 0.198863822387290D+02 -.322276463502173D+01 0.183674771944689D+02 0.690780487295005D+01
0.516529734640D-07 0.000000000000D+00 0.000000000000D+00 0.380998271159D-07 0.000000000000D+00  6 -2 22 9900012 11 -1 21 0 0.17061137D-01 0.10539434D-01 0.58284090D+04 0.58284090D+04 0.58284090D+04 0.12344205D+01  1  2  2  2  6  5       -1 0.518046186858D-05 0.100000000000D+01
-.124717359990D-08 0.000000000000D+00 -.991805093210D-10 0.380998271159D-07 0.000000000000D+00  6 -2 22 9900012 11 -1 21 2 0.17061137D-01 0.10539434D-01 0.58284090D+04 0.58284090D+04 0.58284090D+04 0.12344205D+01  1  2  3  2  6  5       -1 -.190601504975D-06 0.100000000000D+01
-.758283581528D-08 0.000000000000D+00 0.000000000000D+00 0.380998271159D-07 0.000000000000D+00  6 -2 22 9900012 11 -1 21 2 0.17061137D-01 0.10539434D-01 0.58284090D+04 0.58284090D+04 0.58284090D+04 0.12344205D+01  1  2 15  2  6  5       -1 -.115886025689D-05 0.100000000000D+01
0.174698461582D-08 0.000000000000D+00 0.000000000000D+00 0.380998271159D-07 0.000000000000D+00  6 -2 22 9900012 11 -1 21 2 0.17061137D-01 0.10539434D-01 0.58256020D+04 0.58256020D+04 0.58256020D+04 0.12344436D+01  1  2 12  2  6  5       -1 0.266983677651D-06 0.100000000000D+01
-.351698827678D-05 0.000000000000D+00 0.000000000000D+00 0.380998271159D-07 0.000000000000D+00  6 -2 22 9900012 11 -1 21 2 0.17061137D-01 0.10539434D-01 0.58284090D+04 0.58284090D+04 0.58284090D+04 0.12344205D+01  1  2  4  2  6  5       -1 -.537489936113D-03 0.100000000000D+01
-.300823033270D-05 0.000000000000D+00 0.000000000000D+00 0.380998271159D-07 0.000000000000D+00  6 -2 22 9900012 11 -1 21 2 0.17061137D-01 0.10539434D-01 0.58284090D+04 0.58284090D+04 0.58284090D+04 0.12344205D+01  1  2  5  2  6  5       -1 -.459738106042D-03 0.100000000000D+01
0.397934196352D-05 0.000000000000D+00 -.000000000000D+00 0.380998271159D-07 0.000000000000D+00  6 -2 22 9900012 11 -1 21 2 0.17061137D-01 0.10539434D-01 0.58284090D+04 0.58284090D+04 0.58284090D+04 0.12344205D+01  1  2  6  2  6  5       -1 0.608149953716D-03 0.100000000000D+01
0.276592901484D-05 0.000000000000D+00 0.000000000000D+00 0.380998271159D-07 0.487909203328D-07  6 -2 22 9900012 11 -1 21 2 0.17061137D-01 0.10539434D-01 0.58256020D+04 0.58256020D+04 0.58256020D+04 0.12344436D+01  1  2 11  2  6  5       -1 0.422704295057D-03 0.100000000000D+01
  </mgrwgt>
  </event>
  <event>
  7     66 0.12711138E-05 0.89068490E+02 0.78161638E-02 0.11372496E+00
       -2 -1    0    0    0  501 0.00000000E+00 0.00000000E+00 0.32215028E+02 0.32215028E+02 0.00000000E+00 0.0000E+00 0.9000E+01
       22 -1    0    0    0    0 -.00000000E+00 -.00000000E+00 -.18278112E+04 0.18278112E+04 0.00000000E+00 0.0000E+00 0.9000E+01
      -24  2    1    2    0    0 -.89431011E+02 -.57226854E+02 -.17162067E+04 0.17213487E+04 0.80020282E+02 0.0000E+00 0.0000E+00
  9900012  1    3    3    0    0 -.51348396E+02 -.20011994E+02 -.75191483E+03 0.75558788E+03 0.50000000E+02 0.0000E+00 0.9000E+01
       11  1    3    3    0    0 -.38082615E+02 -.37214860E+02 -.96429182E+03 0.96576081E+03 0.00000000E+00 0.0000E+00 0.9000E+01
       -1  1    1    2    0  502 0.52892922E+02 0.30605285E+02 -.69229520E+02 0.92342142E+02 0.00000000E+00 0.0000E+00 0.9000E+01
       21  1    1    2  502  501 0.36538089E+02 0.26621569E+02 -.10159961E+02 0.46335350E+02 0.00000000E+00 0.0000E+00 0.9000E+01
#aMCatNLO 2  0  0  5  1 0.20023235D+02 0.00000000D+00  -5  6  0 0.00000000D+00 0.00000000D+00 0.00000000D+00 0.00000000D+00 0.00000000D+00
  <mgrwgt>
 0.2211204391D-04    2    2    0
 0.242658168976294D+03 0.000000000000000D+00 0.000000000000000D+00 0.242658168976294D+03
 0.242658168976294D+03 -.000000000000000D+00 -.000000000000000D+00 -.242658168976294D+03
 0.114639089057416D+03 -.516648782455323D+02 -.202145106189206D+02 -.869726086548291D+02
 0.134616061164507D+03 -.384541076754340D+02 -.374525776880096D+02 -.123450678211406D+03
 0.236061187730665D+03 0.901189859209664D+02 0.576670883069302D+02 0.210423286866235D+03
 0.000000000000000D+00 0.000000000000000D+00 0.000000000000000D+00 0.000000000000000D+00
 0.242658168976294D+03 0.000000000000000D+00 0.000000000000000D+00 0.242658168976294D+03
 0.242658168976294D+03 -.000000000000000D+00 -.000000000000000D+00 -.242658168976294D+03
 0.113900738148600D+03 -.513483961152196D+02 -.200119938820776D+02 -.862336388427050D+02
 0.133648371779682D+03 -.380826148802251D+02 -.372148596576993D+02 -.122583261271278D+03
 0.977724005500785D+02 0.528929223549409D+02 0.306052848364564D+02 0.763223271013048D+02
 0.139994827474228D+03 0.365380886405038D+02 0.266215687033205D+02 0.132494573012678D+03
-.169935112420D-04 0.000000000000D+00 0.000000000000D+00 0.155574547642D-04 0.000000000000D+00  6 -2 22 9900012 11 -1 21 2 0.49561581D-02 0.28120172D+00 0.13686176D+05 0.13686176D+05 0.13686176D+05 0.11954539D+01  1  2 13  2  6  5       -1 -.405008955299D-04 0.100000000000D+01
0.262713620615D-04 0.000000000000D+00 0.000000000000D+00 0.155574547642D-04 0.141586113509D-06  6 -2 22 9900012 11 -1 21 2 0.49561581D-02 0.28120172D+00 0.13686176D+05 0.13686176D+05 0.13686176D+05 0.11954539D+01  1  2  1  2  6  5       -1 0.626129394407D-04 0.100000000000D+01
  </mgrwgt>
  </event>
  <event>
  6     66 0.12711138E-05 0.18517782E+02 0.78161638E-02 0.12881295E+00
       -4 -1    0    0    0  501 0.00000000E+00 0.00000000E+00 0.19073731E+02 0.19073731E+02 0.00000000E+00 0.0000E+00 0.9000E+01
       22 -1    0    0    0    0 0.00000000E+00 0.00000000E+00 -.41487344E+03 0.41487344E+03 0.00000000E+00 0.0000E+00 0.9000E+01
      -24  2    1    2    0    0 0.24702376E+02 -.60623684E+01 -.39969489E+03 0.40821525E+03 0.78972938E+02 0.0000E+00 0.0000E+00
  9900012  1    3    3    0    0 -.27072511E+01 -.79090141E+01 -.31824329E+03 0.32225560E+03 0.50000000E+02 0.0000E+00 0.9000E+01
       11  1    3    3    0    0 0.27409627E+02 0.18466457E+01 -.81451601E+02 0.85959648E+02 0.00000000E+00 0.0000E+00 0.9000E+01
       -3  1    1    2    0  501 -.24702376E+02 0.60623684E+01 0.38951745E+01 0.25731927E+02 0.00000000E+00 0.0000E+00 0.9000E+01
#aMCatNLO 1  0  0  1  5 0.19248593D+01 0.00000000D+00  -5  6  0 0.00000000D+00 0.00000000D+00 0.00000000D+00 0.00000000D+00 0.00000000D+00
  <mgrwgt>
 0.3471177593D-04    8    4    0
 0.889560803791730D+02 0.000000000000000D+00 0.000000000000000D+00 0.889560803791730D+02
 0.889560803791730D+02 0.000000000000000D+00 0.000000000000000D+00 -.889560803791730D+02
 0.780233624869999D+02 -.270725105182347D+01 -.790901405585774D+01 -.593107358088266D+02
 0.284602578394793D+02 0.274096270491752D+02 0.184664568772489D+01 -.743562512629385D+01
 0.714285404318669D+02 -.247023759973517D+02 0.606236836813285D+01 0.667463609351204D+02
 0.000000000000000D+00 -.000000000000000D+00 -.000000000000000D+00 -.000000000000000D+00
 0.896278563482956D+02 0.000000000000000D+00 0.000000000000000D+00 0.896278563482956D+02
 0.896430275820061D+02 0.000000000000000D+00 0.000000000000000D+00 -.896430275820061D+02
 0.779664371238951D+02 -.232295765775263D+01 -.745692988636409D+01 -.593107358088266D+02
 0.286068389207047D+02 0.275502164233422D+02 0.201203554724516D+01 -.743562512629385D+01
 0.713440330636936D+02 -.243506443008838D+02 0.647614683618791D+01 0.667463609351204D+02
 0.135357482200832D+01 -.876614464705865D+00 -.103125249706898D+01 -.151712337105953D-01
 0.889560803791730D+02 0.000000000000000D+00 0.000000000000000D+00 0.889560803791730D+02
 0.889560803791730D+02 0.000000000000000D+00 0.000000000000000D+00 -.889560803791730D+02
 0.780233624869999D+02 -.270725105182347D+01 -.790901405585774D+01 -.593107358088266D+02
 0.284602578394793D+02 0.274096270491752D+02 0.184664568772489D+01 -.743562512629385D+01
 0.000000000000000D+00 -.000000000000000D+00 -.000000000000000D+00 -.000000000000000D+00
 0.714285404318669D+02 -.247023759973517D+02 0.606236836813285D+01 0.667463609351204D+02
 0.896278563482956D+02 0.000000000000000D+00 0.000000000000000D+00 0.896278563482956D+02
 0.896430275820061D+02 0.000000000000000D+00 0.000000000000000D+00 -.896430275820061D+02
 0.779664371238951D+02 -.232295765775263D+01 -.745692988636409D+01 -.593107358088266D+02
 0.286068389207047D+02 0.275502164233422D+02 0.201203554724516D+01 -.743562512629385D+01
 0.135357482200832D+01 -.876614464705865D+00 -.103125249706898D+01 -.151712337105953D-01
 0.713440330636936D+02 -.243506443008838D+02 0.647614683618791D+01 0.667463609351204D+02
0.266854337470D-06 0.000000000000D+00 0.000000000000D+00 0.582309037661D-06 0.000000000000D+00  6 -4 22 9900012 11 -3 21 0 0.29344201D-02 0.63826683D-01 0.26833004D+04 0.26833004D+04 0.26833004D+04 0.12734809D+01  1  2  2  1  6  1       -4 0.146885184275D-04 0.100000000000D+01
0.175708091852D-07 0.000000000000D+00 -.512395460123D-09 0.582309037661D-06 0.000000000000D+00  6 -4 22 9900012 11 -3 21 2 0.29344201D-02 0.63826683D-01 0.26833004D+04 0.26833004D+04 0.26833004D+04 0.12734809D+01  1  2  3  1  6  1       -4 0.156848493061D-05 0.100000000000D+01
-.425418031668D-07 0.000000000000D+00 0.000000000000D+00 0.582309037661D-06 0.000000000000D+00  6 -4 22 9900012 11 -3 21 2 0.29344201D-02 0.63826683D-01 0.26833004D+04 0.26833004D+04 0.26833004D+04 0.12734809D+01  1  2 15  1  6  1       -4 -.379755858053D-05 0.100000000000D+01
0.577733352815D-10 0.000000000000D+00 0.000000000000D+00 0.582309037661D-06 0.000000000000D+00  6 -4 22 9900012 11 -3 21 2 0.29794118D-02 0.63826683D-01 0.27447400D+04 0.27447400D+04 0.27447400D+04 0.12722859D+01  1  2 12  1  6  1       -4 0.505093401188D-08 0.100000000000D+01
-.534591313246D-07 0.000000000000D+00 0.000000000000D+00 0.582309037661D-06 0.000000000000D+00  6 -4 22 9900012 11 -3 21 2 0.29344201D-02 0.63826683D-01 0.26833004D+04 0.26833004D+04 0.26833004D+04 0.12734809D+01  1  2  4  1  6  1       -4 -.477211043626D-05 0.100000000000D+01
0.540824124162D-07 0.000000000000D+00 0.000000000000D+00 0.582309037661D-06 0.105724137283D-06  6 -4 22 9900012 11 -3 21 2 0.29565801D-02 0.64319573D-01 0.27447400D+04 0.27447400D+04 0.27447400D+04 0.12722859D+01  1  2 11  1  6  1       -4 0.471912924060D-05 0.100000000000D+01
0.525416369849D-11 0.000000000000D+00 0.000000000000D+00 0.582309037661D-06 0.000000000000D+00  6 21 22 9900012 11 4 -3 2 0.29794118D-02 0.63826683D-01 0.27447400D+04 0.27447400D+04 0.27447400D+04 0.12722859D+01  3  4 12  3  5  1       -4 0.112733965482D-07 0.100000000000D+01
0.104052893863D-07 0.000000000000D+00 0.000000000000D+00 0.582309037661D-06 0.844553825263D-08  6 21 22 9900012 11 4 -3 2 0.29565801D-02 0.64319573D-01 0.27447400D+04 0.27447400D+04 0.27447400D+04 0.12722859D+01  3  4 11  3  5  1       -4 0.222889880171D-04 0.100000000000D+01
  </mgrwgt>
  </event>
  <event>
  6     66 0.12711138E-05 0.20046575E+02 0.78161638E-02 0.12682173E+00
       -2 -1    0    0    0  501 0.00000000E+00 0.00000000E+00 0.61861911E+02 0.61861911E+02 0.00000000E+00 0.0000E+00 0.9000E+01
       22 -1    0    0    0    0 0.00000000E+00 0.00000000E+00 -.85126721E+02 0.85126721E+02 0.00000000E+00 0.0000E+00 0.9000E+01
      -24  2    1    2    0    0 0.29487697E+02 -.69964235E+01 -.54579339E+02 0.10341027E+03 0.82439704E+02 0.0000E+00 0.0000E+00
  9900012  1    3    3    0    0 0.31673505E+01 -.10226683E+02 -.10854623E+02 0.52272746E+02 0.50000000E+02 0.0000E+00 0.9000E+01
       11  1    3    3    0    0 0.26320346E+02 0.32302596E+01 -.43724717E+02 0.51137521E+02 0.00000000E+00 0.0000E+00 0.9000E+01
       -1  1    1    2    0  501 -.29487697E+02 0.69964235E+01 0.31314529E+02 0.43578366E+02 0.00000000E+00 0.0000E+00 0.9000E+01
#aMCatNLO 1  0  0  1  5 0.94539964D+01 0.00000000D+00  -5  6  0 0.00000000D+00 0.00000000D+00 0.00000000D+00 0.00000000D+00 0.00000000D+00
  <mgrwgt>
 0.6099684693D-04   11    4    0
 0.725679108790045D+02 0.000000000000000D+00 0.000000000000000D+00 0.725679108790045D+02
 0.725679108790045D+02 0.000000000000000D+00 0.000000000000000D+00 -.725679108790045D+02
 0.512001010995218D+02 0.316735046048748D+01 -.102266830447976D+02 -.261403855422056D+01
 0.447814122367766D+02 0.263203460854535D+02 0.323025956846735D+01 -.360857269149785D+02
 0.491543084217107D+02 -.294876965459410D+02 0.699642347633021D+01 0.386997654691991D+02
 0.000000000000000D+00 0.000000000000000D+00 -.000000000000000D+00 0.000000000000000D+00
 0.761149103500651D+02 0.000000000000000D+00 0.000000000000000D+00 0.761149103500651D+02
 0.759452080959282D+02 0.000000000000000D+00 0.000000000000000D+00 -.759452080959282D+02
 0.507631834964289D+02 0.210916032245519D+01 -.810055824393223D+01 -.261403855422056D+01
 0.444182045389956D+02 0.253946191910873D+02 0.509023807157439D+01 -.360857269149785D+02
 0.501119933978560D+02 -.305178969954523D+02 0.906631115232164D+01 0.386997654691991D+02
 0.676673701271273D+01 0.301411748190981D+01 -.605599097996380D+01 0.169702254136933D+00
 0.725679108790045D+02 0.000000000000000D+00 0.000000000000000D+00 0.725679108790045D+02
 0.725679108790045D+02 0.000000000000000D+00 0.000000000000000D+00 -.725679108790045D+02
 0.512001010995218D+02 0.316735046048748D+01 -.102266830447976D+02 -.261403855422056D+01
 0.447814122367766D+02 0.263203460854535D+02 0.323025956846735D+01 -.360857269149785D+02
 0.000000000000000D+00 0.000000000000000D+00 -.000000000000000D+00 0.000000000000000D+00
 0.491543084217107D+02 -.294876965459410D+02 0.699642347633021D+01 0.386997654691991D+02
 0.761149103500651D+02 0.000000000000000D+00 0.000000000000000D+00 0.761149103500651D+02
 0.759452080959282D+02 0.000000000000000D+00 0.000000000000000D+00 -.759452080959282D+02
 0.507631834964289D+02 0.210916032245519D+01 -.810055824393223D+01 -.261403855422056D+01
 0.444182045389956D+02 0.253946191910873D+02 0.509023807157439D+01 -.360857269149785D+02
 0.676673701271273D+01 0.301411748190981D+01 -.605599097996380D+01 0.169702254136933D+00
 0.501119933978560D+02 -.305178969954523D+02 0.906631115232164D+01 0.386997654691991D+02
0.147205413738D-06 0.000000000000D+00 0.000000000000D+00 0.100330307913D-06 0.000000000000D+00  6 -2 22 9900012 11 -1 21 0 0.95172171D-02 0.13096419D-01 0.29137051D+04 0.29137051D+04 0.29137051D+04 0.12691479D+01  1  2  2  1  6  1       -2 0.245914181912D-04 0.100000000000D+01
0.318578883038D-08 0.000000000000D+00 -.282653774414D-09 0.100330307913D-06 0.000000000000D+00  6 -2 22 9900012 11 -1 21 2 0.95172171D-02 0.13096419D-01 0.29137051D+04 0.29137051D+04 0.29137051D+04 0.12691479D+01  1  2  3  1  6  1       -2 0.857237715673D-06 0.100000000000D+01
-.205951059156D-07 0.000000000000D+00 0.000000000000D+00 0.100330307913D-06 0.000000000000D+00  6 -2 22 9900012 11 -1 21 2 0.95172171D-02 0.13096419D-01 0.29137051D+04 0.29137051D+04 0.29137051D+04 0.12691479D+01  1  2 15  1  6  1       -2 -.554176767173D-05 0.100000000000D+01
0.187318368146D-06 0.000000000000D+00 0.000000000000D+00 0.100330307913D-06 0.000000000000D+00  6 -2 22 9900012 11 -1 21 2 0.10446982D-01 0.13096419D-01 0.33175492D+04 0.33175492D+04 0.33175492D+04 0.12624139D+01  1  2 12  1  6  1       -2 0.440156492596D-04 0.100000000000D+01
-.139165927939D-07 0.000000000000D+00 0.000000000000D+00 0.100330307913D-06 0.000000000000D+00  6 -2 22 9900012 11 -1 21 2 0.95172171D-02 0.13096419D-01 0.29137051D+04 0.29137051D+04 0.29137051D+04 0.12691479D+01  1  2  4  1  6  1       -2 -.374470150151D-05 0.100000000000D+01
-.835258954181D-06 0.000000000000D+00 -.185610211911D-06 0.100330307913D-06 0.000000000000D+00  6 -2 22 9900012 11 -1 21 2 0.10437443D-01 0.13096419D-01 0.29137051D+04 0.29137051D+04 0.29137051D+04 0.12691479D+01  1  2  5  1  6  1       -2 -.195803091407D-03 0.100000000000D+01
0.849556877449D-06 0.000000000000D+00 0.184822423856D-06 0.100330307913D-06 0.000000000000D+00  6 -2 22 9900012 11 -1 21 2 0.95172171D-02 0.13096419D-01 0.29137051D+04 0.29137051D+04 0.29137051D+04 0.12691479D+01  1  2  6  1  6  1       -2 0.228600273192D-03 0.100000000000D+01
0.176016449751D-12 0.000000000000D+00 0.000000000000D+00 0.100330307913D-06 0.132901559066D-08  6 -2 22 9900012 11 -1 21 2 0.99824030D-02 0.13705924D-01 0.33175492D+04 0.33175492D+04 0.33175492D+04 0.12624139D+01  1  2 11  1  6  1       -2 0.414934019145D-10 0.100000000000D+01
0.290610018076D-08 0.000000000000D+00 0.000000000000D+00 0.100330307913D-06 0.000000000000D+00  6 21 22 9900012 11 2 -1 2 0.10446982D-01 0.13096419D-01 0.33175492D+04 0.33175492D+04 0.33175492D+04 0.12624139D+01  3  4 12  3  5  1       -2 0.100913146112D-04 0.100000000000D+01
-.121273294485D-07 0.000000000000D+00 -.281198812894D-08 0.100330307913D-06 0.000000000000D+00  6 21 22 9900012 11 2 -1 2 0.10437443D-01 0.13096419D-01 0.29137051D+04 0.29137051D+04 0.29137051D+04 0.12691479D+01  3  4  5  3  5  1       -2 -.420696295775D-04 0.100000000000D+01
0.292745067955D-13 0.000000000000D+00 0.000000000000D+00 0.100330307913D-06 0.153571409917D-09  6 21 22 9900012 11 2 -1 2 0.99824030D-02 0.13705924D-01 0.33175492D+04 0.33175492D+04 0.33175492D+04 0.12624139D+01  3  4 11  3  5  1       -2 0.102626280022D-09 0.100000000000D+01
  </mgrwgt>
  </event>
  <event>
  7     66 -.12711138E-05 0.56036969E+02 0.78161638E-02 0.12042218E+00
       -4 -1    0    0    0  502 0.00000000E+00 0.00000000E+00 0.84310795E+02 0.84310795E+02 0.00000000E+00 0.0000E+00 0.9000E+01
       22 -1    0    0    0    0 0.00000000E+00 0.00000000E+00 -.61740031E+03 0.61740031E+03 0.00000000E+00 0.0000E+00 0.9000E+01
      -24  2    1    2    0    0 0.43878003E+02 -.40650331E+02 -.60119935E+03 0.60948801E+03 0.80356975E+02 0.0000E+00 0.0000E+00
  9900012  1    3    3    0    0 0.18346963E+02 -.47537895E+02 -.37377894E+03 0.38053535E+03 0.50000000E+02 0.0000E+00 0.9000E+01
       11  1    3    3    0    0 0.25531041E+02 0.68875646E+01 -.22742041E+03 0.22895265E+03 0.00000000E+00 0.0000E+00 0.9000E+01
       -3  1    1    2    0  501 -.41668967E+02 0.30979065E+02 0.60460204E+02 0.79695932E+02 0.00000000E+00 0.0000E+00 0.9000E+01
       21  1    1    2  501  502 -.22090364E+01 0.96712651E+01 0.76496264E+01 0.12527170E+02 0.00000000E+00 0.0000E+00 0.9000E+01
#aMCatNLO 2  0  0  1  5 0.10082756D+02 0.00000000D+00  -5  6  0 0.00000000D+00 0.00000000D+00 0.00000000D+00 0.00000000D+00 0.00000000D+00
  <mgrwgt>
 -.3359959822D-04    2    2    0
 0.213586788733919D+03 0.000000000000000D+00 0.000000000000000D+00 0.213586788733919D+03
 0.213586788733919D+03 0.000000000000000D+00 0.000000000000000D+00 -.213586788733919D+03
 0.139619288805218D+03 0.176221194308700D+02 -.443644964534063D+02 -.121304567793941D+03
 0.815256024523249D+02 0.251096238837173D+02 0.873254677877459D+01 -.770692757873673D+02
 0.206028686210296D+03 -.427317433145873D+02 0.356319496746317D+02 0.198373843581308D+03
 0.000000000000000D+00 -.000000000000000D+00 0.000000000000000D+00 0.000000000000000D+00
 0.242683179721660D+03 0.000000000000000D+00 0.000000000000000D+00 0.242683179721660D+03
 0.214491632615420D+03 0.000000000000000D+00 0.000000000000000D+00 -.214491632615420D+03
 0.140752480252325D+03 0.183469628899460D+02 -.475378952228793D+02 -.121304567793941D+03
 0.814797266213091D+02 0.255310405868708D+02 0.688756462369301D+01 -.770692757873673D+02
 0.205056546192897D+03 -.416689671198520D+02 0.309790654878893D+02 0.198373843581308D+03
 0.298860592705487D+02 -.220903635696471D+01 0.967126511129706D+01 0.281915471062403D+02
-.104969664200D-04 0.000000000000D+00 0.000000000000D+00 0.264130711327D-04 0.000000000000D+00  6 -4 22 9900012 11 -3 21 2 0.13025842D-01 0.94583966D-01 0.63741613D+04 0.63741613D+04 0.63741613D+04 0.12301503D+01  1  2 13  1  6  1       -4 -.470975003526D-04 0.100000000000D+01
0.301130657611D-05 0.000000000000D+00 0.000000000000D+00 0.264130711327D-04 0.352866144192D-05  6 -4 22 9900012 11 -3 21 2 0.12970892D-01 0.94984664D-01 0.63741613D+04 0.63741613D+04 0.63741613D+04 0.12301503D+01  1  2  1  1  6  1       -4 0.134979021363D-04 0.100000000000D+01
  </mgrwgt>
  </event>
  <event>
  6     66 0.12711138E-05 0.36117658E+02 0.78161638E-02 0.12599353E+00
       -2 -1    0    0    0  501 0.00000000E+00 0.00000000E+00 0.16927587E+03 0.16927587E+03 0.00000000E+00 0.0000E+00 0.9000E+01
       22 -1    0    0    0    0 0.00000000E+00 0.00000000E+00 -.54648676E+02 0.54648676E+02 0.00000000E+00 0.0000E+00 0.9000E+01
      -24  2    1    2    0    0 -.29557323E+02 0.20756923E+02 -.19050266E+02 0.85453797E+02 0.75066329E+02 0.0000E+00 0.0000E+00
  9900012  1    3    3    0    0 -.41850437E+02 0.23814462E+02 -.21251683E+02 0.72596293E+02 0.50000000E+02 0.0000E+00 0.9000E+01
       11  1    3    3    0    0 0.12293114E+02 -.30575392E+01 0.22014174E+01 0.12857505E+02 0.00000000E+00 0.0000E+00 0.9000E+01
       -1  1    1    2    0  501 0.29557323E+02 -.20756923E+02 0.13367746E+03 0.13847075E+03 0.00000000E+00 0.0000E+00 0.9000E+01
#aMCatNLO 1  0  0  5  1 0.73960539D+01 0.00000000D+00  -5  6  0 0.00000000D+00 0.00000000D+00 0.00000000D+00 0.00000000D+00 0.00000000D+00
  <mgrwgt>
 0.1050271850D-03    8    2    0
 0.961805713778876D+02 0.000000000000000D+00 0.000000000000000D+00 0.961805713778876D+02
 0.961805713778876D+02 -.000000000000000D+00 -.000000000000000D+00 -.961805713778876D+02
 0.971719783757574D+02 -.418504365405115D+02 0.238144624846151D+02 -.679985714511426D+02
 0.136554016138355D+02 0.122931138140284D+02 -.305753915271366D+01 -.509909799083200D+01
 0.815337627661823D+02 0.295573227264831D+02 -.207569233319014D+02 0.730976694419746D+02
 0.000000000000000D+00 0.000000000000000D+00 0.000000000000000D+00 0.000000000000000D+00
 0.961805713778876D+02 0.000000000000000D+00 0.000000000000000D+00 0.961805713778876D+02
 0.961805713778876D+02 -.000000000000000D+00 -.000000000000000D+00 -.961805713778876D+02
 0.962677328934464D+02 -.414621863566680D+02 0.235418099384352D+02 -.670383970854872D+02
 0.136635842267649D+02 0.123479453747532D+02 -.309604516060428D+01 -.496349506975783D+01
 0.661249390639704D+02 0.303786323309498D+02 -.178554617875392D+02 0.559538090595135D+02
 0.163048865715936D+02 -.126439134903487D+01 -.259030299029172D+01 0.160480830957315D+02
0.235724691182D-06 0.000000000000D+00 0.000000000000D+00 0.107892736868D-06 0.000000000000D+00  6 -2 22 9900012 11 -1 21 0 0.26042442D-01 0.84074887D-02 0.34928897D+04 0.34928897D+04 0.34928897D+04 0.12597738D+01  1  2  2  2  6  5       -1 0.157155174870D-04 0.100000000000D+01
0.915763230619D-08 0.000000000000D+00 -.452622440937D-09 0.107892736868D-06 0.000000000000D+00  6 -2 22 9900012 11 -1 21 2 0.26042442D-01 0.84074887D-02 0.34928897D+04 0.34928897D+04 0.34928897D+04 0.12597738D+01  1  2  3  2  6  5       -1 0.968928999180D-06 0.100000000000D+01
-.404674850159D-07 0.000000000000D+00 0.000000000000D+00 0.107892736868D-06 0.000000000000D+00  6 -2 22 9900012 11 -1 21 2 0.26042442D-01 0.84074887D-02 0.34928897D+04 0.34928897D+04 0.34928897D+04 0.12597738D+01  1  2 15  2  6  5       -1 -.428168749790D-05 0.100000000000D+01
0.102786258069D-05 0.000000000000D+00 0.000000000000D+00 0.107892736868D-06 0.000000000000D+00  6 -2 22 9900012 11 -1 21 2 0.26042442D-01 0.84074887D-02 0.35963616D+04 0.35963616D+04 0.35963616D+04 0.12582851D+01  1  2 12  2  6  5       -1 0.108791619452D-03 0.100000000000D+01
-.386335184471D-06 0.000000000000D+00 0.000000000000D+00 0.107892736868D-06 0.000000000000D+00  6 -2 22 9900012 11 -1 21 2 0.26042442D-01 0.84074887D-02 0.34928897D+04 0.34928897D+04 0.34928897D+04 0.12597738D+01  1  2  4  2  6  5       -1 -.408764352096D-04 0.100000000000D+01
-.103235420498D-05 0.000000000000D+00 0.000000000000D+00 0.107892736868D-06 0.000000000000D+00  6 -2 22 9900012 11 -1 21 2 0.26042442D-01 0.84074887D-02 0.34928897D+04 0.34928897D+04 0.34928897D+04 0.12597738D+01  1  2  5  2  6  5       -1 -.109228880696D-03 0.100000000000D+01
0.125894043288D-05 0.000000000000D+00 -.000000000000D+00 0.107892736868D-06 0.000000000000D+00  6 -2 22 9900012 11 -1 21 2 0.26042442D-01 0.84074887D-02 0.34928897D+04 0.34928897D+04 0.34928897D+04 0.12597738D+01  1  2  6  2  6  5       -1 0.133202977896D-03 0.100000000000D+01
0.694564177018D-08 0.000000000000D+00 0.000000000000D+00 0.107892736868D-06 0.701571736302D-07  6 -2 22 9900012 11 -1 21 2 0.26042442D-01 0.84074887D-02 0.35963616D+04 0.35963616D+04 0.35963616D+04 0.12582851D+01  1  2 11  2  6  5       -1 0.735144590834D-06 0.100000000000D+01
  </mgrwgt>
  </event>
  <event>
  6     66 0.12711138E-05 0.40688000E+02 0.78161638E-02 0.12285556E+00
       -4 -1    0    0    0  501 0.00000000E+00 0.00000000E+00 0.25112578E+02 0.25112578E+02 0.00000000E+00 0.0000E+00 0.9000E+01
       22 -1    0    0    0    0 0.00000000E+00 0.00000000E+00 -.13588567E+04 0.13588567E+04 0.00000000E+00 0.0000E+00 0.9000E+01
      -24  2    1    2    0    0 -.57357137E+01 0.40797373E+02 -.13393158E+04 0.13423956E+04 0.81005476E+02 0.0000E+00 0.0000E+00
  9900012  1    3    3    0    0 0.16336029E+02 0.41644451E+02 -.88273341E+03 0.88527928E+03 0.50000000E+02 0.0000E+00 0.9000E+01
       11  1    3    3    0    0 -.22071742E+02 -.84707869E+00 -.45658240E+03 0.45711636E+03 0.00000000E+00 0.0000E+00 0.9000E+01
       -3  1    1    2    0  501 0.57357137E+01 -.40797373E+02 0.55716864E+01 0.41573642E+02 0.00000000E+00 0.0000E+00 0.9000E+01
#aMCatNLO 1  0  0  1  5 0.18773694D+02 0.00000000D+00  -5  6  0 0.00000000D+00 0.00000000D+00 0.00000000D+00 0.00000000D+00 0.00000000D+00
  <mgrwgt>
 0.3116984986D-04    6    4    0
 0.184727896225016D+03 0.000000000000000D+00 0.000000000000000D+00 0.184727896225016D+03
 0.184727896225016D+03 0.000000000000000D+00 0.000000000000000D+00 -.184727896225016D+03
 0.129538709856605D+03 0.163360287903297D+02 0.416444513144297D+02 -.110811331502674D+03
 0.640696630146415D+02 -.220717424536738D+02 -.847078692870477D+00 -.601418519963968D+02
 0.175847419578785D+03 0.573571366334407D+01 -.407973726215592D+02 0.170953183499070D+03
 0.000000000000000D+00 -.000000000000000D+00 0.000000000000000D+00 -.000000000000000D+00
 0.187842952278520D+03 0.000000000000000D+00 0.000000000000000D+00 0.187842952278520D+03
 0.192868991594004D+03 0.000000000000000D+00 0.000000000000000D+00 -.192868991594004D+03
 0.130017266427789D+03 0.198208340164035D+02 0.416229854630047D+02 -.110811331502674D+03
 0.635001279286299D+02 -.203589871531326D+02 -.857628995806711D+00 -.601418519963968D+02
 0.176071622011693D+03 0.104605877843146D+02 -.408264771020977D+02 0.170953183499070D+03
 0.111229275044124D+02 -.992243464758552D+01 0.611206348997593D-01 -.502603931548462D+01
 0.184727896225016D+03 0.000000000000000D+00 0.000000000000000D+00 0.184727896225016D+03
 0.184727896225016D+03 0.000000000000000D+00 0.000000000000000D+00 -.184727896225016D+03
 0.129538709856605D+03 0.163360287903297D+02 0.416444513144297D+02 -.110811331502674D+03
 0.640696630146415D+02 -.220717424536738D+02 -.847078692870477D+00 -.601418519963968D+02
 0.000000000000000D+00 -.000000000000000D+00 0.000000000000000D+00 -.000000000000000D+00
 0.175847419578785D+03 0.573571366334407D+01 -.407973726215592D+02 0.170953183499070D+03
 0.187842952278520D+03 0.000000000000000D+00 0.000000000000000D+00 0.187842952278520D+03
 0.192868991594004D+03 0.000000000000000D+00 0.000000000000000D+00 -.192868991594004D+03
 0.130017266427789D+03 0.198208340164035D+02 0.416229854630047D+02 -.110811331502674D+03
 0.635001279286299D+02 -.203589871531326D+02 -.857628995806711D+00 -.601418519963968D+02
 0.111229275044124D+02 -.992243464758552D+01 0.611206348997593D-01 -.502603931548462D+01
 0.176071622011693D+03 0.104605877843146D+02 -.408264771020977D+02 0.170953183499070D+03
0.385524306569D-05 0.000000000000D+00 0.000000000000D+00 0.111228350936D-04 0.000000000000D+00  6 -4 22 9900012 11 -3 21 0 0.38634736D-02 0.20905488D+00 0.42495416D+04 0.42495416D+04 0.42495416D+04 0.12498782D+01  1  2  2  1  6  1       -4 0.132934991248D-04 0.100000000000D+01
0.206878479503D-06 0.000000000000D+00 -.740257424053D-08 0.111228350936D-04 0.000000000000D+00  6 -4 22 9900012 11 -3 21 2 0.38634736D-02 0.20905488D+00 0.42495416D+04 0.42495416D+04 0.42495416D+04 0.12498782D+01  1  2  3  1  6  1       -4 0.111439266755D-05 0.100000000000D+01
-.601466430673D-06 0.000000000000D+00 0.000000000000D+00 0.111228350936D-04 0.000000000000D+00  6 -4 22 9900012 11 -3 21 2 0.38634736D-02 0.20905488D+00 0.42495416D+04 0.42495416D+04 0.42495416D+04 0.12498782D+01  1  2 15  1  6  1       -4 -.323992027460D-05 0.100000000000D+01
0.296584921576D-05 0.000000000000D+00 0.000000000000D+00 0.111228350936D-04 0.000000000000D+00  6 -4 22 9900012 11 -3 21 2 0.41017605D-02 0.20905488D+00 0.49318872D+04 0.49318872D+04 0.49318872D+04 0.12425170D+01  1  2 12  1  6  1       -4 0.146935256607D-04 0.100000000000D+01
-.284319158033D-07 0.000000000000D+00 0.000000000000D+00 0.111228350936D-04 0.000000000000D+00  6 -4 22 9900012 11 -3 21 2 0.38634736D-02 0.20905488D+00 0.42495416D+04 0.42495416D+04 0.42495416D+04 0.12498782D+01  1  2  4  1  6  1       -4 -.153154250610D-06 0.100000000000D+01
0.463557284730D-07 0.000000000000D+00 0.000000000000D+00 0.111228350936D-04 0.000000000000D+00  6 21 22 9900012 11 4 -3 2 0.41017605D-02 0.20905488D+00 0.49318872D+04 0.49318872D+04 0.49318872D+04 0.12425170D+01  3  4 12  3  5  1       -4 0.546150693378D-05 0.100000000000D+01
  </mgrwgt>
  </event>
  <event>
  6     66 0.12711138E-05 0.39349524E+02 0.78161638E-02 0.12388393E+00
       -2 -1    0    0    0  501 0.00000000E+00 0.00000000E+00 0.80486449E+02 0.80486449E+02 0.00000000E+00 0.0000E+00 0.9000E+01
       22 -1    0    0    0    0 0.00000000E+00 0.00000000E+00 -.63217232E+02 0.63217232E+02 0.00000000E+00 0.0000E+00 0.9000E+01
      -24  2    1    2    0    0 -.33862203E+02 0.20465983E+02 -.17256654E+02 0.91191388E+02 0.80327902E+02 0.0000E+00 0.0000E+00
  9900012  1    3    3    0    0 -.26270446E+02 0.37510148E+02 -.23116116E+02 0.71634506E+02 0.50000000E+02 0.0000E+00 0.9000E+01
       11  1    3    3    0    0 -.75917571E+01 -.17044165E+02 0.58594621E+01 0.19556882E+02 0.00000000E+00 0.0000E+00 0.9000E+01
       -1  1    1    2    0  501 0.33862203E+02 -.20465983E+02 0.34525870E+02 0.52512294E+02 0.00000000E+00 0.0000E+00 0.9000E+01
#aMCatNLO 1  0  0  1  5 0.77683500D+01 0.00000000D+00  -5  6  0 0.00000000D+00 0.00000000D+00 0.00000000D+00 0.00000000D+00 0.00000000D+00
  <mgrwgt>
 0.5146731766D-04   11    4    0
 0.713311332130521D+02 0.000000000000000D+00 0.000000000000000D+00 0.713311332130521D+02
 0.713311332130521D+02 0.000000000000000D+00 0.000000000000000D+00 -.713311332130521D+02
 0.749556253691295D+02 -.262704463696415D+02 0.375101483102949D+02 -.319561918218794D+02
 0.189903587469874D+02 -.759175708238411D+01 -.170441650089657D+02 0.353488173614040D+01
 0.487162823099874D+02 0.338622034520256D+02 -.204659833013292D+02 0.284213100857390D+02
 0.000000000000000D+00 -.000000000000000D+00 0.000000000000000D+00 0.000000000000000D+00
 0.781889263088561D+02 0.000000000000000D+00 0.000000000000000D+00 0.781889263088561D+02
 0.731599740093528D+02 0.000000000000000D+00 0.000000000000000D+00 -.731599740093528D+02
 0.728396773567688D+02 -.240358717639148D+02 0.347375484199744D+02 -.319561918218794D+02
 0.194225807535106D+02 -.701097692526151D+01 -.177647813606470D+02 0.353488173614040D+01
 0.505657420840891D+02 0.353632869534925D+02 -.223284872163306D+02 0.284213100857390D+02
 0.852090012384035D+01 -.431643826431616D+01 0.535572015700323D+01 0.502895229950326D+01
 0.713311332130521D+02 0.000000000000000D+00 0.000000000000000D+00 0.713311332130521D+02
 0.713311332130521D+02 0.000000000000000D+00 0.000000000000000D+00 -.713311332130521D+02
 0.749556253691295D+02 -.262704463696415D+02 0.375101483102949D+02 -.319561918218794D+02
 0.189903587469874D+02 -.759175708238411D+01 -.170441650089657D+02 0.353488173614040D+01
 0.000000000000000D+00 -.000000000000000D+00 0.000000000000000D+00 0.000000000000000D+00
 0.487162823099874D+02 0.338622034520256D+02 -.204659833013292D+02 0.284213100857390D+02
 0.781889263088561D+02 0.000000000000000D+00 0.000000000000000D+00 0.781889263088561D+02
 0.731599740093528D+02 0.000000000000000D+00 0.000000000000000D+00 -.731599740093528D+02
 0.728396773567688D+02 -.240358717639148D+02 0.347375484199744D+02 -.319561918218794D+02
 0.194225807535106D+02 -.701097692526151D+01 -.177647813606470D+02 0.353488173614040D+01
 0.852090012384035D+01 -.431643826431616D+01 0.535572015700323D+01 0.502895229950326D+01
 0.505657420840891D+02 0.353632869534925D+02 -.223284872163306D+02 0.284213100857390D+02
0.831321824787D-07 0.000000000000D+00 0.000000000000D+00 0.201854500888D-06 0.000000000000D+00  6 -2 22 9900012 11 -1 21 0 0.12382531D-01 0.97257281D-02 0.39707138D+04 0.39707138D+04 0.39707138D+04 0.12532761D+01  1  2  2  1  6  1       -2 0.147285087550D-04 0.100000000000D+01
0.197306782754D-09 0.000000000000D+00 -.159624734962D-09 0.201854500888D-06 0.000000000000D+00  6 -2 22 9900012 11 -1 21 2 0.12382531D-01 0.97257281D-02 0.39707138D+04 0.39707138D+04 0.39707138D+04 0.12532761D+01  1  2  3  1  6  1       -2 0.549066704618D-07 0.100000000000D+01
-.120411311928D-07 0.000000000000D+00 0.000000000000D+00 0.201854500888D-06 0.000000000000D+00  6 -2 22 9900012 11 -1 21 2 0.12382531D-01 0.97257281D-02 0.39707138D+04 0.39707138D+04 0.39707138D+04 0.12532761D+01  1  2 15  1  6  1       -2 -.335081446852D-05 0.100000000000D+01
0.194154130612D-06 0.000000000000D+00 0.000000000000D+00 0.201854500888D-06 0.000000000000D+00  6 -2 22 9900012 11 -1 21 2 0.13920985D-01 0.97257281D-02 0.44392121D+04 0.44392121D+04 0.44392121D+04 0.12477064D+01  1  2 12  1  6  1       -2 0.453060152928D-04 0.100000000000D+01
-.466228120541D-07 0.000000000000D+00 0.000000000000D+00 0.201854500888D-06 0.000000000000D+00  6 -2 22 9900012 11 -1 21 2 0.12382531D-01 0.97257281D-02 0.39707138D+04 0.39707138D+04 0.39707138D+04 0.12532761D+01  1  2  4  1  6  1       -2 -.129742289734D-04 0.100000000000D+01
-.480530282626D-06 0.000000000000D+00 -.845853050087D-07 0.201854500888D-06 0.000000000000D+00  6 -2 22 9900012 11 -1 21 2 0.13900548D-01 0.97257281D-02 0.39707138D+04 0.39707138D+04 0.39707138D+04 0.12532761D+01  1  2  5  1  6  1       -2 -.112068924644D-03 0.100000000000D+01
0.487610270008D-06 0.000000000000D+00 0.840228608431D-07 0.201854500888D-06 0.000000000000D+00  6 -2 22 9900012 11 -1 21 2 0.12382531D-01 0.97257281D-02 0.39707138D+04 0.39707138D+04 0.39707138D+04 0.12532761D+01  1  2  6  1  6  1       -2 0.135692529346D-03 0.100000000000D+01
0.362122602804D-09 0.000000000000D+00 0.000000000000D+00 0.201854500888D-06 0.786541581826D-08  6 -2 22 9900012 11 -1 21 2 0.13572990D-01 0.99750835D-02 0.44392121D+04 0.44392121D+04 0.44392121D+04 0.12477064D+01  1  2 11  1  6  1       -2 0.847804695786D-07 0.100000000000D+01
0.360897068215D-08 0.000000000000D+00 0.000000000000D+00 0.201854500888D-06 0.000000000000D+00  6 21 22 9900012 11 2 -1 2 0.13920985D-01 0.97257281D-02 0.44392121D+04 0.44392121D+04 0.44392121D+04 0.12477064D+01  3  4 12  3  5  1       -2 0.118892260026D-04 0.100000000000D+01
-.847199369025D-08 0.000000000000D+00 -.155560552362D-08 0.201854500888D-06 0.000000000000D+00  6 21 22 9900012 11 2 -1 2 0.13900548D-01 0.97257281D-02 0.39707138D+04 0.39707138D+04 0.39707138D+04 0.12532761D+01  3  4  5  3  5  1       -2 -.279408482820D-04 0.100000000000D+01
0.139130912979D-10 0.000000000000D+00 0.000000000000D+00 0.201854500888D-06 0.239590325517D-09  6 21 22 9900012 11 2 -1 2 0.13572990D-01 0.99750835D-02 0.44392121D+04 0.44392121D+04 0.44392121D+04 0.12477064D+01  3  4 11  3  5  1       -2 0.461674863895D-07 0.100000000000D+01
  </mgrwgt>
  </event>
  <event>
  7     66 0.12711138E-05 0.19290639E+03 0.78161638E-02 0.10156505E+00
       21 -1    0    0  502  501 0.00000000E+00 0.00000000E+00 0.95540859E+02 0.95540859E+02 0.00000000E+00 0.0000E+00 0.9000E+01
       22 -1    0    0    0    0 0.00000000E+00 0.00000000E+00 -.77672648E+03 0.77672648E+03 0.00000000E+00 0.0000E+00 0.9000E+01
      -24  2    1    2    0    0 0.10193357E+03 -.24201375E+03 -.29930100E+03 0.40594492E+03 0.79051099E+02 0.0000E+00 0.0000E+00
  9900012  1    3    3    0    0 0.52474450E+02 -.13690416E+03 -.20102302E+03 0.25378450E+03 0.50000000E+02 0.0000E+00 0.9000E+01
       11  1    3    3    0    0 0.49459118E+02 -.10510959E+03 -.98277978E+02 0.15216041E+03 0.00000000E+00 0.0000E+00 0.9000E+01
        4  1    1    2  502    0 -.57761296E+02 0.11383096E+03 -.14332158E+03 0.19192428E+03 0.00000000E+00 0.0000E+00 0.9000E+01
       -3  1    1    2    0  501 -.44172272E+02 0.12818279E+03 -.23856304E+03 0.27439815E+03 0.00000000E+00 0.0000E+00 0.9000E+01
#aMCatNLO 2  0  0  1  5 0.17354626D+03 0.00000000D+00  -5  6  0 0.00000000D+00 0.00000000D+00 0.00000000D+00 0.00000000D+00 0.00000000D+00
  <mgrwgt>
 0.2770001103D-05    2    2    0
 0.198289621908015D+03 0.000000000000000D+00 0.000000000000000D+00 0.198289621908015D+03
 0.198289621908015D+03 0.000000000000000D+00 0.000000000000000D+00 -.198289621908015D+03
 0.115796639242305D+03 0.332462361601964D+02 -.990108617479915D+02 -.631424511079569D+00
 0.903717058964588D+02 0.344026613330406D+02 -.754376299258315D+02 0.359536661692999D+02
 0.000000000000000D+00 -.000000000000000D+00 0.000000000000000D+00 0.000000000000000D+00
 0.190410898677266D+03 -.676488974932370D+02 0.174448491673823D+03 -.353222416582203D+02
 0.279366451416235D+03 0.000000000000000D+00 0.000000000000000D+00 0.279366451416235D+03
 0.265633597165368D+03 0.000000000000000D+00 0.000000000000000D+00 -.265633597165368D+03
 0.154908732141961D+03 0.524744496023221D+02 -.136904158942853D+03 -.631424511079569D+00
 0.121601384376677D+03 0.494591184802212D+02 -.105109591239193D+03 0.359536661692999D+02
 0.128383977192598D+03 -.577612960206222D+02 0.113830957985655D+03 0.137328542508666D+02
 0.140105954870367D+03 -.441722720619211D+02 0.128182792196391D+03 -.353222416582203D+02
-.262482112407D-09 0.000000000000D+00 0.000000000000D+00 0.337313836213D-07 0.000000000000D+00  6 21 22 9900012 11 4 -3 2 0.19690593D-01 0.89201414D-01 0.71369069D+05 0.71369069D+05 0.71369069D+05 0.11297363D+01  1  2 13  3  5  1       -4 -.135300841435D-07 0.100000000000D+01
0.566377206406D-07 0.000000000000D+00 0.000000000000D+00 0.337313836213D-07 0.325500267267D-11  6 21 22 9900012 11 4 -3 2 0.14698594D-01 0.11949638D+00 0.71369069D+05 0.71369069D+05 0.71369069D+05 0.11297363D+01  1  2  1  3  5  1       -4 0.278353118704D-05 0.100000000000D+01
  </mgrwgt>
  </event>
  <event>
  6     66 0.12711138E-05 0.25463222E+02 0.78161638E-02 0.12732039E+00
       -4 -1    0    0    0  501 0.00000000E+00 0.00000000E+00 0.17251574E+03 0.17251574E+03 0.00000000E+00 0.0000E+00 0.9000E+01
       22 -1    0    0    0    0 0.00000000E+00 0.00000000E+00 -.17604809E+02 0.17604809E+02 0.00000000E+00 0.0000E+00 0.9000E+01
      -24  2    1    2    0    0 -.88709992E+01 0.23867992E+02 0.89791966E+02 0.12020020E+03 0.75743745E+02 0.0000E+00 0.0000E+00
  9900012  1    3    3    0    0 -.22303965E+02 0.28563005E+01 0.65035390E+02 0.85060139E+02 0.50000000E+02 0.0000E+00 0.9000E+01
       11  1    3    3    0    0 0.13432966E+02 0.21011691E+02 0.24756576E+02 0.35140060E+02 0.00000000E+00 0.0000E+00 0.9000E+01
       -3  1    1    2    0  501 0.88709992E+01 -.23867992E+02 0.65118960E+02 0.69920345E+02 0.00000000E+00 0.0000E+00 0.9000E+01
#aMCatNLO 1  0  0  1  5 0.11001117D+02 0.00000000D+00  -5  6  0 0.00000000D+00 0.00000000D+00 0.00000000D+00 0.00000000D+00 0.00000000D+00
  <mgrwgt>
 0.3992147228D-04    6    4    0
 0.551099492766558D+02 0.000000000000000D+00 0.000000000000000D+00 0.551099492766558D+02
 0.551099492766558D+02 0.000000000000000D+00 0.000000000000000D+00 -.551099492766558D+02
 0.553165757736573D+02 -.223039648511135D+02 0.285630046658991D+01 -.736873495843207D+01
 0.258191411715790D+02 0.134329656491693D+02 0.210116912246976D+02 -.668523122892023D+01
 0.290841816080753D+02 0.887099920194418D+01 -.238679916912875D+02 0.140539661873523D+02
 0.000000000000000D+00 -.000000000000000D+00 0.000000000000000D+00 -.000000000000000D+00
 0.578974750973767D+02 0.000000000000000D+00 0.000000000000000D+00 0.578974750973767D+02
 0.595845462358076D+02 0.000000000000000D+00 0.000000000000000D+00 -.595845462358076D+02
 0.542788397227219D+02 -.197881225935270D+02 0.569553316961271D+00 -.736873495843207D+01
 0.256085256579286D+02 0.146135250442201D+02 0.199386347469081D+02 -.668523122892023D+01
 0.305448729744352D+02 0.102398274017293D+02 -.251121730284723D+02 0.140539661873523D+02
 0.704978297809852D+01 -.506522985242240D+01 0.460398496460297D+01 -.168707113843089D+01
 0.551099492766558D+02 0.000000000000000D+00 0.000000000000000D+00 0.551099492766558D+02
 0.551099492766558D+02 0.000000000000000D+00 0.000000000000000D+00 -.551099492766558D+02
 0.553165757736573D+02 -.223039648511135D+02 0.285630046658991D+01 -.736873495843207D+01
 0.258191411715790D+02 0.134329656491693D+02 0.210116912246976D+02 -.668523122892023D+01
 0.000000000000000D+00 -.000000000000000D+00 0.000000000000000D+00 -.000000000000000D+00
 0.290841816080753D+02 0.887099920194418D+01 -.238679916912875D+02 0.140539661873523D+02
 0.578974750973767D+02 0.000000000000000D+00 0.000000000000000D+00 0.578974750973767D+02
 0.595845462358076D+02 0.000000000000000D+00 0.000000000000000D+00 -.595845462358076D+02
 0.542788397227219D+02 -.197881225935270D+02 0.569553316961271D+00 -.736873495843207D+01
 0.256085256579286D+02 0.146135250442201D+02 0.199386347469081D+02 -.668523122892023D+01
 0.704978297809852D+01 -.506522985242240D+01 0.460398496460297D+01 -.168707113843089D+01
 0.305448729744352D+02 0.102398274017293D+02 -.251121730284723D+02 0.140539661873523D+02
0.118302523667D-06 0.000000000000D+00 0.000000000000D+00 0.604433372046D-08 0.000000000000D+00  6 -4 22 9900012 11 -3 21 0 0.26540882D-01 0.27084321D-02 0.27680985D+04 0.27680985D+04 0.27680985D+04 0.12718394D+01  1  2  2  1  6  1       -4 0.189239936051D-04 0.100000000000D+01
0.164816312951D-08 0.000000000000D+00 -.227156420325D-09 0.604433372046D-08 0.000000000000D+00  6 -4 22 9900012 11 -3 21 2 0.26540882D-01 0.27084321D-02 0.27680985D+04 0.27680985D+04 0.27680985D+04 0.12718394D+01  1  2  3  1  6  1       -4 0.426465104924D-06 0.100000000000D+01
-.160780953626D-07 0.000000000000D+00 0.000000000000D+00 0.604433372046D-08 0.000000000000D+00  6 -4 22 9900012 11 -3 21 2 0.26540882D-01 0.27084321D-02 0.27680985D+04 0.27680985D+04 0.27680985D+04 0.12718394D+01  1  2 15  1  6  1       -4 -.416023541786D-05 0.100000000000D+01
0.908087337791D-07 0.000000000000D+00 0.000000000000D+00 0.604433372046D-08 0.000000000000D+00  6 -4 22 9900012 11 -3 21 2 0.30147312D-01 0.27084321D-02 0.31618943D+04 0.31618943D+04 0.31618943D+04 0.12648934D+01  1  2 12  1  6  1       -4 0.186973638517D-04 0.100000000000D+01
-.104494601552D-07 0.000000000000D+00 0.000000000000D+00 0.604433372046D-08 0.000000000000D+00  6 -4 22 9900012 11 -3 21 2 0.26540882D-01 0.27084321D-02 0.27680985D+04 0.27680985D+04 0.27680985D+04 0.12718394D+01  1  2  4  1  6  1       -4 -.270381617068D-05 0.100000000000D+01
0.181156816552D-08 0.000000000000D+00 0.000000000000D+00 0.604433372046D-08 0.000000000000D+00  6 21 22 9900012 11 4 -3 2 0.30147312D-01 0.27084321D-02 0.31618943D+04 0.31618943D+04 0.31618943D+04 0.12648934D+01  3  4 12  3  5  1       -4 0.873770131003D-05 0.100000000000D+01
  </mgrwgt>
  </event>
  <event>
  6     66 -.12711138E-05 0.20703018E+02 0.78161638E-02 0.12469668E+00
       -2 -1    0    0    0  501 0.00000000E+00 0.00000000E+00 0.59342110E+02 0.59342110E+02 0.00000000E+00 0.0000E+00 0.9000E+01
       22 -1    0    0    0    0 0.00000000E+00 0.00000000E+00 -.66967192E+02 0.66967192E+02 0.00000000E+00 0.0000E+00 0.9000E+01
      -24  2    1    2    0    0 0.20676093E+02 0.10555246E+01 -.36251058E+02 0.90981389E+02 0.80838474E+02 0.0000E+00 0.0000E+00
  9900012  1    3    3    0    0 0.27893168E+02 -.19616885E+02 -.32727685E+02 0.68803723E+02 0.50000000E+02 0.0000E+00 0.9000E+01
       11  1    3    3    0    0 -.72170749E+01 0.20672409E+02 -.35233730E+01 0.22177665E+02 0.00000000E+00 0.0000E+00 0.9000E+01
       -1  1    1    2    0  501 -.20676093E+02 -.10555246E+01 0.28625976E+02 0.35327914E+02 0.00000000E+00 0.0000E+00 0.9000E+01
#aMCatNLO 1  0  0  1  5 0.21208664D+02 0.00000000D+00  -5  6  0 0.00000000D+00 0.00000000D+00 0.00000000D+00 0.00000000D+00 0.00000000D+00
  <mgrwgt>
 -.2624962846D-04    5    4    0
 0.630394677714032D+02 0.000000000000000D+00 0.000000000000000D+00 0.630394677714032D+02
 0.630394677714032D+02 0.000000000000000D+00 0.000000000000000D+00 -.630394677714032D+02
 0.669501134618840D+02 0.278931683930065D+02 -.196168846066630D+02 -.286263285785550D+02
 0.220050985450619D+02 -.721707491956975D+01 0.206724091966804D+02 -.218853594629035D+01
 0.371237235358605D+02 -.206760934734367D+02 -.105552459001746D+01 0.308148645248454D+02
 0.000000000000000D+00 0.000000000000000D+00 0.000000000000000D+00 0.000000000000000D+00
 0.242195079063449D+03 0.000000000000000D+00 0.000000000000000D+00 0.242195079063449D+03
 0.645226808919026D+02 0.000000000000000D+00 0.000000000000000D+00 -.645226808919026D+02
 0.663970895493448D+02 0.194335784168154D+02 -.266728859078618D+02 -.286263285785550D+02
 0.210267410365167D+02 -.994702883356923D+01 0.183954006863855D+02 -.218853594629035D+01
 0.403878116206746D+02 -.255934505011218D+02 -.515700913991365D+01 0.308148645248454D+02
 0.178906117748815D+03 0.161069009178757D+02 0.134344943613899D+02 0.177672398171546D+03
 0.630394677714032D+02 0.000000000000000D+00 0.000000000000000D+00 0.630394677714032D+02
 0.630394677714032D+02 0.000000000000000D+00 0.000000000000000D+00 -.630394677714032D+02
 0.669501134618840D+02 0.278931683930065D+02 -.196168846066630D+02 -.286263285785550D+02
 0.220050985450619D+02 -.721707491956975D+01 0.206724091966804D+02 -.218853594629035D+01
 0.000000000000000D+00 0.000000000000000D+00 0.000000000000000D+00 0.000000000000000D+00
 0.371237235358605D+02 -.206760934734367D+02 -.105552459001746D+01 0.308148645248454D+02
 0.242195079063449D+03 0.000000000000000D+00 0.000000000000000D+00 0.242195079063449D+03
 0.645226808919026D+02 0.000000000000000D+00 0.000000000000000D+00 -.645226808919026D+02
 0.663970895493448D+02 0.194335784168154D+02 -.266728859078618D+02 -.286263285785550D+02
 0.210267410365167D+02 -.994702883356923D+01 0.183954006863855D+02 -.218853594629035D+01
 0.178906117748815D+03 0.161069009178757D+02 0.134344943613899D+02 0.177672398171546D+03
 0.403878116206746D+02 -.255934505011218D+02 -.515700913991365D+01 0.308148645248454D+02
0.190570872355D-07 0.000000000000D+00 0.000000000000D+00 0.119277066363D-06 0.000000000000D+00  6 -2 22 9900012 11 -1 21 0 0.91295554D-02 0.10302645D-01 0.26584598D+04 0.26584598D+04 0.26584598D+04 0.12739728D+01  1  2  2  1  6  1       -2 0.470283842572D-05 0.100000000000D+01
0.111685297083D-08 0.000000000000D+00 -.365921164153D-10 0.119277066363D-06 0.000000000000D+00  6 -2 22 9900012 11 -1 21 2 0.91295554D-02 0.10302645D-01 0.26584598D+04 0.26584598D+04 0.26584598D+04 0.12739728D+01  1  2  3  1  6  1       -2 0.447321573617D-06 0.100000000000D+01
-.295910471245D-08 0.000000000000D+00 0.000000000000D+00 0.119277066363D-06 0.000000000000D+00  6 -2 22 9900012 11 -1 21 2 0.91295554D-02 0.10302645D-01 0.26584598D+04 0.26584598D+04 0.26584598D+04 0.12739728D+01  1  2 15  1  6  1       -2 -.118517961723D-05 0.100000000000D+01
-.215495303923D-06 0.000000000000D+00 -.588350617353D-08 0.119277066363D-06 0.000000000000D+00  6 -2 22 9900012 11 -1 21 2 0.35439193D-01 0.10302645D-01 0.26584598D+04 0.26584598D+04 0.26584598D+04 0.12739728D+01  1  2  5  1  6  1       -2 -.102318454996D-04 0.100000000000D+01
-.346430779633D-07 0.000000000000D+00 -.948490350043D-09 0.119277066363D-06 0.000000000000D+00  6 21 22 9900012 11 2 -1 2 0.35439193D-01 0.10302645D-01 0.26584598D+04 0.26584598D+04 0.26584598D+04 0.12739728D+01  3  4  5  3  5  1       -2 -.199827633437D-04 0.100000000000D+01
  </mgrwgt>
  </event>
  <event>
  6     66 0.12711138E-05 0.29865043E+02 0.78161638E-02 0.12471173E+00
       -2 -1    0    0    0  501 0.00000000E+00 0.00000000E+00 0.28558345E+02 0.28558345E+02 0.00000000E+00 0.0000E+00 0.9000E+01
       22 -1    0    0    0    0 0.00000000E+00 0.00000000E+00 -.35485651E+03 0.35485651E+03 0.00000000E+00 0.0000E+00 0.9000E+01
      -24  2    1    2    0    0 -.52571764E+01 0.31543152E+02 -.33823516E+03 0.34928129E+03 0.81066554E+02 0.0000E+00 0.0000E+00
  9900012  1    3    3    0    0 0.16864266E+02 0.14749807E+02 -.16565994E+03 0.17448547E+03 0.50000000E+02 0.0000E+00 0.9000E+01
       11  1    3    3    0    0 -.22121443E+02 0.16793345E+02 -.17257521E+03 0.17479582E+03 0.00000000E+00 0.0000E+00 0.9000E+01
       -1  1    1    2    0  501 0.52571764E+01 -.31543152E+02 0.11936998E+02 0.34133565E+02 0.00000000E+00 0.0000E+00 0.9000E+01
#aMCatNLO 1  0  0  1  5 0.13305094D+02 0.00000000D+00  -5  6  0 0.00000000D+00 0.00000000D+00 0.00000000D+00 0.00000000D+00 0.00000000D+00
  <mgrwgt>
 0.3452808813D-04    9    4    0
 0.100668339321260D+03 0.000000000000000D+00 0.000000000000000D+00 0.100668339321260D+03
 0.100668339321260D+03 0.000000000000000D+00 0.000000000000000D+00 -.100668339321260D+03
 0.638024995692922D+02 0.168642664217460D+02 0.147498068566114D+02 -.326924864003728D+02
 0.531862296583884D+02 -.221214428354898D+02 0.167933451014237D+02 -.453585752912884D+02
 0.843479494148401D+02 0.525717641374375D+01 -.315431519580351D+02 0.780510616916612D+02
 0.000000000000000D+00 0.000000000000000D+00 0.000000000000000D+00 0.000000000000000D+00
 0.109675843210286D+03 0.000000000000000D+00 0.000000000000000D+00 0.109675843210286D+03
 0.104347612879486D+03 0.000000000000000D+00 0.000000000000000D+00 -.104347612879486D+03
 0.626577396251131D+02 0.141799643388024D+02 0.124948901251751D+02 -.326924864003728D+02
 0.536085363464728D+02 -.243883167134810D+02 0.148890840765494D+02 -.453585752912884D+02
 0.853800983602764D+02 0.165445230789806D+01 -.345695784234616D+02 0.780510616916612D+02
 0.123770817579095D+02 0.855390006678054D+01 0.718560422173702D+01 0.532823033080061D+01
 0.100668339321260D+03 0.000000000000000D+00 0.000000000000000D+00 0.100668339321260D+03
 0.100668339321260D+03 0.000000000000000D+00 0.000000000000000D+00 -.100668339321260D+03
 0.638024995692922D+02 0.168642664217460D+02 0.147498068566114D+02 -.326924864003728D+02
 0.531862296583884D+02 -.221214428354898D+02 0.167933451014237D+02 -.453585752912884D+02
 0.000000000000000D+00 0.000000000000000D+00 0.000000000000000D+00 0.000000000000000D+00
 0.843479494148401D+02 0.525717641374375D+01 -.315431519580351D+02 0.780510616916612D+02
 0.109675843210286D+03 0.000000000000000D+00 0.000000000000000D+00 0.109675843210286D+03
 0.104347612879486D+03 0.000000000000000D+00 0.000000000000000D+00 -.104347612879486D+03
 0.626577396251131D+02 0.141799643388024D+02 0.124948901251751D+02 -.326924864003728D+02
 0.536085363464728D+02 -.243883167134810D+02 0.148890840765494D+02 -.453585752912884D+02
 0.123770817579095D+02 0.855390006678054D+01 0.718560422173702D+01 0.532823033080061D+01
 0.853800983602764D+02 0.165445230789806D+01 -.345695784234616D+02 0.780510616916612D+02
0.180153761596D-06 0.000000000000D+00 0.000000000000D+00 0.113727802817D-05 0.000000000000D+00  6 -2 22 9900012 11 -1 21 0 0.43935916D-02 0.54593309D-01 0.32799691D+04 0.32799691D+04 0.32799691D+04 0.12630003D+01  1  2  2  1  6  1       -2 0.106874904495D-04 0.100000000000D+01
0.925189190933D-08 0.000000000000D+00 -.345918940051D-09 0.113727802817D-05 0.000000000000D+00  6 -2 22 9900012 11 -1 21 2 0.43935916D-02 0.54593309D-01 0.32799691D+04 0.32799691D+04 0.32799691D+04 0.12630003D+01  1  2  3  1  6  1       -2 0.875527613470D-06 0.100000000000D+01
-.285290435549D-07 0.000000000000D+00 0.000000000000D+00 0.113727802817D-05 0.000000000000D+00  6 -2 22 9900012 11 -1 21 2 0.43935916D-02 0.54593309D-01 0.32799691D+04 0.32799691D+04 0.32799691D+04 0.12630003D+01  1  2 15  1  6  1       -2 -.269976840013D-05 0.100000000000D+01
0.298197336107D-06 0.000000000000D+00 0.000000000000D+00 0.113727802817D-05 0.000000000000D+00  6 -2 22 9900012 11 -1 21 2 0.49616642D-02 0.54593309D-01 0.40836816D+04 0.40836816D+04 0.40836816D+04 0.12518681D+01  1  2 12  1  6  1       -2 0.238029721581D-04 0.100000000000D+01
-.152358583032D-07 0.000000000000D+00 0.000000000000D+00 0.113727802817D-05 0.000000000000D+00  6 -2 22 9900012 11 -1 21 2 0.43935916D-02 0.54593309D-01 0.32799691D+04 0.32799691D+04 0.32799691D+04 0.12630003D+01  1  2  4  1  6  1       -2 -.144180398886D-05 0.100000000000D+01
-.722911605255D-06 0.000000000000D+00 -.176924940690D-06 0.113727802817D-05 0.000000000000D+00  6 -2 22 9900012 11 -1 21 2 0.49596460D-02 0.54593309D-01 0.32799691D+04 0.32799691D+04 0.32799691D+04 0.12630003D+01  1  2  5  1  6  1       -2 -.574139390785D-04 0.100000000000D+01
0.740201864274D-06 0.000000000000D+00 0.175633650662D-06 0.113727802817D-05 0.000000000000D+00  6 -2 22 9900012 11 -1 21 2 0.43935916D-02 0.54593309D-01 0.32799691D+04 0.32799691D+04 0.32799691D+04 0.12630003D+01  1  2  6  1  6  1       -2 0.700469890985D-04 0.100000000000D+01
0.572099354547D-08 0.000000000000D+00 0.000000000000D+00 0.113727802817D-05 0.000000000000D+00  6 21 22 9900012 11 2 -1 2 0.49616642D-02 0.54593309D-01 0.40836816D+04 0.40836816D+04 0.40836816D+04 0.12518681D+01  3  4 12  3  5  1       -2 0.739583691565D-05 0.100000000000D+01
-.129970592709D-07 0.000000000000D+00 -.338481652346D-08 0.113727802817D-05 0.000000000000D+00  6 21 22 9900012 11 2 -1 2 0.49596460D-02 0.54593309D-01 0.32799691D+04 0.32799691D+04 0.32799691D+04 0.12630003D+01  3  4  5  3  5  1       -2 -.167252166364D-04 0.100000000000D+01
  </mgrwgt>
  </event>
  <event>
  6     66 0.12711138E-05 0.20027401E+02 0.78161638E-02 0.13024475E+00
       -2 -1    0    0    0  501 0.00000000E+00 0.00000000E+00 0.10646295E+02 0.10646295E+02 0.00000000E+00 0.0000E+00 0.9000E+01
       22 -1    0    0    0    0 -.00000000E+00 -.00000000E+00 -.26774651E+03 0.26774651E+03 0.00000000E+00 0.0000E+00 0.9000E+01
      -24  2    1    2    0    0 0.16512641E+02 0.11332672E+02 -.23163731E+03 0.24599749E+03 0.80360598E+02 0.0000E+00 0.0000E+00
  9900012  1    3    3    0    0 0.31883876E+02 0.12794712E+02 -.13330036E+03 0.14645570E+03 0.50000000E+02 0.0000E+00 0.9000E+01
       11  1    3    3    0    0 -.15371235E+02 -.14620398E+01 -.98336951E+02 0.99541792E+02 0.00000000E+00 0.0000E+00 0.9000E+01
       -1  1    1    2    0  501 -.16512641E+02 -.11332672E+02 -.25462906E+02 0.32395314E+02 0.00000000E+00 0.0000E+00 0.9000E+01
#aMCatNLO 1  0  0  5  1 0.12180592D+02 0.00000000D+00  -5  6  0 0.00000000D+00 0.00000000D+00 0.00000000D+00 0.00000000D+00 0.00000000D+00
  <mgrwgt>
 0.9075916771D-04    5    2    0
 0.533901515894696D+02 0.000000000000000D+00 0.000000000000000D+00 0.533901515894696D+02
 0.533901515894696D+02 -.000000000000000D+00 -.000000000000000D+00 -.533901515894696D+02
 0.608788496007685D+02 0.318838764363880D+02 0.127947120675100D+02 0.509392728762806D+01
 0.227501454845864D+02 -.153712351811991D+02 -.146203980880347D+01 -.167079827678744D+02
 0.231513080935844D+02 -.165126412551890D+02 -.113326722587065D+02 0.116140554802463D+02
 0.000000000000000D+00 0.000000000000000D+00 0.000000000000000D+00 -.000000000000000D+00
 0.533901515894696D+02 0.000000000000000D+00 0.000000000000000D+00 0.533901515894696D+02
 0.533901515894696D+02 -.000000000000000D+00 -.000000000000000D+00 -.533901515894696D+02
 0.571207434585377D+02 0.244331521235766D+02 0.768125896075549D+01 0.103343442627028D+02
 0.236979974232284D+02 -.183040614620004D+02 -.347484675582040D+01 -.146451990730825D+02
 0.116100443358098D+02 -.142891206689748D+01 0.905978933330543D+01 0.711839567744504D+01
 0.143515179613633D+02 -.470017859467871D+01 -.132662015382405D+02 -.280754086706534D+01
0.258762852313D-06 0.000000000000D+00 0.000000000000D+00 0.118231514277D-06 0.000000000000D+00  6 -2 22 9900012 11 -1 21 0 0.16378915D-02 0.41191770D-01 0.23104064D+04 0.23104064D+04 0.23104064D+04 0.12814642D+01  1  2  2  2  6  5       -1 0.940125568554D-04 0.100000000000D+01
0.573214565540D-08 0.000000000000D+00 -.496858743354D-09 0.118231514277D-06 0.000000000000D+00  6 -2 22 9900012 11 -1 21 2 0.16378915D-02 0.41191770D-01 0.23104064D+04 0.23104064D+04 0.23104064D+04 0.12814642D+01  1  2  3  2  6  5       -1 0.341990527053D-05 0.100000000000D+01
-.330690173461D-07 0.000000000000D+00 0.000000000000D+00 0.118231514277D-06 0.000000000000D+00  6 -2 22 9900012 11 -1 21 2 0.16378915D-02 0.41191770D-01 0.23104064D+04 0.23104064D+04 0.23104064D+04 0.12814642D+01  1  2 15  2  6  5       -1 -.197295940320D-04 0.100000000000D+01
0.312130346709D-07 0.000000000000D+00 0.000000000000D+00 0.118231514277D-06 0.000000000000D+00  6 -2 22 9900012 11 -1 21 2 0.16378915D-02 0.41191770D-01 0.24037005D+04 0.24037005D+04 0.24037005D+04 0.12793373D+01  1  2 12  2  6  5       -1 0.186619596596D-04 0.100000000000D+01
-.939571634843D-08 0.000000000000D+00 0.000000000000D+00 0.118231514277D-06 0.000000000000D+00  6 -2 22 9900012 11 -1 21 2 0.16378915D-02 0.41191770D-01 0.23104064D+04 0.23104064D+04 0.23104064D+04 0.12814642D+01  1  2  4  2  6  5       -1 -.560566004287D-05 0.100000000000D+01
  </mgrwgt>
  </event>
  <event>
  6     66 0.12711138E-05 0.44074734E+02 0.78161638E-02 0.12292560E+00
       -2 -1    0    0    0  501 0.00000000E+00 0.00000000E+00 0.14859781E+03 0.14859781E+03 0.00000000E+00 0.0000E+00 0.9000E+01
       22 -1    0    0    0    0 0.00000000E+00 0.00000000E+00 -.88160979E+02 0.88160979E+02 0.00000000E+00 0.0000E+00 0.9000E+01
      -24  2    1    2    0    0 0.43054372E+02 -.15830442E+02 -.58550701E+02 0.10923501E+03 0.79998879E+02 0.0000E+00 0.0000E+00
  9900012  1    3    3    0    0 0.15196752E+02 0.25071786E+01 -.15087954E+02 0.54450653E+02 0.50000000E+02 0.0000E+00 0.9000E+01
       11  1    3    3    0    0 0.27857620E+02 -.18337620E+02 -.43462747E+02 0.54784356E+02 0.00000000E+00 0.0000E+00 0.9000E+01
       -1  1    1    2    0  501 -.43054372E+02 0.15830442E+02 0.11898753E+03 0.12752378E+03 0.00000000E+00 0.0000E+00 0.9000E+01
#aMCatNLO 1  0  0  1  5 0.76745799D+01 0.00000000D+00  -5  6  0 0.00000000D+00 0.00000000D+00 0.00000000D+00 0.00000000D+00 0.00000000D+00
  <mgrwgt>
 0.1054634092D-03   11    4    0
 0.114457539270503D+03 0.000000000000000D+00 0.000000000000000D+00 0.114457539270503D+03
 0.114457539270503D+03 0.000000000000000D+00 0.000000000000000D+00 -.114457539270503D+03
 0.602998225898764D+02 0.151967515299141D+02 0.250717862858779D+01 -.299806838253063D+02
 0.681363081290735D+02 0.278576203097205D+02 -.183376204286615D+02 -.594158325125032D+02
 0.100478947822055D+03 -.430543718396346D+02 0.158304418000737D+02 0.893965163378094D+02
 0.000000000000000D+00 0.000000000000000D+00 -.000000000000000D+00 0.000000000000000D+00
 0.173575928755994D+03 0.000000000000000D+00 0.000000000000000D+00 0.173575928755994D+03
 0.114769210404245D+03 0.000000000000000D+00 0.000000000000000D+00 -.114769210404245D+03
 0.598428378170016D+02 0.132103987333599D+02 0.279449470649454D+01 -.299806838253063D+02
 0.671652033154313D+02 0.256206419148220D+02 -.180140526012849D+02 -.594158325125032D+02
 0.102034839080760D+03 -.464025899129890D+02 0.163147449341803D+02 0.893965163378094D+02
 0.593022589470462D+02 0.757154926480711D+01 -.109518703938992D+01 0.588067183517485D+02
 0.114457539270503D+03 0.000000000000000D+00 0.000000000000000D+00 0.114457539270503D+03
 0.114457539270503D+03 0.000000000000000D+00 0.000000000000000D+00 -.114457539270503D+03
 0.602998225898764D+02 0.151967515299141D+02 0.250717862858779D+01 -.299806838253063D+02
 0.681363081290735D+02 0.278576203097205D+02 -.183376204286615D+02 -.594158325125032D+02
 0.000000000000000D+00 0.000000000000000D+00 -.000000000000000D+00 0.000000000000000D+00
 0.100478947822055D+03 -.430543718396346D+02 0.158304418000737D+02 0.893965163378094D+02
 0.173575928755994D+03 0.000000000000000D+00 0.000000000000000D+00 0.173575928755994D+03
 0.114769210404245D+03 0.000000000000000D+00 0.000000000000000D+00 -.114769210404245D+03
 0.598428378170016D+02 0.132103987333599D+02 0.279449470649454D+01 -.299806838253063D+02
 0.671652033154313D+02 0.256206419148220D+02 -.180140526012849D+02 -.594158325125032D+02
 0.593022589470462D+02 0.757154926480711D+01 -.109518703938992D+01 0.588067183517485D+02
 0.102034839080760D+03 -.464025899129890D+02 0.163147449341803D+02 0.893965163378094D+02
0.135031843659D-06 0.000000000000D+00 0.000000000000D+00 0.348410044190D-05 0.000000000000D+00  6 -2 22 9900012 11 -1 21 0 0.22861201D-01 0.13563228D-01 0.43258481D+04 0.43258481D+04 0.43258481D+04 0.12489917D+01  1  2  2  1  6  1       -2 0.577626246175D-05 0.100000000000D+01
0.335745390731D-08 0.000000000000D+00 -.259278917176D-09 0.348410044190D-05 0.000000000000D+00  6 -2 22 9900012 11 -1 21 2 0.22861201D-01 0.13563228D-01 0.43258481D+04 0.43258481D+04 0.43258481D+04 0.12489917D+01  1  2  3  1  6  1       -2 0.224047383662D-06 0.100000000000D+01
-.200503349732D-07 0.000000000000D+00 0.000000000000D+00 0.348410044190D-05 0.000000000000D+00  6 -2 22 9900012 11 -1 21 2 0.22861201D-01 0.13563228D-01 0.43258481D+04 0.43258481D+04 0.43258481D+04 0.12489917D+01  1  2 15  1  6  1       -2 -.133798563325D-05 0.100000000000D+01
0.369016204459D-05 0.000000000000D+00 0.000000000000D+00 0.348410044190D-05 0.000000000000D+00  6 -2 22 9900012 11 -1 21 2 0.34763631D-01 0.13563228D-01 0.48963819D+04 0.48963819D+04 0.48963819D+04 0.12428712D+01  1  2 12  1  6  1       -2 0.122503455585D-03 0.100000000000D+01
-.192621330396D-05 0.000000000000D+00 0.000000000000D+00 0.348410044190D-05 0.000000000000D+00  6 -2 22 9900012 11 -1 21 2 0.22861201D-01 0.13563228D-01 0.43258481D+04 0.43258481D+04 0.43258481D+04 0.12489917D+01  1  2  4  1  6  1       -2 -.128538786546D-03 0.100000000000D+01
-.372150718804D-05 0.000000000000D+00 -.470204000458D-07 0.348410044190D-05 0.000000000000D+00  6 -2 22 9900012 11 -1 21 2 0.34709199D-01 0.13563228D-01 0.43258481D+04 0.43258481D+04 0.43258481D+04 0.12489917D+01  1  2  5  1  6  1       -2 -.123934393976D-03 0.100000000000D+01
0.344062604495D-05 0.000000000000D+00 0.431992631205D-07 0.348410044190D-05 0.000000000000D+00  6 -2 22 9900012 11 -1 21 2 0.22861201D-01 0.13563228D-01 0.43258481D+04 0.43258481D+04 0.43258481D+04 0.12489917D+01  1  2  6  1  6  1       -2 0.229597571497D-03 0.100000000000D+01
0.206599906767D-07 0.000000000000D+00 0.000000000000D+00 0.348410044190D-05 0.274678701010D-06  6 -2 22 9900012 11 -1 21 2 0.34669226D-01 0.13600161D-01 0.48963819D+04 0.48963819D+04 0.48963819D+04 0.12428712D+01  1  2 11  1  6  1       -2 0.686398478255D-06 0.100000000000D+01
0.181810789653D-06 0.000000000000D+00 0.000000000000D+00 0.348410044190D-05 0.000000000000D+00  6 21 22 9900012 11 2 -1 2 0.34763631D-01 0.13563228D-01 0.48963819D+04 0.48963819D+04 0.48963819D+04 0.12428712D+01  3  4 12  3  5  1       -2 0.726005181902D-04 0.100000000000D+01
-.181146657425D-06 0.000000000000D+00 -.231022420567D-08 0.348410044190D-05 0.000000000000D+00  6 21 22 9900012 11 2 -1 2 0.34709199D-01 0.13563228D-01 0.43258481D+04 0.43258481D+04 0.43258481D+04 0.12489917D+01  3  4  5  3  5  1       -2 -.727796481525D-04 0.100000000000D+01
0.166561486079D-08 0.000000000000D+00 0.000000000000D+00 0.348410044190D-05 0.218765955049D-07  6 21 22 9900012 11 2 -1 2 0.34669226D-01 0.13600161D-01 0.48963819D+04 0.48963819D+04 0.48963819D+04 0.12428712D+01  3  4 11  3  5  1       -2 0.665969883889D-06 0.100000000000D+01
  </mgrwgt>
  </event>
  <event>
  6     66 0.12711138E-05 0.17939850E+02 0.78161638E-02 0.92580125E-01
       -2 -1    0    0    0  501 0.00000000E+00 0.00000000E+00 0.26995275E+03 0.26995275E+03 0.00000000E+00 0.0000E+00 0.9000E+01
       22 -1    0    0    0    0 0.00000000E+00 0.00000000E+00 -.53528306E+02 0.53528306E+02 0.00000000E+00 0.0000E+00 0.9000E+01
      -24  2    1    2    0    0 0.14170374E+02 -.11001761E+02 -.19744529E+02 0.86631691E+02 0.82421874E+02 0.0000E+00 0.0000E+00
  9900012  1    3    3    0    0 -.11679090E+02 0.83929009E+01 -.11599711E+02 0.53304739E+02 0.50000000E+02 0.0000E+00 0.9000E+01
       11  1    3    3    0    0 0.25849464E+02 -.19394662E+02 -.81448184E+01 0.33326952E+02 0.00000000E+00 0.0000E+00 0.9000E+01
       -1  1    1    2    0  501 -.14170374E+02 0.11001761E+02 0.23616897E+03 0.23684936E+03 0.00000000E+00 0.0000E+00 0.9000E+01
#aMCatNLO 1  0  0  1  1 0.60425788D+03 0.00000000D+00  -5  6  0 0.00000000D+00 0.00000000D+00 0.00000000D+00 0.00000000D+00 0.00000000D+00
  <mgrwgt>
 0.5391776068D-04    3    2    0
 0.120208624649521D+03 0.000000000000000D+00 0.000000000000000D+00 0.120208624649521D+03
 0.120208624649521D+03 0.000000000000000D+00 0.000000000000000D+00 -.120208624649521D+03
 0.821635476272380D+02 -.116790900200988D+02 0.839290089876055D+01 -.635925045072092D+02
 0.521733588063797D+02 0.258494636584728D+02 -.193946617475243D+02 -.409598790697391D+02
 0.106080342865424D+03 -.141703736383740D+02 0.110017608487637D+02 0.104552383576948D+03
 0.000000000000000D+00 -.000000000000000D+00 0.000000000000000D+00 -.000000000000000D+00
 0.576394205567493D+03 0.000000000000000D+00 0.000000000000000D+00 0.576394205567493D+03
 0.599558804054827D+03 0.000000000000000D+00 0.000000000000000D+00 -.599558804054827D+03
 0.176238425350794D+03 0.104521192622335D+03 -.116581714833127D+03 -.635925045072092D+02
 0.207382241523769D+03 0.142568518750030D+03 -.144927222658263D+03 -.409598790697391D+02
 0.228703688007506D+03 0.136378008648611D+03 -.150914594236783D+03 0.104552383576948D+03
 0.563628654740250D+03 -.383467720020976D+03 0.412423531728173D+03 -.231645984873339D+02
0.183005697847D-05 0.000000000000D+00 0.000000000000D+00 0.802520324577D-06 0.000000000000D+00  6 -2 22 9900012 11 -1 21 0 0.41531192D-01 0.82351241D-02 0.26154805D+04 0.26154805D+04 0.26154805D+04 0.12748362D+01  1  2  2  1  6  1       -2 0.553934322693D-04 0.100000000000D+01
0.271992755523D-06 0.000000000000D+00 -.351395033120D-08 0.802520324577D-06 0.000000000000D+00  6 -2 22 9900012 11 -1 21 2 0.41531192D-01 0.82351241D-02 0.26154805D+04 0.26154805D+04 0.26154805D+04 0.12748362D+01  1  2  3  1  6  1       -2 0.133801125851D-04 0.100000000000D+01
-.301990409150D-06 0.000000000000D+00 0.000000000000D+00 0.802520324577D-06 0.000000000000D+00  6 -2 22 9900012 11 -1 21 2 0.41531192D-01 0.82351241D-02 0.26154805D+04 0.26154805D+04 0.26154805D+04 0.12748362D+01  1  2 15  1  6  1       -2 -.148557841781D-04 0.100000000000D+01
  </mgrwgt>
  </event>
  <event>
  6     66 0.12711138E-05 0.99041504E+02 0.78161638E-02 0.10145744E+00
       -2 -1    0    0    0  501 0.00000000E+00 0.00000000E+00 0.41926997E+02 0.41926997E+02 0.00000000E+00 0.0000E+00 0.9000E+01
       22 -1    0    0    0    0 0.00000000E+00 0.00000000E+00 -.52846397E+03 0.52846397E+03 0.00000000E+00 0.0000E+00 0.9000E+01
      -24  2    1    2    0    0 -.25623896E+02 -.95669407E+02 -.44522754E+03 0.46307979E+03 0.80038161E+02 0.0000E+00 0.0000E+00
  9900012  1    3    3    0    0 -.38503966E+02 -.88576501E+02 -.34380837E+03 0.36060026E+03 0.50000000E+02 0.0000E+00 0.9000E+01
       11  1    3    3    0    0 0.12880070E+02 -.70929065E+01 -.10141917E+03 0.10247953E+03 0.00000000E+00 0.0000E+00 0.9000E+01
       -1  1    1    2    0  501 0.25623896E+02 0.95669407E+02 -.41309431E+02 0.10731118E+03 0.00000000E+00 0.0000E+00 0.9000E+01
#aMCatNLO 1  0  0  1  5 0.79865281D+01 0.00000000D+00  -5  6  0 0.00000000D+00 0.00000000D+00 0.00000000D+00 0.00000000D+00 0.00000000D+00
  <mgrwgt>
 0.5570597601D-04    3    2    0
 0.148851962959200D+03 0.000000000000000D+00 0.000000000000000D+00 0.148851962959200D+03
 0.148851962959200D+03 0.000000000000000D+00 0.000000000000000D+00 -.148851962959200D+03
 0.129012899661416D+03 -.385039660180977D+02 -.885765008452464D+02 -.693972360972387D+02
 0.305982550918272D+02 0.128800700351447D+02 -.709290654203064D+01 -.268337043164062D+02
 0.138092771165157D+03 0.256238959829530D+02 0.956694073872771D+02 0.962309404136449D+02
 0.000000000000000D+00 -.000000000000000D+00 0.000000000000000D+00 -.000000000000000D+00
 0.235753936368530D+03 0.000000000000000D+00 0.000000000000000D+00 0.235753936368530D+03
 0.429859867898719D+03 0.000000000000000D+00 0.000000000000000D+00 -.429859867898719D+03
 0.133890581097404D+03 0.485489298197531D+02 -.908499462961946D+02 -.693972360972387D+02
 0.478586261005613D+02 0.388588006570841D+02 -.777135872200023D+01 -.268337043164062D+02
 0.189331025901289D+03 0.134040831424774D+03 0.928380255439315D+02 0.962309404136449D+02
 0.294533571167994D+03 -.221448561901611D+03 0.578327947426333D+01 -.194105931530190D+03
0.374813685210D-05 0.000000000000D+00 0.000000000000D+00 0.190993612669D-05 0.000000000000D+00  6 -2 22 9900012 11 -1 21 0 0.64503072D-02 0.81302149D-01 0.12376970D+05 0.12376970D+05 0.12376970D+05 0.11998478D+01  1  2  2  1  6  1       -2 0.716172827661D-04 0.100000000000D+01
-.237354263280D-07 0.000000000000D+00 -.719691620958D-08 0.190993612669D-05 0.000000000000D+00  6 -2 22 9900012 11 -1 21 2 0.64503072D-02 0.81302149D-01 0.12376970D+05 0.12376970D+05 0.12376970D+05 0.11998478D+01  1  2  3  1  6  1       -2 -.652907615096D-06 0.100000000000D+01
-.554695029305D-06 0.000000000000D+00 0.000000000000D+00 0.190993612669D-05 0.000000000000D+00  6 -2 22 9900012 11 -1 21 2 0.64503072D-02 0.81302149D-01 0.12376970D+05 0.12376970D+05 0.12376970D+05 0.11998478D+01  1  2 15  1  6  1       -2 -.152583991408D-04 0.100000000000D+01
  </mgrwgt>
  </event>
  <event>
  6     66 0.12711138E-05 0.16739904E+03 0.78161638E-02 0.10184044E+00
       -2 -1    0    0    0  501 0.00000000E+00 0.00000000E+00 0.10764953E+03 0.10764953E+03 0.00000000E+00 0.0000E+00 0.9000E+01
       22 -1    0    0    0    0 0.00000000E+00 0.00000000E+00 -.10852818E+04 0.10852818E+04 0.00000000E+00 0.0000E+00 0.9000E+01
      -24  2    1    2    0    0 0.56470362E+01 0.16730377E+03 -.10063713E+04 0.10230833E+04 0.76771255E+02 0.0000E+00 0.0000E+00
  9900012  1    3    3    0    0 0.18118358E+02 0.16201959E+03 -.92330813E+03 0.93892307E+03 0.50000000E+02 0.0000E+00 0.9000E+01
       11  1    3    3    0    0 -.12471322E+02 0.52841839E+01 -.83063155E+02 0.84160229E+02 0.00000000E+00 0.0000E+00 0.9000E+01
       -1  1    1    2    0  501 -.56470362E+01 -.16730377E+03 0.28738982E+02 0.16984808E+03 0.00000000E+00 0.0000E+00 0.9000E+01
#aMCatNLO 1  0  0  1  5 0.18497958D+03 0.00000000D+00  -5  6  0 0.00000000D+00 0.00000000D+00 0.00000000D+00 0.00000000D+00 0.00000000D+00
  <mgrwgt>
 0.3187218778D-04    7    4    0
 0.341804161853749D+03 0.000000000000000D+00 0.000000000000000D+00 0.341804161853749D+03
 0.341804161853749D+03 0.000000000000000D+00 0.000000000000000D+00 -.341804161853749D+03
 0.318040200948741D+03 0.181183582210152D+02 0.162019585191820D+03 -.268460329525912D+03
 0.280747814191426D+02 -.124713220388694D+02 0.528418387888818D+01 -.245913984773038D+02
 0.337493341339615D+03 -.564703618214579D+01 -.167303769070708D+03 0.293051728003215D+03
 0.000000000000000D+00 -.000000000000000D+00 -.000000000000000D+00 0.000000000000000D+00
 0.457270856574069D+03 0.000000000000000D+00 0.000000000000000D+00 0.457270856574069D+03
 0.401294447730982D+03 0.000000000000000D+00 0.000000000000000D+00 -.401294447730982D+03
 0.344672183580277D+03 0.819871614481409D+02 0.193664841833803D+03 -.268460329525912D+03
 0.268105178361875D+02 -.718175983958765D+01 0.790501822777596D+01 -.245913984773038D+02
 0.328127076446628D+03 0.585020282989108D+02 -.135519650592283D+03 0.293051728003215D+03
 0.158955526441957D+03 -.133307429907464D+03 -.660502094692962D+02 0.559764088430868D+02
 0.341804161853749D+03 0.000000000000000D+00 0.000000000000000D+00 0.341804161853749D+03
 0.341804161853749D+03 0.000000000000000D+00 0.000000000000000D+00 -.341804161853749D+03
 0.318040200948741D+03 0.181183582210152D+02 0.162019585191820D+03 -.268460329525912D+03
 0.280747814191426D+02 -.124713220388694D+02 0.528418387888818D+01 -.245913984773038D+02
 0.000000000000000D+00 -.000000000000000D+00 -.000000000000000D+00 0.000000000000000D+00
 0.337493341339615D+03 -.564703618214579D+01 -.167303769070708D+03 0.293051728003215D+03
 0.457270856574069D+03 0.000000000000000D+00 0.000000000000000D+00 0.457270856574069D+03
 0.401294447730982D+03 0.000000000000000D+00 0.000000000000000D+00 -.401294447730982D+03
 0.344672183580277D+03 0.819871614481409D+02 0.193664841833803D+03 -.268460329525912D+03
 0.268105178361875D+02 -.718175983958765D+01 0.790501822777596D+01 -.245913984773038D+02
 0.158955526441957D+03 -.133307429907464D+03 -.660502094692962D+02 0.559764088430868D+02
 0.328127076446628D+03 0.585020282989108D+02 -.135519650592283D+03 0.293051728003215D+03
0.262758334774D-04 0.000000000000D+00 0.000000000000D+00 0.188854213675D-05 0.000000000000D+00  6 -2 22 9900012 11 -1 21 0 0.16561467D-01 0.16696644D+00 0.30882474D+05 0.30882474D+05 0.30882474D+05 0.11616329D+01  1  2  2  1  6  1       -2 0.287151103274D-04 0.100000000000D+01
0.638270598939D-07 0.000000000000D+00 -.504530595695D-07 0.188854213675D-05 0.000000000000D+00  6 -2 22 9900012 11 -1 21 2 0.16561467D-01 0.16696644D+00 0.30882474D+05 0.30882474D+05 0.30882474D+05 0.11616329D+01  1  2  3  1  6  1       -2 0.941231907822D-07 0.100000000000D+01
-.417476262845D-05 0.000000000000D+00 0.000000000000D+00 0.188854213675D-05 0.000000000000D+00  6 -2 22 9900012 11 -1 21 2 0.16561467D-01 0.16696644D+00 0.30882474D+05 0.30882474D+05 0.30882474D+05 0.11616329D+01  1  2 15  1  6  1       -2 -.615635406050D-05 0.100000000000D+01
-.109157877935D-05 0.000000000000D+00 0.000000000000D+00 0.188854213675D-05 0.000000000000D+00  6 -2 22 9900012 11 -1 21 2 0.16561467D-01 0.16696644D+00 0.30882474D+05 0.30882474D+05 0.30882474D+05 0.11616329D+01  1  2  4  1  6  1       -2 -.160970719743D-05 0.100000000000D+01
-.767858012461D-05 0.000000000000D+00 -.877969977332D-05 0.188854213675D-05 0.000000000000D+00  6 -2 22 9900012 11 -1 21 2 0.25996746D-01 0.16696644D+00 0.30882474D+05 0.30882474D+05 0.30882474D+05 0.11616329D+01  1  2  5  1  6  1       -2 -.539813192657D-05 0.100000000000D+01
0.112924489702D-04 0.000000000000D+00 0.795705198718D-05 0.188854213675D-05 0.000000000000D+00  6 -2 22 9900012 11 -1 21 2 0.16561467D-01 0.16696644D+00 0.30882474D+05 0.30882474D+05 0.30882474D+05 0.11616329D+01  1  2  6  1  6  1       -2 0.166525190192D-04 0.100000000000D+01
-.493757784508D-07 0.000000000000D+00 -.456924901540D-06 0.188854213675D-05 0.000000000000D+00  6 21 22 9900012 11 2 -1 2 0.25996746D-01 0.16696644D+00 0.30882474D+05 0.30882474D+05 0.30882474D+05 0.11616329D+01  3  4  5  3  5  1       -2 -.425371576535D-06 0.100000000000D+01
  </mgrwgt>
  </event>
  <event>
  6     66 0.12711138E-05 0.10094824E+03 0.78161638E-02 0.10733469E+00
       -2 -1    0    0    0  501 0.00000000E+00 0.00000000E+00 0.21613590E+03 0.21613590E+03 0.00000000E+00 0.0000E+00 0.9000E+01
       22 -1    0    0    0    0 0.00000000E+00 0.00000000E+00 -.34332772E+03 0.34332772E+03 0.00000000E+00 0.0000E+00 0.9000E+01
      -24  2    1    2    0    0 -.15434914E+03 0.84986891E+01 -.28768912E+03 0.33662900E+03 0.81597617E+02 0.0000E+00 0.0000E+00
  9900012  1    3    3    0    0 -.11914806E+03 -.67352115E+01 -.25613638E+03 0.28696249E+03 0.50000000E+02 0.0000E+00 0.9000E+01
       11  1    3    3    0    0 -.35201072E+02 0.15233901E+02 -.31552744E+02 0.49666516E+02 0.00000000E+00 0.0000E+00 0.9000E+01
       -1  1    1    2    0  501 0.15434914E+03 -.84986891E+01 0.16049730E+03 0.22283462E+03 0.00000000E+00 0.0000E+00 0.9000E+01
#aMCatNLO 1  0  0  1  5 0.33649931D+02 0.00000000D+00  -5  6  0 0.00000000D+00 0.00000000D+00 0.00000000D+00 0.00000000D+00 0.00000000D+00
  <mgrwgt>
 0.2472440901D-04    9    4    0
 0.272406764399150D+03 0.000000000000000D+00 0.000000000000000D+00 0.272406764399150D+03
 0.272406764399150D+03 0.000000000000000D+00 0.000000000000000D+00 -.272406764399150D+03
 0.234881498552455D+03 -.119148063109156D+03 -.673521151293113D+01 -.196029830243919D+03
 0.436357703361448D+02 -.352010724193572D+02 0.152339006101039D+02 -.208060862623757D+02
 0.266296259909700D+03 0.154349135528513D+03 -.849868909717275D+01 0.216835916506295D+03
 0.000000000000000D+00 -.000000000000000D+00 -.000000000000000D+00 0.000000000000000D+00
 0.299569619364585D+03 0.000000000000000D+00 0.000000000000000D+00 0.299569619364585D+03
 0.280815121467460D+03 0.000000000000000D+00 0.000000000000000D+00 -.280815121467460D+03
 0.230733839594039D+03 -.110919749547242D+03 0.268692179359944D+01 -.196029830243919D+03
 0.430707560229524D+02 -.336688022635091D+02 0.169884829508699D+02 -.208060862623757D+02
 0.271795980005513D+03 0.163858254564154D+03 0.239007766011056D+01 0.216835916506295D+03
 0.347841652095402D+02 -.192697027534026D+02 -.220654824045799D+02 0.187544978971252D+02
 0.272406764399150D+03 0.000000000000000D+00 0.000000000000000D+00 0.272406764399150D+03
 0.272406764399150D+03 0.000000000000000D+00 0.000000000000000D+00 -.272406764399150D+03
 0.234881498552455D+03 -.119148063109156D+03 -.673521151293113D+01 -.196029830243919D+03
 0.436357703361448D+02 -.352010724193572D+02 0.152339006101039D+02 -.208060862623757D+02
 0.000000000000000D+00 -.000000000000000D+00 -.000000000000000D+00 0.000000000000000D+00
 0.266296259909700D+03 0.154349135528513D+03 -.849868909717275D+01 0.216835916506295D+03
 0.299569619364585D+03 0.000000000000000D+00 0.000000000000000D+00 0.299569619364585D+03
 0.280815121467460D+03 0.000000000000000D+00 0.000000000000000D+00 -.280815121467460D+03
 0.230733839594039D+03 -.110919749547242D+03 0.268692179359944D+01 -.196029830243919D+03
 0.430707560229524D+02 -.336688022635091D+02 0.169884829508699D+02 -.208060862623757D+02
 0.347841652095402D+02 -.192697027534026D+02 -.220654824045799D+02 0.187544978971252D+02
 0.271795980005513D+03 0.163858254564154D+03 0.239007766011056D+01 0.216835916506295D+03
0.241791296279D-05 0.000000000000D+00 0.000000000000D+00 0.186464169448D-05 0.000000000000D+00  6 -2 22 9900012 11 -1 21 0 0.33251677D-01 0.52819650D-01 0.25973903D+05 0.25973903D+05 0.25973903D+05 0.11685797D+01  1  2  2  1  6  1       -2 0.763858483161D-05 0.100000000000D+01
-.579041349165D-08 0.000000000000D+00 -.464271121410D-08 0.186464169448D-05 0.000000000000D+00  6 -2 22 9900012 11 -1 21 2 0.33251677D-01 0.52819650D-01 0.25973903D+05 0.25973903D+05 0.25973903D+05 0.11685797D+01  1  2  3  1  6  1       -2 -.249803506240D-07 0.100000000000D+01
-.386853207236D-06 0.000000000000D+00 0.000000000000D+00 0.186464169448D-05 0.000000000000D+00  6 -2 22 9900012 11 -1 21 2 0.33251677D-01 0.52819650D-01 0.25973903D+05 0.25973903D+05 0.25973903D+05 0.11685797D+01  1  2 15  1  6  1       -2 -.166891859635D-05 0.100000000000D+01
0.466662885756D-05 0.000000000000D+00 0.000000000000D+00 0.186464169448D-05 0.000000000000D+00  6 -2 22 9900012 11 -1 21 2 0.37696066D-01 0.52819650D-01 0.31078324D+05 0.31078324D+05 0.31078324D+05 0.11613817D+01  1  2 12  1  6  1       -2 0.160444167390D-04 0.100000000000D+01
-.697481814712D-06 0.000000000000D+00 0.000000000000D+00 0.186464169448D-05 0.000000000000D+00  6 -2 22 9900012 11 -1 21 2 0.33251677D-01 0.52819650D-01 0.25973903D+05 0.25973903D+05 0.25973903D+05 0.11685797D+01  1  2  4  1  6  1       -2 -.300899759758D-05 0.100000000000D+01
-.104242351405D-04 0.000000000000D+00 -.230097952044D-05 0.186464169448D-05 0.000000000000D+00  6 -2 22 9900012 11 -1 21 2 0.37545889D-01 0.52819650D-01 0.25973903D+05 0.25973903D+05 0.25973903D+05 0.11685797D+01  1  2  5  1  6  1       -2 -.362484613653D-04 0.100000000000D+01
0.106419847234D-04 0.000000000000D+00 0.228411094832D-05 0.186464169448D-05 0.000000000000D+00  6 -2 22 9900012 11 -1 21 2 0.33251677D-01 0.52819650D-01 0.25973903D+05 0.25973903D+05 0.25973903D+05 0.11685797D+01  1  2  6  1  6  1       -2 0.459104535643D-04 0.100000000000D+01
0.919008883568D-07 0.000000000000D+00 0.000000000000D+00 0.186464169448D-05 0.000000000000D+00  6 21 22 9900012 11 2 -1 2 0.37696066D-01 0.52819650D-01 0.31078324D+05 0.31078324D+05 0.31078324D+05 0.11613817D+01  3  4 12  3  5  1       -2 0.359916096447D-05 0.100000000000D+01
-.188923509244D-06 0.000000000000D+00 -.441036082104D-07 0.186464169448D-05 0.000000000000D+00  6 21 22 9900012 11 2 -1 2 0.37545889D-01 0.52819650D-01 0.25973903D+05 0.25973903D+05 0.25973903D+05 0.11685797D+01  3  4  5  3  5  1       -2 -.751684917782D-05 0.100000000000D+01
  </mgrwgt>
  </event>
  <event>
  6     66 0.12711138E-05 0.21626042E+02 0.78161638E-02 0.12913587E+00
       -2 -1    0    0    0  501 0.00000000E+00 0.00000000E+00 0.21528723E+02 0.21528723E+02 0.00000000E+00 0.0000E+00 0.9000E+01
       22 -1    0    0    0    0 -.00000000E+00 -.00000000E+00 -.16548587E+03 0.16548587E+03 0.00000000E+00 0.0000E+00 0.9000E+01
      -24  2    1    2    0    0 0.20915062E+02 0.54996271E+01 -.14355092E+03 0.16538474E+03 0.79231050E+02 0.0000E+00 0.0000E+00
  9900012  1    3    3    0    0 0.31656786E+02 -.12700123E+02 -.11375493E+03 0.12885507E+03 0.50000000E+02 0.0000E+00 0.9000E+01
       11  1    3    3    0    0 -.10741725E+02 0.18199750E+02 -.29795989E+02 0.36529667E+02 0.00000000E+00 0.0000E+00 0.9000E+01
       -1  1    1    2    0  501 -.20915062E+02 -.54996271E+01 -.40622984E+00 0.21629857E+02 0.00000000E+00 0.0000E+00 0.9000E+01
#aMCatNLO 1  0  0  5  1 0.14939953D+01 0.00000000D+00  -5  6  0 0.00000000D+00 0.00000000D+00 0.00000000D+00 0.00000000D+00 0.00000000D+00
  <mgrwgt>
 0.3671898402D-04    8    2    0
 0.596883530008298D+02 0.000000000000000D+00 0.000000000000000D+00 0.596883530008298D+02
 0.596883530008298D+02 -.000000000000000D+00 -.000000000000000D+00 -.596883530008298D+02
 0.646855133254675D+02 0.316567863694787D+02 -.127001233058980D+02 -.228203939262978D+02
 0.212959061938512D+02 -.107417247464569D+02 0.181997503992203D+02 -.262679567053608D+01
 0.333952864823409D+02 -.209150616230218D+02 -.549962709332228D+01 0.254471895968339D+02
 0.000000000000000D+00 0.000000000000000D+00 -.000000000000000D+00 0.000000000000000D+00
 0.596883530008298D+02 0.000000000000000D+00 0.000000000000000D+00 0.596883530008298D+02
 0.596883530008298D+02 -.000000000000000D+00 -.000000000000000D+00 -.596883530008298D+02
 0.646458838641849D+02 0.316110443641767D+02 -.127121511916483D+02 -.227647399912322D+02
 0.212978721573156D+02 -.107567893392588D+02 0.181957891561593D+02 -.260846669995303D+01
 0.181289479316930D+02 -.102922313994780D+02 -.245120177686067D+01 0.147214243800914D+02
 0.153040020484660D+02 -.105620236254398D+02 -.303243618765037D+01 0.106517823110939D+02
0.158466380792D-07 0.000000000000D+00 0.000000000000D+00 0.112016976738D-06 0.000000000000D+00  6 -2 22 9900012 11 -1 21 0 0.33121112D-02 0.25459365D-01 0.26669852D+04 0.26669852D+04 0.26669852D+04 0.12738034D+01  1  2  2  2  6  5       -1 0.460160073936D-05 0.100000000000D+01
0.727914989406D-09 0.000000000000D+00 -.304276313698D-10 0.112016976738D-06 0.000000000000D+00  6 -2 22 9900012 11 -1 21 2 0.33121112D-02 0.25459365D-01 0.26669852D+04 0.26669852D+04 0.26669852D+04 0.12738034D+01  1  2  3  2  6  5       -1 0.342970886076D-06 0.100000000000D+01
-.236262680611D-08 0.000000000000D+00 0.000000000000D+00 0.112016976738D-06 0.000000000000D+00  6 -2 22 9900012 11 -1 21 2 0.33121112D-02 0.25459365D-01 0.26669852D+04 0.26669852D+04 0.26669852D+04 0.12738034D+01  1  2 15  2  6  5       -1 -.111319621240D-05 0.100000000000D+01
0.440433338442D-10 0.000000000000D+00 0.000000000000D+00 0.112016976738D-06 0.000000000000D+00  6 -2 22 9900012 11 -1 21 2 0.33121112D-02 0.25459365D-01 0.26631465D+04 0.26631465D+04 0.26631465D+04 0.12738796D+01  1  2 12  2  6  5       -1 0.207505069619D-07 0.100000000000D+01
-.236731377758D-06 0.000000000000D+00 0.000000000000D+00 0.112016976738D-06 0.000000000000D+00  6 -2 22 9900012 11 -1 21 2 0.33121112D-02 0.25459365D-01 0.26669852D+04 0.26669852D+04 0.26669852D+04 0.12738034D+01  1  2  4  2  6  5       -1 -.111540456748D-03 0.100000000000D+01
-.235632548253D-06 0.000000000000D+00 0.000000000000D+00 0.112016976738D-06 0.000000000000D+00  6 -2 22 9900012 11 -1 21 2 0.33121112D-02 0.25459365D-01 0.26669852D+04 0.26669852D+04 0.26669852D+04 0.12738034D+01  1  2  5  2  6  5       -1 -.111022722487D-03 0.100000000000D+01
0.364340826145D-06 0.000000000000D+00 -.000000000000D+00 0.112016976738D-06 0.000000000000D+00  6 -2 22 9900012 11 -1 21 2 0.33121112D-02 0.25459365D-01 0.26669852D+04 0.26669852D+04 0.26669852D+04 0.12738034D+01  1  2  6  2  6  5       -1 0.171666056882D-03 0.100000000000D+01
0.177790593832D-06 0.000000000000D+00 0.000000000000D+00 0.112016976738D-06 0.114821136845D-06  6 -2 22 9900012 11 -1 21 2 0.33121112D-02 0.25459365D-01 0.26631465D+04 0.26631465D+04 0.26631465D+04 0.12738796D+01  1  2 11  2  6  5       -1 0.837639804498D-04 0.100000000000D+01
  </mgrwgt>
  </event>
  <event>
  6     66 0.12711138E-05 0.43106535E+02 0.78161638E-02 0.12210245E+00
       -4 -1    0    0    0  501 0.00000000E+00 0.00000000E+00 0.66980657E+01 0.66980657E+01 0.00000000E+00 0.0000E+00 0.9000E+01
       22 -1    0    0    0    0 -.00000000E+00 -.00000000E+00 -.88197411E+03 0.88197411E+03 0.00000000E+00 0.0000E+00 0.9000E+01
      -24  2    1    2    0    0 -.30794231E+02 0.37979359E+02 -.71348387E+03 0.71965317E+03 0.80316479E+02 0.0000E+00 0.0000E+00
  9900012  1    3    3    0    0 -.94216308E+01 0.47881332E+02 -.56684070E+03 0.57113025E+03 0.50000000E+02 0.0000E+00 0.9000E+01
       11  1    3    3    0    0 -.21372601E+02 -.99019735E+01 -.14664317E+03 0.14852292E+03 0.00000000E+00 0.0000E+00 0.9000E+01
       -3  1    1    2    0  501 0.30794231E+02 -.37979359E+02 -.16179217E+03 0.16901900E+03 0.00000000E+00 0.0000E+00 0.9000E+01
#aMCatNLO 1  0  0  5  1 0.16056557D+02 0.00000000D+00  -5  6  0 0.00000000D+00 0.00000000D+00 0.00000000D+00 0.00000000D+00 0.00000000D+00
  <mgrwgt>
 0.4006926614D-04    5    2    0
 0.768603964129892D+02 0.000000000000000D+00 0.000000000000000D+00 0.768603964129892D+02
 0.768603964129892D+02 -.000000000000000D+00 -.000000000000000D+00 -.768603964129892D+02
 0.741960832602474D+02 -.942163079888463D+01 0.478813321337119D+02 -.249733793738902D+02
 0.236463049782310D+02 -.213726005734628D+02 -.990197346963666D+01 -.207619971518639D+01
 0.558784045875000D+02 0.307942313723474D+02 -.379793586640752D+02 0.270495790890766D+02
 0.000000000000000D+00 -.000000000000000D+00 0.000000000000000D+00 0.000000000000000D+00
 0.768603964129892D+02 0.000000000000000D+00 0.000000000000000D+00 0.768603964129892D+02
 0.768603964129892D+02 -.000000000000000D+00 -.000000000000000D+00 -.768603964129892D+02
 0.684733957291666D+02 -.445774533182471D+01 0.417592378933552D+02 -.206131142675194D+02
 0.230681784786796D+02 -.197472680414068D+02 -.119065400534539D+02 -.648511511499768D+00
 0.523499889136140D+02 0.324591801892992D+02 -.351889955003322D+02 0.211815381021237D+02
 0.982922970451819D+01 -.825416681606762D+01 0.533629766043091D+01 0.800876768955088D-01
0.435846610982D-06 0.000000000000D+00 0.000000000000D+00 0.204875125571D-06 0.000000000000D+00  6 -4 22 9900012 11 -3 21 0 0.10304717D-02 0.13568832D+00 0.50635230D+04 0.50635230D+04 0.50635230D+04 0.12412286D+01  1  2  2  2  6  5       -3 0.289235866389D-04 0.100000000000D+01
-.322241505827D-08 0.000000000000D+00 -.836882873609D-09 0.204875125571D-06 0.000000000000D+00  6 -4 22 9900012 11 -3 21 2 0.10304717D-02 0.13568832D+00 0.50635230D+04 0.50635230D+04 0.50635230D+04 0.12412286D+01  1  2  3  2  6  5       -3 -.329460625655D-06 0.100000000000D+01
-.600663205628D-07 0.000000000000D+00 0.000000000000D+00 0.204875125571D-06 0.000000000000D+00  6 -4 22 9900012 11 -3 21 2 0.10304717D-02 0.13568832D+00 0.50635230D+04 0.50635230D+04 0.50635230D+04 0.12412286D+01  1  2 15  2  6  5       -3 -.614119757869D-05 0.100000000000D+01
0.215708142041D-06 0.000000000000D+00 0.000000000000D+00 0.204875125571D-06 0.000000000000D+00  6 -4 22 9900012 11 -3 21 2 0.10304717D-02 0.13568832D+00 0.53332665D+04 0.53332665D+04 0.53332665D+04 0.12387028D+01  1  2 12  2  6  5       -3 0.221386202633D-04 0.100000000000D+01
-.442319059292D-07 0.000000000000D+00 0.000000000000D+00 0.204875125571D-06 0.000000000000D+00  6 -4 22 9900012 11 -3 21 2 0.10304717D-02 0.13568832D+00 0.50635230D+04 0.50635230D+04 0.50635230D+04 0.12412286D+01  1  2  4  2  6  5       -3 -.452228255449D-05 0.100000000000D+01
  </mgrwgt>
  </event>
  <event>
  6     66 0.12711138E-05 0.26122032E+02 0.78161638E-02 0.12066158E+00
       -2 -1    0    0    0  501 0.00000000E+00 0.00000000E+00 0.16737174E+04 0.16737174E+04 0.00000000E+00 0.0000E+00 0.9000E+01
       22 -1    0    0    0    0 0.00000000E+00 0.00000000E+00 -.14710483E+03 0.14710483E+03 0.00000000E+00 0.0000E+00 0.9000E+01
      -24  2    1    2    0    0 0.21005236E+02 0.15528703E+02 -.13509849E+03 0.15890586E+03 0.79480263E+02 0.0000E+00 0.0000E+00
  9900012  1    3    3    0    0 0.30776500E+02 -.68224161E+01 -.91035883E+02 0.10854156E+03 0.50000000E+02 0.0000E+00 0.9000E+01
       11  1    3    3    0    0 -.97712640E+01 0.22351119E+02 -.44062602E+02 0.50364303E+02 0.00000000E+00 0.0000E+00 0.9000E+01
       -1  1    1    2    0  501 -.21005236E+02 -.15528703E+02 0.16617110E+04 0.16619164E+04 0.00000000E+00 0.0000E+00 0.9000E+01
#aMCatNLO 1  0  0  1  5 0.18998797D+01 0.00000000D+00  -5  6  0 0.00000000D+00 0.00000000D+00 0.00000000D+00 0.00000000D+00 0.00000000D+00
  <mgrwgt>
 0.1793586943D-03    4    2    0
 0.496197448343456D+03 0.000000000000000D+00 0.000000000000000D+00 0.496197448343456D+03
 0.496197448343456D+03 0.000000000000000D+00 0.000000000000000D+00 -.496197448343456D+03
 0.339190989571437D+03 0.307765003465006D+02 -.682241612905385D+01 -.334001181241975D+03
 0.160189220102367D+03 -.977126399449312D+01 0.223511190446414D+02 -.158320990757407D+03
 0.493014687013108D+03 -.210052363520075D+02 -.155287029155875D+02 0.492322171999381D+03
 0.000000000000000D+00 0.000000000000000D+00 -.000000000000000D+00 -.000000000000000D+00
 0.508631988576420D+03 0.000000000000000D+00 0.000000000000000D+00 0.508631988576420D+03
 0.524814246159748D+03 0.000000000000000D+00 0.000000000000000D+00 -.524814246159748D+03
 0.338307425563667D+03 0.198720867858703D+02 -.474644347236006D+00 -.334001181241975D+03
 0.161034006329954D+03 -.149413881276980D+02 0.253607965388757D+02 -.158320990757407D+03
 0.493742105792358D+03 -.368871984527842D+02 -.628335741372606D+01 0.492322171999381D+03
 0.403626970501897D+02 0.319564997946119D+02 -.186027947779137D+02 -.161822575833283D+02
0.230102844168D-02 0.000000000000D+00 0.000000000000D+00 0.141958456045D-02 0.000000000000D+00  6 -2 22 9900012 11 -1 21 0 0.25749498D+00 0.22631512D-01 0.30043299D+04 0.30043299D+04 0.30043299D+04 0.12675483D+01  1  2  2  1  6  1       -2 0.193556624223D-03 0.100000000000D+01
0.251505499608D-03 0.000000000000D+00 -.441827754537D-05 0.141958456045D-02 0.000000000000D+00  6 -2 22 9900012 11 -1 21 2 0.25749498D+00 0.22631512D-01 0.30043299D+04 0.30043299D+04 0.30043299D+04 0.12675483D+01  1  2  3  1  6  1       -2 0.339908925681D-04 0.100000000000D+01
-.355486654687D-03 0.000000000000D+00 0.000000000000D+00 0.141958456045D-02 0.000000000000D+00  6 -2 22 9900012 11 -1 21 2 0.25749498D+00 0.22631512D-01 0.30043299D+04 0.30043299D+04 0.30043299D+04 0.12675483D+01  1  2 15  1  6  1       -2 -.480439143784D-04 0.100000000000D+01
-.107220447243D-05 0.000000000000D+00 0.000000000000D+00 0.141958456045D-02 0.000000000000D+00  6 -2 22 9900012 11 -1 21 2 0.25749498D+00 0.22631512D-01 0.30043299D+04 0.30043299D+04 0.30043299D+04 0.12675483D+01  1  2  4  1  6  1       -2 -.144908111712D-06 0.100000000000D+01
  </mgrwgt>
  </event>
  <event>
  6     66 0.12711138E-05 0.41774550E+02 0.78161638E-02 0.11496286E+00
       -2 -1    0    0    0  501 0.00000000E+00 0.00000000E+00 0.65052800E+01 0.65052800E+01 0.00000000E+00 0.0000E+00 0.9000E+01
       22 -1    0    0    0    0 -.00000000E+00 -.00000000E+00 -.23595473E+04 0.23595473E+04 0.00000000E+00 0.0000E+00 0.9000E+01
      -24  2    1    2    0    0 0.58536698E+01 -.41362393E+02 -.22807440E+04 0.22825534E+04 0.80694878E+02 0.0000E+00 0.0000E+00
  9900012  1    3    3    0    0 0.76420525E+01 -.27408856E+01 -.14963051E+04 0.14971622E+04 0.50000000E+02 0.0000E+00 0.9000E+01
       11  1    3    3    0    0 -.17883826E+01 -.38621507E+02 -.78443890E+03 0.78539112E+03 0.00000000E+00 0.0000E+00 0.9000E+01
       -1  1    1    2    0  501 -.58536698E+01 0.41362393E+02 -.72298094E+02 0.83499266E+02 0.00000000E+00 0.0000E+00 0.9000E+01
#aMCatNLO 1  0  0  5  1 0.41933441D+00 0.00000000D+00  -5  6  0 0.00000000D+00 0.00000000D+00 0.00000000D+00 0.00000000D+00 0.00000000D+00
  <mgrwgt>
 0.5450254457D-04    3    2    0
 0.123893164500942D+03 0.000000000000000D+00 0.000000000000000D+00 0.123893164500942D+03
 0.123893164500942D+03 -.000000000000000D+00 -.000000000000000D+00 -.123893164500942D+03
 0.867516733810577D+02 0.764205248123338D+01 -.274088562755097D+01 -.704268373155041D+02
 0.502811655739168D+02 -.178838264976410D+01 -.386215072770817D+02 -.321461735610318D+02
 0.110753490046910D+03 -.585366983146928D+01 0.413623929046326D+02 0.102573010876536D+03
 0.000000000000000D+00 0.000000000000000D+00 0.000000000000000D+00 -.000000000000000D+00
 0.123893164500942D+03 0.000000000000000D+00 0.000000000000000D+00 0.123893164500942D+03
 0.123893164500942D+03 -.000000000000000D+00 -.000000000000000D+00 -.123893164500942D+03
 0.651691213478153D+02 0.592225332665169D+01 0.941132151717753D+01 -.402910451599553D+02
 0.353164127904298D+02 -.275737865302990D+01 -.317745216144075D+02 -.151665965702066D+02
 0.596644305458386D+02 0.489623972245296D+02 -.322762631720085D+02 0.109895753347356D+02
 0.876363643178007D+02 -.521272718981513D+02 0.546394632692384D+02 0.444680663954263D+02
0.107416887765D-04 0.000000000000D+00 0.000000000000D+00 0.237560385433D-05 0.000000000000D+00  6 -2 22 9900012 11 -1 21 0 0.10008123D-02 0.36300728D+00 0.42962969D+04 0.42962969D+04 0.42962969D+04 0.12493329D+01  1  2  2  2  6  5       -1 0.664256284495D-04 0.100000000000D+01
0.441805185459D-06 0.000000000000D+00 -.206254566266D-07 0.237560385433D-05 0.000000000000D+00  6 -2 22 9900012 11 -1 21 2 0.10008123D-02 0.36300728D+00 0.42962969D+04 0.42962969D+04 0.42962969D+04 0.12493329D+01  1  2  3  2  6  5       -1 0.426432484035D-05 0.100000000000D+01
-.167709576088D-05 0.000000000000D+00 0.000000000000D+00 0.237560385433D-05 0.000000000000D+00  6 -2 22 9900012 11 -1 21 2 0.10008123D-02 0.36300728D+00 0.42962969D+04 0.42962969D+04 0.42962969D+04 0.12493329D+01  1  2 15  2  6  5       -1 -.161874087226D-04 0.100000000000D+01
  </mgrwgt>
  </event>
  <event>
  7     66 -.12711138E-05 0.28986808E+02 0.78161638E-02 0.12483257E+00
       -2 -1    0    0    0  501 0.00000000E+00 0.00000000E+00 0.11046154E+02 0.11046154E+02 0.00000000E+00 0.0000E+00 0.9000E+01
       22 -1    0    0    0    0 -.00000000E+00 -.00000000E+00 -.90992961E+03 0.90992961E+03 0.00000000E+00 0.0000E+00 0.9000E+01
      -24  2    1    2    0    0 0.16395981E+02 -.19283453E+02 -.83265591E+03 0.83684261E+03 0.79680704E+02 0.0000E+00 0.0000E+00
  9900012  1    3    3    0    0 -.12009973E+01 -.33803291E+02 -.63998111E+03 0.64282185E+03 0.50000000E+02 0.0000E+00 0.9000E+01
       11  1    3    3    0    0 0.17596978E+02 0.14519838E+02 -.19267479E+03 0.19402076E+03 0.00000000E+00 0.0000E+00 0.9000E+01
       -1  1    1    2    0  502 -.25968992E+02 0.21857801E+02 -.26151289E+02 0.42849059E+02 0.00000000E+00 0.0000E+00 0.9000E+01
       21  1    1    2  502  501 0.95730110E+01 -.25743478E+01 -.40076264E+02 0.41284098E+02 0.00000000E+00 0.0000E+00 0.9000E+01
#aMCatNLO 2  0  0  5  1 0.14243840D+02 0.00000000D+00  -5  6  0 0.00000000D+00 0.00000000D+00 0.00000000D+00 0.00000000D+00 0.00000000D+00
  <mgrwgt>
 -.2482160488D-04    3    2    0
 0.100255785146847D+03 0.000000000000000D+00 0.000000000000000D+00 0.100255785146847D+03
 0.100255785146847D+03 -.000000000000000D+00 -.000000000000000D+00 -.100255785146847D+03
 0.877052951562962D+02 -.504716834836838D-01 -.351564340501714D+02 -.628986597308571D+02
 0.283825305235726D+02 0.179717863849279D+02 0.140790228759631D+02 -.168630972218676D+02
 0.844237446138252D+02 -.179213147014442D+02 0.210774111742084D+02 0.797617569527248D+02
 0.000000000000000D+00 0.000000000000000D+00 0.000000000000000D+00 0.000000000000000D+00
 0.100255785146847D+03 0.000000000000000D+00 0.000000000000000D+00 0.100255785146847D+03
 0.100255785146847D+03 -.000000000000000D+00 -.000000000000000D+00 -.100255785146847D+03
 0.835608082255700D+02 -.120099730875883D+01 -.338032910428432D+02 -.577780563142070D+02
 0.274110541087891D+02 0.175969781328690D+02 0.145198380601021D+02 -.151949514857635D+02
 0.795763780067405D+02 -.259689918183503D+02 0.218578007628048D+02 0.719739393560172D+02
 0.996332995259437D+01 0.957301099424011D+01 -.257434778006371D+01 0.999068443953268D+00
-.404598328028D-06 0.000000000000D+00 0.000000000000D+00 0.195962529131D-05 0.000000000000D+00  6 -2 22 9900012 11 -1 21 2 0.16994083D-02 0.13998917D+00 0.40345945D+04 0.40345945D+04 0.40345945D+04 0.12524745D+01  1  2 13  2  6  5       -1 -.254570793466D-04 0.100000000000D+01
-.429258518934D-12 0.000000000000D+00 0.000000000000D+00 0.195962529131D-05 0.000000000000D+00  6 -2 22 9900012 11 -1 21 2 0.16994083D-02 0.13998917D+00 0.31146978D+04 0.31146978D+04 0.31146978D+04 0.12656726D+01  1  2  8  2  6  5       -1 -.267573345376D-10 0.100000000000D+01
0.101002447955D-07 0.000000000000D+00 0.000000000000D+00 0.195962529131D-05 0.332268116513D-08  6 -2 22 9900012 11 -1 21 2 0.16994083D-02 0.13998917D+00 0.40345945D+04 0.40345945D+04 0.40345945D+04 0.12524745D+01  1  2  1  2  6  5       -1 0.635501225212D-06 0.100000000000D+01
  </mgrwgt>
  </event>
  <event>
  7     66 -.12711138E-05 0.16848313E+02 0.78161638E-02 0.12671061E+00
       -2 -1    0    0    0  501 0.00000000E+00 0.00000000E+00 0.22026457E+02 0.22026457E+02 0.00000000E+00 0.0000E+00 0.9000E+01
       22 -1    0    0    0    0 -.00000000E+00 -.00000000E+00 -.64629398E+03 0.64629398E+03 0.00000000E+00 0.0000E+00 0.9000E+01
      -24  2    1    2    0    0 0.25382231E+02 0.66613902E+01 -.62892950E+03 0.63460132E+03 0.80485361E+02 0.0000E+00 0.0000E+00
  9900012  1    3    3    0    0 0.34565331E+02 0.22060908E+02 -.42580820E+03 0.43069023E+03 0.50000000E+02 0.0000E+00 0.9000E+01
       11  1    3    3    0    0 -.91831000E+01 -.15399518E+02 -.20312130E+03 0.20391110E+03 0.00000000E+00 0.0000E+00 0.9000E+01
       -1  1    1    2    0  502 -.21995043E+02 0.37170664E+01 0.15193917E+01 0.22358601E+02 0.00000000E+00 0.0000E+00 0.9000E+01
       21  1    1    2  502  501 -.33871874E+01 -.10378457E+02 0.31425850E+01 0.11360512E+02 0.00000000E+00 0.0000E+00 0.9000E+01
#aMCatNLO 2  0  0  5  1 0.10001924D+02 0.00000000D+00  -5  6  0 0.00000000D+00 0.00000000D+00 0.00000000D+00 0.00000000D+00 0.00000000D+00
  <mgrwgt>
 -.4695864469D-04    2    2    0
 0.119312894742135D+03 0.000000000000000D+00 0.000000000000000D+00 0.119312894742135D+03
 0.119312894742135D+03 -.000000000000000D+00 -.000000000000000D+00 -.119312894742135D+03
 0.929101488489839D+02 0.347562715721304D+02 0.221110190030322D+02 -.665988001708155D+02
 0.399760762287472D+02 -.910093977966477D+01 -.153779552467750D+02 -.357600064066229D+02
 0.105739564406540D+03 -.256553317924656D+02 -.673306375625718D+01 0.102358806577438D+03
 0.000000000000000D+00 0.000000000000000D+00 0.000000000000000D+00 0.000000000000000D+00
 0.119312894742135D+03 0.000000000000000D+00 0.000000000000000D+00 0.119312894742135D+03
 0.119312894742135D+03 -.000000000000000D+00 -.000000000000000D+00 -.119312894742135D+03
 0.922819319229420D+02 0.345653305306455D+02 0.220609078520089D+02 -.658369898270182D+02
 0.397103980439043D+02 -.918309997963909D+01 -.153995176209875D+02 -.354322063186893D+02
 0.665947180718830D+02 -.219950431119775D+02 0.371706635487110D+01 0.627475734294906D+02
 0.400387414455415D+02 -.338718743902887D+01 -.103784565858926D+02 0.385216227162169D+02
-.158123754513D-05 0.000000000000D+00 0.000000000000D+00 0.365136641396D-05 0.000000000000D+00  6 -2 22 9900012 11 -1 21 2 0.33886858D-02 0.99429843D-01 0.33534483D+04 0.33534483D+04 0.33534483D+04 0.12618607D+01  1  2 13  2  6  5       -1 -.744505563210D-04 0.100000000000D+01
0.583894130595D-06 0.000000000000D+00 0.000000000000D+00 0.365136641396D-05 0.112283560215D-06  6 -2 22 9900012 11 -1 21 2 0.33886858D-02 0.99429843D-01 0.33534483D+04 0.33534483D+04 0.33534483D+04 0.12618607D+01  1  2  1  2  6  5       -1 0.274919116292D-04 0.100000000000D+01
  </mgrwgt>
  </event>
  <event>
  6     66 0.12711138E-05 0.59093347E+02 0.78161638E-02 0.12080711E+00
       -4 -1    0    0    0  501 0.00000000E+00 0.00000000E+00 0.21311272E+02 0.21311272E+02 0.00000000E+00 0.0000E+00 0.9000E+01
       22 -1    0    0    0    0 -.00000000E+00 -.00000000E+00 -.56066838E+03 0.56066838E+03 0.00000000E+00 0.0000E+00 0.9000E+01
      -24  2    1    2    0    0 -.53441091E+02 0.25220497E+02 -.50273973E+03 0.51246091E+03 0.79855637E+02 0.0000E+00 0.0000E+00
  9900012  1    3    3    0    0 -.21812294E+02 -.31836066E+00 -.21260723E+03 0.21949422E+03 0.50000000E+02 0.0000E+00 0.9000E+01
       11  1    3    3    0    0 -.31628797E+02 0.25538857E+02 -.29013250E+03 0.29296669E+03 0.00000000E+00 0.0000E+00 0.9000E+01
       -3  1    1    2    0  501 0.53441091E+02 -.25220497E+02 -.36617383E+02 0.69518749E+02 0.00000000E+00 0.0000E+00 0.9000E+01
#aMCatNLO 1  0  0  5  1 0.16745444D+02 0.00000000D+00  -5  6  0 0.00000000D+00 0.00000000D+00 0.00000000D+00 0.00000000D+00 0.00000000D+00
  <mgrwgt>
 0.4508757613D-04    7    2    0
 0.109309451903418D+03 0.000000000000000D+00 0.000000000000000D+00 0.109309451903418D+03
 0.109309451903418D+03 -.000000000000000D+00 -.000000000000000D+00 -.109309451903418D+03
 0.597841615710670D+02 -.218122940888567D+02 -.318360664126545D+00 -.244595267293585D+02
 0.641098542599785D+02 -.316287966445547D+02 0.255388574827432D+02 -.495727686792781D+02
 0.947248879757913D+02 0.534410907334115D+02 -.252204968186167D+02 0.740322954086366D+02
 0.000000000000000D+00 0.000000000000000D+00 0.000000000000000D+00 0.000000000000000D+00
 0.109309451903418D+03 0.000000000000000D+00 0.000000000000000D+00 0.109309451903418D+03
 0.109309451903418D+03 -.000000000000000D+00 -.000000000000000D+00 -.109309451903418D+03
 0.587085368816281D+02 -.206251573344470D+02 -.878607064919693D+00 -.228149783549376D+02
 0.618983035321339D+02 -.303663651409782D+02 0.249430771705766D+02 -.478239139923075D+02
 0.719714182569081D+02 0.273343234248363D+02 -.278968016200772D+02 0.604523636277964D+02
 0.260406451361666D+02 0.236571990505889D+02 0.383233151442021D+01 0.101865287194487D+02
0.530016001199D-06 0.000000000000D+00 0.000000000000D+00 0.167198471079D-05 0.000000000000D+00  6 -4 22 9900012 11 -3 21 0 0.32786572D-02 0.86256674D-01 0.59519147D+04 0.59519147D+04 0.59519147D+04 0.12334160D+01  1  2  2  2  6  5       -3 0.161985582711D-04 0.100000000000D+01
0.393372491005D-08 0.000000000000D+00 -.101770050051D-08 0.167198471079D-05 0.000000000000D+00  6 -4 22 9900012 11 -3 21 2 0.32786572D-02 0.86256674D-01 0.59519147D+04 0.59519147D+04 0.59519147D+04 0.12334160D+01  1  2  3  2  6  5       -3 0.182898648593D-06 0.100000000000D+01
-.847695081869D-07 0.000000000000D+00 0.000000000000D+00 0.167198471079D-05 0.000000000000D+00  6 -4 22 9900012 11 -3 21 2 0.32786572D-02 0.86256674D-01 0.59519147D+04 0.59519147D+04 0.59519147D+04 0.12334160D+01  1  2 15  2  6  5       -3 -.394136062989D-05 0.100000000000D+01
0.683825112364D-06 0.000000000000D+00 0.000000000000D+00 0.167198471079D-05 0.000000000000D+00  6 -4 22 9900012 11 -3 21 2 0.32786572D-02 0.86256674D-01 0.61162757D+04 0.61162757D+04 0.61162757D+04 0.12321148D+01  1  2 12  2  6  5       -3 0.318430803789D-04 0.100000000000D+01
-.186274768972D-06 0.000000000000D+00 0.000000000000D+00 0.167198471079D-05 0.000000000000D+00  6 -4 22 9900012 11 -3 21 2 0.32786572D-02 0.86256674D-01 0.59519147D+04 0.59519147D+04 0.59519147D+04 0.12334160D+01  1  2  4  2  6  5       -3 -.866085054017D-05 0.100000000000D+01
-.654954942862D-06 0.000000000000D+00 0.000000000000D+00 0.167198471079D-05 0.000000000000D+00  6 -4 22 9900012 11 -3 21 2 0.32786572D-02 0.86256674D-01 0.59519147D+04 0.59519147D+04 0.59519147D+04 0.12334160D+01  1  2  5  2  6  5       -3 -.304521482000D-04 0.100000000000D+01
0.858530475025D-06 0.000000000000D+00 -.000000000000D+00 0.167198471079D-05 0.000000000000D+00  6 -4 22 9900012 11 -3 21 2 0.32786572D-02 0.86256674D-01 0.59519147D+04 0.59519147D+04 0.59519147D+04 0.12334160D+01  1  2  6  2  6  5       -3 0.399173982037D-04 0.100000000000D+01
  </mgrwgt>
  </event>
  <event>
  6     66 0.12711138E-05 0.15119471E+03 0.78161638E-02 0.10374001E+00
       -2 -1    0    0    0  501 0.00000000E+00 0.00000000E+00 0.38693883E+02 0.38693883E+02 0.00000000E+00 0.0000E+00 0.9000E+01
       22 -1    0    0    0    0 -.00000000E+00 -.00000000E+00 -.17018709E+04 0.17018709E+04 0.00000000E+00 0.0000E+00 0.9000E+01
      -24  2    1    2    0    0 0.11616411E+03 0.18178909E+03 -.12811359E+04 0.13018202E+04 0.82977882E+02 0.0000E+00 0.0000E+00
  9900012  1    3    3    0    0 0.10401140E+03 0.11730363E+03 -.85987358E+03 0.87547764E+03 0.50000000E+02 0.0000E+00 0.9000E+01
       11  1    3    3    0    0 0.12152709E+02 0.64485457E+02 -.42126227E+03 0.42634255E+03 0.00000000E+00 0.0000E+00 0.9000E+01
       -1  1    1    2    0  501 -.11616411E+03 -.18178909E+03 -.38204112E+03 0.43874456E+03 0.00000000E+00 0.0000E+00 0.9000E+01
#aMCatNLO 1  0  0  5  1 0.54770491D+02 0.00000000D+00  -5  6  0 0.00000000D+00 0.00000000D+00 0.00000000D+00 0.00000000D+00 0.00000000D+00
  <mgrwgt>
 0.1131062556D-04    7    2    0
 0.256616430015981D+03 0.000000000000000D+00 0.000000000000000D+00 0.256616430015981D+03
 0.256616430015981D+03 -.000000000000000D+00 -.000000000000000D+00 -.256616430015981D+03
 0.182575139416800D+03 0.104011399027096D+03 0.117303630824429D+03 -.790896238510230D+02
 0.807490927301455D+02 0.121527087880836D+02 0.644854574884485D+02 -.470569167961434D+02
 0.249908627885016D+03 -.116164107815179D+03 -.181789088312878D+03 0.126146540647166D+03
 0.000000000000000D+00 0.000000000000000D+00 0.000000000000000D+00 0.000000000000000D+00
 0.256616430015981D+03 0.000000000000000D+00 0.000000000000000D+00 0.256616430015981D+03
 0.256616430015981D+03 -.000000000000000D+00 -.000000000000000D+00 -.256616430015981D+03
 0.172024853155788D+03 0.988368764879826D+02 0.109205847847122D+03 -.734704344982457D+02
 0.761124001665483D+02 0.986369765578148D+01 0.609033075911559D+02 -.445712020493632D+02
 0.196153039003264D+03 -.132860939019860D+03 -.110853548208895D+03 0.923876422606144D+02
 0.689425677063610D+02 0.241603648760960D+02 -.592556072293832D+02 0.256539942869945D+02
0.390318321800D-05 0.000000000000D+00 0.000000000000D+00 0.105725193091D-06 0.000000000000D+00  6 -2 22 9900012 11 -1 21 0 0.59529051D-02 0.26182629D+00 0.49709064D+05 0.49709064D+05 0.49709064D+05 0.11431717D+01  1  2  2  2  6  5       -1 0.667337718170D-05 0.100000000000D+01
-.793465286633D-07 0.000000000000D+00 -.749462564443D-08 0.105725193091D-06 0.000000000000D+00  6 -2 22 9900012 11 -1 21 2 0.59529051D-02 0.26182629D+00 0.49709064D+05 0.49709064D+05 0.49709064D+05 0.11431717D+01  1  2  3  2  6  5       -1 -.177287278467D-06 0.100000000000D+01
-.535259809429D-06 0.000000000000D+00 0.000000000000D+00 0.105725193091D-06 0.000000000000D+00  6 -2 22 9900012 11 -1 21 2 0.59529051D-02 0.26182629D+00 0.49709064D+05 0.49709064D+05 0.49709064D+05 0.11431717D+01  1  2 15  2  6  5       -1 -.119595345234D-05 0.100000000000D+01
0.338893873134D-05 0.000000000000D+00 0.000000000000D+00 0.105725193091D-06 0.000000000000D+00  6 -2 22 9900012 11 -1 21 2 0.59529051D-02 0.26182629D+00 0.51589923D+05 0.51589923D+05 0.51589923D+05 0.11417685D+01  1  2 12  2  6  5       -1 0.757019313272D-05 0.100000000000D+01
-.169486074125D-05 0.000000000000D+00 0.000000000000D+00 0.105725193091D-06 0.000000000000D+00  6 -2 22 9900012 11 -1 21 2 0.59529051D-02 0.26182629D+00 0.49709064D+05 0.49709064D+05 0.49709064D+05 0.11431717D+01  1  2  4  2  6  5       -1 -.378689847253D-05 0.100000000000D+01
-.319463217340D-05 0.000000000000D+00 0.000000000000D+00 0.105725193091D-06 0.000000000000D+00  6 -2 22 9900012 11 -1 21 2 0.59529051D-02 0.26182629D+00 0.49709064D+05 0.49709064D+05 0.49709064D+05 0.11431717D+01  1  2  5  2  6  5       -1 -.713790071560D-05 0.100000000000D+01
0.419143323931D-05 0.000000000000D+00 -.000000000000D+00 0.105725193091D-06 0.000000000000D+00  6 -2 22 9900012 11 -1 21 2 0.59529051D-02 0.26182629D+00 0.49709064D+05 0.49709064D+05 0.49709064D+05 0.11431717D+01  1  2  6  2  6  5       -1 0.936509516410D-05 0.100000000000D+01
  </mgrwgt>
  </event>
  <event>
  6     66 0.12711138E-05 0.43103991E+02 0.78161638E-02 0.12432343E+00
       -2 -1    0    0    0  501 0.00000000E+00 0.00000000E+00 0.30778355E+02 0.30778355E+02 0.00000000E+00 0.0000E+00 0.9000E+01
       22 -1    0    0    0    0 0.00000000E+00 0.00000000E+00 -.99694193E+03 0.99694193E+03 0.00000000E+00 0.0000E+00 0.9000E+01
      -24  2    1    2    0    0 0.44178824E+02 0.24833419E+01 -.97771238E+03 0.98198944E+03 0.80148786E+02 0.0000E+00 0.0000E+00
  9900012  1    3    3    0    0 0.42656051E+02 -.95800069E+01 -.94047162E+03 0.94281397E+03 0.50000000E+02 0.0000E+00 0.9000E+01
       11  1    3    3    0    0 0.15227731E+01 0.12063349E+02 -.37240756E+02 0.39175466E+02 0.00000000E+00 0.0000E+00 0.9000E+01
       -1  1    1    2    0  501 -.44178824E+02 -.24833419E+01 0.11548803E+02 0.45730846E+02 0.00000000E+00 0.0000E+00 0.9000E+01
#aMCatNLO 1  0  0  1  5 0.81909666D+01 0.00000000D+00  -5  6  0 0.00000000D+00 0.00000000D+00 0.00000000D+00 0.00000000D+00 0.00000000D+00
  <mgrwgt>
 0.9260890751D-04   11    4    0
 0.175169154831007D+03 0.000000000000000D+00 0.000000000000000D+00 0.175169154831007D+03
 0.175169154831007D+03 0.000000000000000D+00 0.000000000000000D+00 -.175169154831007D+03
 0.172118260558329D+03 0.426560505452817D+02 -.958000689182933D+01 -.158787217487605D+03
 0.122189293748568D+02 0.152277313484254D+01 0.120633488130022D+02 -.120789588267231D+01
 0.166001119728828D+03 -.441788236801242D+02 -.248334192117290D+01 0.159995113370277D+03
 0.000000000000000D+00 -.000000000000000D+00 -.000000000000000D+00 0.000000000000000D+00
 0.215058265668822D+03 0.000000000000000D+00 0.000000000000000D+00 0.215058265668822D+03
 0.175632099780027D+03 0.000000000000000D+00 0.000000000000000D+00 -.175632099780027D+03
 0.172296782906433D+03 0.440327200525448D+02 -.582413317370077D+01 -.158787217487605D+03
 0.124975405724612D+02 0.162156792081169D+01 0.123328839034157D+02 -.120789588267231D+01
 0.165638518651879D+03 -.428532190463499D+02 0.113321497818099D+01 0.159995113370277D+03
 0.402575233180745D+02 -.280106892700662D+01 -.764196570789595D+01 0.394261658887954D+02
 0.175169154831007D+03 0.000000000000000D+00 0.000000000000000D+00 0.175169154831007D+03
 0.175169154831007D+03 0.000000000000000D+00 0.000000000000000D+00 -.175169154831007D+03
 0.172118260558329D+03 0.426560505452817D+02 -.958000689182933D+01 -.158787217487605D+03
 0.122189293748568D+02 0.152277313484254D+01 0.120633488130022D+02 -.120789588267231D+01
 0.000000000000000D+00 -.000000000000000D+00 -.000000000000000D+00 0.000000000000000D+00
 0.166001119728828D+03 -.441788236801242D+02 -.248334192117290D+01 0.159995113370277D+03
 0.215058265668822D+03 0.000000000000000D+00 0.000000000000000D+00 0.215058265668822D+03
 0.175632099780027D+03 0.000000000000000D+00 0.000000000000000D+00 -.175632099780027D+03
 0.172296782906433D+03 0.440327200525448D+02 -.582413317370077D+01 -.158787217487605D+03
 0.124975405724612D+02 0.162156792081169D+01 0.123328839034157D+02 -.120789588267231D+01
 0.402575233180745D+02 -.280106892700662D+01 -.764196570789595D+01 0.394261658887954D+02
 0.165638518651879D+03 -.428532190463499D+02 0.113321497818099D+01 0.159995113370277D+03
0.775424606647D-06 0.000000000000D+00 0.000000000000D+00 0.204630676141D-04 0.000000000000D+00  6 -2 22 9900012 11 -1 21 0 0.47351316D-02 0.15337568D+00 0.37715183D+04 0.37715183D+04 0.37715183D+04 0.12558718D+01  1  2  2  1  6  1       -2 0.589272133757D-05 0.100000000000D+01
0.261623618635D-07 0.000000000000D+00 -.148891733176D-08 0.204630676141D-04 0.000000000000D+00  6 -2 22 9900012 11 -1 21 2 0.47351316D-02 0.15337568D+00 0.37715183D+04 0.37715183D+04 0.37715183D+04 0.12558718D+01  1  2  3  1  6  1       -2 0.313576789543D-06 0.100000000000D+01
-.122190615591D-06 0.000000000000D+00 0.000000000000D+00 0.204630676141D-04 0.000000000000D+00  6 -2 22 9900012 11 -1 21 2 0.47351316D-02 0.15337568D+00 0.37715183D+04 0.37715183D+04 0.37715183D+04 0.12558718D+01  1  2 15  1  6  1       -2 -.146455205953D-05 0.100000000000D+01
0.186184062696D-04 0.000000000000D+00 0.000000000000D+00 0.204630676141D-04 0.000000000000D+00  6 -2 22 9900012 11 -1 21 2 0.58287686D-02 0.15337568D+00 0.42461759D+04 0.42461759D+04 0.42461759D+04 0.12499177D+01  1  2 12  1  6  1       -2 0.165122862775D-03 0.100000000000D+01
-.111107072824D-04 0.000000000000D+00 0.000000000000D+00 0.204630676141D-04 0.000000000000D+00  6 -2 22 9900012 11 -1 21 2 0.47351316D-02 0.15337568D+00 0.37715183D+04 0.37715183D+04 0.37715183D+04 0.12558718D+01  1  2  4  1  6  1       -2 -.133170695266D-03 0.100000000000D+01
-.188306025190D-04 0.000000000000D+00 -.471077333341D-06 0.204630676141D-04 0.000000000000D+00  6 -2 22 9900012 11 -1 21 2 0.58244956D-02 0.15337568D+00 0.37715183D+04 0.37715183D+04 0.37715183D+04 0.12558718D+01  1  2  5  1  6  1       -2 -.166978403880D-03 0.100000000000D+01
0.185392098503D-04 0.000000000000D+00 0.461155921535D-06 0.204630676141D-04 0.000000000000D+00  6 -2 22 9900012 11 -1 21 2 0.47351316D-02 0.15337568D+00 0.37715183D+04 0.37715183D+04 0.37715183D+04 0.12558718D+01  1  2  6  1  6  1       -2 0.222207227919D-03 0.100000000000D+01
0.360512931237D-07 0.000000000000D+00 0.000000000000D+00 0.204630676141D-04 0.264278780967D-05  6 -2 22 9900012 11 -1 21 2 0.58134047D-02 0.15378103D+00 0.42461759D+04 0.42461759D+04 0.42461759D+04 0.12499177D+01  1  2 11  1  6  1       -2 0.319101841329D-06 0.100000000000D+01
0.548600137989D-06 0.000000000000D+00 0.000000000000D+00 0.204630676141D-04 0.000000000000D+00  6 21 22 9900012 11 2 -1 2 0.58287686D-02 0.15337568D+00 0.42461759D+04 0.42461759D+04 0.42461759D+04 0.12499177D+01  3  4 12  3  5  1       -2 0.773419695065D-04 0.100000000000D+01
-.547602513048D-06 0.000000000000D+00 -.138431841178D-07 0.204630676141D-04 0.000000000000D+00  6 21 22 9900012 11 2 -1 2 0.58244956D-02 0.15337568D+00 0.37715183D+04 0.37715183D+04 0.37715183D+04 0.12558718D+01  3  4  5  3  5  1       -2 -.772312496695D-04 0.100000000000D+01
0.182134458647D-08 0.000000000000D+00 0.000000000000D+00 0.204630676141D-04 0.876688310346D-07  6 21 22 9900012 11 2 -1 2 0.58134047D-02 0.15378103D+00 0.42461759D+04 0.42461759D+04 0.42461759D+04 0.12499177D+01  3  4 11  3  5  1       -2 0.256348220035D-06 0.100000000000D+01
  </mgrwgt>
  </event>
  <event>
  6     66 0.12711138E-05 0.26702659E+02 0.78161638E-02 0.11518081E+00
       -2 -1    0    0    0  501 0.00000000E+00 0.00000000E+00 0.22151624E+03 0.22151624E+03 0.00000000E+00 0.0000E+00 0.9000E+01
       22 -1    0    0    0    0 0.00000000E+00 0.00000000E+00 -.20663101E+03 0.20663101E+03 0.00000000E+00 0.0000E+00 0.9000E+01
      -24  2    1    2    0    0 -.91806352E+02 -.14301364E+02 -.17667359E+03 0.21524417E+03 0.80520567E+02 0.0000E+00 0.0000E+00
  9900012  1    3    3    0    0 -.26737628E+02 -.20950565E+01 -.80420323E+02 0.98421127E+02 0.50000000E+02 0.0000E+00 0.9000E+01
       11  1    3    3    0    0 -.65068723E+02 -.12206308E+02 -.96253268E+02 0.11682305E+03 0.00000000E+00 0.0000E+00 0.9000E+01
       -1  1    1    2    0  501 0.91806352E+02 0.14301364E+02 0.19155883E+03 0.21290307E+03 0.00000000E+00 0.0000E+00 0.9000E+01
#aMCatNLO 1  0  0  5  1 0.16807471D+02 0.00000000D+00  -5  6  0 0.00000000D+00 0.00000000D+00 0.00000000D+00 0.00000000D+00 0.00000000D+00
  <mgrwgt>
 0.6893347427D-04    7    2    0
 0.213944207664727D+03 0.000000000000000D+00 0.000000000000000D+00 0.213944207664727D+03
 0.213944207664727D+03 -.000000000000000D+00 -.000000000000000D+00 -.213944207664727D+03
 0.101278297583984D+03 -.267376284624077D+02 -.209505649811432D+01 -.838928097275678D+02
 0.120242139675007D+03 -.650687232721409D+02 -.122063078161630D+02 -.100375492301929D+03
 0.206367978070463D+03 0.918063517345486D+02 0.143013643142773D+02 0.184268302029497D+03
 0.000000000000000D+00 0.000000000000000D+00 0.000000000000000D+00 0.000000000000000D+00
 0.213944207664727D+03 0.000000000000000D+00 0.000000000000000D+00 0.213944207664727D+03
 0.213944207664727D+03 -.000000000000000D+00 -.000000000000000D+00 -.213944207664727D+03
 0.995321579731685D+02 -.258299580863242D+02 -.195366187257489D+01 -.820709872082829D+02
 0.117840019597776D+03 -.639925834743084D+02 -.120386694446220D+02 -.982155278817511D+02
 0.192164541319774D+03 0.749341098566900D+02 0.380768732673895D+01 0.176911253564737D+03
 0.183516964387352D+02 0.148884317039426D+02 0.101846439904580D+02 0.337526152529731D+01
0.179590223234D-05 0.000000000000D+00 0.000000000000D+00 0.977287962329D-05 0.000000000000D+00  6 -2 22 9900012 11 -1 21 0 0.34079422D-01 0.31789386D-01 0.11648464D+05 0.11648464D+05 0.11648464D+05 0.12025219D+01  1  2  2  2  6  5       -1 0.118675646377D-04 0.100000000000D+01
0.208039253865D-07 0.000000000000D+00 -.344836872206D-08 0.977287962329D-05 0.000000000000D+00  6 -2 22 9900012 11 -1 21 2 0.34079422D-01 0.31789386D-01 0.11648464D+05 0.11648464D+05 0.11648464D+05 0.12025219D+01  1  2  3  2  6  5       -1 0.198797174971D-06 0.100000000000D+01
-.280642861786D-06 0.000000000000D+00 0.000000000000D+00 0.977287962329D-05 0.000000000000D+00  6 -2 22 9900012 11 -1 21 2 0.34079422D-01 0.31789386D-01 0.11648464D+05 0.11648464D+05 0.11648464D+05 0.12025219D+01  1  2 15  2  6  5       -1 -.268175390281D-05 0.100000000000D+01
0.621954718352D-05 0.000000000000D+00 0.000000000000D+00 0.977287962329D-05 0.000000000000D+00  6 -2 22 9900012 11 -1 21 2 0.34079422D-01 0.31789386D-01 0.11502157D+05 0.11502157D+05 0.11502157D+05 0.12030814D+01  1  2 12  2  6  5       -1 0.594436274481D-04 0.100000000000D+01
-.571138500749D-06 0.000000000000D+00 0.000000000000D+00 0.977287962329D-05 0.000000000000D+00  6 -2 22 9900012 11 -1 21 2 0.34079422D-01 0.31789386D-01 0.11648464D+05 0.11648464D+05 0.11648464D+05 0.12025219D+01  1  2  4  2  6  5       -1 -.545765851190D-05 0.100000000000D+01
-.626886392271D-05 0.000000000000D+00 0.000000000000D+00 0.977287962329D-05 0.000000000000D+00  6 -2 22 9900012 11 -1 21 2 0.34079422D-01 0.31789386D-01 0.11648464D+05 0.11648464D+05 0.11648464D+05 0.12025219D+01  1  2  5  2  6  5       -1 -.599037160038D-04 0.100000000000D+01
0.685101557031D-05 0.000000000000D+00 -.000000000000D+00 0.977287962329D-05 0.000000000000D+00  6 -2 22 9900012 11 -1 21 2 0.34079422D-01 0.31789386D-01 0.11648464D+05 0.11648464D+05 0.11648464D+05 0.12025219D+01  1  2  6  2  6  5       -1 0.654666134281D-04 0.100000000000D+01
  </mgrwgt>
  </event>
  <event>
  6     66 -.12711138E-05 0.30054708E+02 0.78161638E-02 0.12740943E+00
       -2 -1    0    0    0  501 0.00000000E+00 0.00000000E+00 0.57768170E+03 0.57768170E+03 0.00000000E+00 0.0000E+00 0.9000E+01
       22 -1    0    0    0    0 0.00000000E+00 0.00000000E+00 -.67047437E+02 0.67047437E+02 0.00000000E+00 0.0000E+00 0.9000E+01
      -24  2    1    2    0    0 0.39195007E+02 -.24958640E+01 -.37384603E+02 0.95304751E+02 0.78376714E+02 0.0000E+00 0.0000E+00
  9900012  1    3    3    0    0 0.33535879E+02 0.80487516E+01 -.51949062E+01 0.60962486E+02 0.50000000E+02 0.0000E+00 0.9000E+01
       11  1    3    3    0    0 0.56591271E+01 -.10544616E+02 -.32189697E+02 0.34342266E+02 0.00000000E+00 0.0000E+00 0.9000E+01
       -1  1    1    2    0  501 -.39195007E+02 0.24958640E+01 0.54801886E+03 0.54942438E+03 0.00000000E+00 0.0000E+00 0.9000E+01
#aMCatNLO 1  0  0  1  5 0.83838373D+01 0.00000000D+00  -5  6  0 0.00000000D+00 0.00000000D+00 0.00000000D+00 0.00000000D+00 0.00000000D+00
  <mgrwgt>
 -.7953952775D-06    1    2    0
 0.196804667710052D+03 0.000000000000000D+00 0.000000000000000D+00 0.196804667710052D+03
 0.196804667710052D+03 0.000000000000000D+00 0.000000000000000D+00 -.196804667710052D+03
 0.106595509784796D+03 0.335358794897116D+02 0.804875155103124D+01 -.875966043383062D+02
 0.980124652674146D+02 0.565912709175049D+01 -.105446155976235D+02 -.972791278242867D+02
 0.189001360367894D+03 -.391950065814621D+02 0.249586404659225D+01 0.184875732162593D+03
 0.000000000000000D+00 -.000000000000000D+00 0.000000000000000D+00 0.000000000000000D+00
 0.362756744478139D+03 0.000000000000000D+00 0.000000000000000D+00 0.362756744478139D+03
 0.202724930597909D+03 0.000000000000000D+00 0.000000000000000D+00 -.202724930597909D+03
 0.111693217479883D+03 0.477073548713688D+02 0.512035453694307D+01 -.875966043383062D+02
 0.998999335143750D+02 0.185077552467907D+02 -.131996591489146D+02 -.972791278242867D+02
 0.185491027076126D+03 -.148826670677226D+02 -.252804352267082D+01 0.184875732162593D+03
 0.168397497005664D+03 -.513324430504370D+02 0.106073481346423D+02 0.160031813880230D+03
-.990295664174D-07 0.000000000000D+00 0.000000000000D+00 0.113125339645D-04 0.000000000000D+00  6 -2 22 9900012 11 -1 21 2 0.88874107D-01 0.10314990D-01 0.31350125D+04 0.31350125D+04 0.31350125D+04 0.12653356D+01  1  2 14  1  6  1       -2 -.795395277522D-06 0.100000000000D+01
  </mgrwgt>
  </event>
  <event>
  6     66 0.12711138E-05 0.23061377E+02 0.78161638E-02 0.11223125E+00
       -2 -1    0    0    0  501 0.00000000E+00 0.00000000E+00 0.39716514E+02 0.39716514E+02 0.00000000E+00 0.0000E+00 0.9000E+01
       22 -1    0    0    0    0 0.00000000E+00 0.00000000E+00 -.95318632E+03 0.95318632E+03 0.00000000E+00 0.0000E+00 0.9000E+01
      -24  2    1    2    0    0 0.61466181E+01 -.22227150E+02 -.94783651E+03 0.95151566E+03 0.80350362E+02 0.0000E+00 0.0000E+00
  9900012  1    3    3    0    0 0.82899622E+01 -.40261597E+02 -.78689264E+03 0.78955034E+03 0.50000000E+02 0.0000E+00 0.9000E+01
       11  1    3    3    0    0 -.21433441E+01 0.18034447E+02 -.16094387E+03 0.16196532E+03 0.00000000E+00 0.0000E+00 0.9000E+01
       -1  1    1    2    0  501 -.61466181E+01 0.22227150E+02 0.34366707E+02 0.41387168E+02 0.00000000E+00 0.0000E+00 0.9000E+01
#aMCatNLO 1  0  0  1  5 0.69686288D+01 0.00000000D+00  -5  6  0 0.00000000D+00 0.00000000D+00 0.00000000D+00 0.00000000D+00 0.00000000D+00
  <mgrwgt>
 0.6519932895D-04    4    2    0
 0.194569364329854D+03 0.000000000000000D+00 0.000000000000000D+00 0.194569364329854D+03
 0.194569364329854D+03 0.000000000000000D+00 0.000000000000000D+00 -.194569364329854D+03
 0.167405868563879D+03 0.828996220868171D+01 -.402615967730686D+02 -.154385896964354D+03
 0.354589701984101D+02 -.214334407772716D+01 0.180344470814931D+02 -.304549398646761D+02
 0.186273889897419D+03 -.614661813095456D+01 0.222271496915754D+02 0.184840836829030D+03
 0.000000000000000D+00 -.000000000000000D+00 -.000000000000000D+00 -.000000000000000D+00
 0.238124025043658D+03 0.000000000000000D+00 0.000000000000000D+00 0.238124025043658D+03
 0.274669402020482D+03 0.000000000000000D+00 0.000000000000000D+00 -.274669402020482D+03
 0.163367467689485D+03 0.187243485164642D+02 0.182293456289315D+01 -.154385896964354D+03
 0.412305549117647D+02 0.275859778979752D+00 0.277917109504497D+02 -.304549398646761D+02
 0.198147471592689D+03 0.598011806908489D+01 0.711373581657296D+02 0.184840836829030D+03
 0.110047932870202D+03 -.249803263645288D+02 -.100752003679073D+03 -.365453769768243D+02
0.122325512586D-04 0.000000000000D+00 0.000000000000D+00 0.356329147079D-04 0.000000000000D+00  6 -2 22 9900012 11 -1 21 0 0.61102329D-02 0.14664405D+00 0.28063923D+04 0.28063923D+04 0.28063923D+04 0.12711164D+01  1  2  2  1  6  1       -2 0.688296401187D-04 0.100000000000D+01
0.147387808911D-05 0.000000000000D+00 -.234881088688D-07 0.356329147079D-04 0.000000000000D+00  6 -2 22 9900012 11 -1 21 2 0.61102329D-02 0.14664405D+00 0.28063923D+04 0.28063923D+04 0.28063923D+04 0.12711164D+01  1  2  3  1  6  1       -2 0.133995646222D-04 0.100000000000D+01
-.186607657642D-05 0.000000000000D+00 0.000000000000D+00 0.356329147079D-04 0.000000000000D+00  6 -2 22 9900012 11 -1 21 2 0.61102329D-02 0.14664405D+00 0.28063923D+04 0.28063923D+04 0.28063923D+04 0.12711164D+01  1  2 15  1  6  1       -2 -.169651844752D-04 0.100000000000D+01
-.711568687905D-08 0.000000000000D+00 0.000000000000D+00 0.356329147079D-04 0.000000000000D+00  6 -2 22 9900012 11 -1 21 2 0.61102329D-02 0.14664405D+00 0.28063923D+04 0.28063923D+04 0.28063923D+04 0.12711164D+01  1  2  4  1  6  1       -2 -.646913112227D-07 0.100000000000D+01
  </mgrwgt>
  </event>
  <event>
  7     66 -.12711138E-05 0.23094438E+02 0.78161638E-02 0.12411913E+00
       -2 -1    0    0    0  502 0.00000000E+00 0.00000000E+00 0.12188327E+03 0.12188327E+03 0.00000000E+00 0.0000E+00 0.9000E+01
       22 -1    0    0    0    0 0.00000000E+00 0.00000000E+00 -.13914647E+03 0.13914647E+03 0.00000000E+00 0.0000E+00 0.9000E+01
      -24  2    1    2    0    0 0.61963834E+01 -.34425802E+02 -.11235350E+03 0.14196897E+03 0.79425115E+02 0.0000E+00 0.0000E+00
  9900012  1    3    3    0    0 -.82807107E+01 -.44542580E+02 -.76519387E+02 0.10201876E+03 0.50000000E+02 0.0000E+00 0.9000E+01
       11  1    3    3    0    0 0.14477094E+02 0.10116778E+02 -.35834110E+02 0.39950205E+02 0.00000000E+00 0.0000E+00 0.9000E+01
       -1  1    1    2    0  501 0.86918392E+01 0.29662967E+02 0.98350035E+02 0.10309301E+03 0.00000000E+00 0.0000E+00 0.9000E+01
       21  1    1    2  501  502 -.14888223E+02 0.47628350E+01 -.32597383E+01 0.15967770E+02 0.00000000E+00 0.0000E+00 0.9000E+01
#aMCatNLO 2  0  0  1  5 0.23836409D+02 0.00000000D+00  -5  6  0 0.00000000D+00 0.00000000D+00 0.00000000D+00 0.00000000D+00 0.00000000D+00
  <mgrwgt>
 -.1229323387D-04    2    2    0
 0.122080847603233D+03 0.000000000000000D+00 0.000000000000000D+00 0.122080847603233D+03
 0.122080847603233D+03 0.000000000000000D+00 0.000000000000000D+00 -.122080847603233D+03
 0.976423433154816D+02 -.142335359325153D+02 -.426382345221869D+02 -.708054702676789D+02
 0.373568879649592D+02 0.121830074219237D+02 0.108506708266395D+02 -.336061653747609D+02
 0.109162463926026D+03 0.205052851059159D+01 0.317875636955474D+02 0.104411635642440D+03
 0.000000000000000D+00 -.000000000000000D+00 0.000000000000000D+00 -.000000000000000D+00
 0.129058871839233D+03 0.000000000000000D+00 0.000000000000000D+00 0.129058871839233D+03
 0.131410013053872D+03 0.000000000000000D+00 0.000000000000000D+00 -.131410013053872D+03
 0.978060645024133D+02 -.828071066996282D+01 -.445425803521017D+02 -.708054702676789D+02
 0.379645861934132D+02 0.144770940261002D+02 0.101167782520314D+02 -.336061653747609D+02
 0.108890905694773D+03 0.869183923681046D+01 0.296629670832120D+02 0.104411635642440D+03
 0.158073285025063D+02 -.148882225929478D+02 0.476283501685838D+01 -.235114121463920D+01
-.269362674907D-06 0.000000000000D+00 0.000000000000D+00 0.405628514220D-05 0.000000000000D+00  6 -2 22 9900012 11 -1 21 2 0.20184206D-01 0.19887396D-01 0.43346702D+04 0.43346702D+04 0.43346702D+04 0.12488903D+01  1  2 13  1  6  1       -2 -.125787721800D-04 0.100000000000D+01
0.606865962352D-08 0.000000000000D+00 0.000000000000D+00 0.405628514220D-05 0.267370349842D-08  6 -2 22 9900012 11 -1 21 2 0.18751273D-01 0.21407150D-01 0.43346702D+04 0.43346702D+04 0.43346702D+04 0.12488903D+01  1  2  1  1  6  1       -2 0.285538307393D-06 0.100000000000D+01
  </mgrwgt>
  </event>
  <event>
  6     66 0.12711138E-05 0.32860582E+02 0.78161638E-02 0.12491726E+00
       -2 -1    0    0    0  501 0.00000000E+00 0.00000000E+00 0.14404380E+03 0.14404380E+03 0.00000000E+00 0.0000E+00 0.9000E+01
       22 -1    0    0    0    0 0.00000000E+00 0.00000000E+00 -.34213019E+02 0.34213019E+02 0.00000000E+00 0.0000E+00 0.9000E+01
      -24  2    1    2    0    0 -.24313089E+02 0.22964756E+02 0.30537996E+02 0.92199559E+02 0.80309919E+02 0.0000E+00 0.0000E+00
  9900012  1    3    3    0    0 -.40171292E+02 0.12871816E+02 0.32951496E+02 0.73247645E+02 0.50000000E+02 0.0000E+00 0.9000E+01
       11  1    3    3    0    0 0.15858203E+02 0.10092940E+02 -.24135001E+01 0.18951914E+02 0.00000000E+00 0.0000E+00 0.9000E+01
       -1  1    1    2    0  501 0.24313089E+02 -.22964756E+02 0.79292782E+02 0.86057258E+02 0.00000000E+00 0.0000E+00 0.9000E+01
#aMCatNLO 1  0  0  1  5 0.13449021D+02 0.00000000D+00  -5  6  0 0.00000000D+00 0.00000000D+00 0.00000000D+00 0.00000000D+00 0.00000000D+00
  <mgrwgt>
 0.4650627406D-04    6    4    0
 0.702009488451359D+02 0.000000000000000D+00 0.000000000000000D+00 0.702009488451359D+02
 0.702009488451359D+02 0.000000000000000D+00 0.000000000000000D+00 -.702009488451359D+02
 0.672199144829943D+02 -.401712924854950D+02 0.128718158249546D+02 -.154628755577459D+02
 0.259496807880620D+02 0.158582033166871D+02 0.100929404049677D+02 -.178895465160718D+02
 0.472323024192156D+02 0.243130891688079D+02 -.229647562299223D+02 0.333524220738177D+02
 0.000000000000000D+00 0.000000000000000D+00 0.000000000000000D+00 -.000000000000000D+00
 0.738926475778073D+02 0.000000000000000D+00 0.000000000000000D+00 0.738926475778073D+02
 0.755523134546924D+02 0.000000000000000D+00 0.000000000000000D+00 -.755523134546924D+02
 0.676118712215925D+02 -.418300101222899D+02 0.908376919235565D+01 -.154628755577459D+02
 0.250403508219801D+02 0.152309175154175D+02 0.866039527825901D+01 -.178895465160718D+02
 0.480140622919321D+02 0.231413563747831D+02 -.256406658400038D+02 0.333524220738177D+02
 0.877867669699505D+01 0.345773623208929D+01 0.789650136938909D+01 -.165966587688516D+01
 0.702009488451359D+02 0.000000000000000D+00 0.000000000000000D+00 0.702009488451359D+02
 0.702009488451359D+02 0.000000000000000D+00 0.000000000000000D+00 -.702009488451359D+02
 0.672199144829943D+02 -.401712924854950D+02 0.128718158249546D+02 -.154628755577459D+02
 0.259496807880620D+02 0.158582033166871D+02 0.100929404049677D+02 -.178895465160718D+02
 0.000000000000000D+00 0.000000000000000D+00 0.000000000000000D+00 -.000000000000000D+00
 0.472323024192156D+02 0.243130891688079D+02 -.229647562299223D+02 0.333524220738177D+02
 0.738926475778073D+02 0.000000000000000D+00 0.000000000000000D+00 0.738926475778073D+02
 0.755523134546924D+02 0.000000000000000D+00 0.000000000000000D+00 -.755523134546924D+02
 0.676118712215925D+02 -.418300101222899D+02 0.908376919235565D+01 -.154628755577459D+02
 0.250403508219801D+02 0.152309175154175D+02 0.866039527825901D+01 -.178895465160718D+02
 0.877867669699505D+01 0.345773623208929D+01 0.789650136938909D+01 -.165966587688516D+01
 0.480140622919321D+02 0.231413563747831D+02 -.256406658400038D+02 0.333524220738177D+02
0.140043875769D-06 0.000000000000D+00 0.000000000000D+00 0.288111050661D-06 0.000000000000D+00  6 -2 22 9900012 11 -1 21 0 0.22160584D-01 0.52635414D-02 0.34609062D+04 0.34609062D+04 0.34609062D+04 0.12602441D+01  1  2  2  1  6  1       -2 0.230871622917D-04 0.100000000000D+01
0.247373083942D-08 0.000000000000D+00 -.268902678675D-09 0.288111050661D-06 0.000000000000D+00  6 -2 22 9900012 11 -1 21 2 0.22160584D-01 0.52635414D-02 0.34609062D+04 0.34609062D+04 0.34609062D+04 0.12602441D+01  1  2  3  1  6  1       -2 0.647691488377D-06 0.100000000000D+01
-.194858612359D-07 0.000000000000D+00 0.000000000000D+00 0.288111050661D-06 0.000000000000D+00  6 -2 22 9900012 11 -1 21 2 0.22160584D-01 0.52635414D-02 0.34609062D+04 0.34609062D+04 0.34609062D+04 0.12602441D+01  1  2 15  1  6  1       -2 -.510194005955D-05 0.100000000000D+01
0.113470541634D-06 0.000000000000D+00 0.000000000000D+00 0.288111050661D-06 0.000000000000D+00  6 -2 22 9900012 11 -1 21 2 0.25104076D-01 0.52635414D-02 0.40005995D+04 0.40005995D+04 0.40005995D+04 0.12528993D+01  1  2 12  1  6  1       -2 0.243604435831D-04 0.100000000000D+01
-.994078057268D-08 0.000000000000D+00 0.000000000000D+00 0.288111050661D-06 0.000000000000D+00  6 -2 22 9900012 11 -1 21 2 0.22160584D-01 0.52635414D-02 0.34609062D+04 0.34609062D+04 0.34609062D+04 0.12602441D+01  1  2  4  1  6  1       -2 -.260277264694D-05 0.100000000000D+01
0.222365012752D-08 0.000000000000D+00 0.000000000000D+00 0.288111050661D-06 0.000000000000D+00  6 21 22 9900012 11 2 -1 2 0.25104076D-01 0.52635414D-02 0.40005995D+04 0.40005995D+04 0.40005995D+04 0.12528993D+01  3  4 12  3  5  1       -2 0.611568940561D-05 0.100000000000D+01
  </mgrwgt>
  </event>
  <event>
  7     66 0.12711138E-05 0.13752761E+02 0.78161638E-02 0.12694029E+00
       21 -1    0    0  502  501 0.00000000E+00 0.00000000E+00 0.16400534E+01 0.16400534E+01 0.00000000E+00 0.0000E+00 0.9000E+01
       22 -1    0    0    0    0 0.00000000E+00 0.00000000E+00 -.25566024E+04 0.25566024E+04 0.00000000E+00 0.0000E+00 0.9000E+01
      -24  2    1    2    0    0 -.14258640E+02 -.20146752E+02 -.18184955E+04 0.18204800E+04 0.81317312E+02 0.0000E+00 0.0000E+00
  9900012  1    3    3    0    0 0.14578617E+02 -.47981695E+01 -.11332540E+04 0.11344603E+04 0.50000000E+02 0.0000E+00 0.9000E+01
       11  1    3    3    0    0 -.28837258E+02 -.15348582E+02 -.68524152E+03 0.68601976E+03 0.00000000E+00 0.0000E+00 0.9000E+01
        2  1    1    2  502    0 0.16304026E+02 0.98035807E+01 -.15010661E+03 0.15130739E+03 0.00000000E+00 0.0000E+00 0.9000E+01
       -1  1    1    2    0  501 -.20453859E+01 0.10343171E+02 -.58636026E+03 0.58645504E+03 0.00000000E+00 0.0000E+00 0.9000E+01
#aMCatNLO 2  0  0  1  1 0.20499067D+02 0.00000000D+00  -5  6  0 0.00000000D+00 0.00000000D+00 0.00000000D+00 0.00000000D+00 0.00000000D+00
  <mgrwgt>
 0.1078064192D-03    1    2    0
 0.491003078101057D+02 0.000000000000000D+00 0.000000000000000D+00 0.491003078101057D+02
 0.491003078101057D+02 0.000000000000000D+00 0.000000000000000D+00 -.491003078101057D+02
 0.555043299690635D+02 0.234688967717129D+02 0.547539010453674D+00 0.544442197716090D+01
 0.272643274213443D+02 -.238829183187710D+02 -.123695471369828D+02 0.446587795882751D+01
 0.000000000000000D+00 0.000000000000000D+00 0.000000000000000D+00 0.000000000000000D+00
 0.154319582298036D+02 0.414021547058035D+00 0.118220081265292D+02 -.991029993598841D+01
 0.788950632303258D+02 0.000000000000000D+00 0.000000000000000D+00 0.788950632303258D+02
 0.531460934196367D+02 0.000000000000000D+00 0.000000000000000D+00 -.531460934196367D+02
 0.525851713765968D+02 0.145786174866163D+02 -.479816946549338D+01 0.544442197716090D+01
 0.329713583520797D+02 -.288372576652219D+02 -.153485822142540D+02 0.446587795882751D+01
 0.320146983034840D+02 0.163040260847881D+02 0.980358070185937D+01 0.257489698106891D+02
 0.144699286178021D+02 -.204538590618252D+01 0.103431709778881D+02 -.991029993598841D+01
0.114821219393D-06 0.000000000000D+00 0.000000000000D+00 0.280272815686D-07 0.101867747306D-09  6 21 22 9900012 11 2 -1 2 0.25231590D-03 0.39332345D+00 0.32797411D+04 0.32797411D+04 0.32797411D+04 0.12630039D+01  1  2  1  3  5  1       -2 0.107806419210D-03 0.100000000000D+01
  </mgrwgt>
  </event>
  <event>
  6     66 0.12711138E-05 0.86695091E+02 0.78161638E-02 0.10409957E+00
       -2 -1    0    0    0  501 0.00000000E+00 0.00000000E+00 0.30081357E+03 0.30081357E+03 0.00000000E+00 0.0000E+00 0.9000E+01
       22 -1    0    0    0    0 0.00000000E+00 0.00000000E+00 -.36229378E+03 0.36229378E+03 0.00000000E+00 0.0000E+00 0.9000E+01
      -24  2    1    2    0    0 0.69088907E+02 0.52371384E+02 -.34603159E+03 0.36564219E+03 0.80251545E+02 0.0000E+00 0.0000E+00
  9900012  1    3    3    0    0 0.38034844E+02 0.12448081E+02 -.23612093E+03 0.24465220E+03 0.50000000E+02 0.0000E+00 0.9000E+01
       11  1    3    3    0    0 0.31054063E+02 0.39923303E+02 -.10991065E+03 0.12098999E+03 0.00000000E+00 0.0000E+00 0.9000E+01
       -1  1    1    2    0  501 -.69088907E+02 -.52371384E+02 0.28455137E+03 0.29746516E+03 0.00000000E+00 0.0000E+00 0.9000E+01
#aMCatNLO 1  0  0  1  5 0.17947827D+02 0.00000000D+00  -5  6  0 0.00000000D+00 0.00000000D+00 0.00000000D+00 0.00000000D+00 0.00000000D+00
  <mgrwgt>
 0.2624832294D-04    5    4    0
 0.330125560265193D+03 0.000000000000000D+00 0.000000000000000D+00 0.330125560265193D+03
 0.330125560265193D+03 0.000000000000000D+00 0.000000000000000D+00 -.330125560265193D+03
 0.223723826566451D+03 0.380348438482981D+02 0.124480814871735D+02 -.214361252315477D+03
 0.111278901044906D+03 0.310540627424472D+02 0.399233025537500D+02 -.991199723474124D+02
 0.325248392919030D+03 -.690889065907454D+02 -.523713840409235D+02 0.313481224662889D+03
 0.000000000000000D+00 0.000000000000000D+00 -.000000000000000D+00 0.000000000000000D+00
 0.705999121246082D+03 0.000000000000000D+00 0.000000000000000D+00 0.705999121246082D+03
 0.362830670460177D+03 0.000000000000000D+00 0.000000000000000D+00 -.362830670460177D+03
 0.226204715748927D+03 -.573909891176626D+01 0.518159210713676D+02 -.214361252315477D+03
 0.116116087063324D+03 0.893060477698680D+01 0.598199051743047D+02 -.991199723474124D+02
 0.340933019039993D+03 -.133902280832010D+03 0.591814528080489D+01 0.313481224662889D+03
 0.385575969854016D+03 0.130710774966789D+03 -.117553971526477D+03 0.343168450785906D+03
 0.330125560265193D+03 0.000000000000000D+00 0.000000000000000D+00 0.330125560265193D+03
 0.330125560265193D+03 0.000000000000000D+00 0.000000000000000D+00 -.330125560265193D+03
 0.223723826566451D+03 0.380348438482981D+02 0.124480814871735D+02 -.214361252315477D+03
 0.111278901044906D+03 0.310540627424472D+02 0.399233025537500D+02 -.991199723474124D+02
 0.000000000000000D+00 0.000000000000000D+00 -.000000000000000D+00 0.000000000000000D+00
 0.325248392919030D+03 -.690889065907454D+02 -.523713840409235D+02 0.313481224662889D+03
 0.705999121246082D+03 0.000000000000000D+00 0.000000000000000D+00 0.705999121246082D+03
 0.362830670460177D+03 0.000000000000000D+00 0.000000000000000D+00 -.362830670460177D+03
 0.226204715748927D+03 -.573909891176626D+01 0.518159210713676D+02 -.214361252315477D+03
 0.116116087063324D+03 0.893060477698680D+01 0.598199051743047D+02 -.991199723474124D+02
 0.385575969854016D+03 0.130710774966789D+03 -.117553971526477D+03 0.343168450785906D+03
 0.340933019039993D+03 -.133902280832010D+03 0.591814528080489D+01 0.313481224662889D+03
0.297036576040D-04 0.000000000000D+00 0.000000000000D+00 0.715338267990D-04 0.000000000000D+00  6 -2 22 9900012 11 -1 21 0 0.46279010D-01 0.55737505D-01 0.10132210D+05 0.10132210D+05 0.10132210D+05 0.12087392D+01  1  2  2  1  6  1       -2 0.451537649564D-04 0.100000000000D+01
0.532178922235D-06 0.000000000000D+00 -.570349331760D-07 0.715338267990D-04 0.000000000000D+00  6 -2 22 9900012 11 -1 21 2 0.46279010D-01 0.55737505D-01 0.10132210D+05 0.10132210D+05 0.10132210D+05 0.12087392D+01  1  2  3  1  6  1       -2 0.118197121942D-05 0.100000000000D+01
-.480683705354D-05 0.000000000000D+00 0.000000000000D+00 0.715338267990D-04 0.000000000000D+00  6 -2 22 9900012 11 -1 21 2 0.46279010D-01 0.55737505D-01 0.10132210D+05 0.10132210D+05 0.10132210D+05 0.12087392D+01  1  2 15  1  6  1       -2 -.106760016535D-04 0.100000000000D+01
-.149088766557D-04 0.000000000000D+00 -.767409966015D-05 0.715338267990D-04 0.000000000000D+00  6 -2 22 9900012 11 -1 21 2 0.10450786D+00 0.55737505D-01 0.10132210D+05 0.10132210D+05 0.10132210D+05 0.12087392D+01  1  2  5  1  6  1       -2 -.605484516831D-05 0.100000000000D+01
-.833930686955D-06 0.000000000000D+00 -.679036442570D-06 0.715338267990D-04 0.000000000000D+00  6 21 22 9900012 11 2 -1 2 0.10450786D+00 0.55737505D-01 0.10132210D+05 0.10132210D+05 0.10132210D+05 0.12087392D+01  3  4  5  3  5  1       -2 -.335656641726D-05 0.100000000000D+01
  </mgrwgt>
  </event>
  <event>
  6     66 0.12711138E-05 0.62298245E+02 0.78161638E-02 0.11492802E+00
       -2 -1    0    0    0  501 0.00000000E+00 0.00000000E+00 0.62324049E+02 0.62324049E+02 0.00000000E+00 0.0000E+00 0.9000E+01
       22 -1    0    0    0    0 0.00000000E+00 0.00000000E+00 -.16983759E+03 0.16983759E+03 0.00000000E+00 0.0000E+00 0.9000E+01
      -24  2    1    2    0    0 -.74422259E+02 -.25423381E+02 -.92041788E+02 0.15200931E+03 0.91924528E+02 0.0000E+00 0.0000E+00
  9900012  1    3    3    0    0 -.21782341E+02 -.15687806E+02 -.15905598E+02 0.58936964E+02 0.50000000E+02 0.0000E+00 0.9000E+01
       11  1    3    3    0    0 -.52639918E+02 -.97355744E+01 -.76136190E+02 0.93072347E+02 0.00000000E+00 0.0000E+00 0.9000E+01
       -1  1    1    2    0  501 0.74422259E+02 0.25423381E+02 -.15471756E+02 0.80152331E+02 0.00000000E+00 0.0000E+00 0.9000E+01
#aMCatNLO 1  0  0  1  5 0.31634794D+02 0.00000000D+00  -5  6  0 0.00000000D+00 0.00000000D+00 0.00000000D+00 0.00000000D+00 0.00000000D+00
  <mgrwgt>
 0.6642203394D-04    9    4    0
 0.102883265822331D+03 0.000000000000000D+00 0.000000000000000D+00 0.102883265822331D+03
 0.102883265822331D+03 0.000000000000000D+00 0.000000000000000D+00 -.102883265822331D+03
 0.581865034436797D+02 -.217823407776843D+02 -.156878063793844D+02 0.128487954396174D+02
 0.652300309448785D+02 -.526399179003930D+02 -.973557444710276D+01 -.372721688488155D+02
 0.823499972561042D+02 0.744222586780773D+02 0.254233808264872D+02 0.244233734091982D+02
 0.000000000000000D+00 -.000000000000000D+00 0.000000000000000D+00 0.000000000000000D+00
 0.131255795332404D+03 0.000000000000000D+00 0.000000000000000D+00 0.131255795332404D+03
 0.110813943054584D+03 0.000000000000000D+00 0.000000000000000D+00 -.110813943054584D+03
 0.575420879806965D+02 -.154531905841815D+02 -.201791785189104D+02 0.128487954396174D+02
 0.607947350947712D+02 -.457476740516702D+02 -.146265362752404D+02 -.372721688488155D+02
 0.892887874884047D+02 0.838091148931914D+02 0.187621604108967D+02 0.244233734091982D+02
 0.344441278231160D+02 -.226082502573397D+02 0.160435543832540D+02 0.204418522778203D+02
 0.102883265822331D+03 0.000000000000000D+00 0.000000000000000D+00 0.102883265822331D+03
 0.102883265822331D+03 0.000000000000000D+00 0.000000000000000D+00 -.102883265822331D+03
 0.581865034436797D+02 -.217823407776843D+02 -.156878063793844D+02 0.128487954396174D+02
 0.652300309448785D+02 -.526399179003930D+02 -.973557444710276D+01 -.372721688488155D+02
 0.000000000000000D+00 -.000000000000000D+00 0.000000000000000D+00 0.000000000000000D+00
 0.823499972561042D+02 0.744222586780773D+02 0.254233808264872D+02 0.244233734091982D+02
 0.131255795332404D+03 0.000000000000000D+00 0.000000000000000D+00 0.131255795332404D+03
 0.110813943054584D+03 0.000000000000000D+00 0.000000000000000D+00 -.110813943054584D+03
 0.575420879806965D+02 -.154531905841815D+02 -.201791785189104D+02 0.128487954396174D+02
 0.607947350947712D+02 -.457476740516702D+02 -.146265362752404D+02 -.372721688488155D+02
 0.344441278231160D+02 -.226082502573397D+02 0.160435543832540D+02 0.204418522778203D+02
 0.892887874884047D+02 0.838091148931914D+02 0.187621604108967D+02 0.244233734091982D+02
0.578358196745D-06 0.000000000000D+00 0.000000000000D+00 0.364783617512D-08 0.000000000000D+00  6 -2 22 9900012 11 -1 21 0 0.95883152D-02 0.26128860D-01 0.89234158D+04 0.89234158D+04 0.89234158D+04 0.12144921D+01  1  2  2  1  6  1       -2 0.387869546944D-04 0.100000000000D+01
-.163645521204D-07 0.000000000000D+00 -.111052388036D-08 0.364783617512D-08 0.000000000000D+00  6 -2 22 9900012 11 -1 21 2 0.95883152D-02 0.26128860D-01 0.89234158D+04 0.89234158D+04 0.89234158D+04 0.12144921D+01  1  2  3  1  6  1       -2 -.161875946660D-05 0.100000000000D+01
-.818246812761D-07 0.000000000000D+00 0.000000000000D+00 0.364783617512D-08 0.000000000000D+00  6 -2 22 9900012 11 -1 21 2 0.95883152D-02 0.26128860D-01 0.89234158D+04 0.89234158D+04 0.89234158D+04 0.12144921D+01  1  2 15  1  6  1       -2 -.809398732351D-05 0.100000000000D+01
0.480456165401D-06 0.000000000000D+00 0.000000000000D+00 0.364783617512D-08 0.000000000000D+00  6 -2 22 9900012 11 -1 21 2 0.13175458D-01 0.26128860D-01 0.11850950D+05 0.11850950D+05 0.11850950D+05 0.12017604D+01  1  2 12  1  6  1       -2 0.293089777935D-04 0.100000000000D+01
-.211862913933D-06 0.000000000000D+00 0.000000000000D+00 0.364783617512D-08 0.000000000000D+00  6 -2 22 9900012 11 -1 21 2 0.95883152D-02 0.26128860D-01 0.89234158D+04 0.89234158D+04 0.89234158D+04 0.12144921D+01  1  2  4  1  6  1       -2 -.209571942469D-04 0.100000000000D+01
-.884424830066D-06 0.000000000000D+00 -.249160044044D-06 0.364783617512D-08 0.000000000000D+00  6 -2 22 9900012 11 -1 21 2 0.13129838D-01 0.26128860D-01 0.89234158D+04 0.89234158D+04 0.89234158D+04 0.12144921D+01  1  2  5  1  6  1       -2 -.540882280762D-04 0.100000000000D+01
0.928325684519D-06 0.000000000000D+00 0.237337397766D-06 0.364783617512D-08 0.000000000000D+00  6 -2 22 9900012 11 -1 21 2 0.95883152D-02 0.26128860D-01 0.89234158D+04 0.89234158D+04 0.89234158D+04 0.12144921D+01  1  2  6  1  6  1       -2 0.918287270466D-04 0.100000000000D+01
0.193611948412D-07 0.000000000000D+00 0.000000000000D+00 0.364783617512D-08 0.000000000000D+00  6 21 22 9900012 11 2 -1 2 0.13175458D-01 0.26128860D-01 0.11850950D+05 0.11850950D+05 0.11850950D+05 0.12017604D+01  3  4 12  3  5  1       -2 0.166057681880D-04 0.100000000000D+01
-.293567611069D-07 0.000000000000D+00 -.996143853803D-08 0.364783617512D-08 0.000000000000D+00  6 21 22 9900012 11 2 -1 2 0.13129838D-01 0.26128860D-01 0.89234158D+04 0.89234158D+04 0.89234158D+04 0.12144921D+01  3  4  5  3  5  1       -2 -.253502246698D-04 0.100000000000D+01
  </mgrwgt>
  </event>
  <event>
  7     66 -.12711138E-05 0.23431076E+02 0.78161638E-02 0.12480921E+00
       -2 -1    0    0    0  501 0.00000000E+00 0.00000000E+00 0.28066446E+03 0.28066446E+03 0.00000000E+00 0.0000E+00 0.9000E+01
       22 -1    0    0    0    0 0.00000000E+00 0.00000000E+00 -.41992299E+02 0.41992299E+02 0.00000000E+00 0.0000E+00 0.9000E+01
      -24  2    1    2    0    0 -.25550708E+02 -.11140933E+02 0.94616888E+01 0.89073786E+02 0.84069356E+02 0.0000E+00 0.0000E+00
  9900012  1    3    3    0    0 -.54257766E+01 -.27361093E+02 0.20709559E+02 0.60884762E+02 0.50000000E+02 0.0000E+00 0.9000E+01
       11  1    3    3    0    0 -.20124931E+02 0.16220160E+02 -.11247870E+02 0.28189023E+02 0.00000000E+00 0.0000E+00 0.9000E+01
       -1  1    1    2    0  502 0.30261868E+02 -.17960346E+01 0.17754323E+03 0.18011276E+03 0.00000000E+00 0.0000E+00 0.9000E+01
       21  1    1    2  502  501 -.47111597E+01 0.12936968E+02 0.51667239E+02 0.53470213E+02 0.00000000E+00 0.0000E+00 0.9000E+01
#aMCatNLO 2  0  0  5  1 0.15039809D+02 0.00000000D+00  -5  6  0 0.00000000D+00 0.00000000D+00 0.00000000D+00 0.00000000D+00 0.00000000D+00
  <mgrwgt>
 -.2965799404D-04    2    2    0
 0.108562175197559D+03 0.000000000000000D+00 0.000000000000000D+00 0.108562175197559D+03
 0.108562175197559D+03 -.000000000000000D+00 -.000000000000000D+00 -.108562175197559D+03
 0.689970707819924D+02 -.605394190220575D+01 -.276349934670072D+02 -.382132529368864D+02
 0.558407009605893D+02 -.206308049163865D+02 0.159995827393577D+02 -.493615956431557D+02
 0.922865786525363D+02 0.266847468185923D+02 0.116354107276495D+02 0.875748485800421D+02
 0.000000000000000D+00 0.000000000000000D+00 0.000000000000000D+00 0.000000000000000D+00
 0.108562175197559D+03 0.000000000000000D+00 0.000000000000000D+00 0.108562175197559D+03
 0.108562175197559D+03 -.000000000000000D+00 -.000000000000000D+00 -.108562175197559D+03
 0.677127413670713D+02 -.542577662570043D+01 -.273610931356053D+02 -.361517202063279D+02
 0.542543123340035D+02 -.201249314653086D+02 0.162201598885253D+02 -.477014041045220D+02
 0.724928916843236D+02 0.302618677819613D+02 -.179603457575336D+01 0.658499275846592D+02
 0.226644050097196D+02 -.471115969095220D+01 0.129369678228334D+02 0.180031967261907D+02
-.515071034368D-06 0.000000000000D+00 0.000000000000D+00 0.204466471855D-06 0.000000000000D+00  6 -2 22 9900012 11 -1 21 2 0.43179148D-01 0.64603537D-02 0.40440300D+04 0.40440300D+04 0.40440300D+04 0.12523573D+01  1  2 13  2  6  5       -1 -.330532399221D-04 0.100000000000D+01
0.529083628237D-07 0.000000000000D+00 0.000000000000D+00 0.204466471855D-06 0.105758286953D-08  6 -2 22 9900012 11 -1 21 2 0.43179148D-01 0.64603537D-02 0.40440300D+04 0.40440300D+04 0.40440300D+04 0.12523573D+01  1  2  1  2  6  5       -1 0.339524588574D-05 0.100000000000D+01
  </mgrwgt>
  </event>
  <event>
  6     66 0.12711138E-05 0.30414125E+02 0.78161638E-02 0.12882578E+00
       -2 -1    0    0    0  501 0.00000000E+00 0.00000000E+00 0.68980341E+02 0.68980341E+02 0.00000000E+00 0.0000E+00 0.9000E+01
       22 -1    0    0    0    0 -.00000000E+00 -.00000000E+00 -.18141040E+03 0.18141040E+03 0.00000000E+00 0.0000E+00 0.9000E+01
      -24  2    1    2    0    0 -.29642012E+02 -.68095640E+01 -.16861018E+03 0.18650627E+03 0.73689715E+02 0.0000E+00 0.0000E+00
  9900012  1    3    3    0    0 -.57418211E+01 -.12698608E+01 -.79665311E+02 0.94239815E+02 0.50000000E+02 0.0000E+00 0.9000E+01
       11  1    3    3    0    0 -.23900190E+02 -.55397031E+01 -.88944873E+02 0.92266450E+02 0.00000000E+00 0.0000E+00 0.9000E+01
       -1  1    1    2    0  501 0.29642012E+02 0.68095640E+01 0.56180128E+02 0.63884472E+02 0.00000000E+00 0.0000E+00 0.9000E+01
#aMCatNLO 1  0  0  5  1 0.13424245D+02 0.00000000D+00  -5  6  0 0.00000000D+00 0.00000000D+00 0.00000000D+00 0.00000000D+00 0.00000000D+00
  <mgrwgt>
 0.1021428539D-03    7    2    0
 0.111864878112701D+03 0.000000000000000D+00 0.000000000000000D+00 0.111864878112701D+03
 0.111864878112701D+03 -.000000000000000D+00 -.000000000000000D+00 -.111864878112701D+03
 0.654360946550846D+02 -.574182111057121D+01 -.126986082439791D+01 -.418007347726096D+02
 0.585643485163953D+02 -.239001903906926D+02 -.553970314056819D+01 -.531777726644585D+02
 0.997293130539222D+02 0.296420115012638D+02 0.680956396496611D+01 0.949785074370681D+02
 0.000000000000000D+00 0.000000000000000D+00 0.000000000000000D+00 0.000000000000000D+00
 0.111864878112701D+03 0.000000000000000D+00 0.000000000000000D+00 0.111864878112701D+03
 0.111864878112701D+03 -.000000000000000D+00 -.000000000000000D+00 -.111864878112701D+03
 0.646206551721716D+02 -.535699183648769D+01 -.118145523298413D+01 -.405676703407648D+02
 0.574185198313519D+02 -.235570047960067D+02 -.546086421768439D+01 -.520781423119170D+02
 0.723337163368666D+02 0.966783656210883D+01 -.565321382530800D+00 0.716824934488546D+02
 0.293568648850120D+02 0.192461600703855D+02 0.720764083319933D+01 0.209633192038271D+02
0.433711339173D-06 0.000000000000D+00 0.000000000000D+00 0.121530852929D-06 0.000000000000D+00  6 -2 22 9900012 11 -1 21 0 0.10612360D-01 0.27909292D-01 0.27716302D+04 0.27716302D+04 0.27716302D+04 0.12717722D+01  1  2  2  2  6  5       -1 0.201639884513D-04 0.100000000000D+01
0.243082254189D-07 0.000000000000D+00 -.832782870620D-09 0.121530852929D-06 0.000000000000D+00  6 -2 22 9900012 11 -1 21 2 0.10612360D-01 0.27909292D-01 0.27716302D+04 0.27716302D+04 0.27716302D+04 0.12717722D+01  1  2  3  2  6  5       -1 0.182787960841D-05 0.100000000000D+01
-.687268218610D-07 0.000000000000D+00 0.000000000000D+00 0.121530852929D-06 0.000000000000D+00  6 -2 22 9900012 11 -1 21 2 0.10612360D-01 0.27909292D-01 0.27716302D+04 0.27716302D+04 0.27716302D+04 0.12717722D+01  1  2 15  2  6  5       -1 -.516797726142D-05 0.100000000000D+01
0.935151662294D-06 0.000000000000D+00 0.000000000000D+00 0.121530852929D-06 0.000000000000D+00  6 -2 22 9900012 11 -1 21 2 0.10612360D-01 0.27909292D-01 0.27414426D+04 0.27414426D+04 0.27414426D+04 0.12723492D+01  1  2 12  2  6  5       -1 0.703052556963D-04 0.100000000000D+01
-.105971412247D-06 0.000000000000D+00 0.000000000000D+00 0.121530852929D-06 0.000000000000D+00  6 -2 22 9900012 11 -1 21 2 0.10612360D-01 0.27909292D-01 0.27716302D+04 0.27716302D+04 0.27716302D+04 0.12717722D+01  1  2  4  2  6  5       -1 -.796861885979D-05 0.100000000000D+01
-.911833355604D-06 0.000000000000D+00 0.000000000000D+00 0.121530852929D-06 0.000000000000D+00  6 -2 22 9900012 11 -1 21 2 0.10612360D-01 0.27909292D-01 0.27716302D+04 0.27716302D+04 0.27716302D+04 0.12717722D+01  1  2  5  2  6  5       -1 -.685661568564D-04 0.100000000000D+01
0.121746593985D-05 0.000000000000D+00 -.000000000000D+00 0.121530852929D-06 0.000000000000D+00  6 -2 22 9900012 11 -1 21 2 0.10612360D-01 0.27909292D-01 0.27716302D+04 0.27716302D+04 0.27716302D+04 0.12717722D+01  1  2  6  2  6  5       -1 0.915484831587D-04 0.100000000000D+01
  </mgrwgt>
  </event>
  <event>
  6     66 0.12711138E-05 0.37839965E+02 0.78161638E-02 0.12557807E+00
       -2 -1    0    0    0  501 0.00000000E+00 0.00000000E+00 0.21514813E+03 0.21514813E+03 0.00000000E+00 0.0000E+00 0.9000E+01
       22 -1    0    0    0    0 0.00000000E+00 0.00000000E+00 -.12026913E+03 0.12026913E+03 0.00000000E+00 0.0000E+00 0.9000E+01
      -24  2    1    2    0    0 -.28966064E+02 -.25513985E+02 -.10196646E+03 0.13482281E+03 0.79309739E+02 0.0000E+00 0.0000E+00
  9900012  1    3    3    0    0 -.20721668E+02 0.29196158E+01 -.84677395E+02 0.10053941E+03 0.50000000E+02 0.0000E+00 0.9000E+01
       11  1    3    3    0    0 -.82443968E+01 -.28433601E+02 -.17289064E+02 0.34283399E+02 0.00000000E+00 0.0000E+00 0.9000E+01
       -1  1    1    2    0  501 0.28966064E+02 0.25513985E+02 0.19684546E+03 0.20059445E+03 0.00000000E+00 0.0000E+00 0.9000E+01
#aMCatNLO 1  0  0  5  1 0.40864990D+00 0.00000000D+00  -5  6  0 0.00000000D+00 0.00000000D+00 0.00000000D+00 0.00000000D+00 0.00000000D+00
  <mgrwgt>
 0.7686720523D-04    7    2    0
 0.160859185787815D+03 0.000000000000000D+00 0.000000000000000D+00 0.160859185787815D+03
 0.160859185787815D+03 -.000000000000000D+00 -.000000000000000D+00 -.160859185787815D+03
 0.129792898448372D+03 -.207216675982360D+02 0.291961578813725D+01 -.117933391468351D+03
 0.408419721070090D+02 -.824439678940020D+01 -.284336007970986D+02 -.281358659521946D+02
 0.151083501020250D+03 0.289660643876362D+02 0.255139850089613D+02 0.146069257420546D+03
 0.000000000000000D+00 0.000000000000000D+00 0.000000000000000D+00 0.000000000000000D+00
 0.160859185787815D+03 0.000000000000000D+00 0.000000000000000D+00 0.160859185787815D+03
 0.160859185787815D+03 -.000000000000000D+00 -.000000000000000D+00 -.160859185787815D+03
 0.129790860560140D+03 -.207212360096858D+02 0.291999594139700D+01 -.117931215065710D+03
 0.408413896245822D+02 -.824426098119788D+01 -.284334811740669D+02 -.281351811023994D+02
 0.134244369183136D+03 0.257235151672308D+02 0.222683815530561D+02 0.129861351478517D+03
 0.168417522077727D+02 0.324198182365289D+01 0.324510367961386D+01 0.162050446895921D+02
0.295602669683D-07 0.000000000000D+00 0.000000000000D+00 0.951055855614D-05 0.000000000000D+00  6 -2 22 9900012 11 -1 21 0 0.33099712D-01 0.18502943D-01 0.37459113D+04 0.37459113D+04 0.37459113D+04 0.12562167D+01  1  2  2  2  6  5       -1 0.431796196382D-06 0.100000000000D+01
0.152190005706D-08 0.000000000000D+00 -.567596042777D-10 0.951055855614D-05 0.000000000000D+00  6 -2 22 9900012 11 -1 21 2 0.33099712D-01 0.18502943D-01 0.37459113D+04 0.37459113D+04 0.37459113D+04 0.12562167D+01  1  2  3  2  6  5       -1 0.350821090436D-07 0.100000000000D+01
-.476269818956D-08 0.000000000000D+00 0.000000000000D+00 0.951055855614D-05 0.000000000000D+00  6 -2 22 9900012 11 -1 21 2 0.33099712D-01 0.18502943D-01 0.37459113D+04 0.37459113D+04 0.37459113D+04 0.12562167D+01  1  2 15  2  6  5       -1 -.109787430819D-06 0.100000000000D+01
-.104794519729D-03 0.000000000000D+00 0.000000000000D+00 0.951055855614D-05 0.000000000000D+00  6 -2 22 9900012 11 -1 21 2 0.33099712D-01 0.18502943D-01 0.37459113D+04 0.37459113D+04 0.37459113D+04 0.12562167D+01  1  2  4  2  6  5       -1 -.241567292887D-02 0.100000000000D+01
-.108650791835D-03 0.000000000000D+00 0.000000000000D+00 0.951055855614D-05 0.000000000000D+00  6 -2 22 9900012 11 -1 21 2 0.33099712D-01 0.18502943D-01 0.37459113D+04 0.37459113D+04 0.37459113D+04 0.12562167D+01  1  2  5  2  6  5       -1 -.250456586104D-02 0.100000000000D+01
0.121432810598D-03 0.000000000000D+00 -.000000000000D+00 0.951055855614D-05 0.000000000000D+00  6 -2 22 9900012 11 -1 21 2 0.33099712D-01 0.18502943D-01 0.37459113D+04 0.37459113D+04 0.37459113D+04 0.12562167D+01  1  2  6  2  6  5       -1 0.279921081749D-02 0.100000000000D+01
0.953316874827D-04 0.000000000000D+00 0.000000000000D+00 0.951055855614D-05 0.334585051309D-03  6 -2 22 9900012 11 -1 21 2 0.33099712D-01 0.18502943D-01 0.37464942D+04 0.37464942D+04 0.37464942D+04 0.12562088D+01  1  2 11  2  6  5       -1 0.219753808677D-02 0.100000000000D+01
  </mgrwgt>
  </event>
  <event>
  7     66 0.12711138E-05 0.38584783E+02 0.78161638E-02 0.12300785E+00
       21 -1    0    0  502  501 0.00000000E+00 0.00000000E+00 0.66553379E+02 0.66553379E+02 0.00000000E+00 0.0000E+00 0.9000E+01
       22 -1    0    0    0    0 0.00000000E+00 0.00000000E+00 -.17990748E+03 0.17990748E+03 0.00000000E+00 0.0000E+00 0.9000E+01
      -24  2    1    2    0    0 0.45723134E+02 0.29057217E+01 0.27467924E+02 0.97127418E+02 0.81118433E+02 0.0000E+00 0.0000E+00
  9900012  1    3    3    0    0 0.59673195E+02 -.18684170E+00 0.28245660E+02 0.82817525E+02 0.50000000E+02 0.0000E+00 0.9000E+01
       11  1    3    3    0    0 -.13950061E+02 0.30925634E+01 -.77773630E+00 0.14309893E+02 0.00000000E+00 0.0000E+00 0.9000E+01
        2  1    1    2  502    0 -.29790356E+02 0.35982661E+01 -.65134364E+02 0.71714003E+02 0.00000000E+00 0.0000E+00 0.9000E+01
       -1  1    1    2    0  501 -.15932778E+02 -.65039878E+01 -.75687661E+02 0.77619439E+02 0.00000000E+00 0.0000E+00 0.9000E+01
#aMCatNLO 2  0  0  1  1 0.88477620D+02 0.00000000D+00  -5  6  0 0.00000000D+00 0.00000000D+00 0.00000000D+00 0.00000000D+00 0.00000000D+00
  <mgrwgt>
 0.3055452041D-04    1    2    0
 0.826300613498892D+02 0.000000000000000D+00 0.000000000000000D+00 0.826300613498892D+02
 0.826300613498892D+02 0.000000000000000D+00 0.000000000000000D+00 -.826300613498892D+02
 0.850522332752868D+02 0.436414808309311D+02 0.174956935424051D+01 0.531624166406304D+02
 0.174864428099775D+02 -.168243947312958D+02 0.343974341889553D+01 0.329902853645190D+01
 0.000000000000000D+00 -.000000000000000D+00 0.000000000000000D+00 -.000000000000000D+00
 0.627214466145142D+02 -.268170860996353D+02 -.518931277313605D+01 -.564614451770823D+02
 0.883483008391169D+02 0.000000000000000D+00 0.000000000000000D+00 0.883483008391169D+02
 0.135525536015527D+03 0.000000000000000D+00 0.000000000000000D+00 -.135525536015527D+03
 0.942717756562497D+02 0.596731952595951D+02 -.186841699122526D+00 0.531624166406304D+02
 0.146646426365744D+02 -.139500611519730D+02 0.309256337531257D+01 0.329902853645190D+01
 0.559115762339359D+02 -.297903561406126D+02 0.359826612250296D+01 -.471772351764104D+02
 0.590258423278842D+02 -.159327779670095D+02 -.650398779869301D+01 -.564614451770823D+02
0.254921682526D-07 0.000000000000D+00 0.000000000000D+00 0.986361292561D-07 0.452929374834D-10  6 21 22 9900012 11 2 -1 2 0.10238981D-01 0.27678074D-01 0.48550744D+04 0.48550744D+04 0.48550744D+04 0.12432869D+01  1  2  1  3  5  1       -2 0.305545204140D-04 0.100000000000D+01
  </mgrwgt>
  </event>
  <event>
  7     66 -.12711138E-05 0.13981682E+02 0.78161638E-02 0.12897541E+00
       -4 -1    0    0    0  502 0.00000000E+00 0.00000000E+00 0.10156742E+02 0.10156742E+02 0.00000000E+00 0.0000E+00 0.9000E+01
       22 -1    0    0    0    0 0.00000000E+00 0.00000000E+00 -.15379301E+04 0.15379301E+04 0.00000000E+00 0.0000E+00 0.9000E+01
      -24  2    1    2    0    0 0.97657030E+01 0.14401329E+02 -.15118067E+04 0.15141807E+04 0.82949945E+02 0.0000E+00 0.0000E+00
  9900012  1    3    3    0    0 -.85226806E+00 -.74938507E+01 -.12995887E+04 0.13005721E+04 0.50000000E+02 0.0000E+00 0.9000E+01
       11  1    3    3    0    0 0.10617971E+02 0.21895180E+02 -.21221799E+03 0.21360856E+03 0.00000000E+00 0.0000E+00 0.9000E+01
       -3  1    1    2    0  501 -.80632736E+00 -.18999884E+02 -.65346957E+01 0.20108406E+02 0.00000000E+00 0.0000E+00 0.9000E+01
       21  1    1    2  501  502 -.89593756E+01 0.45985542E+01 -.94318889E+01 0.13797740E+02 0.00000000E+00 0.0000E+00 0.9000E+01
#aMCatNLO 2  0  0  1  5 0.10246015D+02 0.00000000D+00  -5  6  0 0.00000000D+00 0.00000000D+00 0.00000000D+00 0.00000000D+00 0.00000000D+00
  <mgrwgt>
 -.1972848400D-04    2    2    0
 0.110205278686064D+03 0.000000000000000D+00 0.000000000000000D+00 0.110205278686064D+03
 0.110205278686064D+03 0.000000000000000D+00 0.000000000000000D+00 -.110205278686064D+03
 0.100754211233290D+03 -.494598491503363D+01 -.539267987074091D+01 -.871657462440054D+02
 0.250598781479084D+02 0.960089574390613D+01 0.224172114645171D+02 -.576965543666057D+01
 0.945964679909296D+02 -.465491082887251D+01 -.170245315937762D+02 0.929354016806660D+02
 0.000000000000000D+00 -.000000000000000D+00 0.000000000000000D+00 0.000000000000000D+00
 0.140521712988997D+03 0.000000000000000D+00 0.000000000000000D+00 0.140521712988997D+03
 0.111159755747529D+03 0.000000000000000D+00 0.000000000000000D+00 -.111159755747529D+03
 0.100770786827050D+03 -.852268057960352D+00 -.749385072080802D+01 -.871657462440054D+02
 0.250085813381294D+02 0.106179710376834D+02 0.218951800113853D+02 -.576965543666057D+01
 0.948611333603488D+02 -.806327358745514D+00 -.189998835010555D+02 0.929354016806660D+02
 0.310409672109978D+02 -.895937562097754D+01 0.459855421047820D+01 0.293619572414675D+02
-.150622699430D-05 0.000000000000D+00 0.000000000000D+00 0.336084949723D-06 0.000000000000D+00  6 -4 22 9900012 11 -3 21 2 0.15761090D-02 0.23457301D+00 0.27033326D+04 0.27033326D+04 0.27033326D+04 0.12730879D+01  1  2 13  1  6  1       -4 -.218726587656D-04 0.100000000000D+01
0.149271814540D-06 0.000000000000D+00 0.000000000000D+00 0.336084949723D-06 0.484366171551D-08  6 -4 22 9900012 11 -3 21 2 0.15625757D-02 0.23660463D+00 0.27033326D+04 0.27033326D+04 0.27033326D+04 0.12730879D+01  1  2  1  1  6  1       -4 0.214417476712D-05 0.100000000000D+01
  </mgrwgt>
  </event>
  <event>
  6     66 -.12711138E-05 0.55291785E+02 0.78161638E-02 0.11557742E+00
       -2 -1    0    0    0  501 0.00000000E+00 0.00000000E+00 0.20239790E+03 0.20239790E+03 0.00000000E+00 0.0000E+00 0.9000E+01
       22 -1    0    0    0    0 0.00000000E+00 0.00000000E+00 -.11648094E+03 0.11648094E+03 0.00000000E+00 0.0000E+00 0.9000E+01
      -24  2    1    2    0    0 -.38098321E+02 -.83026481E+02 -.68111650E+02 0.13979872E+03 0.80991398E+02 0.0000E+00 0.0000E+00
  9900012  1    3    3    0    0 -.33148275E+02 -.33939238E+02 -.56478684E+02 0.89109605E+02 0.50000000E+02 0.0000E+00 0.9000E+01
       11  1    3    3    0    0 -.49500460E+01 -.49087244E+02 -.11632966E+02 0.50689114E+02 0.00000000E+00 0.0000E+00 0.9000E+01
       -1  1    1    2    0  501 0.38098321E+02 0.83026481E+02 0.15402861E+03 0.17908012E+03 0.00000000E+00 0.0000E+00 0.9000E+01
#aMCatNLO 1  0  0  5  1 0.19596740D+01 0.00000000D+00  -5  6  0 0.00000000D+00 0.00000000D+00 0.00000000D+00 0.00000000D+00 0.00000000D+00
  <mgrwgt>
 -.3691821177D-04    8    2    0
 0.153543147259099D+03 0.000000000000000D+00 0.000000000000000D+00 0.153543147259099D+03
 0.153543147259099D+03 -.000000000000000D+00 -.000000000000000D+00 -.153543147259099D+03
 0.108333210815853D+03 -.331482750178281D+02 -.339392377971831D+02 -.835787327420124D+02
 0.558903325311077D+02 -.495004604781823D+01 -.490872435059326D+02 -.262615467852057D+02
 0.142862751171238D+03 0.380983210656464D+02 0.830264813031158D+02 0.109840279527218D+03
 0.000000000000000D+00 0.000000000000000D+00 0.000000000000000D+00 0.000000000000000D+00
 0.153543147259099D+03 0.000000000000000D+00 0.000000000000000D+00 0.153543147259099D+03
 0.153543147259099D+03 -.000000000000000D+00 -.000000000000000D+00 -.153543147259099D+03
 0.108289147698574D+03 -.331345599988869D+02 -.339093490847190D+02 -.835391913272705D+02
 0.558665789265707D+02 -.494297037858459D+01 -.490718237209421D+02 -.262411471070907D+02
 0.128242728789068D+03 0.353990936539220D+02 0.755216033553152D+02 0.974145219276352D+02
 0.146878391039869D+02 0.267843672354952D+01 0.745956945034588D+01 0.123658165067259D+02
0.837881766065D-07 0.000000000000D+00 0.000000000000D+00 0.997472963737D-06 0.000000000000D+00  6 -2 22 9900012 11 -1 21 0 0.31138138D-01 0.17920145D-01 0.10984264D+05 0.10984264D+05 0.10984264D+05 0.12051273D+01  1  2  2  2  6  5       -1 0.153762589839D-05 0.100000000000D+01
-.203843065293D-10 0.000000000000D+00 -.160884330051D-09 0.997472963737D-06 0.000000000000D+00  6 -2 22 9900012 11 -1 21 2 0.31138138D-01 0.17920145D-01 0.10984264D+05 0.10984264D+05 0.10984264D+05 0.12051273D+01  1  2  3  2  6  5       -1 -.543287530656D-09 0.100000000000D+01
-.133351003836D-07 0.000000000000D+00 0.000000000000D+00 0.997472963737D-06 0.000000000000D+00  6 -2 22 9900012 11 -1 21 2 0.31138138D-01 0.17920145D-01 0.10984264D+05 0.10984264D+05 0.10984264D+05 0.12051273D+01  1  2 15  2  6  5       -1 -.355410361790D-06 0.100000000000D+01
0.123066550550D-07 0.000000000000D+00 0.000000000000D+00 0.997472963737D-06 0.000000000000D+00  6 -2 22 9900012 11 -1 21 2 0.31138138D-01 0.17920145D-01 0.10978446D+05 0.10978446D+05 0.10978446D+05 0.12051509D+01  1  2 12  2  6  5       -1 0.328000919523D-06 0.100000000000D+01
-.189688964337D-04 0.000000000000D+00 0.000000000000D+00 0.997472963737D-06 0.000000000000D+00  6 -2 22 9900012 11 -1 21 2 0.31138138D-01 0.17920145D-01 0.10984264D+05 0.10984264D+05 0.10984264D+05 0.12051273D+01  1  2  4  2  6  5       -1 -.505563674089D-03 0.100000000000D+01
-.113585862116D-04 0.000000000000D+00 0.000000000000D+00 0.997472963737D-06 0.000000000000D+00  6 -2 22 9900012 11 -1 21 2 0.31138138D-01 0.17920145D-01 0.10984264D+05 0.10984264D+05 0.10984264D+05 0.12051273D+01  1  2  5  2  6  5       -1 -.302731821942D-03 0.100000000000D+01
0.125860509413D-04 0.000000000000D+00 -.000000000000D+00 0.997472963737D-06 0.000000000000D+00  6 -2 22 9900012 11 -1 21 2 0.31138138D-01 0.17920145D-01 0.10984264D+05 0.10984264D+05 0.10984264D+05 0.12051273D+01  1  2  6  2  6  5       -1 0.335446512579D-03 0.100000000000D+01
0.162995598175D-04 0.000000000000D+00 0.000000000000D+00 0.997472963737D-06 0.237100233719D-05  6 -2 22 9900012 11 -1 21 2 0.31138138D-01 0.17920145D-01 0.10978446D+05 0.10978446D+05 0.10978446D+05 0.12051509D+01  1  2 11  2  6  5       -1 0.434421098509D-03 0.100000000000D+01
  </mgrwgt>
  </event>
</LesHouchesEvents>
