<LesHouchesEvents version="3.0">
  <!--
  <scalesfunctionalform>
    muR  H_T/2 := sum_i mT(i)/2, i=final state
    muF1 H_T/2 := sum_i mT(i)/2, i=final state
    muF2 H_T/2 := sum_i mT(i)/2, i=final state
    QES  H_T/2 := sum_i mT(i)/2, i=final state
  </scalesfunctionalform>
PYTHIA8   
  -->
  <header>
        4
  </header>
  <init>
   2212   2212 0.65000000D+04 0.65000000D+04 -1 -1  82200  82200 -4   1
 0.42622596D-05 0.65105362D-07 0.21195916D-05     66
  </init>
  <event>
  6     66 -.21195916E-05 0.77449032E+01 0.78161638E-02 0.13028949E+00
       22 -1    0    0    0    0 0.00000000E+00 0.00000000E+00 0.13652425E+03 0.13652425E+03 0.00000000E+00 0.0000E+00 0.9000E+01
        2 -1    0    0  502    0 0.00000000E+00 0.00000000E+00 -.27625491E+03 0.27625491E+03 0.00000000E+00 0.0000E+00 0.9000E+01
  9900012  1    1    2    0    0 0.52490828E+01 -.15706474E+02 0.95639149E+02 0.10918376E+03 0.50000000E+02 0.0000E+00 0.9000E+01
      -13  1    1    2    0    0 -.29550836E+01 0.26824148E+02 0.28390604E+02 0.39170063E+02 0.00000000E+00 0.0000E+00 0.9000E+01
        1  1    1    2  501    0 0.46178604E+01 -.10235380E+02 -.19178170E+03 0.19211014E+03 0.00000000E+00 0.0000E+00 0.9000E+01
       21  1    1    2  502  501 -.69118596E+01 -.88229333E+00 -.71978713E+02 0.72315195E+02 0.00000000E+00 0.0000E+00 0.9000E+01
#aMCatNLO 2  0  0  2  5 0.69843642D+01 0.00000000D+00  -5  6  0 0.00000000D+00 0.00000000D+00 0.00000000D+00 0.00000000D+00 0.00000000D+00
  <mgrwgt>
 -.2063621259D-04    2    2    0
 0.166790911002063D+03 0.000000000000000D+00 0.000000000000000D+00 0.166790911002063D+03
 0.166790911002063D+03 0.000000000000000D+00 0.000000000000000D+00 -.166790911002063D+03
 0.130793847408477D+03 0.253891180250302D+01 -.160524253763186D+02 0.119761864073289D+03
 0.457347215981003D+02 -.390260708611691D+01 0.267031970059790D+02 0.369238904673790D+02
 0.157053252997549D+03 0.136369528361389D+01 -.106507716296605D+02 -.156685754540668D+03
 0.000000000000000D+00 -.000000000000000D+00 -.000000000000000D+00 -.000000000000000D+00
 0.167033131424573D+03 0.000000000000000D+00 0.000000000000000D+00 0.167033131424573D+03
 0.225796486026932D+03 0.000000000000000D+00 0.000000000000000D+00 -.225796486026932D+03
 0.130832527641753D+03 0.524908280773695D+01 -.157064742223939D+02 0.119761864073289D+03
 0.457344629550120D+02 -.295508361184700D+01 0.268241476170886D+02 0.369238904673790D+02
 0.157087597587293D+03 0.461786040611390D+01 -.102353800632183D+02 -.156685754540668D+03
 0.591750292674467D+02 -.691185960200385D+01 -.882293331476444D+00 -.587633546023591D+02
-.650823200863D-06 0.000000000000D+00 0.000000000000D+00 0.162044052266D-04 0.000000000000D+00  6 22 2 9900012 -13 1 21 2 0.20973273D-01 0.42562476D-01 0.23938691D+04 0.23938691D+04 0.23938691D+04 0.12795570D+01  1  2 13  1  6  2        2 -.235371196009D-04 0.100000000000D+01
0.802629357976D-07 0.000000000000D+00 0.000000000000D+00 0.162044052266D-04 0.660696617811D-06  6 22 2 9900012 -13 1 21 2 0.21003731D-01 0.42500755D-01 0.23938691D+04 0.23938691D+04 0.23938691D+04 0.12795570D+01  1  2  1  1  6  2        2 0.290090701572D-05 0.100000000000D+01
  </mgrwgt>
  </event>
  <event>
  5     66 0.21195916E-05 0.15782608E+02 0.78161638E-02 0.12437342E+00
       22 -1    0    0    0    0 0.00000000E+00 0.00000000E+00 0.21110786E+03 0.21110786E+03 0.00000000E+00 0.0000E+00 0.9000E+01
        2 -1    0    0  501    0 0.00000000E+00 0.00000000E+00 -.72229091E+02 0.72229091E+02 0.00000000E+00 0.0000E+00 0.9000E+01
  9900012  1    1    2    0    0 0.14141564E+02 -.19150998E+02 0.17020382E+03 0.17898627E+03 0.50000000E+02 0.0000E+00 0.9000E+01
      -13  1    1    2    0    0 0.87583465E+00 0.14296262E+02 0.34133240E+02 0.37016595E+02 0.00000000E+00 0.0000E+00 0.9000E+01
        1  1    1    2  501    0 -.15017399E+02 0.48547358E+01 -.65458293E+02 0.67334084E+02 0.00000000E+00 0.0000E+00 0.9000E+01
#aMCatNLO 1  0  0  2  5 0.99676101D+02 0.00000000D+00  -5  6  0 0.00000000D+00 0.00000000D+00 0.00000000D+00 0.00000000D+00 0.00000000D+00
  <mgrwgt>
 0.1972719684D-04    4    2    0
 0.123483312554994D+03 0.000000000000000D+00 0.000000000000000D+00 0.123483312554994D+03
 0.123483312554994D+03 0.000000000000000D+00 0.000000000000000D+00 -.123483312554994D+03
 0.109633140055456D+03 0.141415639131837D+02 -.191509981390089D+02 0.946186072545370D+02
 0.232735364195112D+02 0.875834648055650D+00 0.142962623787290D+02 0.183441351155653D+02
 0.114059948635020D+03 -.150173985612394D+02 0.485473576027997D+01 -.112962742370102D+03
 0.000000000000000D+00 0.000000000000000D+00 -.000000000000000D+00 0.000000000000000D+00
 0.150027459669251D+03 0.000000000000000D+00 0.000000000000000D+00 0.150027459669251D+03
 0.135551677816534D+03 0.000000000000000D+00 0.000000000000000D+00 -.135551677816534D+03
 0.107533939095289D+03 0.898561154772747D+01 -.548871603149985D+01 0.946186072545370D+02
 0.252501446423514D+02 -.276208235837861D+00 0.173489544449228D+02 0.183441351155653D+02
 0.116426013817506D+03 -.204895661105697D+02 0.193549272863690D+02 -.112962742370102D+03
 0.363690399306376D+02 0.117801627986801D+02 -.312151656997919D+02 0.144757818527165D+02
0.411553610545D-06 0.000000000000D+00 0.000000000000D+00 0.125837187815D-06 0.000000000000D+00  6 22 2 9900012 -13 1 21 0 0.32478132D-01 0.11112168D-01 0.18268730D+04 0.18268730D+04 0.18268730D+04 0.12943146D+01  1  2  2  1  6  2        2 0.202757361240D-04 0.100000000000D+01
0.606017361532D-07 0.000000000000D+00 -.790237114524D-09 0.125837187815D-06 0.000000000000D+00  6 22 2 9900012 -13 1 21 2 0.32478132D-01 0.11112168D-01 0.18268730D+04 0.18268730D+04 0.18268730D+04 0.12943146D+01  1  2  3  1  6  2        2 0.500166924414D-05 0.100000000000D+01
-.667665700252D-07 0.000000000000D+00 0.000000000000D+00 0.125837187815D-06 0.000000000000D+00  6 22 2 9900012 -13 1 21 2 0.32478132D-01 0.11112168D-01 0.18268730D+04 0.18268730D+04 0.18268730D+04 0.12943146D+01  1  2 15  1  6  2        2 -.551047413869D-05 0.100000000000D+01
-.481433888205D-09 0.000000000000D+00 0.000000000000D+00 0.125837187815D-06 0.000000000000D+00  6 22 2 9900012 -13 1 21 2 0.32478132D-01 0.11112168D-01 0.18268730D+04 0.18268730D+04 0.18268730D+04 0.12943146D+01  1  2  4  1  6  2        2 -.397343908702D-07 0.100000000000D+01
  </mgrwgt>
  </event>
  <event>
  5     66 0.21195916E-05 0.27681667E+02 0.78161638E-02 0.11950649E+00
       22 -1    0    0    0    0 0.00000000E+00 0.00000000E+00 0.26668810E+03 0.26668810E+03 0.00000000E+00 0.0000E+00 0.9000E+01
        2 -1    0    0  501    0 0.00000000E+00 0.00000000E+00 -.21664976E+03 0.21664976E+03 0.00000000E+00 0.0000E+00 0.9000E+01
  9900012  1    1    2    0    0 -.23506950E+02 -.14787521E+01 0.65397478E+02 0.85624725E+02 0.50000000E+02 0.0000E+00 0.9000E+01
      -13  1    1    2    0    0 0.16258052E+02 -.25236939E+02 0.18905981E+03 0.19142842E+03 0.00000000E+00 0.0000E+00 0.9000E+01
        1  1    1    2  501    0 0.72488982E+01 0.26715691E+02 -.20441895E+03 0.20628471E+03 0.00000000E+00 0.0000E+00 0.9000E+01
#aMCatNLO 1  0  0  5  2 0.34034433D+01 0.00000000D+00  -5  6  0 0.00000000D+00 0.00000000D+00 0.00000000D+00 0.00000000D+00 0.00000000D+00
  <mgrwgt>
 0.4202283061D-05    6    2    0
 0.240370363590658D+03 0.000000000000000D+00 0.000000000000000D+00 0.240370363590658D+03
 0.240370363590658D+03 -.000000000000000D+00 -.000000000000000D+00 -.240370363590658D+03
 0.792803430538979D+02 -.235069497632194D+02 -.147875211900119D+01 0.568384500117989D+02
 0.172784117942999D+03 0.162580515765756D+02 -.252369390449809D+02 0.170156175556203D+03
 0.228676266184418D+03 0.724889818664383D+01 0.267156911639819D+02 -.226994625568002D+03
 0.000000000000000D+00 0.000000000000000D+00 0.000000000000000D+00 -.000000000000000D+00
 0.240370363590658D+03 0.000000000000000D+00 0.000000000000000D+00 0.240370363590658D+03
 0.240370363590658D+03 -.000000000000000D+00 -.000000000000000D+00 -.240370363590658D+03
 0.758667047017555D+02 -.233541266306227D+02 -.915525059102760D+00 0.520528910387345D+02
 0.162459577772947D+03 0.165882737271337D+02 -.240199109170274D+02 0.159815479426919D+03
 0.207388975565499D+03 0.396808392746645D+02 0.304911893365240D+02 -.201260789905559D+03
 0.350254691411136D+02 -.329149863711755D+02 -.555575336039403D+01 -.106075805600949D+02
0.352123653468D-06 0.000000000000D+00 0.000000000000D+00 0.288412527274D-06 0.000000000000D+00  6 22 2 9900012 -13 1 21 0 0.41028938D-01 0.33330732D-01 0.31906699D+04 0.31906699D+04 0.31906699D+04 0.12644247D+01  1  2  2  2  6  5        1 0.367145081622D-05 0.100000000000D+01
0.335336882151D-07 0.000000000000D+00 -.676123772802D-09 0.288412527274D-06 0.000000000000D+00  6 22 2 9900012 -13 1 21 2 0.41028938D-01 0.33330732D-01 0.31906699D+04 0.31906699D+04 0.31906699D+04 0.12644247D+01  1  2  3  2  6  5        1 0.558997401888D-06 0.100000000000D+01
-.550416611523D-07 0.000000000000D+00 0.000000000000D+00 0.288412527274D-06 0.000000000000D+00  6 22 2 9900012 -13 1 21 2 0.41028938D-01 0.33330732D-01 0.31906699D+04 0.31906699D+04 0.31906699D+04 0.12644247D+01  1  2 15  2  6  5        1 -.917529422423D-06 0.100000000000D+01
-.165758418166D-08 0.000000000000D+00 0.000000000000D+00 0.288412527274D-06 0.000000000000D+00  6 22 2 9900012 -13 1 21 2 0.41028938D-01 0.33330732D-01 0.31906699D+04 0.31906699D+04 0.31906699D+04 0.12644247D+01  1  2  4  2  6  5        1 -.276314745046D-07 0.100000000000D+01
-.333926366964D-06 0.000000000000D+00 0.000000000000D+00 0.288412527274D-06 0.000000000000D+00  6 22 2 9900012 -13 1 21 2 0.41028938D-01 0.33330732D-01 0.31906699D+04 0.31906699D+04 0.31906699D+04 0.12644247D+01  1  2  5  2  6  5        1 -.556646111687D-05 0.100000000000D+01
0.388936013054D-06 0.000000000000D+00 -.000000000000D+00 0.288412527274D-06 0.000000000000D+00  6 22 2 9900012 -13 1 21 2 0.41028938D-01 0.33330732D-01 0.31906699D+04 0.31906699D+04 0.31906699D+04 0.12644247D+01  1  2  6  2  6  5        1 0.648345685698D-05 0.100000000000D+01
  </mgrwgt>
  </event>
  <event>
  5     66 0.21195916E-05 0.63014291E+02 0.78161638E-02 0.11914909E+00
       22 -1    0    0    0    0 0.00000000E+00 0.00000000E+00 0.54592194E+02 0.54592194E+02 0.00000000E+00 0.0000E+00 0.9000E+01
        4 -1    0    0  501    0 -.00000000E+00 -.00000000E+00 -.54817548E+03 0.54817548E+03 0.00000000E+00 0.0000E+00 0.9000E+01
  9900012  1    1    2    0    0 -.40226628E+02 0.44655640E+02 -.19113313E+03 0.20650468E+03 0.50000000E+02 0.0000E+00 0.9000E+01
      -13  1    1    2    0    0 -.10699661E+02 0.10553000E+02 0.41536543E+02 0.44171631E+02 0.00000000E+00 0.0000E+00 0.9000E+01
        3  1    1    2  501    0 0.50926289E+02 -.55208640E+02 -.34398670E+03 0.35209136E+03 0.00000000E+00 0.0000E+00 0.9000E+01
#aMCatNLO 1  0  0  5  2 0.18396828D+02 0.00000000D+00  -5  6  0 0.00000000D+00 0.00000000D+00 0.00000000D+00 0.00000000D+00 0.00000000D+00
  <mgrwgt>
 0.1401859491D-05    7    2    0
 0.172991623721719D+03 0.000000000000000D+00 0.000000000000000D+00 0.172991623721719D+03
 0.172991623721719D+03 -.000000000000000D+00 -.000000000000000D+00 -.172991623721719D+03
 0.870973524270843D+02 -.402266284167527D+02 0.446556403956710D+02 -.383880312972774D+02
 0.136211724231560D+03 -.106996608656769D+02 0.105529999160105D+02 0.135380150939001D+03
 0.122674170784794D+03 0.509262892824297D+02 -.552086403116815D+02 -.969921196417233D+02
 0.000000000000000D+00 0.000000000000000D+00 0.000000000000000D+00 0.000000000000000D+00
 0.172991623721719D+03 0.000000000000000D+00 0.000000000000000D+00 0.172991623721719D+03
 0.172991623721719D+03 -.000000000000000D+00 -.000000000000000D+00 -.172991623721719D+03
 0.868697985665303D+02 -.381309399105541D+02 0.423837271152356D+02 -.423793935816513D+02
 0.129690103528016D+03 -.749648485784882D+01 0.708047139365055D+01 0.129279513430115D+03
 0.119243512516459D+03 0.503865179164458D+02 -.569966882312603D+02 -.918236985760601D+02
 0.101798328324321D+02 -.475909314804292D+01 0.753248972237414D+01 0.492357872759655D+01
0.261020599631D-06 0.000000000000D+00 0.000000000000D+00 0.342114619364D-07 0.000000000000D+00  6 22 4 9900012 -13 3 21 0 0.83987991D-02 0.84334689D-01 0.70828467D+04 0.70828467D+04 0.70828467D+04 0.12251788D+01  1  2  2  2  6  5        3 0.864020149524D-06 0.100000000000D+01
-.675105562478D-08 0.000000000000D+00 -.501193915444D-09 0.342114619364D-07 0.000000000000D+00  6 22 4 9900012 -13 3 21 2 0.83987991D-02 0.84334689D-01 0.70828467D+04 0.70828467D+04 0.70828467D+04 0.12251788D+01  1  2  3  2  6  5        3 -.335443750743D-07 0.100000000000D+01
-.347502721371D-07 0.000000000000D+00 0.000000000000D+00 0.342114619364D-07 0.000000000000D+00  6 22 4 9900012 -13 3 21 2 0.83987991D-02 0.84334689D-01 0.70828467D+04 0.70828467D+04 0.70828467D+04 0.12251788D+01  1  2 15  2  6  5        3 -.172665761814D-06 0.100000000000D+01
0.162857684779D-06 0.000000000000D+00 0.000000000000D+00 0.342114619364D-07 0.000000000000D+00  6 22 4 9900012 -13 3 21 2 0.83987991D-02 0.84334689D-01 0.73211805D+04 0.73211805D+04 0.73211805D+04 0.12236305D+01  1  2 12  2  6  5        3 0.809474615200D-06 0.100000000000D+01
-.125909110855D-07 0.000000000000D+00 0.000000000000D+00 0.342114619364D-07 0.000000000000D+00  6 22 4 9900012 -13 3 21 2 0.83987991D-02 0.84334689D-01 0.70828467D+04 0.70828467D+04 0.70828467D+04 0.12251788D+01  1  2  4  2  6  5        3 -.625612152310D-07 0.100000000000D+01
0.667013507952D-08 0.000000000000D+00 0.000000000000D+00 0.342114619364D-07 0.000000000000D+00  6 22 4 9900012 -13 3 21 2 0.83987991D-02 0.84334689D-01 0.70828467D+04 0.70828467D+04 0.70828467D+04 0.12251788D+01  1  2  5  2  6  5        3 0.331423003066D-07 0.100000000000D+01
-.724652063261D-08 0.000000000000D+00 0.000000000000D+00 0.342114619364D-07 0.000000000000D+00  6 22 4 9900012 -13 3 21 2 0.83987991D-02 0.84334689D-01 0.70828467D+04 0.70828467D+04 0.70828467D+04 0.12251788D+01  1  2  6  2  6  5        3 -.360062217813D-07 0.100000000000D+01
  </mgrwgt>
  </event>
</LesHouchesEvents>
