<LesHouchesEvents version="3.0">
  <!--
  <scalesfunctionalform>
    muR  H_T/2 := sum_i mT(i)/2, i=final state
    muF1 H_T/2 := sum_i mT(i)/2, i=final state
    muF2 H_T/2 := sum_i mT(i)/2, i=final state
    QES  H_T/2 := sum_i mT(i)/2, i=final state
  </scalesfunctionalform>
PYTHIA8   
  -->
  <header>
       42
  </header>
  <init>
   2212   2212 0.65000000D+04 0.65000000D+04 -1 -1  82200  82200 -4   1
 0.52746961D-04 0.96948961D-06 0.16204311D-05     66
  </init>
  <event>
  6     66 0.16204311E-05 0.71831348E+02 0.78161638E-02 0.11233462E+00
        1 -1    0    0  501    0 0.00000000E+00 0.00000000E+00 0.19508199E+04 0.19508199E+04 0.00000000E+00 0.0000E+00 0.9000E+01
       22 -1    0    0    0    0 0.00000000E+00 0.00000000E+00 -.44325756E+01 0.44325756E+01 0.00000000E+00 0.0000E+00 0.9000E+01
      -24  2    1    2    0    0 0.48615436E+02 0.52879883E+02 0.14113136E+04 0.14153787E+04 0.79568853E+02 0.0000E+00 0.0000E+00
  9900012  1    3    3    0    0 0.51235669E+02 0.23301287E+02 0.87005187E+03 0.87330310E+03 0.50000000E+02 0.0000E+00 0.9000E+01
       13  1    3    3    0    0 -.26202330E+01 0.29578596E+02 0.54126172E+03 0.54207565E+03 0.00000000E+00 0.0000E+00 0.9000E+01
        2  1    1    2  501    0 -.48615436E+02 -.52879883E+02 0.53507371E+03 0.53987370E+03 0.00000000E+00 0.0000E+00 0.9000E+01
#aMCatNLO 1  0  0  1  5 0.85133035D+02 0.00000000D+00  -5  6  0 0.00000000D+00 0.00000000D+00 0.00000000D+00 0.00000000D+00 0.00000000D+00
  <mgrwgt>
 0.3790418689D-04    6    2    0
 0.929900888969677D+02 0.000000000000000D+00 0.000000000000000D+00 0.929900888969677D+02
 0.929900888969677D+02 0.000000000000000D+00 0.000000000000000D+00 -.929900888969677D+02
 0.756538264417472D+02 0.512356685414758D+02 0.233012874396299D+02 0.744699456437230D+01
 0.343574375386494D+02 -.262023300538022D+01 0.295785956508856D+02 0.172822039260368D+02
 0.759689138135389D+02 -.486154355360955D+02 -.528798830905155D+02 -.247291984904091D+02
 0.000000000000000D+00 -.000000000000000D+00 -.000000000000000D+00 0.000000000000000D+00
 0.145083559357531D+03 0.000000000000000D+00 0.000000000000000D+00 0.145083559357531D+03
 0.123050302808609D+03 0.000000000000000D+00 0.000000000000000D+00 -.123050302808609D+03
 0.100470434988001D+03 0.806978419726056D+02 0.320422982883674D+02 0.744699456437230D+01
 0.386392186459756D+02 0.959069197988548D+01 0.332014046747626D+02 0.172822039260368D+02
 0.585508158828597D+02 -.261128934442166D+02 -.462036965895747D+02 -.247291984904091D+02
 0.704733926493037D+02 -.641756405082745D+02 -.190400063735553D+02 0.220332565489223D+02
0.313129707545D-06 0.000000000000D+00 0.000000000000D+00 0.155076238894D-06 0.000000000000D+00  6 1 22 9900012 13 2 21 0 0.30012613D+00 0.68193471D-03 0.78156373D+04 0.78156373D+04 0.78156373D+04 0.12205899D+01  1  2  2  1  6  1        1 0.249632739206D-04 0.100000000000D+01
-.170029606748D-07 0.000000000000D+00 -.601250262959D-09 0.155076238894D-06 0.000000000000D+00  6 1 22 9900012 13 2 21 2 0.30012613D+00 0.68193471D-03 0.78156373D+04 0.78156373D+04 0.78156373D+04 0.12205899D+01  1  2  3  1  6  1        1 -.201948856029D-05 0.100000000000D+01
0.382861399522D-08 0.000000000000D+00 0.000000000000D+00 0.155076238894D-06 0.000000000000D+00  6 1 22 9900012 13 2 21 2 0.30012613D+00 0.68193471D-03 0.78156373D+04 0.78156373D+04 0.78156373D+04 0.12205899D+01  1  2 15  1  6  1        1 0.454735049561D-06 0.100000000000D+01
-.108917779945D-06 0.000000000000D+00 -.676126122674D-07 0.155076238894D-06 0.000000000000D+00  6 1 22 9900012 13 2 21 2 0.51293731D+00 0.68193471D-03 0.78156373D+04 0.78156373D+04 0.78156373D+04 0.12205899D+01  1  2  5  1  6  1        1 -.140462670060D-05 0.100000000000D+01
0.134099753425D-06 0.000000000000D+00 0.589425938821D-07 0.155076238894D-06 0.000000000000D+00  6 1 22 9900012 13 2 21 2 0.30012613D+00 0.68193471D-03 0.78156373D+04 0.78156373D+04 0.78156373D+04 0.12205899D+01  1  2  6  1  6  1        1 0.159273977726D-04 0.100000000000D+01
-.320712410712D-08 0.000000000000D+00 -.403177863045D-08 0.155076238894D-06 0.000000000000D+00  6 21 22 9900012 13 2 -1 2 0.51293731D+00 0.68193471D-03 0.78156373D+04 0.78156373D+04 0.78156373D+04 0.12205899D+01  1  2  5  3  6  1        1 -.171045959582D-07 0.100000000000D+01
  </mgrwgt>
  </event>
  <event>
  6     66 0.16204311E-05 0.24939888E+02 0.78161638E-02 0.12547255E+00
        1 -1    0    0  501    0 0.00000000E+00 0.00000000E+00 0.22841221E+04 0.22841221E+04 0.00000000E+00 0.0000E+00 0.9000E+01
       22 -1    0    0    0    0 0.00000000E+00 0.00000000E+00 -.14260063E+01 0.14260063E+01 0.00000000E+00 0.0000E+00 0.9000E+01
      -24  2    1    2    0    0 0.23185402E+02 0.15176602E+02 0.18895264E+04 0.18914031E+04 0.79546905E+02 0.0000E+00 0.0000E+00
  9900012  1    3    3    0    0 0.40749857E+02 0.16606274E+02 0.15041269E+04 0.15056009E+04 0.50000000E+02 0.0000E+00 0.9000E+01
       13  1    3    3    0    0 -.17564455E+02 -.14296719E+01 0.38539951E+03 0.38580220E+03 0.00000000E+00 0.0000E+00 0.9000E+01
        2  1    1    2  501    0 -.23185402E+02 -.15176602E+02 0.39316967E+03 0.39414500E+03 0.00000000E+00 0.0000E+00 0.9000E+01
#aMCatNLO 1  0  0  1  5 0.27198718D+02 0.00000000D+00  -5  6  0 0.00000000D+00 0.00000000D+00 0.00000000D+00 0.00000000D+00 0.00000000D+00
  <mgrwgt>
 0.1660566971D-03    6    2    0
 0.570716434230280D+02 0.000000000000000D+00 0.000000000000000D+00 0.570716434230280D+02
 0.570716434230280D+02 0.000000000000000D+00 0.000000000000000D+00 -.570716434230280D+02
 0.670969978740587D+02 0.407498569157449D+02 0.166062739651574D+02 0.810481030326410D+01
 0.176929205538907D+02 -.175644546710732D+02 -.142967194420786D+01 0.157651767070612D+01
 0.293533684181066D+02 -.231854022446717D+02 -.151766020209495D+02 -.968132797397021D+01
 0.000000000000000D+00 -.000000000000000D+00 0.000000000000000D+00 -.000000000000000D+00
 0.593484129160337D+02 0.000000000000000D+00 0.000000000000000D+00 0.593484129160337D+02
 0.710256386873908D+02 0.000000000000000D+00 0.000000000000000D+00 -.710256386873908D+02
 0.660727563501111D+02 0.411131390789876D+02 0.104704812077135D+02 0.810481030326410D+01
 0.178044560336694D+02 -.174676191408787D+02 -.306521259263146D+01 0.157651767070612D+01
 0.307534418537574D+02 -.230214330897506D+02 -.179460216484600D+02 -.968132797397021D+01
 0.157433973658866D+02 -.624086848358304D+00 0.105407530333779D+02 -.116772257713571D+02
0.795599858623D-06 0.000000000000D+00 0.000000000000D+00 0.108630331591D-06 0.000000000000D+00  6 1 22 9900012 13 2 21 0 0.35140340D+00 0.21938559D-03 0.31325910D+04 0.31325910D+04 0.31325910D+04 0.12653756D+01  1  2  2  1  6  1        1 0.161155268801D-03 0.100000000000D+01
-.219738170618D-07 0.000000000000D+00 -.152765647168D-08 0.108630331591D-06 0.000000000000D+00  6 1 22 9900012 13 2 21 2 0.35140340D+00 0.21938559D-03 0.31325910D+04 0.31325910D+04 0.31325910D+04 0.12653756D+01  1  2  3  1  6  1        1 -.712679436427D-05 0.100000000000D+01
0.205187195781D-07 0.000000000000D+00 0.000000000000D+00 0.108630331591D-06 0.000000000000D+00  6 1 22 9900012 13 2 21 2 0.35140340D+00 0.21938559D-03 0.31325910D+04 0.31325910D+04 0.31325910D+04 0.12653756D+01  1  2 15  1  6  1        1 0.665486085735D-05 0.100000000000D+01
0.170725287585D-06 0.000000000000D+00 0.000000000000D+00 0.108630331591D-06 0.000000000000D+00  6 1 22 9900012 13 2 21 2 0.45476754D+00 0.21938559D-03 0.37857776D+04 0.37857776D+04 0.37857776D+04 0.12556809D+01  1  2 12  1  6  1        1 0.192397556572D-04 0.100000000000D+01
-.437651749370D-07 0.000000000000D+00 0.000000000000D+00 0.108630331591D-06 0.000000000000D+00  6 1 22 9900012 13 2 21 2 0.35140340D+00 0.21938559D-03 0.31325910D+04 0.31325910D+04 0.31325910D+04 0.12653756D+01  1  2  4  1  6  1        1 -.141944115223D-04 0.100000000000D+01
0.591090993867D-08 0.000000000000D+00 0.000000000000D+00 0.108630331591D-06 0.000000000000D+00  6 21 22 9900012 13 2 -1 2 0.45476754D+00 0.21938559D-03 0.37857776D+04 0.37857776D+04 0.37857776D+04 0.12556809D+01  1  2 12  3  6  1        1 0.328017671871D-06 0.100000000000D+01
  </mgrwgt>
  </event>
  <event>
  7     66 0.16204311E-05 0.10618833E+02 0.78161638E-02 0.13366542E+00
       21 -1    0    0  501  502 0.00000000E+00 0.00000000E+00 0.46038360E+02 0.46038360E+02 0.00000000E+00 0.0000E+00 0.9000E+01
       22 -1    0    0    0    0 0.00000000E+00 0.00000000E+00 -.10505668E+03 0.10505668E+03 0.00000000E+00 0.0000E+00 0.9000E+01
      -24  2    1    2    0    0 0.79909394E+01 -.78596190E+01 -.55820400E+02 0.97554953E+02 0.79217568E+02 0.0000E+00 0.0000E+00
  9900012  1    3    3    0    0 0.22755509E+02 0.10361616E+01 -.58333414E+02 0.80135348E+02 0.50000000E+02 0.0000E+00 0.9000E+01
       13  1    3    3    0    0 -.14764569E+02 -.88957806E+01 0.25130136E+01 0.17419606E+02 0.00000000E+00 0.0000E+00 0.9000E+01
        2  1    1    2  501    0 0.51514527E+00 0.76163357E+00 -.27141835E+02 0.27157405E+02 0.00000000E+00 0.0000E+00 0.9000E+01
       -1  1    1    2    0  502 -.85060847E+01 0.70979854E+01 0.23943914E+02 0.26382682E+02 0.00000000E+00 0.0000E+00 0.9000E+01
#aMCatNLO 2  0  0  1  1 0.11399218D+02 0.00000000D+00  -5  6  0 0.00000000D+00 0.00000000D+00 0.00000000D+00 0.00000000D+00 0.00000000D+00
  <mgrwgt>
 0.6061949767D-03    1    2    0
 0.462268998206650D+02 0.000000000000000D+00 0.000000000000000D+00 0.462268998206650D+02
 0.462268998206650D+02 0.000000000000000D+00 0.000000000000000D+00 -.462268998206650D+02
 0.537370258787376D+02 0.177549612805140D+02 0.520891724749474D+01 -.673026606668027D+01
 0.264280308418934D+02 -.171480325501856D+02 -.690687642185308D+01 0.188859961858276D+02
 0.122887429206991D+02 -.606928730328456D+00 0.169795917435835D+01 -.121557301191473D+02
 0.000000000000000D+00 -.000000000000000D+00 0.000000000000000D+00 0.000000000000000D+00
 0.102679238972323D+03 0.000000000000000D+00 0.000000000000000D+00 0.102679238972323D+03
 0.471043345361074D+02 0.000000000000000D+00 0.000000000000000D+00 -.471043345361074D+02
 0.553550656157308D+02 0.227555087201642D+02 0.103616160905550D+01 -.673026606668027D+01
 0.255696748258656D+02 -.147645692726686D+02 -.889578062690306D+01 0.188859961858276D+02
 0.121904567212289D+02 0.515145266211750D+00 0.761633571548595D+00 -.121557301191473D+02
 0.566683763456055D+02 -.850608471370740D+01 0.709798544629897D+01 0.555749044362160D+02
0.128507524276D-06 0.000000000000D+00 0.000000000000D+00 0.111017714249D-04 0.384638286042D-06  6 21 22 9900012 13 2 -1 2 0.70828245D-02 0.16162566D-01 0.17715617D+04 0.17715617D+04 0.17715617D+04 0.12960283D+01  1  2  1  3  6  1        1 0.606194976701D-03 0.100000000000D+01
  </mgrwgt>
  </event>
  <event>
  7     66 0.16204311E-05 0.17982756E+02 0.78161638E-02 0.13297690E+00
       21 -1    0    0  501  502 0.00000000E+00 0.00000000E+00 0.83913121E+02 0.83913121E+02 0.00000000E+00 0.0000E+00 0.9000E+01
       22 -1    0    0    0    0 0.00000000E+00 0.00000000E+00 -.32021584E+02 0.32021584E+02 0.00000000E+00 0.0000E+00 0.9000E+01
      -24  2    1    2    0    0 -.34710380E+01 0.17583249E+02 0.33763871E+02 0.83346173E+02 0.74063262E+02 0.0000E+00 0.0000E+00
  9900012  1    3    3    0    0 0.17667076E+01 0.27655091E+02 0.11436592E+02 0.58298550E+02 0.50000000E+02 0.0000E+00 0.9000E+01
       13  1    3    3    0    0 -.52377456E+01 -.10071842E+02 0.22327280E+02 0.25047622E+02 0.00000000E+00 0.0000E+00 0.9000E+01
        2  1    1    2  501    0 0.53269677E-01 0.15537777E+00 -.40112234E+01 0.40145851E+01 0.00000000E+00 0.0000E+00 0.9000E+01
       -1  1    1    2    0  502 0.34177683E+01 -.17738627E+02 0.22138890E+02 0.28573947E+02 0.00000000E+00 0.0000E+00 0.9000E+01
#aMCatNLO 2  0  0  1  5 0.48272766D+02 0.00000000D+00  -5  6  0 0.00000000D+00 0.00000000D+00 0.00000000D+00 0.00000000D+00 0.00000000D+00
  <mgrwgt>
 0.1173434268D-01    1    2    0
 0.400635179839519D+02 0.000000000000000D+00 0.000000000000000D+00 0.400635179839519D+02
 0.400635179839519D+02 0.000000000000000D+00 0.000000000000000D+00 -.400635179839519D+02
 0.532680564401223D+02 0.410743804381520D+01 0.155064196288844D+02 -.895353225923838D+01
 0.210246492904189D+02 -.440413416798301D+01 -.143983849597547D+02 0.146739902741629D+02
 0.583433023736259D+01 0.296696124167814D+00 -.110803466912969D+01 -.572045801492450D+01
 0.000000000000000D+00 0.000000000000000D+00 -.000000000000000D+00 0.000000000000000D+00
 0.588529699000040D+02 0.000000000000000D+00 0.000000000000000D+00 0.588529699000040D+02
 0.456566770231539D+02 0.000000000000000D+00 0.000000000000000D+00 -.456566770231539D+02
 0.578626914123076D+02 0.176670762294419D+01 0.276550910635591D+02 -.895353225923838D+01
 0.185526808338194D+02 -.523774558866449D+01 -.100718417731698D+02 0.146739902741629D+02
 0.572281572391095D+01 0.532696769173916D-01 0.155377768196221D+00 -.572045801492450D+01
 0.223714589531200D+02 0.341776828880291D+01 -.177386270585856D+02 0.131962928768501D+02
0.125349934716D-05 0.000000000000D+00 0.000000000000D+00 0.553965611078D-06 0.389089421836D-07  6 21 22 9900012 13 2 -1 2 0.12909711D-01 0.49263975D-02 0.18812720D+04 0.18812720D+04 0.18812720D+04 0.12926860D+01  1  2  1  3  6  1        1 0.117343426776D-01 0.100000000000D+01
  </mgrwgt>
  </event>
  <event>
  6     66 -.16204311E-05 0.42541935E+02 0.78161638E-02 0.12557626E+00
        1 -1    0    0  501    0 0.00000000E+00 0.00000000E+00 0.46000518E+03 0.46000518E+03 0.00000000E+00 0.0000E+00 0.9000E+01
       22 -1    0    0    0    0 0.00000000E+00 0.00000000E+00 -.10758510E+02 0.10758510E+02 0.00000000E+00 0.0000E+00 0.9000E+01
      -24  2    1    2    0    0 -.35164533E+02 0.23943095E+02 0.25587081E+03 0.27276359E+03 0.84381803E+02 0.0000E+00 0.0000E+00
  9900012  1    3    3    0    0 -.16111027E+02 0.45962284E+01 0.87074649E+02 0.10179727E+03 0.50000000E+02 0.0000E+00 0.9000E+01
       13  1    3    3    0    0 -.19053506E+02 0.19346866E+02 0.16879616E+03 0.17096632E+03 0.00000000E+00 0.0000E+00 0.9000E+01
        2  1    1    2  501    0 0.35164533E+02 -.23943095E+02 0.19337586E+03 0.19800010E+03 0.00000000E+00 0.0000E+00 0.9000E+01
#aMCatNLO 1  0  0  1  5 0.48272766D+02 0.00000000D+00  -5  6  0 0.00000000D+00 0.00000000D+00 0.00000000D+00 0.00000000D+00 0.00000000D+00
  <mgrwgt>
 -.1159996202D-05    1    2    0
 0.703489183820935D+02 0.000000000000000D+00 0.000000000000000D+00 0.703489183820935D+02
 0.703489183820935D+02 0.000000000000000D+00 0.000000000000000D+00 -.703489183820935D+02
 0.625771117722807D+02 -.161110271450857D+02 0.459622844970216D+01 -.336927945728604D+02
 0.330752825473954D+02 -.190535062939612D+02 0.193468664058741D+02 0.188848344914453D+02
 0.450454424445110D+02 0.351645334390469D+02 -.239430948555762D+02 0.148079600814151D+02
 0.000000000000000D+00 0.000000000000000D+00 0.000000000000000D+00 0.000000000000000D+00
 0.109148635034848D+03 0.000000000000000D+00 0.000000000000000D+00 0.109148635034848D+03
 0.966173547467380D+02 0.000000000000000D+00 0.000000000000000D+00 -.966173547467380D+02
 0.675808356951176D+02 -.248237752692490D+02 -.177692185676055D+02 -.336927945728604D+02
 0.311618415453869D+02 -.233535271019969D+02 0.830880055283656D+01 0.188848344914453D+02
 0.518616352142567D+02 0.286775921840685D+02 -.405949409637224D+02 0.148079600814151D+02
 0.551616773268244D+02 0.194997101871773D+02 0.500553589784913D+02 0.125312802881097D+02
-.245035774100D-08 0.000000000000D+00 0.000000000000D+00 0.198483304724D-07 0.000000000000D+00  6 1 22 9900012 13 2 21 2 0.70770028D-01 0.16551554D-02 0.37471626D+04 0.37471626D+04 0.37471626D+04 0.12561998D+01  1  2 14  1  6  1        1 -.115999620211D-05 0.100000000000D+01
  </mgrwgt>
  </event>
  <event>
  7     66 -.16204311E-05 0.54334917E+01 0.78161638E-02 0.12887257E+00
        1 -1    0    0  502    0 0.00000000E+00 0.00000000E+00 0.20820704E+04 0.20820704E+04 0.00000000E+00 0.0000E+00 0.9000E+01
       22 -1    0    0    0    0 0.00000000E+00 0.00000000E+00 -.25054849E+01 0.25054849E+01 0.00000000E+00 0.0000E+00 0.9000E+01
      -24  2    1    2    0    0 -.15307024E+01 0.21558347E+02 0.71884500E+03 0.72362464E+03 0.80170897E+02 0.0000E+00 0.0000E+00
  9900012  1    3    3    0    0 0.65374962E+01 -.90347927E+01 0.42187711E+03 0.42497607E+03 0.50000000E+02 0.0000E+00 0.9000E+01
       13  1    3    3    0    0 -.80681986E+01 0.30593140E+02 0.29696790E+03 0.29864857E+03 0.00000000E+00 0.0000E+00 0.9000E+01
        2  1    1    2  501    0 0.46848568E+00 -.10781327E+02 0.10248184E+04 0.10248752E+04 0.00000000E+00 0.0000E+00 0.9000E+01
       21  1    1    2  502  501 0.10622168E+01 -.10777021E+02 0.33590152E+03 0.33607604E+03 0.00000000E+00 0.0000E+00 0.9000E+01
#aMCatNLO 2  0  0  1  5 0.11940776D+02 0.00000000D+00  -5  6  0 0.00000000D+00 0.00000000D+00 0.00000000D+00 0.00000000D+00 0.00000000D+00
  <mgrwgt>
 -.3448805234D-04    2    2    0
 0.647541607872102D+02 0.000000000000000D+00 0.000000000000000D+00 0.647541607872102D+02
 0.647541607872102D+02 0.000000000000000D+00 0.000000000000000D+00 -.647541607872102D+02
 0.583996156037864D+02 0.701153341663459D+01 -.138442713984727D+02 -.258783626078402D+02
 0.311690616922317D+02 -.780278582985225D+01 0.279003192549397D+02 -.114977878541936D+02
 0.399396442784022D+02 0.791252413217662D+00 -.140560478564670D+02 0.373761504620338D+02
 0.000000000000000D+00 0.000000000000000D+00 -.000000000000000D+00 0.000000000000000D+00
 0.774839148997906D+02 0.000000000000000D+00 0.000000000000000D+00 0.774839148997906D+02
 0.673248894431071D+02 0.000000000000000D+00 0.000000000000000D+00 -.673248894431071D+02
 0.573938671584736D+02 0.653749620510417D+01 -.903479272091479D+01 -.258783626078402D+02
 0.336635585836773D+02 -.806819864755721D+01 0.305931401062426D+02 -.114977878541936D+02
 0.389028675729137D+02 0.468485677331618D+00 -.107813265976502D+02 0.373761504620338D+02
 0.148485110278332D+02 0.106221676512142D+01 -.107770207876776D+02 0.101590254566835D+02
-.190946544353D-06 0.000000000000D+00 0.000000000000D+00 0.448795873763D-06 0.000000000000D+00  6 1 22 9900012 13 2 21 2 0.33303511D+00 0.37074087D-03 0.27294599D+04 0.27294599D+04 0.27294599D+04 0.12725802D+01  1  2 13  1  6  1        1 -.375492393166D-04 0.100000000000D+01
0.144997790781D-07 0.000000000000D+00 0.000000000000D+00 0.448795873763D-06 0.220383557811D-07  6 1 22 9900012 13 2 21 2 0.32031853D+00 0.38545922D-03 0.27294599D+04 0.27294599D+04 0.27294599D+04 0.12725802D+01  1  2  1  1  6  1        1 0.306118697858D-05 0.100000000000D+01
  </mgrwgt>
  </event>
  <event>
  6     66 0.16204311E-05 0.90371486E+02 0.78161638E-02 0.10122770E+00
        1 -1    0    0  501    0 0.00000000E+00 0.00000000E+00 0.87475975E+03 0.87475975E+03 0.00000000E+00 0.0000E+00 0.9000E+01
       22 -1    0    0    0    0 0.00000000E+00 0.00000000E+00 -.24828415E+02 0.24828415E+02 0.00000000E+00 0.0000E+00 0.9000E+01
      -24  2    1    2    0    0 -.57856049E+02 0.69423937E+02 0.14917279E+03 0.19302638E+03 0.82702236E+02 0.0000E+00 0.0000E+00
  9900012  1    3    3    0    0 -.49768537E+02 0.75451764E+02 0.10340049E+03 0.14615587E+03 0.50000000E+02 0.0000E+00 0.9000E+01
       13  1    3    3    0    0 -.80875117E+01 -.60278267E+01 0.45772292E+02 0.46870516E+02 0.00000000E+00 0.0000E+00 0.9000E+01
        2  1    1    2  501    0 0.57856049E+02 -.69423937E+02 0.70075855E+03 0.70656178E+03 0.00000000E+00 0.0000E+00 0.9000E+01
#aMCatNLO 1  0  0  1  5 0.29506944D+03 0.00000000D+00  -5  6  0 0.00000000D+00 0.00000000D+00 0.00000000D+00 0.00000000D+00 0.00000000D+00
  <mgrwgt>
 0.3253391920D-04    5    2    0
 0.147373329831662D+03 0.000000000000000D+00 0.000000000000000D+00 0.147373329831662D+03
 0.147373329831662D+03 0.000000000000000D+00 0.000000000000000D+00 -.147373329831662D+03
 0.147912687269345D+03 -.497685369110101D+02 0.754517642333375D+02 -.105869197895579D+03
 0.110632504239709D+02 -.808751166923560D+01 -.602782673844472D+01 0.454455385651458D+01
 0.135770721970009D+03 0.578560485802457D+02 -.694239374948928D+02 0.101324644039064D+03
 0.000000000000000D+00 0.000000000000000D+00 -.000000000000000D+00 0.000000000000000D+00
 0.527575877251229D+03 0.000000000000000D+00 0.000000000000000D+00 0.527575877251229D+03
 0.245012902895111D+03 0.000000000000000D+00 0.000000000000000D+00 -.245012902895111D+03
 0.267782222649839D+03 -.181579390650689D+03 0.158202264823104D+03 -.105869197895579D+03
 0.178442219406440D+02 -.172536537626686D+02 -.273347306830358D+00 0.454455385651458D+01
 0.105220017093395D+03 -.185586351248757D+02 -.214510039343844D+02 0.101324644039064D+03
 0.381742318462462D+03 0.217391679538233D+03 -.136477913581889D+03 0.282562974356118D+03
0.778053870979D-06 0.000000000000D+00 0.000000000000D+00 0.317320192730D-06 0.000000000000D+00  6 1 22 9900012 13 2 21 0 0.13457842D+00 0.38197562D-02 0.10378855D+05 0.10378855D+05 0.10378855D+05 0.12076598D+01  1  2  2  1  6  1        1 0.330353764691D-04 0.100000000000D+01
-.318046569637D-08 0.000000000000D+00 -.149396586542D-08 0.317320192730D-06 0.000000000000D+00  6 1 22 9900012 13 2 21 2 0.13457842D+00 0.38197562D-02 0.10378855D+05 0.10378855D+05 0.10378855D+05 0.12076598D+01  1  2  3  1  6  1        1 -.196947063110D-06 0.100000000000D+01
-.712600884240D-08 0.000000000000D+00 0.000000000000D+00 0.317320192730D-06 0.000000000000D+00  6 1 22 9900012 13 2 21 2 0.13457842D+00 0.38197562D-02 0.10378855D+05 0.10378855D+05 0.10378855D+05 0.12076598D+01  1  2 15  1  6  1        1 -.441270759438D-06 0.100000000000D+01
0.168962923797D-06 0.000000000000D+00 -.216583368687D-06 0.317320192730D-06 0.000000000000D+00  6 1 22 9900012 13 2 21 2 0.55514287D+00 0.38197562D-02 0.10378855D+05 0.10378855D+05 0.10378855D+05 0.12076598D+01  1  2  5  1  6  1        1 0.128328357997D-06 0.100000000000D+01
0.300988794592D-07 0.000000000000D+00 -.367685749397D-07 0.317320192730D-06 0.000000000000D+00  6 21 22 9900012 13 2 -1 2 0.55514287D+00 0.38197562D-02 0.10378855D+05 0.10378855D+05 0.10378855D+05 0.12076598D+01  1  2  5  3  6  1        1 0.843219864935D-08 0.100000000000D+01
  </mgrwgt>
  </event>
  <event>
  6     66 0.16204311E-05 0.12545261E+02 0.78161638E-02 0.13542462E+00
        1 -1    0    0  501    0 0.00000000E+00 0.00000000E+00 0.31527592E+02 0.31527592E+02 0.00000000E+00 0.0000E+00 0.9000E+01
       22 -1    0    0    0    0 -.00000000E+00 -.00000000E+00 -.73210249E+02 0.73210249E+02 0.00000000E+00 0.0000E+00 0.9000E+01
      -24  2    1    2    0    0 -.99330993E+01 0.76627095E+01 -.46239817E+02 0.91390508E+02 0.77824937E+02 0.0000E+00 0.0000E+00
  9900012  1    3    3    0    0 -.21583905E+02 0.71707395E+01 -.54281437E+02 0.77225377E+02 0.50000000E+02 0.0000E+00 0.9000E+01
       13  1    3    3    0    0 0.11650805E+02 0.49197006E+00 0.80416199E+01 0.14165131E+02 0.00000000E+00 0.0000E+00 0.9000E+01
        2  1    1    2  501    0 0.99330993E+01 -.76627095E+01 0.45571599E+01 0.13347332E+02 0.00000000E+00 0.0000E+00 0.9000E+01
#aMCatNLO 1  0  0  5  1 0.24133801D+01 0.00000000D+00  -5  6  0 0.00000000D+00 0.00000000D+00 0.00000000D+00 0.00000000D+00 0.00000000D+00
  <mgrwgt>
 0.5575131297D-04    6    2    0
 0.480431352585052D+02 0.000000000000000D+00 0.000000000000000D+00 0.480431352585052D+02
 0.480431352585052D+02 -.000000000000000D+00 -.000000000000000D+00 -.480431352585052D+02
 0.606311876803415D+02 -.215839046071283D+02 0.717073946551170D+01 -.256681997217751D+02
 0.189290452696539D+02 0.116508053319870D+02 0.491970060318777D+00 0.149105819938894D+02
 0.165260375670149D+02 0.993309927514134D+01 -.766270952583048D+01 0.107576177278857D+02
 0.000000000000000D+00 0.000000000000000D+00 0.000000000000000D+00 -.000000000000000D+00
 0.480431352585052D+02 0.000000000000000D+00 0.000000000000000D+00 0.480431352585052D+02
 0.480431352585052D+02 -.000000000000000D+00 -.000000000000000D+00 -.480431352585052D+02
 0.597931298125503D+02 -.206426703681318D+02 0.644464135963184D+01 -.246488362929949D+02
 0.193641419282121D+02 0.119501041751219D+02 0.261081388733701D+00 0.152347247867539D+02
 0.155420825977606D+02 0.869669896792142D+01 -.711092091869076D+01 0.107405103335500D+02
 0.138691617848734D+01 -.413277491156316D-02 0.405198170325220D+00 -.132639882730894D+01
0.915279388921D-07 0.000000000000D+00 0.000000000000D+00 0.725553447358D-07 0.000000000000D+00  6 1 22 9900012 13 2 21 0 0.48503988D-02 0.11263115D-01 0.15656370D+04 0.15656370D+04 0.15656370D+04 0.13029842D+01  1  2  2  2  6  5        2 0.530885437842D-04 0.100000000000D+01
0.435154219146D-08 0.000000000000D+00 -.175745692603D-09 0.725553447358D-07 0.000000000000D+00  6 1 22 9900012 13 2 21 2 0.48503988D-02 0.11263115D-01 0.15656370D+04 0.15656370D+04 0.15656370D+04 0.13029842D+01  1  2  3  2  6  5        2 0.428517537814D-05 0.100000000000D+01
0.104817159140D-08 0.000000000000D+00 0.000000000000D+00 0.725553447358D-07 0.000000000000D+00  6 1 22 9900012 13 2 21 2 0.48503988D-02 0.11263115D-01 0.15656370D+04 0.15656370D+04 0.15656370D+04 0.13029842D+01  1  2 15  2  6  5        2 0.103218557879D-05 0.100000000000D+01
0.560152861165D-10 0.000000000000D+00 0.000000000000D+00 0.725553447358D-07 0.000000000000D+00  6 1 22 9900012 13 2 21 2 0.48503988D-02 0.11263115D-01 0.15236580D+04 0.15236580D+04 0.15236580D+04 0.13045290D+01  1  2 12  2  6  5        2 0.550858834935D-07 0.100000000000D+01
-.162392713205D-07 0.000000000000D+00 0.000000000000D+00 0.725553447358D-07 0.000000000000D+00  6 1 22 9900012 13 2 21 2 0.48503988D-02 0.11263115D-01 0.15656370D+04 0.15656370D+04 0.15656370D+04 0.13029842D+01  1  2  4  2  6  5        2 -.159916008072D-04 0.100000000000D+01
0.135060142149D-07 0.000000000000D+00 0.000000000000D+00 0.725553447358D-07 0.149654020779D-07  6 1 22 9900012 13 2 21 2 0.48503988D-02 0.11263115D-01 0.15236580D+04 0.15236580D+04 0.15236580D+04 0.13045290D+01  1  2 11  2  6  5        2 0.132819231514D-04 0.100000000000D+01
  </mgrwgt>
  </event>
  <event>
  6     66 0.16204311E-05 0.21168863E+02 0.78161638E-02 0.12912718E+00
        1 -1    0    0  501    0 0.00000000E+00 0.00000000E+00 0.32729944E+01 0.32729944E+01 0.00000000E+00 0.0000E+00 0.9000E+01
       22 -1    0    0    0    0 -.00000000E+00 -.00000000E+00 -.82954836E+03 0.82954836E+03 0.00000000E+00 0.0000E+00 0.9000E+01
      -24  2    1    2    0    0 -.37891472E+01 -.21401309E+02 -.65357499E+03 0.65875874E+03 0.79564048E+02 0.0000E+00 0.0000E+00
  9900012  1    3    3    0    0 -.26438228E+02 -.16007955E+02 -.49653400E+03 0.50000125E+03 0.50000000E+02 0.0000E+00 0.9000E+01
       13  1    3    3    0    0 0.22649081E+02 -.53933545E+01 -.15704099E+03 0.15875749E+03 0.00000000E+00 0.0000E+00 0.9000E+01
        2  1    1    2  501    0 0.37891472E+01 0.21401309E+02 -.17270038E+03 0.17406262E+03 0.00000000E+00 0.0000E+00 0.9000E+01
#aMCatNLO 1  0  0  5  1 0.18072621D+01 0.00000000D+00  -5  6  0 0.00000000D+00 0.00000000D+00 0.00000000D+00 0.00000000D+00 0.00000000D+00
  <mgrwgt>
 0.3165348610D-04    8    2    0
 0.521066903178482D+02 0.000000000000000D+00 0.000000000000000D+00 0.521066903178482D+02
 0.521066903178482D+02 -.000000000000000D+00 -.000000000000000D+00 -.521066903178482D+02
 0.588974652678887D+02 -.264382284981852D+02 -.160079545867305D+02 -.369822644102289D+01
 0.235817052757672D+02 0.226490812905618D+02 -.539335450571478D+01 0.374535279811621D+01
 0.217342100920405D+02 0.378914720762347D+01 0.214013090924453D+02 -.471263570933260D-01
 0.000000000000000D+00 0.000000000000000D+00 0.000000000000000D+00 -.000000000000000D+00
 0.521066903178482D+02 0.000000000000000D+00 0.000000000000000D+00 0.521066903178482D+02
 0.521066903178482D+02 -.000000000000000D+00 -.000000000000000D+00 -.521066903178482D+02
 0.587810209968289D+02 -.263790787480298D+02 -.156738735873777D+02 -.369896209791217D+01
 0.235741963100855D+02 0.226727836671447D+02 -.525948219627882D+01 0.374505800707179D+01
 0.324521132438238D+01 0.982000896700578D+00 0.260131843829796D+01 0.167338374599191D+01
 0.186129520043995D+02 0.272429418418448D+01 0.183320373453585D+02 -.171947965515152D+01
0.963831623085D-07 0.000000000000D+00 0.000000000000D+00 0.149828202995D-06 0.000000000000D+00  6 1 22 9900012 13 2 21 0 0.50353760D-03 0.12762283D+00 0.26934948D+04 0.26934948D+04 0.26934948D+04 0.12732805D+01  1  2  2  2  6  5        2 0.236861201229D-04 0.100000000000D+01
0.234287144056D-09 0.000000000000D+00 -.185068360767D-09 0.149828202995D-06 0.000000000000D+00  6 1 22 9900012 13 2 21 2 0.50353760D-03 0.12762283D+00 0.26934948D+04 0.26934948D+04 0.26934948D+04 0.12732805D+01  1  2  3  2  6  5        2 0.933446395452D-07 0.100000000000D+01
0.145349957569D-08 0.000000000000D+00 0.000000000000D+00 0.149828202995D-06 0.000000000000D+00  6 1 22 9900012 13 2 21 2 0.50353760D-03 0.12762283D+00 0.26934948D+04 0.26934948D+04 0.26934948D+04 0.12732805D+01  1  2 15  2  6  5        2 0.579103025557D-06 0.100000000000D+01
0.310019429832D-10 0.000000000000D+00 0.000000000000D+00 0.149828202995D-06 0.000000000000D+00  6 1 22 9900012 13 2 21 2 0.50353760D-03 0.12762283D+00 0.26653059D+04 0.26653059D+04 0.26653059D+04 0.12738367D+01  1  2 12  2  6  5        2 0.123435620185D-07 0.100000000000D+01
-.646143938142D-07 0.000000000000D+00 0.000000000000D+00 0.149828202995D-06 0.000000000000D+00  6 1 22 9900012 13 2 21 2 0.50353760D-03 0.12762283D+00 0.26934948D+04 0.26934948D+04 0.26934948D+04 0.12732805D+01  1  2  4  2  6  5        2 -.257436545412D-04 0.100000000000D+01
-.459641812509D-07 0.000000000000D+00 0.000000000000D+00 0.149828202995D-06 0.000000000000D+00  6 1 22 9900012 13 2 21 2 0.50353760D-03 0.12762283D+00 0.26934948D+04 0.26934948D+04 0.26934948D+04 0.12732805D+01  1  2  5  2  6  5        2 -.183130403853D-04 0.100000000000D+01
0.104052253543D-06 0.000000000000D+00 -.000000000000D+00 0.149828202995D-06 0.000000000000D+00  6 1 22 9900012 13 2 21 2 0.50353760D-03 0.12762283D+00 0.26934948D+04 0.26934948D+04 0.26934948D+04 0.12732805D+01  1  2  6  2  6  5        2 0.414564791420D-04 0.100000000000D+01
0.248214987156D-07 0.000000000000D+00 0.000000000000D+00 0.149828202995D-06 0.155644484112D-07  6 1 22 9900012 13 2 21 2 0.50353760D-03 0.12762283D+00 0.26653059D+04 0.26653059D+04 0.26653059D+04 0.12738367D+01  1  2 11  2  6  5        2 0.988279053847D-05 0.100000000000D+01
  </mgrwgt>
  </event>
  <event>
  6     66 0.16204311E-05 0.37291920E+02 0.78161638E-02 0.12374106E+00
        3 -1    0    0  501    0 0.00000000E+00 0.00000000E+00 0.49800828E+03 0.49800828E+03 0.00000000E+00 0.0000E+00 0.9000E+01
       22 -1    0    0    0    0 0.00000000E+00 0.00000000E+00 -.25450086E+02 0.25450086E+02 0.00000000E+00 0.0000E+00 0.9000E+01
      -24  2    1    2    0    0 0.55385284E+02 -.91224623E+01 0.45488018E+03 0.46460889E+03 0.76122847E+02 0.0000E+00 0.0000E+00
  9900012  1    3    3    0    0 0.45358754E+02 -.85973419E+01 0.23912960E+03 0.24862481E+03 0.50000000E+02 0.0000E+00 0.9000E+01
       13  1    3    3    0    0 0.10026530E+02 -.52512040E+00 0.21575059E+03 0.21598408E+03 0.00000000E+00 0.0000E+00 0.9000E+01
        4  1    1    2  501    0 -.55385284E+02 0.91224623E+01 0.17678009E+02 0.58849477E+02 0.00000000E+00 0.0000E+00 0.9000E+01
#aMCatNLO 1  0  0  5  1 0.15350051D+02 0.00000000D+00  -5  6  0 0.00000000D+00 0.00000000D+00 0.00000000D+00 0.00000000D+00 0.00000000D+00
  <mgrwgt>
 0.6954415031D-05    7    2    0
 0.112580431178789D+03 0.000000000000000D+00 0.000000000000000D+00 0.112580431178789D+03
 0.112580431178789D+03 -.000000000000000D+00 -.000000000000000D+00 -.112580431178789D+03
 0.761326140738216D+02 0.453587538572045D+02 -.859734192580649D+01 0.341298122767436D+02
 0.493157013057722D+02 0.100265299873044D+02 -.525120399958993D+00 0.482828265562340D+02
 0.997125469779838D+02 -.553852838445090D+02 0.912246232576548D+01 -.824126388329775D+02
 0.000000000000000D+00 0.000000000000000D+00 0.000000000000000D+00 -.000000000000000D+00
 0.112580431178789D+03 0.000000000000000D+00 0.000000000000000D+00 0.112580431178789D+03
 0.112580431178789D+03 -.000000000000000D+00 -.000000000000000D+00 -.112580431178789D+03
 0.747139750015241D+02 0.442412596491978D+02 -.841328041877472D+01 0.324669942830513D+02
 0.481187292307740D+02 0.930472107897942D+01 -.406231877313106D+00 0.472087835480729D+02
 0.740354852614310D+02 -.480073922820357D+02 0.178768944054062D+02 -.534505379822529D+02
 0.282926728638486D+02 -.553858844614153D+01 -.905738210931841D+01 -.262252398488712D+02
0.287189834785D-06 0.000000000000D+00 0.000000000000D+00 0.295568658883D-07 0.000000000000D+00  6 3 22 9900012 13 4 21 0 0.76616658D-01 0.39153978D-02 0.45041337D+04 0.45041337D+04 0.45041337D+04 0.12469868D+01  1  2  2  2  6  5        4 0.536150734323D-05 0.100000000000D+01
-.168990660496D-07 0.000000000000D+00 -.551442292197D-09 0.295568658883D-07 0.000000000000D+00  6 3 22 9900012 13 4 21 2 0.76616658D-01 0.39153978D-02 0.45041337D+04 0.45041337D+04 0.45041337D+04 0.12469868D+01  1  2  3  2  6  5        4 -.490573676457D-06 0.100000000000D+01
0.813191759487D-08 0.000000000000D+00 0.000000000000D+00 0.295568658883D-07 0.000000000000D+00  6 3 22 9900012 13 4 21 2 0.76616658D-01 0.39153978D-02 0.45041337D+04 0.45041337D+04 0.45041337D+04 0.12469868D+01  1  2 15  2  6  5        4 0.236066579032D-06 0.100000000000D+01
0.481369963910D-06 0.000000000000D+00 0.000000000000D+00 0.295568658883D-07 0.000000000000D+00  6 3 22 9900012 13 4 21 2 0.76616658D-01 0.39153978D-02 0.47920306D+04 0.47920306D+04 0.47920306D+04 0.12439291D+01  1  2 12  2  6  5        4 0.139795632387D-04 0.100000000000D+01
-.567941986449D-06 0.000000000000D+00 0.000000000000D+00 0.295568658883D-07 0.000000000000D+00  6 3 22 9900012 13 4 21 2 0.76616658D-01 0.39153978D-02 0.45041337D+04 0.45041337D+04 0.45041337D+04 0.12469868D+01  1  2  4  2  6  5        4 -.164871471293D-04 0.100000000000D+01
-.466107343003D-06 0.000000000000D+00 0.000000000000D+00 0.295568658883D-07 0.000000000000D+00  6 3 22 9900012 13 4 21 2 0.76616658D-01 0.39153978D-02 0.45041337D+04 0.45041337D+04 0.45041337D+04 0.12469868D+01  1  2  5  2  6  5        4 -.135309248576D-04 0.100000000000D+01
0.616126420267D-06 0.000000000000D+00 -.000000000000D+00 0.295568658883D-07 0.000000000000D+00  6 3 22 9900012 13 4 21 2 0.76616658D-01 0.39153978D-02 0.45041337D+04 0.45041337D+04 0.45041337D+04 0.12469868D+01  1  2  6  2  6  5        4 0.178859235337D-04 0.100000000000D+01
  </mgrwgt>
  </event>
  <event>
  6     66 0.16204311E-05 0.16629729E+02 0.78161638E-02 0.13167234E+00
        3 -1    0    0  501    0 0.00000000E+00 0.00000000E+00 0.80618392E+01 0.80618392E+01 0.00000000E+00 0.0000E+00 0.9000E+01
       22 -1    0    0    0    0 -.00000000E+00 -.00000000E+00 -.30602069E+03 0.30602069E+03 0.00000000E+00 0.0000E+00 0.9000E+01
      -24  2    1    2    0    0 0.38269085E+01 -.16183407E+02 -.26986383E+03 0.28143474E+03 0.78118361E+02 0.0000E+00 0.0000E+00
  9900012  1    3    3    0    0 -.16189544E+02 -.13620206E+02 -.23464553E+03 0.24084463E+03 0.50000000E+02 0.0000E+00 0.9000E+01
       13  1    3    3    0    0 0.20016453E+02 -.25632012E+01 -.35218306E+02 0.40590115E+02 0.00000000E+00 0.0000E+00 0.9000E+01
        4  1    1    2  501    0 -.38269085E+01 0.16183407E+02 -.28095016E+02 0.32647784E+02 0.00000000E+00 0.0000E+00 0.9000E+01
#aMCatNLO 1  0  0  5  1 0.36493889D+01 0.00000000D+00  -5  6  0 0.00000000D+00 0.00000000D+00 0.00000000D+00 0.00000000D+00 0.00000000D+00
  <mgrwgt>
 0.2411968153D-04    6    2    0
 0.496698053392469D+02 0.000000000000000D+00 0.000000000000000D+00 0.496698053392469D+02
 0.496698053392469D+02 -.000000000000000D+00 -.000000000000000D+00 -.496698053392469D+02
 0.576847258460635D+02 -.161895444125046D+02 -.136202057774342D+02 -.194914402297881D+02
 0.227003114706906D+02 0.200164529119648D+02 -.256320116012181D+01 0.103959488985957D+02
 0.189545733617397D+02 -.382690849946017D+01 0.161834069375560D+02 0.909549133119235D+01
 0.000000000000000D+00 0.000000000000000D+00 0.000000000000000D+00 0.000000000000000D+00
 0.496698053392469D+02 0.000000000000000D+00 0.000000000000000D+00 0.496698053392469D+02
 0.496698053392469D+02 -.000000000000000D+00 -.000000000000000D+00 -.496698053392469D+02
 0.570280024550057D+02 -.166483039089321D+02 -.116801824875641D+02 -.184010971961234D+02
 0.226689415241876D+02 0.198350120556145D+02 -.179591570925999D+01 0.108271830752924D+02
 0.174940947514055D+02 -.431810433229963D+01 0.152862773230525D+02 0.732987392451337D+01
 0.214857194789497D+01 0.113139618561726D+01 -.181017912622844D+01 0.244040196317621D+00
0.548688733253D-07 0.000000000000D+00 0.000000000000D+00 0.675671678374D-07 0.000000000000D+00  6 3 22 9900012 13 4 21 0 0.12402829D-02 0.47080106D-01 0.20748726D+04 0.20748726D+04 0.20748726D+04 0.12872974D+01  1  2  2  2  6  5        4 0.212506703250D-04 0.100000000000D+01
0.180265785332D-08 0.000000000000D+00 -.105355460438D-09 0.675671678374D-07 0.000000000000D+00  6 3 22 9900012 13 4 21 2 0.12402829D-02 0.47080106D-01 0.20748726D+04 0.20748726D+04 0.20748726D+04 0.12872974D+01  1  2  3  2  6  5        4 0.115695824466D-05 0.100000000000D+01
0.751182142738D-09 0.000000000000D+00 0.000000000000D+00 0.675671678374D-07 0.000000000000D+00  6 3 22 9900012 13 4 21 2 0.12402829D-02 0.47080106D-01 0.20748726D+04 0.20748726D+04 0.20748726D+04 0.12872974D+01  1  2 15  2  6  5        4 0.482113880721D-06 0.100000000000D+01
0.891293291462D-09 0.000000000000D+00 0.000000000000D+00 0.675671678374D-07 0.000000000000D+00  6 3 22 9900012 13 4 21 2 0.12402829D-02 0.47080106D-01 0.21119994D+04 0.21119994D+04 0.21119994D+04 0.12863295D+01  1  2 12  2  6  5        4 0.572724757300D-06 0.100000000000D+01
-.152276339423D-07 0.000000000000D+00 0.000000000000D+00 0.675671678374D-07 0.000000000000D+00  6 3 22 9900012 13 4 21 2 0.12402829D-02 0.47080106D-01 0.20748726D+04 0.20748726D+04 0.20748726D+04 0.12872974D+01  1  2  4  2  6  5        4 -.977320050151D-05 0.100000000000D+01
0.162321580196D-07 0.000000000000D+00 0.000000000000D+00 0.675671678374D-07 0.225467644729D-07  6 3 22 9900012 13 4 21 2 0.12402829D-02 0.47080106D-01 0.21119994D+04 0.21119994D+04 0.21119994D+04 0.12863295D+01  1  2 11  2  6  5        4 0.104304148267D-04 0.100000000000D+01
  </mgrwgt>
  </event>
  <event>
  7     66 0.16204311E-05 0.15191340E+02 0.78161638E-02 0.13217650E+00
        3 -1    0    0  501    0 0.00000000E+00 0.00000000E+00 0.48745898E+01 0.48745898E+01 0.00000000E+00 0.0000E+00 0.9000E+01
       22 -1    0    0    0    0 -.00000000E+00 -.00000000E+00 -.49302469E+03 0.49302469E+03 0.00000000E+00 0.0000E+00 0.9000E+01
      -24  2    1    2    0    0 -.12033449E+02 -.11563139E+02 -.37401822E+03 0.38110922E+03 0.71246758E+02 0.0000E+00 0.0000E+00
  9900012  1    3    3    0    0 -.25519232E+02 -.16967072E+02 -.30113548E+03 0.30679259E+03 0.50000000E+02 0.0000E+00 0.9000E+01
       13  1    3    3    0    0 0.13485784E+02 0.54039331E+01 -.72882738E+02 0.74316635E+02 0.00000000E+00 0.0000E+00 0.9000E+01
        4  1    1    2  502    0 0.80053285E+00 0.60459205E+00 -.69007155E+02 0.69014446E+02 0.00000000E+00 0.0000E+00 0.9000E+01
       21  1    1    2  501  502 0.11232916E+02 0.10958547E+02 -.45124725E+02 0.47775611E+02 0.00000000E+00 0.0000E+00 0.9000E+01
#aMCatNLO 2  0  0  5  1 0.82006827D+01 0.00000000D+00  -5  6  0 0.00000000D+00 0.00000000D+00 0.00000000D+00 0.00000000D+00 0.00000000D+00
  <mgrwgt>
 0.6091270929D-03    2    2    0
 0.490233933861695D+02 0.000000000000000D+00 0.000000000000000D+00 0.490233933861695D+02
 0.490233933861695D+02 -.000000000000000D+00 -.000000000000000D+00 -.490233933861695D+02
 0.614747838169150D+02 -.292055954613565D+02 -.205093598309281D+02 -.235550385470671D+01
 0.134347230796601D+02 0.126278001051042D+02 0.457948255610733D+01 -.242462885804323D+00
 0.231372798757640D+02 0.165777953562523D+02 0.159298772748208D+02 0.259796674051103D+01
 0.000000000000000D+00 -.000000000000000D+00 0.000000000000000D+00 0.000000000000000D+00
 0.490233933861695D+02 0.000000000000000D+00 0.000000000000000D+00 0.490233933861695D+02
 0.490233933861695D+02 -.000000000000000D+00 -.000000000000000D+00 -.490233933861695D+02
 0.586708899749158D+02 -.255192321350683D+02 -.169670724449264D+02 -.177780042012279D+01
 0.145286103071721D+02 0.134857836131628D+02 0.540393307521934D+01 -.108005162690812D+00
 0.689868170520222D+01 0.800532854549127D+00 0.604592050112673D+00 -.682535162987371D+01
 0.179486047850490D+02 0.112329156673563D+02 0.109585473195943D+02 0.871115721268732D+01
-.995621500587D-08 0.000000000000D+00 0.000000000000D+00 0.265155676007D-08 0.000000000000D+00  6 3 22 9900012 13 4 21 2 0.74993689D-03 0.75849952D-01 0.20190769D+04 0.20190769D+04 0.20190769D+04 0.12887897D+01  1  2 13  2  6  5        4 -.568100760964D-05 0.100000000000D+01
0.107747816167D-05 0.000000000000D+00 0.000000000000D+00 0.265155676007D-08 0.644840695073D-08  6 3 22 9900012 13 4 21 2 0.74993689D-03 0.75849952D-01 0.20190769D+04 0.20190769D+04 0.20190769D+04 0.12887897D+01  1  2  1  2  6  5        4 0.614808100473D-03 0.100000000000D+01
  </mgrwgt>
  </event>
  <event>
  7     66 0.16204311E-05 0.12738529E+02 0.78161638E-02 0.13413201E+00
        1 -1    0    0  502    0 0.00000000E+00 0.00000000E+00 0.68332888E+03 0.68332888E+03 0.00000000E+00 0.0000E+00 0.9000E+01
       22 -1    0    0    0    0 0.00000000E+00 0.00000000E+00 -.40210643E+01 0.40210643E+01 0.00000000E+00 0.0000E+00 0.9000E+01
      -24  2    1    2    0    0 -.73181556E+01 0.10371832E+02 0.44336115E+03 0.45020028E+03 0.77136605E+02 0.0000E+00 0.0000E+00
  9900012  1    3    3    0    0 -.15171581E+02 -.48554440E+01 0.21954817E+03 0.22573247E+03 0.50000000E+02 0.0000E+00 0.9000E+01
       13  1    3    3    0    0 0.78534255E+01 0.15227276E+02 0.22381298E+03 0.22446781E+03 0.00000000E+00 0.0000E+00 0.9000E+01
        2  1    1    2  501    0 -.28466078E-01 0.95976971E-01 -.42279965E+00 0.43448986E+00 0.00000000E+00 0.0000E+00 0.9000E+01
       21  1    1    2  502  501 0.73466217E+01 -.10467809E+02 0.23636946E+03 0.23671517E+03 0.00000000E+00 0.0000E+00 0.9000E+01
#aMCatNLO 2  0  0  1  5 0.35254818D+02 0.00000000D+00  -5  6  0 0.00000000D+00 0.00000000D+00 0.00000000D+00 0.00000000D+00 0.00000000D+00
  <mgrwgt>
 0.4531437266D-01    1    2    0
 0.409687963347432D+02 0.000000000000000D+00 0.000000000000000D+00 0.409687963347432D+02
 0.409687963347432D+02 0.000000000000000D+00 0.000000000000000D+00 -.409687963347432D+02
 0.538942538436939D+02 -.103645804096121D+02 -.117046824933792D+02 -.126556895517543D+02
 0.233830039224914D+02 0.997954142808750D+01 0.121978867938303D+02 0.172738294274672D+02
 0.466033490330115D+01 0.385038981524593D+00 -.493204300451102D+00 -.461813987571294D+01
 0.000000000000000D+00 0.000000000000000D+00 -.000000000000000D+00 0.000000000000000D+00
 0.634175118046321D+02 0.000000000000000D+00 0.000000000000000D+00 0.634175118046321D+02
 0.433272966986752D+02 0.000000000000000D+00 0.000000000000000D+00 -.433272966986752D+02
 0.539807251423256D+02 -.151715810700518D+02 -.485544402663332D+01 -.126556895517543D+02
 0.243296404463574D+02 0.785342548212653D+01 0.152272758350429D+02 0.172738294274672D+02
 0.461922480599301D+01 -.284660784110163D-01 0.959769713579977D-01 -.461813987571294D+01
 0.238152181086313D+02 0.734662166633627D+01 -.104678087797676D+02 0.200902151059569D+02
0.451931371104D-04 0.000000000000D+00 0.000000000000D+00 0.740579023457D-05 0.161137329852D-04  6 1 22 9900012 13 2 21 2 0.10512752D+00 0.61862528D-03 0.17014837D+04 0.17014837D+04 0.17014837D+04 0.12982883D+01  1  2  1  1  6  1        1 0.453143726573D-01 0.100000000000D+01
  </mgrwgt>
  </event>
  <event>
  6     66 0.16204311E-05 0.11663674E+02 0.78161638E-02 0.13031015E+00
        1 -1    0    0  501    0 0.00000000E+00 0.00000000E+00 0.47686055E+02 0.47686055E+02 0.00000000E+00 0.0000E+00 0.9000E+01
       22 -1    0    0    0    0 0.00000000E+00 0.00000000E+00 -.48751676E+02 0.48751676E+02 0.00000000E+00 0.0000E+00 0.9000E+01
      -24  2    1    2    0    0 -.59596143E+01 0.10026181E+02 -.11715514E+02 0.80643380E+02 0.78930731E+02 0.0000E+00 0.0000E+00
  9900012  1    3    3    0    0 -.62500143E+01 0.27832779E+02 -.20081674E+02 0.60967204E+02 0.50000000E+02 0.0000E+00 0.9000E+01
       13  1    3    3    0    0 0.29039996E+00 -.17806599E+02 0.83661602E+01 0.19676177E+02 0.00000000E+00 0.0000E+00 0.9000E+01
        2  1    1    2  501    0 0.59596143E+01 -.10026181E+02 0.10649893E+02 0.15794351E+02 0.00000000E+00 0.0000E+00 0.9000E+01
#aMCatNLO 1  0  0  1  5 0.11389450D+02 0.00000000D+00  -5  6  0 0.00000000D+00 0.00000000D+00 0.00000000D+00 0.00000000D+00 0.00000000D+00
  <mgrwgt>
 0.1445369409D-03    9    2    0
 0.482159217997241D+02 0.000000000000000D+00 0.000000000000000D+00 0.482159217997241D+02
 0.482159217997241D+02 0.000000000000000D+00 0.000000000000000D+00 -.482159217997241D+02
 0.607490133148654D+02 -.625001427829080D+01 0.278327794864239D+02 -.194091814951317D+02
 0.197698283794368D+02 0.290399964639266D+00 -.178065987734988D+02 0.858410287290128D+01
 0.159130019051460D+02 0.595961431365153D+01 -.100261807129251D+02 0.108250786222304D+02
 0.000000000000000D+00 0.000000000000000D+00 -.000000000000000D+00 0.000000000000000D+00
 0.639924996112686D+02 0.000000000000000D+00 0.000000000000000D+00 0.639924996112686D+02
 0.503293534223363D+02 0.000000000000000D+00 0.000000000000000D+00 -.503293534223363D+02
 0.642339272199072D+02 -.690088819566837D+01 0.346649509143207D+02 -.194091814951317D+02
 0.179337041658230D+02 0.940512003862896D-01 -.157455415069286D+02 0.858410287290128D+01
 0.148475253346786D+02 0.579942265245747D+01 -.834466166387933D+01 0.108250786222304D+02
 0.173066963131960D+02 0.100741434282461D+01 -.105747477435127D+02 0.136631461889324D+02
0.622152475507D-07 0.000000000000D+00 0.000000000000D+00 0.156766109507D-06 0.000000000000D+00  6 1 22 9900012 13 2 21 0 0.73363161D-02 0.75002579D-02 0.18938866D+04 0.18938866D+04 0.18938866D+04 0.12923160D+01  1  2  2  1  6  1        1 0.380205979662D-04 0.100000000000D+01
0.454803564590D-08 0.000000000000D+00 -.119461466123D-09 0.156766109507D-06 0.000000000000D+00  6 1 22 9900012 13 2 21 2 0.73363161D-02 0.75002579D-02 0.18938866D+04 0.18938866D+04 0.18938866D+04 0.12923160D+01  1  2  3  1  6  1        1 0.464176779549D-05 0.100000000000D+01
-.397520470775D-09 0.000000000000D+00 0.000000000000D+00 0.156766109507D-06 0.000000000000D+00  6 1 22 9900012 13 2 21 2 0.73363161D-02 0.75002579D-02 0.18938866D+04 0.18938866D+04 0.18938866D+04 0.12923160D+01  1  2 15  1  6  1        1 -.405713117256D-06 0.100000000000D+01
0.100813360472D-06 0.000000000000D+00 0.000000000000D+00 0.156766109507D-06 0.000000000000D+00  6 1 22 9900012 13 2 21 2 0.10163599D-01 0.75002579D-02 0.23893445D+04 0.23893445D+04 0.23893445D+04 0.12796584D+01  1  2 12  1  6  1        1 0.683917237144D-04 0.100000000000D+01
-.970982809500D-08 0.000000000000D+00 0.000000000000D+00 0.156766109507D-06 0.000000000000D+00  6 1 22 9900012 13 2 21 2 0.73363161D-02 0.75002579D-02 0.18938866D+04 0.18938866D+04 0.18938866D+04 0.12923160D+01  1  2  4  1  6  1        1 -.990994153525D-05 0.100000000000D+01
-.135098133320D-06 0.000000000000D+00 -.262630554588D-07 0.156766109507D-06 0.000000000000D+00  6 1 22 9900012 13 2 21 2 0.10136333D-01 0.75002579D-02 0.18938866D+04 0.18938866D+04 0.18938866D+04 0.12923160D+01  1  2  5  1  6  1        1 -.911839542934D-04 0.100000000000D+01
0.137647756146D-06 0.000000000000D+00 0.249479307991D-07 0.156766109507D-06 0.000000000000D+00  6 1 22 9900012 13 2 21 2 0.73363161D-02 0.75002579D-02 0.18938866D+04 0.18938866D+04 0.18938866D+04 0.12923160D+01  1  2  6  1  6  1        1 0.140484589687D-03 0.100000000000D+01
0.413745379329D-08 0.000000000000D+00 0.000000000000D+00 0.156766109507D-06 0.000000000000D+00  6 21 22 9900012 13 2 -1 2 0.10163599D-01 0.75002579D-02 0.23893445D+04 0.23893445D+04 0.23893445D+04 0.12796584D+01  1  2 12  3  6  1        1 0.325392854243D-04 0.100000000000D+01
-.485134822077D-08 0.000000000000D+00 -.107144939954D-08 0.156766109507D-06 0.000000000000D+00  6 21 22 9900012 13 2 -1 2 0.10136333D-01 0.75002579D-02 0.18938866D+04 0.18938866D+04 0.18938866D+04 0.12923160D+01  1  2  5  3  6  1        1 -.380414147861D-04 0.100000000000D+01
  </mgrwgt>
  </event>
  <event>
  6     66 0.16204311E-05 0.41720030E+02 0.78161638E-02 0.11042126E+00
        1 -1    0    0  501    0 0.00000000E+00 0.00000000E+00 0.83807910E+02 0.83807910E+02 0.00000000E+00 0.0000E+00 0.9000E+01
       22 -1    0    0    0    0 0.00000000E+00 0.00000000E+00 -.97128215E+02 0.97128215E+02 0.00000000E+00 0.0000E+00 0.9000E+01
      -24  2    1    2    0    0 -.27888360E+02 0.31029023E+02 -.67700469E+02 0.11239590E+03 0.79428728E+02 0.0000E+00 0.0000E+00
  9900012  1    3    3    0    0 -.40587748E+02 0.29740243E+02 -.69732039E+02 0.99470622E+02 0.50000000E+02 0.0000E+00 0.9000E+01
       13  1    3    3    0    0 0.12699388E+02 0.12887800E+01 0.20315707E+01 0.12925273E+02 0.00000000E+00 0.0000E+00 0.9000E+01
        2  1    1    2  501    0 0.27888360E+02 -.31029023E+02 0.54380164E+02 0.68540230E+02 0.00000000E+00 0.0000E+00 0.9000E+01
#aMCatNLO 1  0  0  1  5 0.14236261D+03 0.00000000D+00  -5  6  0 0.00000000D+00 0.00000000D+00 0.00000000D+00 0.00000000D+00 0.00000000D+00
  <mgrwgt>
 0.2298813080D-04    5    2    0
 0.902225733566815D+02 0.000000000000000D+00 0.000000000000000D+00 0.902225733566815D+02
 0.902225733566815D+02 0.000000000000000D+00 0.000000000000000D+00 -.902225733566815D+02
 0.945937159952226D+02 -.405877480155282D+02 0.297402432739418D+02 -.625789401222134D+02
 0.131104106506546D+02 0.126993878141835D+02 0.128877998048447D+01 0.299123097330659D+01
 0.727410200674859D+02 0.278883602013447D+02 -.310290232544263D+02 0.595877091489068D+02
 0.000000000000000D+00 0.000000000000000D+00 -.000000000000000D+00 0.000000000000000D+00
 0.346865806013952D+03 0.000000000000000D+00 0.000000000000000D+00 0.346865806013952D+03
 0.128984221054508D+03 0.000000000000000D+00 0.000000000000000D+00 -.128984221054508D+03
 0.149222951600759D+03 -.780272289666925D+02 0.988084868693088D+02 -.625789401222134D+02
 0.126110186298686D+02 0.874971131716644D+01 0.857513148665794D+01 0.299123097330659D+01
 0.604223102535071D+02 0.744034892260899D+01 0.669340740327265D+01 0.595877091489068D+02
 0.253593746584325D+03 0.618371687269170D+02 -.114077025759239D+03 0.217881584959445D+03
0.180196551408D-06 0.000000000000D+00 0.000000000000D+00 0.116558320914D-05 0.000000000000D+00  6 1 22 9900012 13 2 21 0 0.12893525D-01 0.14942802D-01 0.39325542D+04 0.39325542D+04 0.39325542D+04 0.12537618D+01  1  2  2  1  6  1        1 0.220745447963D-04 0.100000000000D+01
0.332503372099D-08 0.000000000000D+00 -.346001102124D-09 0.116558320914D-05 0.000000000000D+00  6 1 22 9900012 13 2 21 2 0.12893525D-01 0.14942802D-01 0.39325542D+04 0.39325542D+04 0.39325542D+04 0.12537618D+01  1  2  3  1  6  1        1 0.640282211434D-06 0.100000000000D+01
-.222245212123D-08 0.000000000000D+00 0.000000000000D+00 0.116558320914D-05 0.000000000000D+00  6 1 22 9900012 13 2 21 2 0.12893525D-01 0.14942802D-01 0.39325542D+04 0.39325542D+04 0.39325542D+04 0.12537618D+01  1  2 15  1  6  1        1 -.427964549654D-06 0.100000000000D+01
0.213136008128D-07 0.000000000000D+00 -.663693212944D-07 0.116558320914D-05 0.000000000000D+00  6 1 22 9900012 13 2 21 2 0.67212468D-01 0.14942802D-01 0.39325542D+04 0.39325542D+04 0.39325542D+04 0.12537618D+01  1  2  5  1  6  1        1 0.528589087565D-06 0.100000000000D+01
0.188185656597D-08 0.000000000000D+00 -.133848408380D-07 0.116558320914D-05 0.000000000000D+00  6 21 22 9900012 13 2 -1 2 0.67212468D-01 0.14942802D-01 0.39325542D+04 0.39325542D+04 0.39325542D+04 0.12537618D+01  1  2  5  3  6  1        1 0.172679250206D-06 0.100000000000D+01
  </mgrwgt>
  </event>
  <event>
  6     66 0.16204311E-05 0.17257021E+02 0.78161638E-02 0.12840500E+00
        1 -1    0    0  501    0 0.00000000E+00 0.00000000E+00 0.18032476E+03 0.18032476E+03 0.00000000E+00 0.0000E+00 0.9000E+01
       22 -1    0    0    0    0 0.00000000E+00 0.00000000E+00 -.14282732E+02 0.14282732E+02 0.00000000E+00 0.0000E+00 0.9000E+01
      -24  2    1    2    0    0 -.13648756E+02 0.10560125E+02 0.12239623E+03 0.14767391E+03 0.80801880E+02 0.0000E+00 0.0000E+00
  9900012  1    3    3    0    0 -.19889612E+02 -.14010641E+02 0.69416213E+02 0.88941022E+02 0.50000000E+02 0.0000E+00 0.9000E+01
       13  1    3    3    0    0 0.62408556E+01 0.24570766E+02 0.52980013E+02 0.58732892E+02 0.00000000E+00 0.0000E+00 0.9000E+01
        2  1    1    2  501    0 0.13648756E+02 -.10560125E+02 0.43645801E+02 0.46933578E+02 0.00000000E+00 0.0000E+00 0.9000E+01
#aMCatNLO 1  0  0  1  5 0.14682828D+02 0.00000000D+00  -5  6  0 0.00000000D+00 0.00000000D+00 0.00000000D+00 0.00000000D+00 0.00000000D+00
  <mgrwgt>
 0.8173769861D-04    6    2    0
 0.507496821720360D+02 0.000000000000000D+00 0.000000000000000D+00 0.507496821720360D+02
 0.507496821720360D+02 0.000000000000000D+00 0.000000000000000D+00 -.507496821720360D+02
 0.569715923624074D+02 -.198896119553990D+02 -.140106410334289D+02 -.124043383702783D+02
 0.259405760673574D+02 0.624085561378458D+01 0.245707656031159D+02 0.549933501352502D+01
 0.185871959143073D+02 0.136487563416144D+02 -.105601245696870D+02 0.690500335675333D+01
 0.000000000000000D+00 0.000000000000000D+00 0.000000000000000D+00 -.000000000000000D+00
 0.536108099077132D+02 0.000000000000000D+00 0.000000000000000D+00 0.536108099077132D+02
 0.571967046633790D+02 0.000000000000000D+00 0.000000000000000D+00 -.571967046633790D+02
 0.586860361694083D+02 -.211485178326360D+02 -.185181917139717D+02 -.124043383702783D+02
 0.239712368047980D+02 0.569757735911221D+01 0.226255413326985D+02 0.549933501352502D+01
 0.191750246539290D+02 0.132377235198772D+02 -.120318400560056D+02 0.690500335675333D+01
 0.897521694295704D+01 0.221321695364664D+01 0.792449043727879D+01 -.358589475566576D+01
0.731864650564D-07 0.000000000000D+00 0.000000000000D+00 0.130332242554D-06 0.000000000000D+00  6 1 22 9900012 13 2 21 0 0.27742271D-01 0.21973434D-02 0.24114377D+04 0.24114377D+04 0.24114377D+04 0.12791651D+01  1  2  2  1  6  1        1 0.457038619041D-04 0.100000000000D+01
0.248612640715D-08 0.000000000000D+00 -.140527648128D-09 0.130332242554D-06 0.000000000000D+00  6 1 22 9900012 13 2 21 2 0.27742271D-01 0.21973434D-02 0.24114377D+04 0.24114377D+04 0.24114377D+04 0.12791651D+01  1  2  3  1  6  1        1 0.254037905295D-05 0.100000000000D+01
0.768728106867D-09 0.000000000000D+00 0.000000000000D+00 0.130332242554D-06 0.000000000000D+00  6 1 22 9900012 13 2 21 2 0.27742271D-01 0.21973434D-02 0.24114377D+04 0.24114377D+04 0.24114377D+04 0.12791651D+01  1  2 15  1  6  1        1 0.785503413860D-06 0.100000000000D+01
0.370549809052D-07 0.000000000000D+00 0.000000000000D+00 0.130332242554D-06 0.000000000000D+00  6 1 22 9900012 13 2 21 2 0.33029251D-01 0.21973434D-02 0.28520076D+04 0.28520076D+04 0.28520076D+04 0.12702696D+01  1  2 12  1  6  1        1 0.307853783897D-04 0.100000000000D+01
-.313298435099D-08 0.000000000000D+00 0.000000000000D+00 0.130332242554D-06 0.000000000000D+00  6 1 22 9900012 13 2 21 2 0.27742271D-01 0.21973434D-02 0.24114377D+04 0.24114377D+04 0.24114377D+04 0.12791651D+01  1  2  4  1  6  1        1 -.320135283371D-05 0.100000000000D+01
0.953497095481D-09 0.000000000000D+00 0.000000000000D+00 0.130332242554D-06 0.000000000000D+00  6 21 22 9900012 13 2 -1 2 0.33029251D-01 0.21973434D-02 0.28520076D+04 0.28520076D+04 0.28520076D+04 0.12702696D+01  1  2 12  3  6  1        1 0.512392867922D-05 0.100000000000D+01
  </mgrwgt>
  </event>
  <event>
  6     66 0.16204311E-05 0.94594359E+02 0.78161638E-02 0.11876903E+00
        1 -1    0    0  501    0 0.00000000E+00 0.00000000E+00 0.17249879E+02 0.17249879E+02 0.00000000E+00 0.0000E+00 0.9000E+01
       22 -1    0    0    0    0 -.00000000E+00 -.00000000E+00 -.83389673E+03 0.83389673E+03 0.00000000E+00 0.0000E+00 0.9000E+01
      -24  2    1    2    0    0 -.12043320E+01 -.10835468E+03 -.43527636E+03 0.45468016E+03 0.74339472E+02 0.0000E+00 0.0000E+00
  9900012  1    3    3    0    0 0.15589345E+02 -.57271321E+02 -.25243893E+03 0.26409930E+03 0.50000000E+02 0.0000E+00 0.9000E+01
       13  1    3    3    0    0 -.16793677E+02 -.51083362E+02 -.18283743E+03 0.19058086E+03 0.00000000E+00 0.0000E+00 0.9000E+01
        2  1    1    2  501    0 0.12043320E+01 0.10835468E+03 -.38137049E+03 0.39646644E+03 0.00000000E+00 0.0000E+00 0.9000E+01
#aMCatNLO 1  0  0  5  1 0.62765214D+02 0.00000000D+00  -5  6  0 0.00000000D+00 0.00000000D+00 0.00000000D+00 0.00000000D+00 0.00000000D+00
  <mgrwgt>
 0.1657241442D-04    5    2    0
 0.119935889404678D+03 0.000000000000000D+00 0.000000000000000D+00 0.119935889404678D+03
 0.119935889404678D+03 -.000000000000000D+00 -.000000000000000D+00 -.119935889404678D+03
 0.776822289973680D+02 0.155893454189602D+02 -.572713212628987D+02 0.339068904645006D+01
 0.537730585433509D+02 -.167936774108310D+02 -.510833621271625D+02 0.658628330214870D-01
 0.108416491268637D+03 0.120433199187077D+01 0.108354683390061D+03 -.345655187947155D+01
 0.000000000000000D+00 0.000000000000000D+00 0.000000000000000D+00 0.000000000000000D+00
 0.119935889404678D+03 0.000000000000000D+00 0.000000000000000D+00 0.119935889404678D+03
 0.119935889404678D+03 -.000000000000000D+00 -.000000000000000D+00 -.119935889404678D+03
 0.602622898966329D+02 0.158975866001276D+02 -.295386231210089D+02 0.250600638312589D+01
 0.368232211716562D+02 -.165912372958295D+02 -.328696679676640D+02 -.515160310689802D+00
 0.864231656520618D+02 -.118949788237511D+02 0.639443310971765D+02 -.569086598035914D+02
 0.563631020890053D+02 0.125886295194530D+02 -.153604000850361D+01 0.549178137311553D+02
0.508906323004D-06 0.000000000000D+00 0.000000000000D+00 0.100548919062D-07 0.000000000000D+00  6 1 22 9900012 13 2 21 0 0.26538275D-02 0.12829180D+00 0.14369127D+05 0.14369127D+05 0.14369127D+05 0.11933426D+01  1  2  2  2  6  5        2 0.158542975217D-04 0.100000000000D+01
-.229389079836D-07 0.000000000000D+00 -.977167139223D-09 0.100548919062D-07 0.000000000000D+00  6 1 22 9900012 13 2 21 2 0.26538275D-02 0.12829180D+00 0.14369127D+05 0.14369127D+05 0.14369127D+05 0.11933426D+01  1  2  3  2  6  5        2 -.101768226333D-05 0.100000000000D+01
0.359687548813D-08 0.000000000000D+00 0.000000000000D+00 0.100548919062D-07 0.000000000000D+00  6 1 22 9900012 13 2 21 2 0.26538275D-02 0.12829180D+00 0.14369127D+05 0.14369127D+05 0.14369127D+05 0.11933426D+01  1  2 15  2  6  5        2 0.159575006374D-06 0.100000000000D+01
0.627022427798D-07 0.000000000000D+00 0.000000000000D+00 0.100548919062D-07 0.000000000000D+00  6 1 22 9900012 13 2 21 2 0.26538275D-02 0.12829180D+00 0.76346574D+04 0.76346574D+04 0.76346574D+04 0.12216774D+01  1  2 12  2  6  5        2 0.274339202955D-05 0.100000000000D+01
-.263083649373D-07 0.000000000000D+00 0.000000000000D+00 0.100548919062D-07 0.000000000000D+00  6 1 22 9900012 13 2 21 2 0.26538275D-02 0.12829180D+00 0.14369127D+05 0.14369127D+05 0.14369127D+05 0.11933426D+01  1  2  4  2  6  5        2 -.116716787011D-05 0.100000000000D+01
  </mgrwgt>
  </event>
  <event>
  6     66 0.16204311E-05 0.23210387E+02 0.78161638E-02 0.13158841E+00
        1 -1    0    0  501    0 0.00000000E+00 0.00000000E+00 0.12332135E+04 0.12332135E+04 0.00000000E+00 0.0000E+00 0.9000E+01
       22 -1    0    0    0    0 0.00000000E+00 0.00000000E+00 -.23323762E+01 0.23323762E+01 0.00000000E+00 0.0000E+00 0.9000E+01
      -24  2    1    2    0    0 -.49042251E+01 0.22809876E+02 0.93905263E+03 0.94278623E+03 0.80508930E+02 0.0000E+00 0.0000E+00
  9900012  1    3    3    0    0 -.15858399E+02 0.24413104E+02 0.46247819E+03 0.46608322E+03 0.50000000E+02 0.0000E+00 0.9000E+01
       13  1    3    3    0    0 0.10954174E+02 -.16032283E+01 0.47657444E+03 0.47670301E+03 0.00000000E+00 0.0000E+00 0.9000E+01
        2  1    1    2  501    0 0.49042251E+01 -.22809876E+02 0.29182847E+03 0.29275963E+03 0.00000000E+00 0.0000E+00 0.9000E+01
#aMCatNLO 1  0  0  1  5 0.14357409D+02 0.00000000D+00  -5  6  0 0.00000000D+00 0.00000000D+00 0.00000000D+00 0.00000000D+00 0.00000000D+00
  <mgrwgt>
 0.1701592824D-03    6    2    0
 0.536313134248533D+02 0.000000000000000D+00 0.000000000000000D+00 0.536313134248533D+02
 0.536313134248533D+02 0.000000000000000D+00 0.000000000000000D+00 -.536313134248533D+02
 0.616386336072759D+02 -.158583986983131D+02 0.244131039487368D+02 -.212563566794858D+02
 0.222067811505695D+02 0.109541736090096D+02 -.160322826404487D+01 0.192503732105726D+02
 0.234172120918611D+02 0.490422508930348D+01 -.228098756846919D+02 0.200598346891316D+01
 0.000000000000000D+00 0.000000000000000D+00 -.000000000000000D+00 -.000000000000000D+00
 0.576623586217933D+02 0.000000000000000D+00 0.000000000000000D+00 0.576623586217933D+02
 0.594051474043477D+02 0.000000000000000D+00 0.000000000000000D+00 -.594051474043477D+02
 0.643318758487773D+02 -.196074470161861D+02 0.283249990722761D+02 -.212563566794858D+02
 0.215361147068037D+02 0.965232740039217D+01 -.244833972136081D+00 0.192503732105726D+02
 0.217922630399413D+02 0.355873154937355D+01 -.214059381593971D+02 0.200598346891316D+01
 0.940725243061870D+01 0.639638806642034D+01 -.667422694074297D+01 -.174278878255446D+01
0.220511893684D-06 0.000000000000D+00 0.000000000000D+00 0.239349517216D-06 0.000000000000D+00  6 1 22 9900012 13 2 21 0 0.18972515D+00 0.35882711D-03 0.21279535D+04 0.21279535D+04 0.21279535D+04 0.12859194D+01  1  2  2  1  6  1        1 0.106442389960D-03 0.100000000000D+01
-.266314041352D-08 0.000000000000D+00 -.423411866930D-09 0.239349517216D-06 0.000000000000D+00  6 1 22 9900012 13 2 21 2 0.18972515D+00 0.35882711D-03 0.21279535D+04 0.21279535D+04 0.21279535D+04 0.12859194D+01  1  2  3  1  6  1        1 -.212571081684D-05 0.100000000000D+01
0.124663643889D-08 0.000000000000D+00 0.000000000000D+00 0.239349517216D-06 0.000000000000D+00  6 1 22 9900012 13 2 21 2 0.18972515D+00 0.35882711D-03 0.21279535D+04 0.21279535D+04 0.21279535D+04 0.12859194D+01  1  2 15  1  6  1        1 0.995061525620D-06 0.100000000000D+01
0.127256432460D-06 0.000000000000D+00 0.000000000000D+00 0.239349517216D-06 0.000000000000D+00  6 1 22 9900012 13 2 21 2 0.22594593D+00 0.35882711D-03 0.25663473D+04 0.25663473D+04 0.25663473D+04 0.12758430D+01  1  2 12  1  6  1        1 0.717353460152D-04 0.100000000000D+01
-.110573081038D-07 0.000000000000D+00 0.000000000000D+00 0.239349517216D-06 0.000000000000D+00  6 1 22 9900012 13 2 21 2 0.18972515D+00 0.35882711D-03 0.21279535D+04 0.21279535D+04 0.21279535D+04 0.12859194D+01  1  2  4  1  6  1        1 -.882591068884D-05 0.100000000000D+01
0.327873666859D-08 0.000000000000D+00 0.000000000000D+00 0.239349517216D-06 0.000000000000D+00  6 21 22 9900012 13 2 -1 2 0.22594593D+00 0.35882711D-03 0.25663473D+04 0.25663473D+04 0.25663473D+04 0.12758430D+01  1  2 12  3  6  1        1 0.193810644696D-05 0.100000000000D+01
  </mgrwgt>
  </event>
  <event>
  6     66 0.16204311E-05 0.72046950E+02 0.78161638E-02 0.11094222E+00
        3 -1    0    0  501    0 0.00000000E+00 0.00000000E+00 0.15850507E+03 0.15850507E+03 0.00000000E+00 0.0000E+00 0.9000E+01
       22 -1    0    0    0    0 0.00000000E+00 0.00000000E+00 -.51622403E+02 0.51622403E+02 0.00000000E+00 0.0000E+00 0.9000E+01
      -24  2    1    2    0    0 0.41803294E+02 -.58679192E+02 0.43878539E+02 0.11441810E+03 0.77300797E+02 0.0000E+00 0.0000E+00
  9900012  1    3    3    0    0 0.58133445E+01 -.34277596E+02 0.34295521E+02 0.69892284E+02 0.50000000E+02 0.0000E+00 0.9000E+01
       13  1    3    3    0    0 0.35989950E+02 -.24401596E+02 0.95830179E+01 0.44525819E+02 0.00000000E+00 0.0000E+00 0.9000E+01
        4  1    1    2  501    0 -.41803294E+02 0.58679192E+02 0.63004125E+02 0.95709366E+02 0.00000000E+00 0.0000E+00 0.9000E+01
#aMCatNLO 1  0  0  1  5 0.14277276D+00 0.00000000D+00  -5  6  0 0.00000000D+00 0.00000000D+00 0.00000000D+00 0.00000000D+00 0.00000000D+00
  <mgrwgt>
 0.8382548863D-05    5    2    0
 0.904566879463954D+02 0.000000000000000D+00 0.000000000000000D+00 0.904566879463954D+02
 0.904566879463954D+02 0.000000000000000D+00 0.000000000000000D+00 -.904566879463954D+02
 0.609169557191683D+02 0.581334450633367D+01 -.342775964068148D+02 -.145839100151823D+01
 0.460543021502798D+02 0.359899499323863D+02 -.244015956369064D+02 -.151751237486387D+02
 0.739421180233426D+02 -.418032944387200D+02 0.586791920437213D+02 0.166335147501569D+02
 0.000000000000000D+00 0.000000000000000D+00 0.000000000000000D+00 0.000000000000000D+00
 0.169575376131010D+03 0.000000000000000D+00 0.000000000000000D+00 0.169575376131010D+03
 0.124602477877724D+03 0.000000000000000D+00 0.000000000000000D+00 -.124602477877724D+03
 0.674249135133589D+02 -.218976342380675D+02 -.395535797715760D+02 -.145839100151823D+01
 0.365074872929383D+02 0.181635928281772D+02 -.277956137408359D+02 -.151751237486387D+02
 0.953478920354080D+02 -.783556050636969D+02 0.517198787484473D+02 0.166335147501569D+02
 0.948975611670290D+02 0.820896464735871D+02 0.156293147639645D+02 0.449728982532860D+02
0.135960055127D-06 0.000000000000D+00 0.000000000000D+00 0.456070144643D-07 0.000000000000D+00  6 3 22 9900012 13 4 21 0 0.24385395D-01 0.79419081D-02 0.77817796D+04 0.77817796D+04 0.77817796D+04 0.12207912D+01  1  2  2  1  6  1        3 0.906657276512D-05 0.100000000000D+01
-.397003202052D-08 0.000000000000D+00 -.261061205397D-09 0.456070144643D-07 0.000000000000D+00  6 3 22 9900012 13 4 21 2 0.24385395D-01 0.79419081D-02 0.77817796D+04 0.77817796D+04 0.77817796D+04 0.12207912D+01  1  2  3  1  6  1        3 -.394555991565D-06 0.100000000000D+01
0.619714200963D-09 0.000000000000D+00 0.000000000000D+00 0.456070144643D-07 0.000000000000D+00  6 3 22 9900012 13 4 21 2 0.24385395D-01 0.79419081D-02 0.77817796D+04 0.77817796D+04 0.77817796D+04 0.12207912D+01  1  2 15  1  6  1        3 0.615894153457D-07 0.100000000000D+01
-.211473625846D-07 0.000000000000D+00 -.357631114512D-07 0.456070144643D-07 0.000000000000D+00  6 3 22 9900012 13 4 21 2 0.60741588D-01 0.79419081D-02 0.77817796D+04 0.77817796D+04 0.77817796D+04 0.12207912D+01  1  2  5  1  6  1        3 -.375817441816D-06 0.100000000000D+01
0.911463056438D-10 0.000000000000D+00 -.359071604893D-08 0.456070144643D-07 0.000000000000D+00  6 21 22 9900012 13 4 -3 2 0.60741588D-01 0.79419081D-02 0.77817796D+04 0.77817796D+04 0.77817796D+04 0.12207912D+01  1  2  5  3  6  1        3 0.247601164034D-07 0.100000000000D+01
  </mgrwgt>
  </event>
  <event>
  7     66 0.16204311E-05 0.21376423E+02 0.78161638E-02 0.12943506E+00
        1 -1    0    0  502    0 0.00000000E+00 0.00000000E+00 0.60079792E+03 0.60079792E+03 0.00000000E+00 0.0000E+00 0.9000E+01
       22 -1    0    0    0    0 0.00000000E+00 0.00000000E+00 -.25780176E+02 0.25780176E+02 0.00000000E+00 0.0000E+00 0.9000E+01
      -24  2    1    2    0    0 -.17643647E+02 0.11160982E+02 0.35779410E+03 0.36733971E+03 0.80535583E+02 0.0000E+00 0.0000E+00
  9900012  1    3    3    0    0 -.81901065E+01 0.15718460E+02 0.14690626E+03 0.15619090E+03 0.50000000E+02 0.0000E+00 0.9000E+01
       13  1    3    3    0    0 -.94535401E+01 -.45574784E+01 0.21088784E+03 0.21114881E+03 0.00000000E+00 0.0000E+00 0.9000E+01
        2  1    1    2  501    0 0.15396468E+02 -.22177792E+02 -.12138013E+02 0.29601301E+02 0.00000000E+00 0.0000E+00 0.9000E+01
       21  1    1    2  502  501 0.22471791E+01 0.11016810E+02 0.22936166E+03 0.22963708E+03 0.00000000E+00 0.0000E+00 0.9000E+01
#aMCatNLO 2  0  0  1  5 0.41165843D+02 0.00000000D+00  -5  6  0 0.00000000D+00 0.00000000D+00 0.00000000D+00 0.00000000D+00 0.00000000D+00
  <mgrwgt>
 0.1006702440D-03    1    2    0
 0.974135740593900D+02 0.000000000000000D+00 0.000000000000000D+00 0.974135740593900D+02
 0.974135740593900D+02 0.000000000000000D+00 0.000000000000000D+00 -.974135740593900D+02
 0.583814616368077D+02 -.752241026824447D+01 0.189918458209396D+02 0.221611867669562D+02
 0.556775856586605D+02 -.881029961043419D+01 -.140398751121091D+01 0.549581748661673D+02
 0.807681008233118D+02 0.163327098786787D+02 -.175878583097287D+02 -.771193616331235D+02
 0.000000000000000D+00 0.000000000000000D+00 0.000000000000000D+00 0.000000000000000D+00
 0.157887106525806D+03 0.000000000000000D+00 0.000000000000000D+00 0.157887106525806D+03
 0.980996893778860D+02 0.000000000000000D+00 0.000000000000000D+00 -.980996893778860D+02
 0.574914432230870D+02 -.819010653622823D+01 0.157184604805545D+02 0.221611867669562D+02
 0.559512378375924D+02 -.945354014141067D+01 -.455747844024984D+01 0.549581748661673D+02
 0.817086385986075D+02 0.153964675994559D+02 -.221777922344918D+02 -.771193616331235D+02
 0.608354762444048D+02 0.224717907818295D+01 0.110168101941871D+02 0.597874171479198D+02
0.970696229476D-06 0.000000000000D+00 0.000000000000D+00 0.152823530793D-05 0.915159961663D-07  6 1 22 9900012 13 2 21 2 0.92430449D-01 0.39661809D-02 0.25900577D+04 0.25900577D+04 0.25900577D+04 0.12753544D+01  1  2  1  1  6  1        1 0.100670244003D-03 0.100000000000D+01
  </mgrwgt>
  </event>
  <event>
  7     66 0.16204311E-05 0.23255245E+02 0.78161638E-02 0.12770534E+00
        3 -1    0    0  502    0 0.00000000E+00 0.00000000E+00 0.34944882E+03 0.34944882E+03 0.00000000E+00 0.0000E+00 0.9000E+01
       22 -1    0    0    0    0 0.00000000E+00 0.00000000E+00 -.41098314E+02 0.41098314E+02 0.00000000E+00 0.0000E+00 0.9000E+01
      -24  2    1    2    0    0 -.21370622E+02 0.93968617E+01 0.21928717E+03 0.23576371E+03 0.83382611E+02 0.0000E+00 0.0000E+00
  9900012  1    3    3    0    0 0.12692116E+02 0.20163156E+01 0.13670144E+03 0.14612474E+03 0.50000000E+02 0.0000E+00 0.9000E+01
       13  1    3    3    0    0 -.34062739E+02 0.73805461E+01 0.82585731E+02 0.89638974E+02 0.00000000E+00 0.0000E+00 0.9000E+01
        4  1    1    2  501    0 0.53336400E-01 0.44765139E+00 -.31727920E+02 0.31731123E+02 0.00000000E+00 0.0000E+00 0.9000E+01
       21  1    1    2  502  501 0.21317286E+02 -.98445131E+01 0.12079125E+03 0.12305230E+03 0.00000000E+00 0.0000E+00 0.9000E+01
#aMCatNLO 2  0  0  1  5 0.93129791D+01 0.00000000D+00  -5  6  0 0.00000000D+00 0.00000000D+00 0.00000000D+00 0.00000000D+00 0.00000000D+00
  <mgrwgt>
 0.6666736854D-02    1    2    0
 0.946357138404912D+02 0.000000000000000D+00 0.000000000000000D+00 0.946357138404912D+02
 0.946357138404912D+02 0.000000000000000D+00 0.000000000000000D+00 -.946357138404912D+02
 0.723759797209345D+02 0.207079298905221D+02 -.168545862110212D+01 0.480273183662266D+02
 0.406266370328194D+02 -.292868927189709D+02 0.517501765612843D+01 0.276770797542425D+02
 0.762688109272285D+02 0.857896282844876D+01 -.348955903502631D+01 -.757043981204692D+02
 0.000000000000000D+00 0.000000000000000D+00 -.000000000000000D+00 0.000000000000000D+00
 0.146461049198989D+03 0.000000000000000D+00 0.000000000000000D+00 0.146461049198989D+03
 0.980585448041763D+02 0.000000000000000D+00 0.000000000000000D+00 -.980585448041763D+02
 0.705108407118323D+02 0.126921164410009D+02 0.201631562176280D+01 0.480273183662266D+02
 0.445057680122962D+02 -.340627389116701D+02 0.738054608257583D+01 0.276770797542425D+02
 0.757057404119757D+02 0.533363996421592D-01 0.447651394980639D+00 -.757043981204692D+02
 0.537972448670608D+02 0.213172860710270D+02 -.984451309931927D+01 0.484025043948124D+02
0.215724279177D-03 0.000000000000D+00 0.000000000000D+00 0.512478386806D-06 0.186758771458D-05  6 3 22 9900012 13 4 21 2 0.53761357D-01 0.63228176D-02 0.30475795D+04 0.30475795D+04 0.30475795D+04 0.12668041D+01  1  2  1  1  6  1        3 0.666673685404D-02 0.100000000000D+01
  </mgrwgt>
  </event>
  <event>
  7     66 0.16204311E-05 0.15077876E+02 0.78161638E-02 0.13076418E+00
        1 -1    0    0  502    0 0.00000000E+00 0.00000000E+00 0.14661022E+03 0.14661022E+03 0.00000000E+00 0.0000E+00 0.9000E+01
       22 -1    0    0    0    0 0.00000000E+00 0.00000000E+00 -.12653947E+03 0.12653947E+03 0.00000000E+00 0.0000E+00 0.9000E+01
      -24  2    1    2    0    0 -.10316624E+02 0.10763176E+02 0.69325710E+02 0.10793000E+03 0.81366771E+02 0.0000E+00 0.0000E+00
  9900012  1    3    3    0    0 0.15288121E+02 0.13495403E+01 0.30715907E+02 0.60654883E+02 0.50000000E+02 0.0000E+00 0.9000E+01
       13  1    3    3    0    0 -.25604745E+02 0.94136353E+01 0.38609803E+02 0.47275114E+02 0.00000000E+00 0.0000E+00 0.9000E+01
        2  1    1    2  501    0 -.73101820E+00 0.28312594E-01 -.10620769E+03 0.10621021E+03 0.00000000E+00 0.0000E+00 0.9000E+01
       21  1    1    2  502  501 0.11047642E+02 -.10791488E+02 0.56952728E+02 0.59009489E+02 0.00000000E+00 0.0000E+00 0.9000E+01
#aMCatNLO 2  0  0  1  5 0.36816288D+01 0.00000000D+00  -5  6  0 0.00000000D+00 0.00000000D+00 0.00000000D+00 0.00000000D+00 0.00000000D+00
  <mgrwgt>
 0.3379045908D-01    1    2    0
 0.105187023421487D+03 0.000000000000000D+00 0.000000000000000D+00 0.105187023421487D+03
 0.105187023421487D+03 0.000000000000000D+00 0.000000000000000D+00 -.105187023421487D+03
 0.678593519166550D+02 0.188229573284144D+02 -.210333629137369D+01 0.417871259649011D+02
 0.530628621069102D+02 -.227778730147363D+02 0.665230826044412D+01 0.474613804130215D+02
 0.894518328194084D+02 0.395491568632196D+01 -.454897196907043D+01 -.892485063779226D+02
 0.000000000000000D+00 0.000000000000000D+00 -.000000000000000D+00 0.000000000000000D+00
 0.174468528626096D+03 0.000000000000000D+00 0.000000000000000D+00 0.174468528626096D+03
 0.106334247916413D+03 0.000000000000000D+00 0.000000000000000D+00 -.106334247916413D+03
 0.669455883621413D+02 0.152881210651948D+02 0.134954030792188D+01 0.417871259649011D+02
 0.547430553678132D+02 -.256047446834689D+02 0.941363532267354D+01 0.474613804130215D+02
 0.892515046366206D+02 -.731018199272476D+00 0.283125936600763D-01 -.892485063779226D+02
 0.698626281759340D+02 0.110476418175466D+02 -.107914882242555D+02 0.681342807096821D+02
0.519571901737D-03 0.000000000000D+00 0.000000000000D+00 0.104780483256D-04 0.216405316104D-04  6 1 22 9900012 13 2 21 2 0.22555419D-01 0.19467611D-01 0.22924023D+04 0.22924023D+04 0.22924023D+04 0.12818858D+01  1  2  1  1  6  1        1 0.337904590759D-01 0.100000000000D+01
  </mgrwgt>
  </event>
  <event>
  6     66 0.16204311E-05 0.27789948E+02 0.78161638E-02 0.12629180E+00
        1 -1    0    0  501    0 0.00000000E+00 0.00000000E+00 0.21510348E+03 0.21510348E+03 0.00000000E+00 0.0000E+00 0.9000E+01
       22 -1    0    0    0    0 0.00000000E+00 0.00000000E+00 -.16108822E+02 0.16108822E+02 0.00000000E+00 0.0000E+00 0.9000E+01
      -24  2    1    2    0    0 0.26821313E+02 -.72731271E+01 0.17279072E+03 0.19301639E+03 0.81402784E+02 0.0000E+00 0.0000E+00
  9900012  1    3    3    0    0 0.22690550E+02 -.28348326E+02 0.10423160E+03 0.12117225E+03 0.50000000E+02 0.0000E+00 0.9000E+01
       13  1    3    3    0    0 0.41307624E+01 0.21075199E+02 0.68559116E+02 0.71844134E+02 0.00000000E+00 0.0000E+00 0.9000E+01
        2  1    1    2  501    0 -.26821313E+02 0.72731271E+01 0.26203938E+02 0.38195910E+02 0.00000000E+00 0.0000E+00 0.9000E+01
#aMCatNLO 1  0  0  1  5 0.83617430D+01 0.00000000D+00  -5  6  0 0.00000000D+00 0.00000000D+00 0.00000000D+00 0.00000000D+00 0.00000000D+00
  <mgrwgt>
 0.7922159320D-04   11    2    0
 0.588647907434862D+02 0.000000000000000D+00 0.000000000000000D+00 0.588647907434862D+02
 0.588647907434862D+02 0.000000000000000D+00 0.000000000000000D+00 -.588647907434862D+02
 0.617940194644366D+02 0.226905501795015D+02 -.283483257963276D+02 -.110447580125909D+00
 0.252132870174156D+02 0.413076240984357D+01 0.210751987386030D+02 0.132091877973019D+02
 0.307222750051202D+02 -.268213125893451D+02 0.727312705772464D+01 -.130987402171760D+02
 0.000000000000000D+00 -.000000000000000D+00 0.000000000000000D+00 0.000000000000000D+00
 0.653581622206162D+02 0.000000000000000D+00 0.000000000000000D+00 0.653581622206162D+02
 0.610153696803958D+02 0.000000000000000D+00 0.000000000000000D+00 -.610153696803958D+02
 0.641300328764712D+02 0.248741924557727D+02 -.315265517896026D+02 -.110447580125909D+00
 0.243391728295471D+02 0.499004897347894D+01 0.198245328571559D+02 0.132091877973019D+02
 0.294813794629464D+02 -.257773242278001D+02 0.575363323614282D+01 -.130987402171760D+02
 0.842294673204737D+01 -.408691720145158D+01 0.594838569630391D+01 0.434279254022036D+01
0.897941356753D-07 0.000000000000D+00 0.000000000000D+00 0.652754294479D-07 0.000000000000D+00  6 1 22 9900012 13 2 21 0 0.33092843D-01 0.24782803D-02 0.30835847D+04 0.30835847D+04 0.30835847D+04 0.12661936D+01  1  2  2  1  6  1        1 0.396323793583D-04 0.100000000000D+01
-.304667086486D-08 0.000000000000D+00 -.172416562166D-09 0.652754294479D-07 0.000000000000D+00  6 1 22 9900012 13 2 21 2 0.33092843D-01 0.24782803D-02 0.30835847D+04 0.30835847D+04 0.30835847D+04 0.12661936D+01  1  2  3  1  6  1        1 -.215589674977D-05 0.100000000000D+01
0.230311305212D-08 0.000000000000D+00 0.000000000000D+00 0.652754294479D-07 0.000000000000D+00  6 1 22 9900012 13 2 21 2 0.33092843D-01 0.24782803D-02 0.30835847D+04 0.30835847D+04 0.30835847D+04 0.12661936D+01  1  2 15  1  6  1        1 0.162973756065D-05 0.100000000000D+01
0.150557212105D-06 0.000000000000D+00 0.000000000000D+00 0.652754294479D-07 0.000000000000D+00  6 1 22 9900012 13 2 21 2 0.38085700D-01 0.24782803D-02 0.34929026D+04 0.34929026D+04 0.34929026D+04 0.12597736D+01  1  2 12  1  6  1        1 0.900079771312D-04 0.100000000000D+01
-.115337330477D-06 0.000000000000D+00 0.000000000000D+00 0.652754294479D-07 0.000000000000D+00  6 1 22 9900012 13 2 21 2 0.33092843D-01 0.24782803D-02 0.30835847D+04 0.30835847D+04 0.30835847D+04 0.12661936D+01  1  2  4  1  6  1        1 -.816154376140D-04 0.100000000000D+01
-.394478475027D-06 0.000000000000D+00 -.768953734675D-07 0.652754294479D-07 0.000000000000D+00  6 1 22 9900012 13 2 21 2 0.37914005D-01 0.24782803D-02 0.30835847D+04 0.30835847D+04 0.30835847D+04 0.12661936D+01  1  2  5  1  6  1        1 -.236503824187D-03 0.100000000000D+01
0.401919366842D-06 0.000000000000D+00 0.761896479663D-07 0.652754294479D-07 0.000000000000D+00  6 1 22 9900012 13 2 21 2 0.33092843D-01 0.24782803D-02 0.30835847D+04 0.30835847D+04 0.30835847D+04 0.12661936D+01  1  2  6  1  6  1        1 0.284407701087D-03 0.100000000000D+01
0.201312947279D-09 0.000000000000D+00 0.000000000000D+00 0.652754294479D-07 0.172196088446D-07  6 1 22 9900012 13 2 21 2 0.36743312D-01 0.25688223D-02 0.34929026D+04 0.34929026D+04 0.34929026D+04 0.12597736D+01  1  2 11  1  6  1        1 0.119863508782D-06 0.100000000000D+01
0.325659223232D-08 0.000000000000D+00 0.000000000000D+00 0.652754294479D-07 0.000000000000D+00  6 21 22 9900012 13 2 -1 2 0.38085700D-01 0.24782803D-02 0.34929026D+04 0.34929026D+04 0.34929026D+04 0.12597736D+01  1  2 12  3  6  1        1 0.113783603669D-04 0.100000000000D+01
-.785956284666D-08 0.000000000000D+00 -.161921661755D-08 0.652754294479D-07 0.000000000000D+00  6 21 22 9900012 13 2 -1 2 0.37914005D-01 0.24782803D-02 0.30835847D+04 0.30835847D+04 0.30835847D+04 0.12661936D+01  1  2  5  3  6  1        1 -.277030522137D-04 0.100000000000D+01
0.666562724764D-11 0.000000000000D+00 0.000000000000D+00 0.652754294479D-07 0.192927978096D-09  6 21 22 9900012 13 2 -1 2 0.36743312D-01 0.25688223D-02 0.34929026D+04 0.34929026D+04 0.34929026D+04 0.12597736D+01  1  2 11  3  6  1        1 0.237849561221D-07 0.100000000000D+01
  </mgrwgt>
  </event>
  <event>
  7     66 -.16204311E-05 0.18023703E+02 0.78161638E-02 0.13027132E+00
        3 -1    0    0  502    0 0.00000000E+00 0.00000000E+00 0.25712087E+03 0.25712087E+03 0.00000000E+00 0.0000E+00 0.9000E+01
       22 -1    0    0    0    0 0.00000000E+00 0.00000000E+00 -.10089018E+02 0.10089018E+02 0.00000000E+00 0.0000E+00 0.9000E+01
      -24  2    1    2    0    0 -.22928590E+01 -.20776750E+02 0.19981045E+03 0.21495591E+03 0.76451924E+02 0.0000E+00 0.0000E+00
  9900012  1    3    3    0    0 0.17653797E+02 -.17533351E+02 0.11601022E+03 0.12875343E+03 0.50000000E+02 0.0000E+00 0.9000E+01
       13  1    3    3    0    0 -.19946656E+02 -.32433998E+01 0.83800235E+02 0.86202484E+02 0.00000000E+00 0.0000E+00 0.9000E+01
        4  1    1    2  501    0 0.45738087E+01 0.13727098E+02 0.25703993E+02 0.29496580E+02 0.00000000E+00 0.0000E+00 0.9000E+01
       21  1    1    2  502  501 -.22809496E+01 0.70496521E+01 0.21517406E+02 0.22757396E+02 0.00000000E+00 0.0000E+00 0.9000E+01
#aMCatNLO 2  0  0  1  5 0.96997830D+01 0.00000000D+00  -5  6  0 0.00000000D+00 0.00000000D+00 0.00000000D+00 0.00000000D+00 0.00000000D+00
  <mgrwgt>
 -.1249057714D-04    2    2    0
 0.470248746029025D+02 0.000000000000000D+00 0.000000000000000D+00 0.470248746029025D+02
 0.470248746029025D+02 0.000000000000000D+00 0.000000000000000D+00 -.470248746029025D+02
 0.547395957802909D+02 0.163092900789307D+02 -.133779298664071D+02 -.717365986093743D+01
 0.233587096347762D+02 -.205085105204021D+02 -.150689523227480D+01 0.110796921796272D+02
 0.159514437907379D+02 0.419922044147140D+01 0.148848250986819D+02 -.390603231868975D+01
 0.000000000000000D+00 -.000000000000000D+00 0.000000000000000D+00 0.000000000000000D+00
 0.516144451801416D+02 0.000000000000000D+00 0.000000000000000D+00 0.516144451801416D+02
 0.502591311924578D+02 0.000000000000000D+00 0.000000000000000D+00 -.502591311924578D+02
 0.563075156738722D+02 0.176537968948198D+02 -.175333505286179D+02 -.717365986093743D+01
 0.230466549342223D+02 -.199466559332831D+02 -.324339975042282D+01 0.110796921796272D+02
 0.149869956542468D+02 0.457380868750538D+01 0.137270981768131D+02 -.390603231868975D+01
 0.753241011025815D+01 -.228094964904214D+01 0.704965210222762D+01 0.135531398768381D+01
-.413276711643D-07 0.000000000000D+00 0.000000000000D+00 0.201550024411D-07 0.000000000000D+00  6 3 22 9900012 13 4 21 2 0.42277695D-01 0.14522729D-02 0.23978561D+04 0.23978561D+04 0.23978561D+04 0.12794677D+01  1  2 13  1  6  1        3 -.144241094187D-04 0.100000000000D+01
0.534117403756D-08 0.000000000000D+00 0.000000000000D+00 0.201550024411D-07 0.800059158499D-08  6 3 22 9900012 13 4 21 2 0.39557057D-01 0.15521567D-02 0.23978561D+04 0.23978561D+04 0.23978561D+04 0.12794677D+01  1  2  1  1  6  1        3 0.193353227727D-05 0.100000000000D+01
  </mgrwgt>
  </event>
  <event>
  7     66 0.16204311E-05 0.13405403E+02 0.78161638E-02 0.13365758E+00
        3 -1    0    0  501    0 0.00000000E+00 0.00000000E+00 0.22455141E+02 0.22455141E+02 0.00000000E+00 0.0000E+00 0.9000E+01
       22 -1    0    0    0    0 -.00000000E+00 -.00000000E+00 -.35396791E+03 0.35396791E+03 0.00000000E+00 0.0000E+00 0.9000E+01
      -24  2    1    2    0    0 -.52872218E+01 0.12010581E+02 -.56882955E+02 0.99483586E+02 0.80554979E+02 0.0000E+00 0.0000E+00
  9900012  1    3    3    0    0 0.11659594E+02 0.50604307E+01 -.14931169E+02 0.53707485E+02 0.50000000E+02 0.0000E+00 0.9000E+01
       13  1    3    3    0    0 -.16946816E+02 0.69501501E+01 -.41951786E+02 0.45776102E+02 0.00000000E+00 0.0000E+00 0.9000E+01
        4  1    1    2  502    0 -.36305122E+00 0.47452865E+00 -.23511462E+03 0.23511538E+03 0.00000000E+00 0.0000E+00 0.9000E+01
       21  1    1    2  501  502 0.56502731E+01 -.12485109E+02 -.39515198E+02 0.41824089E+02 0.00000000E+00 0.0000E+00 0.9000E+01
#aMCatNLO 2  0  0  5  1 0.13282798D+02 0.00000000D+00  -5  6  0 0.00000000D+00 0.00000000D+00 0.00000000D+00 0.00000000D+00 0.00000000D+00
  <mgrwgt>
 0.3037422935D-02    2    2    0
 0.891537959218132D+02 0.000000000000000D+00 0.000000000000000D+00 0.891537959218132D+02
 0.891537959218132D+02 -.000000000000000D+00 -.000000000000000D+00 -.891537959218132D+02
 0.887262252685945D+02 0.113458842309716D+02 0.577306209396317D+01 0.721823088816782D+02
 0.186239484948986D+02 -.170138664471415D+02 0.710246318213517D+01 -.263340517313254D+01
 0.709574180801333D+02 0.566798221616998D+01 -.128755252760984D+02 -.695489037085457D+02
 0.000000000000000D+00 0.000000000000000D+00 0.000000000000000D+00 0.000000000000000D+00
 0.891537959218132D+02 0.000000000000000D+00 0.000000000000000D+00 0.891537959218132D+02
 0.891537959218132D+02 -.000000000000000D+00 -.000000000000000D+00 -.891537959218132D+02
 0.856209314249950D+02 0.116595942980575D+02 0.506043072991134D+01 0.683329334926883D+02
 0.186398525327701D+02 -.169468161450778D+02 0.695015009679605D+01 -.345614505198368D+01
 0.592198539713892D+02 -.363051217083297D+00 0.474528645508402D+00 -.592168398411383D+02
 0.148269539144722D+02 0.565027306410362D+01 -.124851094722158D+02 -.565994859956636D+01
-.112386273230D-06 0.000000000000D+00 0.000000000000D+00 0.298551068150D-06 0.000000000000D+00  6 3 22 9900012 13 4 21 2 0.34546370D-02 0.54456602D-01 0.17727684D+04 0.17727684D+04 0.17727684D+04 0.12959902D+01  1  2 13  2  6  5        4 -.130979630497D-04 0.100000000000D+01
0.261748085422D-04 0.000000000000D+00 0.000000000000D+00 0.298551068150D-06 0.255222683693D-05  6 3 22 9900012 13 4 21 2 0.34546370D-02 0.54456602D-01 0.17727684D+04 0.17727684D+04 0.17727684D+04 0.12959902D+01  1  2  1  2  6  5        4 0.305052089784D-02 0.100000000000D+01
  </mgrwgt>
  </event>
  <event>
  6     66 0.16204311E-05 0.22262156E+02 0.78161638E-02 0.12971331E+00
        1 -1    0    0  501    0 0.00000000E+00 0.00000000E+00 0.48339982E+03 0.48339982E+03 0.00000000E+00 0.0000E+00 0.9000E+01
       22 -1    0    0    0    0 0.00000000E+00 0.00000000E+00 -.85695578E+01 0.85695578E+01 0.00000000E+00 0.0000E+00 0.9000E+01
      -24  2    1    2    0    0 -.18362447E+02 -.12586665E+02 0.45432894E+03 0.46170541E+03 0.79129612E+02 0.0000E+00 0.0000E+00
  9900012  1    3    3    0    0 0.58777015E+01 0.51426239E+00 0.21605430E+03 0.22184290E+03 0.50000000E+02 0.0000E+00 0.9000E+01
       13  1    3    3    0    0 -.24240149E+02 -.13100927E+02 0.23827464E+03 0.23986251E+03 0.00000000E+00 0.0000E+00 0.9000E+01
        2  1    1    2  501    0 0.18362447E+02 0.12586665E+02 0.20501322E+02 0.30263969E+02 0.00000000E+00 0.0000E+00 0.9000E+01
#aMCatNLO 1  0  0  5  1 0.18112300D+01 0.00000000D+00  -5  6  0 0.00000000D+00 0.00000000D+00 0.00000000D+00 0.00000000D+00 0.00000000D+00
  <mgrwgt>
 0.9532962442D-05    8    2    0
 0.643624325886847D+02 0.000000000000000D+00 0.000000000000000D+00 0.643624325886847D+02
 0.643624325886847D+02 -.000000000000000D+00 -.000000000000000D+00 -.643624325886847D+02
 0.508898859766431D+02 0.587770153210086D+01 0.514262387429619D+00 0.741408481285147D+01
 0.377937820738323D+02 -.242401488640463D+02 -.131009268917961D+02 0.258679504613144D+02
 0.400411971268938D+02 0.183624473319454D+02 0.125866645043665D+02 -.332820352741659D+02
 0.000000000000000D+00 0.000000000000000D+00 0.000000000000000D+00 -.000000000000000D+00
 0.643624325886847D+02 0.000000000000000D+00 0.000000000000000D+00 0.643624325886847D+02
 0.643624325886847D+02 -.000000000000000D+00 -.000000000000000D+00 -.643624325886847D+02
 0.508745480357244D+02 0.599014672788493D+01 0.591338712217743D+00 0.721027728628146D+01
 0.376171925540190D+02 -.241568230745542D+02 -.130438106622468D+02 0.257169220164133D+02
 0.373562429999716D+02 0.185454436616492D+02 0.120569173011007D+02 -.301029260315329D+02
 0.287688158765441D+01 -.378767314979916D+00 0.395554648928358D+00 -.282427327116181D+01
0.752372193102D-07 0.000000000000D+00 0.000000000000D+00 0.337463980206D-06 0.000000000000D+00  6 1 22 9900012 13 2 21 0 0.74369203D-01 0.13183935D-02 0.25081567D+04 0.25081567D+04 0.25081567D+04 0.12770637D+01  1  2  2  2  6  5        2 0.275140666766D-04 0.100000000000D+01
-.429776815231D-08 0.000000000000D+00 -.144465366283D-09 0.337463980206D-06 0.000000000000D+00  6 1 22 9900012 13 2 21 2 0.74369203D-01 0.13183935D-02 0.25081567D+04 0.25081567D+04 0.25081567D+04 0.12770637D+01  1  2  3  2  6  5        2 -.256324530815D-05 0.100000000000D+01
0.426008911663D-08 0.000000000000D+00 0.000000000000D+00 0.337463980206D-06 0.000000000000D+00  6 1 22 9900012 13 2 21 2 0.74369203D-01 0.13183935D-02 0.25081567D+04 0.25081567D+04 0.25081567D+04 0.12770637D+01  1  2 15  2  6  5        2 0.254077303696D-05 0.100000000000D+01
0.189408623399D-09 0.000000000000D+00 0.000000000000D+00 0.337463980206D-06 0.000000000000D+00  6 1 22 9900012 13 2 21 2 0.74369203D-01 0.13183935D-02 0.25241746D+04 0.25241746D+04 0.25241746D+04 0.12767245D+01  1  2 12  2  6  5        2 0.112977350110D-06 0.100000000000D+01
-.708040088609D-06 0.000000000000D+00 0.000000000000D+00 0.337463980206D-06 0.000000000000D+00  6 1 22 9900012 13 2 21 2 0.74369203D-01 0.13183935D-02 0.25081567D+04 0.25081567D+04 0.25081567D+04 0.12770637D+01  1  2  4  2  6  5        2 -.422284397574D-03 0.100000000000D+01
-.725614008669D-06 0.000000000000D+00 0.000000000000D+00 0.337463980206D-06 0.000000000000D+00  6 1 22 9900012 13 2 21 2 0.74369203D-01 0.13183935D-02 0.25081567D+04 0.25081567D+04 0.25081567D+04 0.12770637D+01  1  2  5  2  6  5        2 -.432765714048D-03 0.100000000000D+01
0.779615621171D-06 0.000000000000D+00 -.000000000000D+00 0.337463980206D-06 0.000000000000D+00  6 1 22 9900012 13 2 21 2 0.74369203D-01 0.13183935D-02 0.25081567D+04 0.25081567D+04 0.25081567D+04 0.12770637D+01  1  2  6  2  6  5        2 0.464972984188D-03 0.100000000000D+01
0.623674152523D-06 0.000000000000D+00 0.000000000000D+00 0.337463980206D-06 0.669612408806D-06  6 1 22 9900012 13 2 21 2 0.74369203D-01 0.13183935D-02 0.25241746D+04 0.25241746D+04 0.25241746D+04 0.12767245D+01  1  2 11  2  6  5        2 0.372005518121D-03 0.100000000000D+01
  </mgrwgt>
  </event>
  <event>
  7     66 0.16204311E-05 0.28124724E+02 0.78161638E-02 0.12731920E+00
       21 -1    0    0  501  502 0.00000000E+00 0.00000000E+00 0.20233687E+03 0.20233687E+03 0.00000000E+00 0.0000E+00 0.9000E+01
       22 -1    0    0    0    0 0.00000000E+00 0.00000000E+00 -.33200789E+02 0.33200789E+02 0.00000000E+00 0.0000E+00 0.9000E+01
      -24  2    1    2    0    0 -.18254750E+02 0.21812266E+02 0.34383757E+02 0.91002011E+02 0.79310229E+02 0.0000E+00 0.0000E+00
  9900012  1    3    3    0    0 -.22403915E+02 0.38373680E+02 0.24271841E+02 0.71158956E+02 0.50000000E+02 0.0000E+00 0.9000E+01
       13  1    3    3    0    0 0.41491642E+01 -.16561414E+02 0.10111916E+02 0.19843056E+02 0.00000000E+00 0.0000E+00 0.9000E+01
        2  1    1    2  501    0 -.11325702E-02 -.25226436E+00 -.34581884E+01 0.34673774E+01 0.00000000E+00 0.0000E+00 0.9000E+01
       -1  1    1    2    0  502 0.18255883E+02 -.21560001E+02 0.13821052E+03 0.14106827E+03 0.00000000E+00 0.0000E+00 0.9000E+01
#aMCatNLO 2  0  0  1  5 0.31778880D+01 0.00000000D+00  -5  6  0 0.00000000D+00 0.00000000D+00 0.00000000D+00 0.00000000D+00 0.00000000D+00
  <mgrwgt>
 0.2414502324D-01    1    2    0
 0.423378190986941D+02 0.000000000000000D+00 0.000000000000000D+00 0.423378190986941D+02
 0.423378190986941D+02 0.000000000000000D+00 0.000000000000000D+00 -.423378190986941D+02
 0.559237914794496D+02 -.951296651482246D+01 0.231496090834608D+02 0.103417639103251D+01
 0.235564255180008D+02 0.845792568177393D+01 -.216500152966472D+02 0.382694577981591D+01
 0.519542119993785D+01 0.105504083304852D+01 -.149959378681360D+01 -.486112217084843D+01
 0.000000000000000D+00 0.000000000000000D+00 -.000000000000000D+00 0.000000000000000D+00
 0.144036200979196D+03 0.000000000000000D+00 0.000000000000000D+00 0.144036200979196D+03
 0.466392733734035D+02 0.000000000000000D+00 0.000000000000000D+00 -.466392733734035D+02
 0.668995085766021D+02 -.224039147153763D+02 0.383736802041352D+02 0.103417639103251D+01
 0.174969004416204D+02 0.414916424836174D+01 -.165614144052506D+02 0.382694577981591D+01
 0.486766343853957D+01 -.113257015103829D-02 -.252264361862224D+00 -.486112217084843D+01
 0.101411401895837D+03 0.182558830371655D+02 -.215600014370223D+02 0.973969276057922D+02
0.124962488790D-04 0.000000000000D+00 0.000000000000D+00 0.324899176905D-05 0.834791948645D-06  6 21 22 9900012 13 2 -1 2 0.31128750D-01 0.51078136D-02 0.31622567D+04 0.31622567D+04 0.31622567D+04 0.12648874D+01  1  2  1  3  6  1        1 0.241450232354D-01 0.100000000000D+01
  </mgrwgt>
  </event>
  <event>
  7     66 0.16204311E-05 0.41367334E+02 0.78161638E-02 0.12051743E+00
        1 -1    0    0  502    0 0.00000000E+00 0.00000000E+00 0.13664724E+03 0.13664724E+03 0.00000000E+00 0.0000E+00 0.9000E+01
       22 -1    0    0    0    0 0.00000000E+00 0.00000000E+00 -.78132141E+02 0.78132141E+02 0.00000000E+00 0.0000E+00 0.9000E+01
      -24  2    1    2    0    0 0.57274967E+02 -.20646957E+02 0.94051641E+02 0.13489166E+03 0.75122100E+02 0.0000E+00 0.0000E+00
  9900012  1    3    3    0    0 0.54470488E+02 -.34441800E+02 0.72389606E+02 0.10905745E+03 0.50000000E+02 0.0000E+00 0.9000E+01
       13  1    3    3    0    0 0.28044788E+01 0.13794842E+02 0.21662035E+02 0.25834212E+02 0.00000000E+00 0.0000E+00 0.9000E+01
        2  1    1    2  501    0 -.47675090E+02 0.96921168E+01 -.87984022E+01 0.49439490E+02 0.00000000E+00 0.0000E+00 0.9000E+01
       21  1    1    2  502  501 -.95998772E+01 0.10954841E+02 -.26738144E+02 0.30448227E+02 0.00000000E+00 0.0000E+00 0.9000E+01
#aMCatNLO 2  0  0  1  5 0.77017152D+02 0.00000000D+00  -5  6  0 0.00000000D+00 0.00000000D+00 0.00000000D+00 0.00000000D+00 0.00000000D+00
  <mgrwgt>
 0.3142792179D-06    1    2    0
 0.813905581730750D+02 0.000000000000000D+00 0.000000000000000D+00 0.813905581730750D+02
 0.813905581730750D+02 0.000000000000000D+00 0.000000000000000D+00 -.813905581730750D+02
 0.800524168218989D+02 0.496061561684134D+02 -.288908972446586D+02 0.247575193753454D+02
 0.186722462890416D+02 0.173004494638673D+01 0.150209259833073D+02 0.109558892184119D+02
 0.640564532352095D+02 -.513362011148002D+02 0.138699712613513D+02 -.357134085937574D+02
 0.000000000000000D+00 -.000000000000000D+00 0.000000000000000D+00 -.000000000000000D+00
 0.828403454599492D+02 0.000000000000000D+00 0.000000000000000D+00 0.828403454599492D+02
 0.128880934160870D+03 0.000000000000000D+00 0.000000000000000D+00 -.128880934160870D+03
 0.852420461498506D+02 0.544704882805223D+02 -.344417997885438D+02 0.247575193753454D+02
 0.178380012087382D+02 0.280447881508108D+01 0.137948424105748D+02 0.109558892184119D+02
 0.603514612719768D+02 -.476750898914846D+02 0.969211680269695D+01 -.357134085937574D+02
 0.482897709902538D+02 -.959987720411884D+01 0.109548405752721D+02 -.460405887009209D+02
0.219574105409D-08 0.000000000000D+00 0.000000000000D+00 0.433393628992D-08 0.297993105556D-10  6 1 22 9900012 13 2 21 2 0.21022652D-01 0.12020329D-01 0.63091917D+04 0.63091917D+04 0.63091917D+04 0.12306367D+01  1  2  1  1  6  1        1 0.314279217939D-06 0.100000000000D+01
  </mgrwgt>
  </event>
  <event>
  6     66 0.16204311E-05 0.48139533E+02 0.78161638E-02 0.12158893E+00
        1 -1    0    0  501    0 0.00000000E+00 0.00000000E+00 0.26208865E+03 0.26208865E+03 0.00000000E+00 0.0000E+00 0.9000E+01
       22 -1    0    0    0    0 0.00000000E+00 0.00000000E+00 -.23259332E+02 0.23259332E+02 0.00000000E+00 0.0000E+00 0.9000E+01
      -24  2    1    2    0    0 0.99265277E+01 -.51077761E+02 0.10446326E+03 0.14125873E+03 0.79586330E+02 0.0000E+00 0.0000E+00
  9900012  1    3    3    0    0 -.10293747E+02 -.54231401E+02 0.78663039E+02 0.10832765E+03 0.50000000E+02 0.0000E+00 0.9000E+01
       13  1    3    3    0    0 0.20220275E+02 0.31536405E+01 0.25800216E+02 0.32931081E+02 0.00000000E+00 0.0000E+00 0.9000E+01
        2  1    1    2  501    0 -.99265277E+01 0.51077761E+02 0.13436607E+03 0.14408926E+03 0.00000000E+00 0.0000E+00 0.9000E+01
#aMCatNLO 1  0  0  5  1 0.15402893D+02 0.00000000D+00  -5  6  0 0.00000000D+00 0.00000000D+00 0.00000000D+00 0.00000000D+00 0.00000000D+00
  <mgrwgt>
 0.5704408165D-04    4    2    0
 0.780769309057505D+02 0.000000000000000D+00 0.000000000000000D+00 0.780769309057505D+02
 0.780769309057505D+02 -.000000000000000D+00 -.000000000000000D+00 -.780769309057505D+02
 0.776416061284640D+02 -.102937470171575D+02 -.542314011819474D+02 -.219365653737539D+02
 0.207165521278290D+02 0.202202747418474D+02 0.315364048096032D+01 -.322033742736872D+01
 0.577957035552079D+02 -.992652772468990D+01 0.510777607009871D+02 0.251569028011226D+02
 0.000000000000000D+00 0.000000000000000D+00 0.000000000000000D+00 -.000000000000000D+00
 0.780769309057505D+02 0.000000000000000D+00 0.000000000000000D+00 0.780769309057505D+02
 0.780769309057505D+02 -.000000000000000D+00 -.000000000000000D+00 -.780769309057505D+02
 0.722263783570932D+02 -.116394406778383D+02 -.473070243320117D+02 -.185261598864826D+02
 0.206112376277664D+02 0.198491845128372D+02 0.506311562086408D+01 -.227987958746991D+01
 0.104312986243266D+02 -.536263251580181D+01 -.789111615431831D+01 0.421716128804689D+01
 0.528849472023146D+02 -.284711131919706D+01 0.501350248654660D+02 0.165888781859056D+02
0.214232844587D-06 0.000000000000D+00 0.000000000000D+00 0.287523555180D-06 0.000000000000D+00  6 1 22 9900012 13 2 21 0 0.40321331D-01 0.35783588D-02 0.54005111D+04 0.54005111D+04 0.54005111D+04 0.12380955D+01  1  2  2  2  6  5        2 0.478677950609D-04 0.100000000000D+01
-.246764356617D-08 0.000000000000D+00 -.411355266009D-09 0.287523555180D-06 0.000000000000D+00  6 1 22 9900012 13 2 21 2 0.40321331D-01 0.35783588D-02 0.54005111D+04 0.54005111D+04 0.54005111D+04 0.12380955D+01  1  2  3  2  6  5        2 -.845177873377D-06 0.100000000000D+01
0.151040984206D-08 0.000000000000D+00 0.000000000000D+00 0.287523555180D-06 0.000000000000D+00  6 1 22 9900012 13 2 21 2 0.40321331D-01 0.35783588D-02 0.54005111D+04 0.54005111D+04 0.54005111D+04 0.12380955D+01  1  2 15  2  6  5        2 0.517321462363D-06 0.100000000000D+01
0.277339577117D-07 0.000000000000D+00 0.000000000000D+00 0.287523555180D-06 0.000000000000D+00  6 1 22 9900012 13 2 21 2 0.40321331D-01 0.35783588D-02 0.56288526D+04 0.56288526D+04 0.56288526D+04 0.12360953D+01  1  2 12  2  6  5        2 0.950414299895D-05 0.100000000000D+01
  </mgrwgt>
  </event>
  <event>
  6     66 0.16204311E-05 0.24224801E+02 0.78161638E-02 0.12385414E+00
        1 -1    0    0  501    0 0.00000000E+00 0.00000000E+00 0.37064519E+03 0.37064519E+03 0.00000000E+00 0.0000E+00 0.9000E+01
       22 -1    0    0    0    0 0.00000000E+00 0.00000000E+00 -.85080789E+01 0.85080789E+01 0.00000000E+00 0.0000E+00 0.9000E+01
      -24  2    1    2    0    0 -.18273848E+02 0.15903064E+02 0.23331266E+03 0.24807092E+03 0.80731325E+02 0.0000E+00 0.0000E+00
  9900012  1    3    3    0    0 -.28458132E+02 0.19308723E+01 0.11606928E+03 0.12955953E+03 0.50000000E+02 0.0000E+00 0.9000E+01
       13  1    3    3    0    0 0.10184284E+02 0.13972192E+02 0.11724338E+03 0.11851140E+03 0.00000000E+00 0.0000E+00 0.9000E+01
        2  1    1    2  501    0 0.18273848E+02 -.15903064E+02 0.12882445E+03 0.13108234E+03 0.00000000E+00 0.0000E+00 0.9000E+01
#aMCatNLO 1  0  0  1  1 0.10190844D+03 0.00000000D+00  -5  6  0 0.00000000D+00 0.00000000D+00 0.00000000D+00 0.00000000D+00 0.00000000D+00
  <mgrwgt>
 0.2843234685D-04    7    2    0
 0.561558414039198D+02 0.000000000000000D+00 0.000000000000000D+00 0.561558414039198D+02
 0.561558414039198D+02 0.000000000000000D+00 0.000000000000000D+00 -.561558414039198D+02
 0.631272239945890D+02 -.284581315416105D+02 0.193087234768768D+01 -.259124080393998D+02
 0.220440621316085D+02 0.101842836050659D+02 0.139721916204050D+02 0.136747542587238D+02
 0.271403966816421D+02 0.182738479365446D+02 -.159030639680926D+02 0.122376537806759D+02
 0.000000000000000D+00 -.000000000000000D+00 0.000000000000000D+00 0.000000000000000D+00
 0.896046488405973D+02 0.000000000000000D+00 0.000000000000000D+00 0.896046488405973D+02
 0.651242736591705D+02 0.000000000000000D+00 0.000000000000000D+00 -.651242736591705D+02
 0.577472793760004D+02 -.127404142365863D+02 0.988549447264476D+00 -.259124080393998D+02
 0.252778307357239D+02 0.163377081378391D+02 0.136032759095081D+02 0.136747542587238D+02
 0.331641071436937D+02 0.261154449393497D+02 -.163731905321625D+02 0.122376537806759D+02
 0.385397052443498D+02 -.297127388406026D+02 0.178136517538993D+01 0.244803751814267D+02
0.395679661374D-07 0.000000000000D+00 0.000000000000D+00 0.207103892631D-06 0.000000000000D+00  6 1 22 9900012 13 2 21 0 0.57022337D-01 0.13089352D-02 0.24541400D+04 0.24541400D+04 0.24541400D+04 0.12782258D+01  1  2  2  1  6  1        1 0.203738000209D-04 0.100000000000D+01
0.255013933040D-09 0.000000000000D+00 -.759757042263D-10 0.207103892631D-06 0.000000000000D+00  6 1 22 9900012 13 2 21 2 0.57022337D-01 0.13089352D-02 0.24541400D+04 0.24541400D+04 0.24541400D+04 0.12782258D+01  1  2  3  1  6  1        1 0.214539561516D-06 0.100000000000D+01
-.315758113205D-09 0.000000000000D+00 0.000000000000D+00 0.207103892631D-06 0.000000000000D+00  6 1 22 9900012 13 2 21 2 0.57022337D-01 0.13089352D-02 0.24541400D+04 0.24541400D+04 0.24541400D+04 0.12782258D+01  1  2 15  1  6  1        1 -.265642768394D-06 0.100000000000D+01
-.509400987888D-08 0.000000000000D+00 0.000000000000D+00 0.207103892631D-06 0.000000000000D+00  6 1 22 9900012 13 2 21 2 0.57022337D-01 0.13089352D-02 0.24541400D+04 0.24541400D+04 0.24541400D+04 0.12782258D+01  1  2  4  1  6  1        1 -.428551739406D-05 0.100000000000D+01
-.235374525773D-07 0.000000000000D+00 -.111297959032D-07 0.207103892631D-06 0.000000000000D+00  6 1 22 9900012 13 2 21 2 0.10144404D+00 0.13089352D-02 0.24541400D+04 0.24541400D+04 0.24541400D+04 0.12782258D+01  1  2  5  1  6  1        1 -.937916370841D-05 0.100000000000D+01
0.269704623309D-07 0.000000000000D+00 0.950805814340D-08 0.207103892631D-06 0.000000000000D+00  6 1 22 9900012 13 2 21 2 0.57022337D-01 0.13089352D-02 0.24541400D+04 0.24541400D+04 0.24541400D+04 0.12782258D+01  1  2  6  1  6  1        1 0.226898628376D-04 0.100000000000D+01
-.910248993200D-09 0.000000000000D+00 -.705119510176D-09 0.207103892631D-06 0.000000000000D+00  6 21 22 9900012 13 2 -1 2 0.10144404D+00 0.13089352D-02 0.24541400D+04 0.24541400D+04 0.24541400D+04 0.12782258D+01  1  2  5  3  6  1        1 -.915531698292D-06 0.100000000000D+01
  </mgrwgt>
  </event>
  <event>
  7     66 0.16204311E-05 0.10762690E+02 0.78161638E-02 0.13175709E+00
        1 -1    0    0  501    0 0.00000000E+00 0.00000000E+00 0.51845503E+02 0.51845503E+02 0.00000000E+00 0.0000E+00 0.9000E+01
       22 -1    0    0    0    0 -.00000000E+00 -.00000000E+00 -.60905099E+02 0.60905099E+02 0.00000000E+00 0.0000E+00 0.9000E+01
      -24  2    1    2    0    0 0.57528698E+01 0.90299296E+01 0.12814913E+02 0.82008306E+02 0.80290131E+02 0.0000E+00 0.0000E+00
  9900012  1    3    3    0    0 -.19796453E+02 0.77929445E+00 0.48345003E+01 0.53998882E+02 0.50000000E+02 0.0000E+00 0.9000E+01
       13  1    3    3    0    0 0.25549323E+02 0.82506351E+01 0.79804126E+01 0.28009425E+02 0.00000000E+00 0.0000E+00 0.9000E+01
        2  1    1    2  502    0 0.46037832E-01 0.10481372E+00 -.19707081E+02 0.19707414E+02 0.00000000E+00 0.0000E+00 0.9000E+01
       21  1    1    2  501  502 -.57989076E+01 -.91347433E+01 -.21674270E+01 0.11034881E+02 0.00000000E+00 0.0000E+00 0.9000E+01
#aMCatNLO 2  0  0  5  1 0.90810020D+01 0.00000000D+00  -5  6  0 0.00000000D+00 0.00000000D+00 0.00000000D+00 0.00000000D+00 0.00000000D+00
  <mgrwgt>
 0.1157872692D+00    2    2    0
 0.561930198372173D+02 0.000000000000000D+00 0.000000000000000D+00 0.561930198372173D+02
 0.561930198372173D+02 -.000000000000000D+00 -.000000000000000D+00 -.561930198372173D+02
 0.548772230317007D+02 -.189041699827929D+02 0.217985688342551D+01 0.122225279259436D+02
 0.299959834980775D+02 0.260282324180722D+02 0.900235026423096D+01 0.118847731542447D+02
 0.275128331446565D+02 -.712406243527927D+01 -.111822071476565D+02 -.241073010801883D+02
 0.000000000000000D+00 0.000000000000000D+00 -.000000000000000D+00 0.000000000000000D+00
 0.561930198372173D+02 0.000000000000000D+00 0.000000000000000D+00 0.561930198372173D+02
 0.561930198372173D+02 -.000000000000000D+00 -.000000000000000D+00 -.561930198372173D+02
 0.545637613118660D+02 -.197964530640067D+02 0.779294446034332D+00 0.920310788534209D+01
 0.287435947981902D+02 0.255493228740310D+02 0.825063510520345D+01 0.102641786306479D+02
 0.181827262637574D+02 0.460378323335808D-01 0.104813718877766D+00 -.181823658797490D+02
 0.108959573006210D+02 -.579890764235793D+01 -.913474327011556D+01 -.128492063624096D+01
-.179190688148D-07 0.000000000000D+00 0.000000000000D+00 0.464233777344D-06 0.000000000000D+00  6 1 22 9900012 13 2 21 2 0.79762312D-02 0.93700152D-02 0.20960336D+04 0.20960336D+04 0.20960336D+04 0.12867433D+01  1  2 13  2  6  5        2 -.121232520853D-04 0.100000000000D+01
0.171160120035D-03 0.000000000000D+00 0.000000000000D+00 0.464233777344D-06 0.220849430211D-03  6 1 22 9900012 13 2 21 2 0.79762312D-02 0.93700152D-02 0.20960336D+04 0.20960336D+04 0.20960336D+04 0.12867433D+01  1  2  1  2  6  5        2 0.115799392457D+00 0.100000000000D+01
  </mgrwgt>
  </event>
  <event>
  6     66 0.16204311E-05 0.18525323E+02 0.78161638E-02 0.98947322E-01
        1 -1    0    0  501    0 0.00000000E+00 0.00000000E+00 0.55273860E+02 0.55273860E+02 0.00000000E+00 0.0000E+00 0.9000E+01
       22 -1    0    0    0    0 0.00000000E+00 0.00000000E+00 -.59039720E+02 0.59039720E+02 0.00000000E+00 0.0000E+00 0.9000E+01
      -24  2    1    2    0    0 0.13225477E+02 0.12972060E+02 0.21571854E+02 0.82925886E+02 0.77898460E+02 0.0000E+00 0.0000E+00
  9900012  1    3    3    0    0 0.46911236E+01 0.31156072E+02 0.10615359E+02 0.60044927E+02 0.50000000E+02 0.0000E+00 0.9000E+01
       13  1    3    3    0    0 0.85343539E+01 -.18184012E+02 0.10956495E+02 0.22880958E+02 0.00000000E+00 0.0000E+00 0.9000E+01
        2  1    1    2  501    0 -.13225477E+02 -.12972060E+02 -.25337714E+02 0.31387695E+02 0.00000000E+00 0.0000E+00 0.9000E+01
#aMCatNLO 1  0  0  1  5 0.26898239D+01 0.00000000D+00  -5  6  0 0.00000000D+00 0.00000000D+00 0.00000000D+00 0.00000000D+00 0.00000000D+00
  <mgrwgt>
 0.3654978235D-04    3    2    0
 0.571257668343815D+02 0.000000000000000D+00 0.000000000000000D+00 0.571257668343815D+02
 0.571257668343815D+02 0.000000000000000D+00 0.000000000000000D+00 -.571257668343815D+02
 0.604274303240340D+02 0.469112355633034D+01 0.311560719488675D+02 0.126002728566574D+02
 0.232545228391545D+02 0.853435385942634D+01 -.181840115095146D+02 0.117166275907657D+02
 0.305695805055745D+02 -.132254774157567D+02 -.129720604393529D+02 -.243169004474231D+02
 0.000000000000000D+00 -.000000000000000D+00 0.000000000000000D+00 -.000000000000000D+00
 0.220702141844770D+03 0.000000000000000D+00 0.000000000000000D+00 0.220702141844770D+03
 0.673250039044194D+03 0.000000000000000D+00 0.000000000000000D+00 -.673250039044194D+03
 0.969263718415907D+02 0.272306267539721D+02 -.774238183564848D+02 0.126002728566574D+02
 0.123863742705021D+03 0.296077093870811D+02 -.119701006427035D+03 0.117166275907657D+02
 0.118939643032906D+03 0.819036113179578D+01 -.116138903998428D+03 -.243169004474231D+02
 0.554222423309446D+03 -.650286972728490D+02 0.313263728781948D+03 -.452547897199424D+03
0.898154825921D-07 0.000000000000D+00 0.000000000000D+00 0.519680272595D-07 0.000000000000D+00  6 1 22 9900012 13 2 21 0 0.85036708D-02 0.90830339D-02 0.23868893D+04 0.23868893D+04 0.23868893D+04 0.12797136D+01  1  2  2  1  6  1        1 0.358582461522D-04 0.100000000000D+01
-.423639001982D-08 0.000000000000D+00 -.172457551057D-09 0.519680272595D-07 0.000000000000D+00  6 1 22 9900012 13 2 21 2 0.85036708D-02 0.90830339D-02 0.23868893D+04 0.23868893D+04 0.23868893D+04 0.12797136D+01  1  2  3  1  6  1        1 -.276986957274D-05 0.100000000000D+01
0.529406330144D-08 0.000000000000D+00 0.000000000000D+00 0.519680272595D-07 0.000000000000D+00  6 1 22 9900012 13 2 21 2 0.85036708D-02 0.90830339D-02 0.23868893D+04 0.23868893D+04 0.23868893D+04 0.12797136D+01  1  2 15  1  6  1        1 0.346140576911D-05 0.100000000000D+01
  </mgrwgt>
  </event>
  <event>
  6     66 0.16204311E-05 0.12716680E+02 0.78161638E-02 0.13062080E+00
        3 -1    0    0  501    0 0.00000000E+00 0.00000000E+00 0.36325605E+02 0.36325605E+02 0.00000000E+00 0.0000E+00 0.9000E+01
       22 -1    0    0    0    0 0.00000000E+00 0.00000000E+00 -.76003295E+02 0.76003295E+02 0.00000000E+00 0.0000E+00 0.9000E+01
      -24  2    1    2    0    0 0.17995486E+01 -.12588708E+02 -.98588972E+01 0.79911707E+02 0.78274958E+02 0.0000E+00 0.0000E+00
  9900012  1    3    3    0    0 0.19945807E+02 -.97603061E+01 -.20805155E+02 0.58531643E+02 0.50000000E+02 0.0000E+00 0.9000E+01
       13  1    3    3    0    0 -.18146259E+02 -.28284022E+01 0.10946257E+02 0.21380064E+02 0.00000000E+00 0.0000E+00 0.9000E+01
        4  1    1    2  501    0 -.17995486E+01 0.12588708E+02 -.29818793E+02 0.32417192E+02 0.00000000E+00 0.0000E+00 0.9000E+01
#aMCatNLO 1  0  0  1  5 0.95692155D+01 0.00000000D+00  -5  6  0 0.00000000D+00 0.00000000D+00 0.00000000D+00 0.00000000D+00 0.00000000D+00
  <mgrwgt>
 0.1233202153D-04   11    2    0
 0.525439399809328D+02 0.000000000000000D+00 0.000000000000000D+00 0.525439399809328D+02
 0.525439399809328D+02 0.000000000000000D+00 0.000000000000000D+00 -.525439399809328D+02
 0.547093973691261D+02 0.199458073463902D+02 -.976030612684525D+01 -.139119027797221D+00
 0.269861873530742D+02 -.181462587064803D+02 -.282840222369886D+01 0.197729042801933D+02
 0.233922952396653D+02 -.179954863990993D+01 0.125887083505441D+02 -.196337852523961D+02
 0.000000000000000D+00 0.000000000000000D+00 0.000000000000000D+00 0.000000000000000D+00
 0.806061345259171D+02 0.000000000000000D+00 0.000000000000000D+00 0.806061345259171D+02
 0.535407608112752D+02 0.000000000000000D+00 0.000000000000000D+00 -.535407608112752D+02
 0.532970277241891D+02 0.151928565549608D+02 -.104752527334413D+02 -.139119027797221D+00
 0.287310680582044D+02 -.205981625906660D+02 -.319722160320082D+01 0.197729042801933D+02
 0.234768341603494D+02 -.386208024840396D+01 0.122784589835300D+02 -.196337852523961D+02
 0.286419653944494D+02 0.926738628410907D+01 0.139401535311212D+01 0.270653737146419D+02
0.231472294611D-07 0.000000000000D+00 0.000000000000D+00 0.164484140790D-06 0.000000000000D+00  6 3 22 9900012 13 4 21 0 0.55885545D-02 0.11692815D-01 0.18400352D+04 0.18400352D+04 0.18400352D+04 0.12939155D+01  1  2  2  1  6  1        3 0.814750268935D-05 0.100000000000D+01
-.871217077629D-09 0.000000000000D+00 -.444457279681D-10 0.164484140790D-06 0.000000000000D+00  6 3 22 9900012 13 4 21 2 0.55885545D-02 0.11692815D-01 0.18400352D+04 0.18400352D+04 0.18400352D+04 0.12939155D+01  1  2  3  1  6  1        3 -.513409271340D-06 0.100000000000D+01
0.131301293773D-08 0.000000000000D+00 0.000000000000D+00 0.164484140790D-06 0.000000000000D+00  6 3 22 9900012 13 4 21 2 0.55885545D-02 0.11692815D-01 0.18400352D+04 0.18400352D+04 0.18400352D+04 0.12939155D+01  1  2 15  1  6  1        3 0.773760102886D-06 0.100000000000D+01
0.965447598061D-07 0.000000000000D+00 0.000000000000D+00 0.164484140790D-06 0.000000000000D+00  6 3 22 9900012 13 4 21 2 0.87358840D-02 0.11692815D-01 0.23225093D+04 0.23225093D+04 0.23225093D+04 0.12811828D+01  1  2 12  1  6  1        3 0.291688719870D-04 0.100000000000D+01
-.881819495323D-07 0.000000000000D+00 0.000000000000D+00 0.164484140790D-06 0.000000000000D+00  6 3 22 9900012 13 4 21 2 0.55885545D-02 0.11692815D-01 0.18400352D+04 0.18400352D+04 0.18400352D+04 0.12939155D+01  1  2  4  1  6  1        3 -.519657288835D-04 0.100000000000D+01
-.997261212262D-07 0.000000000000D+00 -.788193502984D-08 0.164484140790D-06 0.000000000000D+00  6 3 22 9900012 13 4 21 2 0.87119839D-02 0.11692815D-01 0.18400352D+04 0.18400352D+04 0.18400352D+04 0.12939155D+01  1  2  5  1  6  1        3 -.299305140203D-04 0.100000000000D+01
0.944777392395D-07 0.000000000000D+00 0.716416937153D-08 0.164484140790D-06 0.000000000000D+00  6 3 22 9900012 13 4 21 2 0.55885545D-02 0.11692815D-01 0.18400352D+04 0.18400352D+04 0.18400352D+04 0.12939155D+01  1  2  6  1  6  1        3 0.556758453276D-04 0.100000000000D+01
0.445688598786D-12 0.000000000000D+00 0.000000000000D+00 0.164484140790D-06 0.162336232492D-07  6 3 22 9900012 13 4 21 2 0.85732395D-02 0.11914641D-01 0.23225093D+04 0.23225093D+04 0.23225093D+04 0.12811828D+01  1  2 11  1  6  1        3 0.135012630861D-09 0.100000000000D+01
0.498923272000D-08 0.000000000000D+00 0.000000000000D+00 0.164484140790D-06 0.000000000000D+00  6 21 22 9900012 13 4 -3 2 0.87358840D-02 0.11692815D-01 0.23225093D+04 0.23225093D+04 0.23225093D+04 0.12811828D+01  1  2 12  3  6  1        3 0.269671495987D-04 0.100000000000D+01
-.482133716670D-08 0.000000000000D+00 -.405433186806D-09 0.164484140790D-06 0.000000000000D+00  6 21 22 9900012 13 4 -3 2 0.87119839D-02 0.11692815D-01 0.18400352D+04 0.18400352D+04 0.18400352D+04 0.12939155D+01  1  2  5  3  6  1        3 -.259917216422D-04 0.100000000000D+01
0.240801875712D-13 0.000000000000D+00 0.000000000000D+00 0.164484140790D-06 0.854580599308D-09  6 21 22 9900012 13 4 -3 2 0.85732395D-02 0.11914641D-01 0.23225093D+04 0.23225093D+04 0.23225093D+04 0.12811828D+01  1  2 11  3  6  1        3 0.130628826296D-09 0.100000000000D+01
  </mgrwgt>
  </event>
  <event>
  6     66 0.16204311E-05 0.32808839E+02 0.78161638E-02 0.12766419E+00
        3 -1    0    0  501    0 0.00000000E+00 0.00000000E+00 0.10297676E+04 0.10297676E+04 0.00000000E+00 0.0000E+00 0.9000E+01
       22 -1    0    0    0    0 0.00000000E+00 0.00000000E+00 -.35421717E+01 0.35421717E+01 0.00000000E+00 0.0000E+00 0.9000E+01
      -24  2    1    2    0    0 0.87070696E+01 0.31632371E+02 0.78456433E+03 0.78943172E+03 0.81146935E+02 0.0000E+00 0.0000E+00
  9900012  1    3    3    0    0 0.23055829E+02 0.17677924E+02 0.38023155E+03 0.38460384E+03 0.50000000E+02 0.0000E+00 0.9000E+01
       13  1    3    3    0    0 -.14348760E+02 0.13954446E+02 0.40433278E+03 0.40482788E+03 0.00000000E+00 0.0000E+00 0.9000E+01
        4  1    1    2  501    0 -.87070696E+01 -.31632371E+02 0.24166107E+03 0.24387802E+03 0.00000000E+00 0.0000E+00 0.9000E+01
#aMCatNLO 1  0  0  5  1 0.11119750D+01 0.00000000D+00  -5  6  0 0.00000000D+00 0.00000000D+00 0.00000000D+00 0.00000000D+00 0.00000000D+00
  <mgrwgt>
 0.4763440543D-05    8    2    0
 0.603954765680277D+02 0.000000000000000D+00 0.000000000000000D+00 0.603954765680277D+02
 0.603954765680277D+02 -.000000000000000D+00 -.000000000000000D+00 -.603954765680277D+02
 0.597032979163065D+02 0.230558294584873D+02 0.176779242731596D+02 -.148459928417343D+02
 0.279492906230528D+02 -.143487598672807D+02 0.139544463557947D+02 0.195076744771444D+02
 0.331383645966961D+02 -.870706959120662D+01 -.316323706289543D+02 -.466168163541011D+01
 0.000000000000000D+00 -.000000000000000D+00 0.000000000000000D+00 0.000000000000000D+00
 0.603954765680277D+02 0.000000000000000D+00 0.000000000000000D+00 0.603954765680277D+02
 0.603954765680277D+02 -.000000000000000D+00 -.000000000000000D+00 -.603954765680277D+02
 0.596042835817776D+02 0.229808609893771D+02 0.174055673825273D+02 -.148861302418119D+02
 0.278908061395299D+02 -.143838477176645D+02 0.138269738604520D+02 0.194888887782308D+02
 0.321761820922090D+02 -.751676662097483D+01 -.309401392866162D+02 -.463817793121173D+01
 0.111968132253898D+01 -.108024665073777D+01 -.292401956363115D+00 0.354193947928472D-01
0.918623208326D-07 0.000000000000D+00 0.000000000000D+00 0.105289940733D-06 0.000000000000D+00  6 3 22 9900012 13 4 21 0 0.15842578D+00 0.54494950D-03 0.30609770D+04 0.30609770D+04 0.30609770D+04 0.12665760D+01  1  2  2  2  6  5        4 0.396742521374D-05 0.100000000000D+01
-.283305069320D-08 0.000000000000D+00 -.176387749951D-09 0.105289940733D-06 0.000000000000D+00  6 3 22 9900012 13 4 21 2 0.15842578D+00 0.54494950D-03 0.30609770D+04 0.30609770D+04 0.30609770D+04 0.12665760D+01  1  2  3  2  6  5        4 -.196285482953D-06 0.100000000000D+01
0.223858807365D-08 0.000000000000D+00 0.000000000000D+00 0.105289940733D-06 0.000000000000D+00  6 3 22 9900012 13 4 21 2 0.15842578D+00 0.54494950D-03 0.30609770D+04 0.30609770D+04 0.30609770D+04 0.12665760D+01  1  2 15  2  6  5        4 0.155098651154D-06 0.100000000000D+01
0.947661385092D-12 0.000000000000D+00 0.000000000000D+00 0.105289940733D-06 0.000000000000D+00  6 3 22 9900012 13 4 21 2 0.15842578D+00 0.54494950D-03 0.30595643D+04 0.30595643D+04 0.30595643D+04 0.12666000D+01  1  2 12  2  6  5        4 0.656574154870D-10 0.100000000000D+01
-.895937320741D-06 0.000000000000D+00 0.000000000000D+00 0.105289940733D-06 0.000000000000D+00  6 3 22 9900012 13 4 21 2 0.15842578D+00 0.54494950D-03 0.30609770D+04 0.30609770D+04 0.30609770D+04 0.12665760D+01  1  2  4  2  6  5        4 -.620742474248D-04 0.100000000000D+01
-.851917021563D-06 0.000000000000D+00 0.000000000000D+00 0.105289940733D-06 0.000000000000D+00  6 3 22 9900012 13 4 21 2 0.15842578D+00 0.54494950D-03 0.30609770D+04 0.30609770D+04 0.30609770D+04 0.12665760D+01  1  2  5  2  6  5        4 -.590243388211D-04 0.100000000000D+01
0.881187653384D-06 0.000000000000D+00 -.000000000000D+00 0.105289940733D-06 0.000000000000D+00  6 3 22 9900012 13 4 21 2 0.15842578D+00 0.54494950D-03 0.30609770D+04 0.30609770D+04 0.30609770D+04 0.12665760D+01  1  2  6  2  6  5        4 0.610523293958D-04 0.100000000000D+01
0.878755894464D-06 0.000000000000D+00 0.000000000000D+00 0.105289940733D-06 0.804297845314D-06  6 3 22 9900012 13 4 21 2 0.15842578D+00 0.54494950D-03 0.30595643D+04 0.30595643D+04 0.30595643D+04 0.12666000D+01  1  2 11  2  6  5        4 0.608833933535D-04 0.100000000000D+01
  </mgrwgt>
  </event>
  <event>
  7     66 0.16204311E-05 0.18237497E+02 0.78161638E-02 0.13315008E+00
        1 -1    0    0  502    0 0.00000000E+00 0.00000000E+00 0.48143907E+03 0.48143907E+03 0.00000000E+00 0.0000E+00 0.9000E+01
       22 -1    0    0    0    0 0.00000000E+00 0.00000000E+00 -.92208681E+01 0.92208681E+01 0.00000000E+00 0.0000E+00 0.9000E+01
      -24  2    1    2    0    0 0.18398173E+02 0.25218070E+00 0.19142313E+03 0.20741173E+03 0.77706218E+02 0.0000E+00 0.0000E+00
  9900012  1    3    3    0    0 0.14436664E+02 0.13270268E+02 0.87981383E+02 0.10307881E+03 0.50000000E+02 0.0000E+00 0.9000E+01
       13  1    3    3    0    0 0.39615095E+01 -.13018087E+02 0.10344174E+03 0.10433292E+03 0.00000000E+00 0.0000E+00 0.9000E+01
        2  1    1    2  501    0 0.18622893E-01 -.35873151E+00 -.89100944E+00 0.96069399E+00 0.00000000E+00 0.0000E+00 0.9000E+01
       21  1    1    2  502  501 -.18416796E+02 0.10655082E+00 0.28168609E+03 0.28228752E+03 0.00000000E+00 0.0000E+00 0.9000E+01
#aMCatNLO 2  0  0  1  1 0.22153386D+02 0.00000000D+00  -5  6  0 0.00000000D+00 0.00000000D+00 0.00000000D+00 0.00000000D+00 0.00000000D+00
  <mgrwgt>
 0.5116686242D-03    1    2    0
 0.411624528546670D+02 0.000000000000000D+00 0.000000000000000D+00 0.411624528546670D+02
 0.411624528546670D+02 0.000000000000000D+00 0.000000000000000D+00 -.411624528546670D+02
 0.540667396286883D+02 0.228684779491109D+01 0.133405606054781D+02 -.154923240338837D+02
 0.237690403182375D+02 -.132493956112328D+01 -.129875019792363D+02 0.198629455305275D+02
 0.448912576240821D+01 -.961908233787809D+00 -.353058626241788D+00 -.437062149664375D+01
 0.000000000000000D+00 -.000000000000000D+00 0.000000000000000D+00 0.000000000000000D+00
 0.101814120934690D+03 0.000000000000000D+00 0.000000000000000D+00 0.101814120934690D+03
 0.436018713876243D+02 0.000000000000000D+00 0.000000000000000D+00 -.436018713876243D+02
 0.558974898450872D+02 0.144366639526596D+02 0.132702675530207D+02 -.154923240338837D+02
 0.240769754732923D+02 0.396150948262192D+01 -.130180868568278D+02 0.198629455305275D+02
 0.438535829518666D+01 0.186228926578292D-01 -.358731512564707D+00 -.437062149664375D+01
 0.610561687087485D+02 -.184167963279394D+02 0.106550816371795D+00 0.582122495470660D+02
0.943974279629D-06 0.000000000000D+00 0.000000000000D+00 0.441481267149D-05 0.126850771222D-05  6 1 22 9900012 13 2 21 2 0.74067550D-01 0.14185951D-02 0.18529376D+04 0.18529376D+04 0.18529376D+04 0.12935274D+01  1  2  1  1  6  1        1 0.511668624157D-03 0.100000000000D+01
  </mgrwgt>
  </event>
  <event>
  7     66 0.16204311E-05 0.10749019E+02 0.78161638E-02 0.13437656E+00
       21 -1    0    0  501  502 0.00000000E+00 0.00000000E+00 0.62230412E+02 0.62230412E+02 0.00000000E+00 0.0000E+00 0.9000E+01
       22 -1    0    0    0    0 0.00000000E+00 0.00000000E+00 -.15674740E+03 0.15674740E+03 0.00000000E+00 0.0000E+00 0.9000E+01
      -24  2    1    2    0    0 0.53673254E+01 -.98583578E+01 -.59846537E+02 0.95943488E+02 0.74145461E+02 0.0000E+00 0.0000E+00
  9900012  1    3    3    0    0 0.67205783E+01 -.24184330E+02 -.59324719E+02 0.81544284E+02 0.50000000E+02 0.0000E+00 0.9000E+01
       13  1    3    3    0    0 -.13532529E+01 0.14325972E+02 -.52181853E+00 0.14399204E+02 0.00000000E+00 0.0000E+00 0.9000E+01
        4  1    1    2  501    0 0.49261233E-01 0.36261843E+00 -.78175719E+02 0.78176576E+02 0.00000000E+00 0.0000E+00 0.9000E+01
       -3  1    1    2    0  502 -.54165866E+01 0.94957393E+01 0.43505273E+02 0.44857744E+02 0.00000000E+00 0.0000E+00 0.9000E+01
#aMCatNLO 2  0  0  1  1 0.10496220D+03 0.00000000D+00  -5  6  0 0.00000000D+00 0.00000000D+00 0.00000000D+00 0.00000000D+00 0.00000000D+00
  <mgrwgt>
 0.1186767080D-01    1    2    0
 0.527923876717976D+02 0.000000000000000D+00 0.000000000000000D+00 0.527923876717976D+02
 0.527923876717976D+02 0.000000000000000D+00 0.000000000000000D+00 -.527923876717976D+02
 0.544047535050001D+02 0.388029146659233D+01 -.192050646310474D+02 0.871699687916651D+01
 0.244214512120931D+02 -.256488060736761D+01 0.164500593865248D+02 0.178668467546571D+02
 0.267585706265020D+02 -.131541085922472D+01 0.275500524452259D+01 -.265838436338236D+02
 0.000000000000000D+00 -.000000000000000D+00 0.000000000000000D+00 0.000000000000000D+00
 0.182994735138510D+03 0.000000000000000D+00 0.000000000000000D+00 0.182994735138510D+03
 0.533045666867277D+02 0.000000000000000D+00 0.000000000000000D+00 -.533045666867277D+02
 0.566218511866776D+02 0.672057826813256D+01 -.241843301531544D+02 0.871699687916651D+01
 0.229409893248596D+02 -.135325286175283D+01 0.143259723907692D+02 0.178668467546571D+02
 0.265863623149323D+02 0.492612334089675D-01 0.362618427759008D+00 -.265838436338236D+02
 0.130150098998768D+03 -.541658663978870D+01 0.949573933462614D+01 0.129690168451782D+03
0.730568403846D-05 0.000000000000D+00 0.000000000000D+00 0.273883615683D-06 0.478353777675D-06  6 21 22 9900012 13 4 -3 2 0.95739096D-02 0.24114984D-01 0.16660487D+04 0.16660487D+04 0.16660487D+04 0.12994713D+01  1  2  1  3  6  1        3 0.118676708026D-01 0.100000000000D+01
  </mgrwgt>
  </event>
  <event>
  6     66 -.16204311E-05 0.46242668E+02 0.78161638E-02 0.11515580E+00
        3 -1    0    0  501    0 0.00000000E+00 0.00000000E+00 0.61612059E+01 0.61612059E+01 0.00000000E+00 0.0000E+00 0.9000E+01
       22 -1    0    0    0    0 0.00000000E+00 0.00000000E+00 -.25896105E+04 0.25896105E+04 0.00000000E+00 0.0000E+00 0.9000E+01
      -24  2    1    2    0    0 0.66055901E+02 -.82895229E+01 -.47037062E+03 0.48164456E+03 0.79377991E+02 0.0000E+00 0.0000E+00
  9900012  1    3    3    0    0 0.54863990E+02 0.13605850E+01 -.45205358E+03 0.45810953E+03 0.50000000E+02 0.0000E+00 0.9000E+01
       13  1    3    3    0    0 0.11191912E+02 -.96501079E+01 -.18317042E+02 0.23535027E+02 0.00000000E+00 0.0000E+00 0.9000E+01
        4  1    1    2  501    0 -.66055901E+02 0.82895229E+01 -.21130786E+04 0.21141271E+04 0.00000000E+00 0.0000E+00 0.9000E+01
#aMCatNLO 1  0  0  1  5 0.55007614D+02 0.00000000D+00  -5  6  0 0.00000000D+00 0.00000000D+00 0.00000000D+00 0.00000000D+00 0.00000000D+00
  <mgrwgt>
 -.1568946136D-04    7    2    0
 0.126313591242396D+03 0.000000000000000D+00 0.000000000000000D+00 0.126313591242396D+03
 0.126313591242396D+03 0.000000000000000D+00 0.000000000000000D+00 -.126313591242396D+03
 0.842754587545196D+02 0.548639897142724D+02 0.136058501446971D+01 0.398803759929034D+02
 0.545088124558429D+02 0.111919116395247D+02 -.965010787744299D+01 0.524673914651094D+02
 0.113842911274429D+03 -.660559013537971D+02 0.828952286297328D+01 -.923477674580128D+02
 0.000000000000000D+00 -.000000000000000D+00 -.000000000000000D+00 0.000000000000000D+00
 0.704393945190326D+03 0.000000000000000D+00 0.000000000000000D+00 0.704393945190326D+03
 0.130537428090118D+03 0.000000000000000D+00 0.000000000000000D+00 -.130537428090118D+03
 0.962119070092848D+02 0.708312355654058D+02 0.122156755566734D+02 0.398803759929034D+02
 0.565997653851993D+02 0.210213973270680D+02 -.296768073149882D+01 0.524673914651094D+02
 0.105664414989775D+03 -.466366615097614D+02 0.214913993000930D+02 -.923477674580128D+02
 0.576455285896185D+03 -.452159713827125D+02 -.307393941252676D+02 0.573856517100208D+03
0.593895223187D-06 0.000000000000D+00 0.000000000000D+00 0.303845223081D-06 0.000000000000D+00  6 3 22 9900012 13 4 21 0 0.94787784D-03 0.39840161D+00 0.60523762D+04 0.60523762D+04 0.60523762D+04 0.12326159D+01  1  2  2  1  6  1        3 0.263428404726D-05 0.100000000000D+01
-.359145332947D-07 0.000000000000D+00 -.114035701662D-08 0.303845223081D-06 0.000000000000D+00  6 3 22 9900012 13 4 21 2 0.94787784D-03 0.39840161D+00 0.60523762D+04 0.60523762D+04 0.60523762D+04 0.12326159D+01  1  2  3  1  6  1        3 -.242035216803D-06 0.100000000000D+01
0.224262360476D-07 0.000000000000D+00 0.000000000000D+00 0.303845223081D-06 0.000000000000D+00  6 3 22 9900012 13 4 21 2 0.94787784D-03 0.39840161D+00 0.60523762D+04 0.60523762D+04 0.60523762D+04 0.12326159D+01  1  2 15  1  6  1        3 0.151134886240D-06 0.100000000000D+01
0.201171900473D-05 0.000000000000D+00 0.000000000000D+00 0.303845223081D-06 0.000000000000D+00  6 3 22 9900012 13 4 21 2 0.54626436D-02 0.39840161D+00 0.11536144D+05 0.11536144D+05 0.11536144D+05 0.12029507D+01  1  2 12  1  6  1        3 0.106574263515D-05 0.100000000000D+01
-.903279527602D-05 0.000000000000D+00 -.238916197866D-06 0.303845223081D-06 0.000000000000D+00  6 3 22 9900012 13 4 21 2 0.54981334D-02 0.39840161D+00 0.60523762D+04 0.60523762D+04 0.60523762D+04 0.12326159D+01  1  2  5  1  6  1        3 -.474153880202D-05 0.100000000000D+01
0.431664034748D-06 0.000000000000D+00 0.000000000000D+00 0.303845223081D-06 0.000000000000D+00  6 21 22 9900012 13 4 -3 2 0.54626436D-02 0.39840161D+00 0.11536144D+05 0.11536144D+05 0.11536144D+05 0.12029507D+01  1  2 12  3  6  1        3 0.412244423592D-05 0.100000000000D+01
-.195923605923D-05 0.000000000000D+00 -.514596718714D-07 0.303845223081D-06 0.000000000000D+00  6 21 22 9900012 13 4 -3 2 0.54981334D-02 0.39840161D+00 0.60523762D+04 0.60523762D+04 0.60523762D+04 0.12326159D+01  1  2  5  3  6  1        3 -.186794931422D-04 0.100000000000D+01
  </mgrwgt>
  </event>
  <event>
  6     66 -.16204311E-05 0.17786600E+02 0.78161638E-02 0.13204949E+00
        3 -1    0    0  501    0 0.00000000E+00 0.00000000E+00 0.15818512E+02 0.15818512E+02 0.00000000E+00 0.0000E+00 0.9000E+01
       22 -1    0    0    0    0 0.00000000E+00 0.00000000E+00 -.27142664E+03 0.27142664E+03 0.00000000E+00 0.0000E+00 0.9000E+01
      -24  2    1    2    0    0 -.14742411E+02 -.99511031E+01 -.25791748E+03 0.26930926E+03 0.75430006E+02 0.0000E+00 0.0000E+00
  9900012  1    3    3    0    0 0.66884605E+01 -.79318086E+01 -.13140292E+03 0.14097651E+03 0.50000000E+02 0.0000E+00 0.9000E+01
       13  1    3    3    0    0 -.21430872E+02 -.20192946E+01 -.12651456E+03 0.12833274E+03 0.00000000E+00 0.0000E+00 0.9000E+01
        4  1    1    2  501    0 0.14742411E+02 0.99511031E+01 0.23093544E+01 0.17935893E+02 0.00000000E+00 0.0000E+00 0.9000E+01
#aMCatNLO 1  0  0  1  5 0.55007614D+02 0.00000000D+00  -5  6  0 0.00000000D+00 0.00000000D+00 0.00000000D+00 0.00000000D+00 0.00000000D+00
  <mgrwgt>
 -.6235292198D-05    1    2    0
 0.655253038428805D+02 0.000000000000000D+00 0.000000000000000D+00 0.655253038428805D+02
 0.655253038428805D+02 0.000000000000000D+00 0.000000000000000D+00 -.655253038428805D+02
 0.527060868293725D+02 0.668846052398577D+01 -.793180855537763D+01 -.130492336068166D+02
 0.345271889051261D+02 -.214308716222677D+02 -.201929456542255D+01 -.269956841857768D+02
 0.438173319512623D+02 0.147424110982819D+02 0.995110312080018D+01 0.400449177925935D+02
 0.000000000000000D+00 -.000000000000000D+00 0.000000000000000D+00 0.000000000000000D+00
 0.101483437234186D+03 0.000000000000000D+00 0.000000000000000D+00 0.101483437234186D+03
 0.754443744648160D+02 0.000000000000000D+00 0.000000000000000D+00 -.754443744648160D+02
 0.564062915328006D+02 0.748863367889714D+01 -.213379378661881D+02 -.130492336068166D+02
 0.357741074355184D+02 -.209153186581436D+02 -.106568871429758D+02 -.269956841857768D+02
 0.429020368525022D+02 0.153783656248830D+02 -.703701488776270D+00 0.400449177925935D+02
 0.418453758781808D+02 -.195168064563656D+01 0.326985264979402D+02 0.260390627693699D+02
-.207661183128D-07 0.000000000000D+00 0.000000000000D+00 0.229974155843D-07 0.000000000000D+00  6 3 22 9900012 13 4 21 2 0.24336172D-02 0.41757944D-01 0.20420249D+04 0.20420249D+04 0.20420249D+04 0.12881703D+01  1  2 14  1  6  1        3 -.623529219812D-05 0.100000000000D+01
  </mgrwgt>
  </event>
  <event>
  7     66 0.16204311E-05 0.11580781E+02 0.78161638E-02 0.13424385E+00
       21 -1    0    0  501  502 0.00000000E+00 0.00000000E+00 0.28935843E+03 0.28935843E+03 0.00000000E+00 0.0000E+00 0.9000E+01
       22 -1    0    0    0    0 0.00000000E+00 0.00000000E+00 -.16211777E+02 0.16211777E+02 0.00000000E+00 0.0000E+00 0.9000E+01
      -24  2    1    2    0    0 0.11601881E+02 -.63187151E+00 0.14230584E+03 0.16417088E+03 0.81031601E+02 0.0000E+00 0.0000E+00
  9900012  1    3    3    0    0 0.14849566E+02 -.16168108E+02 0.13692381E+03 0.14741115E+03 0.50000000E+02 0.0000E+00 0.9000E+01
       13  1    3    3    0    0 -.32476847E+01 0.15536236E+02 0.53820315E+01 0.16759724E+02 0.00000000E+00 0.0000E+00 0.9000E+01
        2  1    1    2  501    0 -.23561017E-01 0.14986165E-01 -.50323110E+01 0.50323885E+01 0.00000000E+00 0.0000E+00 0.9000E+01
       -1  1    1    2    0  502 -.11578320E+02 0.61688534E+00 0.13587312E+03 0.13636694E+03 0.00000000E+00 0.0000E+00 0.9000E+01
#aMCatNLO 2  0  0  1  5 0.31762892D+02 0.00000000D+00  -5  6  0 0.00000000D+00 0.00000000D+00 0.00000000D+00 0.00000000D+00 0.00000000D+00
  <mgrwgt>
 0.2069276153D+00    1    2    0
 0.491204738764160D+02 0.000000000000000D+00 0.000000000000000D+00 0.491204738764160D+02
 0.491204738764160D+02 0.000000000000000D+00 0.000000000000000D+00 -.491204738764160D+02
 0.607132350813085D+02 0.763545974645650D+01 -.157837447490949D+02 0.296423695104472D+02
 0.218256887688820D+02 -.577423857701120D+01 0.156708492525625D+02 -.140514534050865D+02
 0.157020239026415D+02 -.186122116944530D+01 0.112895496532351D+00 -.155909161053608D+02
 0.000000000000000D+00 -.000000000000000D+00 0.000000000000000D+00 0.000000000000000D+00
 0.933974400733057D+02 0.000000000000000D+00 0.000000000000000D+00 0.933974400733057D+02
 0.502263684228726D+02 0.000000000000000D+00 0.000000000000000D+00 -.502263684228726D+02
 0.621336252757349D+02 0.148495661760625D+02 -.161681076225480D+02 0.296423695104472D+02
 0.211982412331956D+02 -.324768471024718D+01 0.155362361145891D+02 -.140514534050865D+02
 0.155909411105000D+02 -.235610172312646D-01 0.149861652205012D-01 -.155909161053608D+02
 0.447010008767478D+02 -.115783204485841D+02 0.616885342738364D+00 0.431710716504330D+02
0.806503420772D-04 0.000000000000D+00 0.000000000000D+00 0.843013192145D-06 0.313358819873D-04  6 21 22 9900012 13 2 -1 2 0.44516681D-01 0.24941195D-02 0.16851704D+04 0.16851704D+04 0.16851704D+04 0.12988294D+01  1  2  1  3  6  1        1 0.206927615297D+00 0.100000000000D+01
  </mgrwgt>
  </event>
  <event>
  7     66 -.16204311E-05 0.11429477E+02 0.78161638E-02 0.12903345E+00
        3 -1    0    0  501    0 0.00000000E+00 0.00000000E+00 0.44054720E+03 0.44054720E+03 0.00000000E+00 0.0000E+00 0.9000E+01
       22 -1    0    0    0    0 0.00000000E+00 0.00000000E+00 -.16876924E+02 0.16876924E+02 0.00000000E+00 0.0000E+00 0.9000E+01
      -24  2    1    2    0    0 0.96554368E+01 0.36530386E+01 0.42298972E+03 0.43038292E+03 0.78756492E+02 0.0000E+00 0.0000E+00
  9900012  1    3    3    0    0 0.29670946E+02 0.81396772E+01 0.29921412E+03 0.30491919E+03 0.50000000E+02 0.0000E+00 0.9000E+01
       13  1    3    3    0    0 -.20015509E+02 -.44866386E+01 0.12377560E+03 0.12546373E+03 0.00000000E+00 0.0000E+00 0.9000E+01
        4  1    1    2  502    0 0.58824190E+01 -.64154063E+01 0.57891600E+01 0.10453452E+02 0.00000000E+00 0.0000E+00 0.9000E+01
       21  1    1    2  501  502 -.15537856E+02 0.27623677E+01 -.51086025E+01 0.16587750E+02 0.00000000E+00 0.0000E+00 0.9000E+01
#aMCatNLO 2  0  0  5  1 0.98556583D+01 0.00000000D+00  -5  6  0 0.00000000D+00 0.00000000D+00 0.00000000D+00 0.00000000D+00 0.00000000D+00
  <mgrwgt>
 -.2890136243D-05    2    2    0
 0.862269194773304D+02 0.000000000000000D+00 0.000000000000000D+00 0.862269194773304D+02
 0.862269194773304D+02 -.000000000000000D+00 -.000000000000000D+00 -.862269194773304D+02
 0.750456574018762D+02 0.299679986056122D+02 0.825206402161321D+01 0.465367939789259D+02
 0.291645816221219D+02 -.198999406331498D+02 -.444291429048613D+01 0.208524745917102D+02
 0.682435999306626D+02 -.100680579724625D+02 -.380914973112710D+01 -.673892685706361D+02
 0.000000000000000D+00 -.000000000000000D+00 0.000000000000000D+00 0.000000000000000D+00
 0.862269194773304D+02 0.000000000000000D+00 0.000000000000000D+00 0.862269194773304D+02
 0.862269194773304D+02 -.000000000000000D+00 -.000000000000000D+00 -.862269194773304D+02
 0.736966032034899D+02 0.296709462954465D+02 0.813967723058626D+01 0.445485120317980D+02
 0.287039013090510D+02 -.200155094464146D+02 -.448663860307734D+01 0.200789294038702D+02
 0.135048676310480D+02 0.588241902683370D+01 -.641540633478171D+01 -.103257521607152D+02
 0.565484668110718D+02 -.155378558758656D+02 0.276236770727277D+01 -.543016892749529D+02
-.813421817578D-07 0.000000000000D+00 0.000000000000D+00 0.997340375596D-06 0.000000000000D+00  6 3 22 9900012 13 4 21 2 0.67776492D-01 0.25964499D-02 0.26887158D+04 0.26887158D+04 0.26887158D+04 0.12733743D+01  1  2 13  2  6  5        4 -.525766836285D-05 0.100000000000D+01
0.366284471964D-07 0.000000000000D+00 0.000000000000D+00 0.997340375596D-06 0.391699207870D-08  6 3 22 9900012 13 4 21 2 0.67776492D-01 0.25964499D-02 0.26887158D+04 0.26887158D+04 0.26887158D+04 0.12733743D+01  1  2  1  2  6  5        4 0.236753211978D-05 0.100000000000D+01
  </mgrwgt>
  </event>
  <event>
  6     66 0.16204311E-05 0.14091944E+02 0.78161638E-02 0.12416662E+00
        3 -1    0    0  501    0 0.00000000E+00 0.00000000E+00 0.75934015E+01 0.75934015E+01 0.00000000E+00 0.0000E+00 0.9000E+01
       22 -1    0    0    0    0 0.00000000E+00 0.00000000E+00 -.29008444E+03 0.29008444E+03 0.00000000E+00 0.0000E+00 0.9000E+01
      -24  2    1    2    0    0 0.11975671E+02 -.74273956E+01 -.25607068E+03 0.26773426E+03 0.76882095E+02 0.0000E+00 0.0000E+00
  9900012  1    3    3    0    0 0.15520524E+02 0.39231383E+01 -.24767430E+03 0.25317748E+03 0.50000000E+02 0.0000E+00 0.9000E+01
       13  1    3    3    0    0 -.35448536E+01 -.11350534E+02 -.83963837E+01 0.14556781E+02 0.00000000E+00 0.0000E+00 0.9000E+01
        4  1    1    2  501    0 -.11975671E+02 0.74273956E+01 -.26420360E+02 0.29943585E+02 0.00000000E+00 0.0000E+00 0.9000E+01
#aMCatNLO 1  0  0  1  5 0.74594329D+02 0.00000000D+00  -5  6  0 0.00000000D+00 0.00000000D+00 0.00000000D+00 0.00000000D+00 0.00000000D+00
  <mgrwgt>
 0.3656273861D-04    3    2    0
 0.469332253441696D+02 0.000000000000000D+00 0.000000000000000D+00 0.469332253441696D+02
 0.469332253441696D+02 0.000000000000000D+00 0.000000000000000D+00 -.469332253441696D+02
 0.575238075970732D+02 0.155205241926502D+02 0.392313828282462D+01 -.235098012595659D+02
 0.208948768333274D+02 -.354485356878695D+01 -.113505338648475D+02 0.171812476857395D+02
 0.154477662579386D+02 -.119756706238633D+02 0.742739558202292D+01 0.632855357382643D+01
 0.000000000000000D+00 -.000000000000000D+00 -.000000000000000D+00 -.000000000000000D+00
 0.648773158531700D+02 0.000000000000000D+00 0.000000000000000D+00 0.648773158531700D+02
 0.868567473302229D+02 0.000000000000000D+00 0.000000000000000D+00 -.868567473302229D+02
 0.706444093712784D+02 0.431882757521015D+02 0.852611621507309D+01 -.235098012595659D+02
 0.205331241436219D+02 0.539823439597714D+01 -.986270654864829D+01 0.171812476857395D+02
 0.121316392218155D+02 -.602208745776812D+01 0.841787042680591D+01 0.632855357382643D+01
 0.484248904466770D+02 -.425644226903105D+02 -.708128009323070D+01 -.219794314770529D+02
0.812621343156D-07 0.000000000000D+00 0.000000000000D+00 0.360693061457D-07 0.000000000000D+00  6 3 22 9900012 13 4 21 0 0.11682156D-02 0.44628376D-01 0.15399113D+04 0.15399113D+04 0.15399113D+04 0.13039252D+01  1  2  2  1  6  1        3 0.356096169249D-04 0.100000000000D+01
0.213573384657D-08 0.000000000000D+00 -.156033996292D-09 0.360693061457D-07 0.000000000000D+00  6 3 22 9900012 13 4 21 2 0.11682156D-02 0.44628376D-01 0.15399113D+04 0.15399113D+04 0.15399113D+04 0.13039252D+01  1  2  3  1  6  1        3 0.159122498990D-05 0.100000000000D+01
-.856458909888D-09 0.000000000000D+00 0.000000000000D+00 0.360693061457D-07 0.000000000000D+00  6 3 22 9900012 13 4 21 2 0.11682156D-02 0.44628376D-01 0.15399113D+04 0.15399113D+04 0.15399113D+04 0.13039252D+01  1  2 15  1  6  1        3 -.638103302254D-06 0.100000000000D+01
  </mgrwgt>
  </event>
  <event>
  6     66 0.16204311E-05 0.12575523E+02 0.78161638E-02 0.13115239E+00
        1 -1    0    0  501    0 0.00000000E+00 0.00000000E+00 0.24287542E+02 0.24287542E+02 0.00000000E+00 0.0000E+00 0.9000E+01
       22 -1    0    0    0    0 -.00000000E+00 -.00000000E+00 -.25014970E+04 0.25014970E+04 0.00000000E+00 0.0000E+00 0.9000E+01
      -24  2    1    2    0    0 0.62776430E+01 -.10896558E+02 -.44312719E+02 0.92855303E+02 0.80624726E+02 0.0000E+00 0.0000E+00
  9900012  1    3    3    0    0 -.14984484E+02 0.68947743E+01 -.36455307E+02 0.64039535E+02 0.50000000E+02 0.0000E+00 0.9000E+01
       13  1    3    3    0    0 0.21262127E+02 -.17791332E+02 -.78574119E+01 0.28815767E+02 0.00000000E+00 0.0000E+00 0.9000E+01
        2  1    1    2  501    0 -.62776430E+01 0.10896558E+02 -.24328967E+04 0.24329292E+04 0.00000000E+00 0.0000E+00 0.9000E+01
#aMCatNLO 1  0  0  5  1 0.32748708D+01 0.00000000D+00  -5  6  0 0.00000000D+00 0.00000000D+00 0.00000000D+00 0.00000000D+00 0.00000000D+00
  <mgrwgt>
 0.3198867183D-01    6    2    0
 0.246485727958607D+03 0.000000000000000D+00 0.000000000000000D+00 0.246485727958607D+03
 0.246485727958607D+03 -.000000000000000D+00 -.000000000000000D+00 -.246485727958607D+03
 0.144922460680750D+03 -.149844835272687D+02 0.689477426728402D+01 0.135020172385417D+03
 0.108156292409398D+03 0.212621265559338D+02 -.177913322999212D+02 0.104542690117771D+03
 0.239892702827067D+03 -.627764302866512D+01 0.108965580326373D+02 -.239562862503188D+03
 0.000000000000000D+00 -.000000000000000D+00 0.000000000000000D+00 0.000000000000000D+00
 0.246485727958607D+03 0.000000000000000D+00 0.000000000000000D+00 0.246485727958607D+03
 0.246485727958607D+03 -.000000000000000D+00 -.000000000000000D+00 -.246485727958607D+03
 0.144886644505976D+03 -.149854962254935D+02 0.689653208067448D+01 0.134981526529881D+03
 0.108128050447701D+03 0.212613707799207D+02 -.177900204449546D+02 0.104513848741434D+03
 0.520276489201731D+02 0.510173236781666D+00 -.324165234747356D+00 -.520241375933311D+02
 0.187929112043365D+03 -.678604779120890D+01 0.112176535990275D+02 -.187471237677984D+03
0.369392645556D-04 0.000000000000D+00 0.000000000000D+00 0.326782116900D-04 0.000000000000D+00  6 1 22 9900012 13 2 21 0 0.37365450D-02 0.38484569D+00 0.21599167D+04 0.21599167D+04 0.21599167D+04 0.12851084D+01  1  2  2  2  6  5        2 0.295958712091D-04 0.100000000000D+01
0.387151607563D-05 0.000000000000D+00 -.709282511126D-07 0.326782116900D-04 0.000000000000D+00  6 1 22 9900012 13 2 21 2 0.37365450D-02 0.38484569D+00 0.21599167D+04 0.21599167D+04 0.21599167D+04 0.12851084D+01  1  2  3  2  6  5        2 0.512275337307D-05 0.100000000000D+01
0.145252385685D-05 0.000000000000D+00 0.000000000000D+00 0.326782116900D-04 0.000000000000D+00  6 1 22 9900012 13 2 21 2 0.37365450D-02 0.38484569D+00 0.21599167D+04 0.21599167D+04 0.21599167D+04 0.12851084D+01  1  2 15  2  6  5        2 0.192196579887D-05 0.100000000000D+01
0.368923743753D-04 0.000000000000D+00 0.000000000000D+00 0.326782116900D-04 0.000000000000D+00  6 1 22 9900012 13 2 21 2 0.37365450D-02 0.38484569D+00 0.22131553D+04 0.22131553D+04 0.22131553D+04 0.12837872D+01  1  2 12  2  6  5        2 0.488209643065D-04 0.100000000000D+01
-.130798963898D-02 0.000000000000D+00 0.000000000000D+00 0.326782116900D-04 0.000000000000D+00  6 1 22 9900012 13 2 21 2 0.37365450D-02 0.38484569D+00 0.21599167D+04 0.21599167D+04 0.21599167D+04 0.12851084D+01  1  2  5  2  6  5        2 -.173071949183D-02 0.100000000000D+01
0.254160389141D-01 0.000000000000D+00 0.000000000000D+00 0.326782116900D-04 0.606881529251D-04  6 1 22 9900012 13 2 21 2 0.37365450D-02 0.38484569D+00 0.22131553D+04 0.22131553D+04 0.22131553D+04 0.12837872D+01  1  2 11  2  6  5        2 0.336339297659D-01 0.100000000000D+01
  </mgrwgt>
  </event>
</LesHouchesEvents>
