<LesHouchesEvents version="3.0">
  <!--
  <scalesfunctionalform>
    muR  H_T/2 := sum_i mT(i)/2, i=final state
    muF1 H_T/2 := sum_i mT(i)/2, i=final state
    muF2 H_T/2 := sum_i mT(i)/2, i=final state
    QES  H_T/2 := sum_i mT(i)/2, i=final state
  </scalesfunctionalform>
PYTHIA8   
  -->
  <header>
        3
  </header>
  <init>
   2212   2212 0.65000000D+04 0.65000000D+04 -1 -1  82200  82200 -4   1
 0.23055426D-05 0.52732966D-07 0.15520955D-05     66
  </init>
  <event>
  5     66 0.15520955E-05 0.24972427E+02 0.78161638E-02 0.95181219E-01
       22 -1    0    0    0    0 0.00000000E+00 0.00000000E+00 0.31577941E+03 0.31577941E+03 0.00000000E+00 0.0000E+00 0.9000E+01
       -1 -1    0    0    0  501 0.00000000E+00 0.00000000E+00 -.11291387E+03 0.11291387E+03 0.00000000E+00 0.0000E+00 0.9000E+01
  9900012  1    1    2    0    0 -.29908416E+02 0.53142082E+01 0.22049279E+03 0.22812239E+03 0.50000000E+02 0.0000E+00 0.9000E+01
      -11  1    1    2    0    0 0.50229797E+01 -.32316158E+01 0.89942450E+02 0.90140546E+02 0.00000000E+00 0.0000E+00 0.9000E+01
       -2  1    1    2    0  501 0.24885436E+02 -.20825924E+01 -.10756970E+03 0.11043035E+03 0.00000000E+00 0.0000E+00 0.9000E+01
#aMCatNLO 1  0  0  2  5 0.73457505D+02 0.00000000D+00  -5  6  0 0.00000000D+00 0.00000000D+00 0.00000000D+00 0.00000000D+00 0.00000000D+00
  <mgrwgt>
 0.3713653298D-04    3    2    0
 0.188827638069409D+03 0.000000000000000D+00 0.000000000000000D+00 0.188827638069409D+03
 0.188827638069409D+03 0.000000000000000D+00 0.000000000000000D+00 -.188827638069409D+03
 0.140509484441071D+03 -.299084157076762D+02 0.531420822743911D+01 0.127750385825905D+03
 0.540080457655904D+02 0.502297971856576D+01 -.323161582226502D+01 0.536767672400478D+02
 0.183137745932156D+03 0.248854359891104D+02 -.208259240517409D+01 -.181427153065953D+03
 0.000000000000000D+00 0.000000000000000D+00 0.000000000000000D+00 0.000000000000000D+00
 0.119850955158325D+04 0.000000000000000D+00 0.000000000000000D+00 0.119850955158325D+04
 0.345876651203952D+03 0.000000000000000D+00 0.000000000000000D+00 -.345876651203952D+03
 0.230533881480103D+03 -.122056540445657D+03 -.139384039136667D+03 0.127750385825905D+03
 0.834074272004397D+02 -.291039696000552D+02 -.568204410786597D+02 0.536767672400478D+02
 0.269063572124480D+03 -.874181578496081D+02 -.178430545739650D+03 -.181427153065953D+03
 0.961381321982185D+03 0.238578667895321D+03 0.374635025954977D+03 0.852632900379303D+03
0.464005589155D-05 0.000000000000D+00 0.000000000000D+00 0.171349003290D-05 0.000000000000D+00  6 22 -1 9900012 -11 -2 21 0 0.48581448D-01 0.17371365D-01 0.20003023D+04 0.20003023D+04 0.20003023D+04 0.12893024D+01  1  2  2  1  6  2       -1 0.435310466262D-04 0.100000000000D+01
0.356380969005D-06 0.000000000000D+00 -.890951818916D-08 0.171349003290D-05 0.000000000000D+00  6 22 -1 9900012 -11 -2 21 2 0.48581448D-01 0.17371365D-01 0.20003023D+04 0.20003023D+04 0.20003023D+04 0.12893024D+01  1  2  3  1  6  2       -1 0.555776266808D-05 0.100000000000D+01
-.766417004356D-06 0.000000000000D+00 0.000000000000D+00 0.171349003290D-05 0.000000000000D+00  6 22 -1 9900012 -11 -2 21 2 0.48581448D-01 0.17371365D-01 0.20003023D+04 0.20003023D+04 0.20003023D+04 0.12893024D+01  1  2 15  1  6  2       -1 -.119522763151D-04 0.100000000000D+01
  </mgrwgt>
  </event>
  <event>
  6     66 -.15520955E-05 0.94661612E+02 0.78161638E-02 0.11231944E+00
       22 -1    0    0    0    0 0.00000000E+00 0.00000000E+00 0.73088493E+03 0.73088493E+03 0.00000000E+00 0.0000E+00 0.9000E+01
       -3 -1    0    0    0  501 0.00000000E+00 0.00000000E+00 -.21890217E+03 0.21890217E+03 0.00000000E+00 0.0000E+00 0.9000E+01
  9900012  1    1    2    0    0 -.52296130E+02 0.10132676E+03 0.64584820E+03 0.65774000E+03 0.50000000E+02 0.0000E+00 0.9000E+01
      -11  1    1    2    0    0 -.43408171E+01 -.57293270E+01 0.60996796E+02 0.61418865E+02 0.00000000E+00 0.0000E+00 0.9000E+01
       -4  1    1    2    0  502 0.37604102E+02 -.97190153E+02 -.16702380E+03 0.19686784E+03 0.00000000E+00 0.0000E+00 0.9000E+01
       21  1    1    2  502  501 0.19032845E+02 0.15927172E+01 -.27838437E+02 0.33760399E+02 0.00000000E+00 0.0000E+00 0.9000E+01
#aMCatNLO 2  0  0  5  2 0.18882970D+02 0.00000000D+00  -5  6  0 0.00000000D+00 0.00000000D+00 0.00000000D+00 0.00000000D+00 0.00000000D+00
  <mgrwgt>
 -.2181840518D-04    2    2    0
 0.399990369822937D+03 0.000000000000000D+00 0.000000000000000D+00 0.399990369822937D+03
 0.399990369822937D+03 -.000000000000000D+00 -.000000000000000D+00 -.399990369822937D+03
 0.369224883441014D+03 -.525356924054785D+02 0.101731120765918D+03 0.347444664145555D+03
 0.340236887605004D+02 -.436289627046548D+01 -.569205954267896D+01 0.332592391850318D+02
 0.396732167444360D+03 0.568985886759440D+02 -.960390612232386D+02 -.380703903330586D+03
 0.000000000000000D+00 0.000000000000000D+00 0.000000000000000D+00 -.000000000000000D+00
 0.399990369822937D+03 0.000000000000000D+00 0.000000000000000D+00 0.399990369822937D+03
 0.399990369822937D+03 -.000000000000000D+00 -.000000000000000D+00 -.399990369822937D+03
 0.367571118235945D+03 -.522961295988241D+02 0.101326762984987D+03 0.345841768578046D+03
 0.338827377543157D+02 -.434081708696185D+01 -.572932697066985D+01 0.331115091351696D+02
 0.340628000549817D+03 0.376041016388328D+02 -.971901531794395D+02 -.324295298182782D+03
 0.578988831057963D+02 0.190328450469532D+02 0.159271716512259D+01 -.546579795304332D+02
-.412433622266D-04 0.000000000000D+00 0.000000000000D+00 0.493661006151D-05 0.000000000000D+00  6 22 -3 9900012 -11 -4 21 2 0.11244383D+00 0.33677257D-01 0.16256980D+05 0.16256980D+05 0.16256980D+05 0.11880437D+01  1  2 13  2  6  5       -4 -.327098798497D-04 0.100000000000D+01
0.137328855114D-04 0.000000000000D+00 0.000000000000D+00 0.493661006151D-05 0.550953521268D-07  6 22 -3 9900012 -11 -4 21 2 0.11244383D+00 0.33677257D-01 0.16256980D+05 0.16256980D+05 0.16256980D+05 0.11880437D+01  1  2  1  2  6  5       -4 0.108914746718D-04 0.100000000000D+01
  </mgrwgt>
  </event>
  <event>
  5     66 0.15520955E-05 0.31245127E+02 0.78161638E-02 0.12225149E+00
       22 -1    0    0    0    0 0.00000000E+00 0.00000000E+00 0.81470146E+03 0.81470146E+03 0.00000000E+00 0.0000E+00 0.9000E+01
       -1 -1    0    0    0  501 0.00000000E+00 0.00000000E+00 -.49460413E+02 0.49460413E+02 0.00000000E+00 0.0000E+00 0.9000E+01
  9900012  1    1    2    0    0 -.56839371E+01 -.31759840E+02 0.30157662E+03 0.30739136E+03 0.50000000E+02 0.0000E+00 0.9000E+01
      -11  1    1    2    0    0 0.11880429E+02 -.22738140E+02 0.49361201E+03 0.49427825E+03 0.00000000E+00 0.0000E+00 0.9000E+01
       -2  1    1    2    0  501 -.61964920E+01 0.54497980E+02 -.29947575E+02 0.62492268E+02 0.00000000E+00 0.0000E+00 0.9000E+01
#aMCatNLO 1  0  0  2  5 0.50107704D+01 0.00000000D+00  -5  6  0 0.00000000D+00 0.00000000D+00 0.00000000D+00 0.00000000D+00 0.00000000D+00
  <mgrwgt>
 0.4748037540D-05   11    4    0
 0.200737318151939D+03 0.000000000000000D+00 0.000000000000000D+00 0.200737318151939D+03
 0.200737318151939D+03 0.000000000000000D+00 0.000000000000000D+00 -.200737318151939D+03
 0.868226465749570D+02 -.568393705568020D+01 -.317598396138250D+02 0.632232346968349D+02
 0.123056947212477D+03 0.118804291033235D+02 -.227381402975255D+02 0.120353000117925D+03
 0.191595042516445D+03 -.619649204764331D+01 0.544979799113505D+02 -.183576234814760D+03
 0.000000000000000D+00 0.000000000000000D+00 -.000000000000000D+00 -.000000000000000D+00
 0.200951372469266D+03 0.000000000000000D+00 0.000000000000000D+00 0.200951372469266D+03
 0.232140082477380D+03 0.000000000000000D+00 0.000000000000000D+00 -.232140082477380D+03
 0.867458072101026D+02 -.668334999326725D+01 -.313526792454604D+02 0.632232346968349D+02
 0.122822957407251D+03 0.104646444234995D+02 -.221613502740204D+02 0.120353000117925D+03
 0.191936913154571D+03 -.840488182191848D+01 0.553976768836123D+02 -.183576234814760D+03
 0.315857771747218D+02 0.462358739168623D+01 -.188364736413147D+01 -.311887100081138D+02
 0.200737318151939D+03 0.000000000000000D+00 0.000000000000000D+00 0.200737318151939D+03
 0.200737318151939D+03 0.000000000000000D+00 0.000000000000000D+00 -.200737318151939D+03
 0.868226465749570D+02 -.568393705568020D+01 -.317598396138250D+02 0.632232346968349D+02
 0.123056947212477D+03 0.118804291033235D+02 -.227381402975255D+02 0.120353000117925D+03
 0.000000000000000D+00 0.000000000000000D+00 -.000000000000000D+00 -.000000000000000D+00
 0.191595042516445D+03 -.619649204764331D+01 0.544979799113505D+02 -.183576234814760D+03
 0.200951372469266D+03 0.000000000000000D+00 0.000000000000000D+00 0.200951372469266D+03
 0.232140082477380D+03 0.000000000000000D+00 0.000000000000000D+00 -.232140082477380D+03
 0.867458072101026D+02 -.668334999326725D+01 -.313526792454604D+02 0.632232346968349D+02
 0.122822957407251D+03 0.104646444234995D+02 -.221613502740204D+02 0.120353000117925D+03
 0.315857771747218D+02 0.462358739168623D+01 -.188364736413147D+01 -.311887100081138D+02
 0.191936913154571D+03 -.840488182191848D+01 0.553976768836123D+02 -.183576234814760D+03
0.313507544802D-07 0.000000000000D+00 0.000000000000D+00 0.118920371088D-05 0.000000000000D+00  6 22 -1 9900012 -11 -2 21 0 0.12533869D+00 0.76092943D-02 0.49007110D+04 0.49007110D+04 0.49007110D+04 0.12428278D+01  1  2  2  1  6  2       -1 0.190664612256D-06 0.100000000000D+01
0.749490618007D-09 0.000000000000D+00 -.601975760237D-10 0.118920371088D-05 0.000000000000D+00  6 22 -1 9900012 -11 -2 21 2 0.12533869D+00 0.76092943D-02 0.49007110D+04 0.49007110D+04 0.49007110D+04 0.12428278D+01  1  2  3  1  6  2       -1 0.704060902781D-08 0.100000000000D+01
-.595784422930D-08 0.000000000000D+00 0.000000000000D+00 0.118920371088D-05 0.000000000000D+00  6 22 -1 9900012 -11 -2 21 2 0.12533869D+00 0.76092943D-02 0.49007110D+04 0.49007110D+04 0.49007110D+04 0.12428278D+01  1  2 15  1  6  2       -1 -.559671473655D-07 0.100000000000D+01
0.794398109798D-06 0.000000000000D+00 0.000000000000D+00 0.118920371088D-05 0.000000000000D+00  6 22 -1 9900012 -11 -2 21 2 0.12533869D+00 0.88090537D-02 0.52508958D+04 0.52508958D+04 0.52508958D+04 0.12394585D+01  1  2 12  1  6  2       -1 0.602863182459D-05 0.100000000000D+01
-.958129730172D-06 0.000000000000D+00 0.000000000000D+00 0.118920371088D-05 0.000000000000D+00  6 22 -1 9900012 -11 -2 21 2 0.12533869D+00 0.76092943D-02 0.49007110D+04 0.49007110D+04 0.49007110D+04 0.12428278D+01  1  2  4  1  6  2       -1 -.900053538494D-05 0.100000000000D+01
-.201305711332D-05 0.000000000000D+00 -.287728096340D-07 0.118920371088D-05 0.000000000000D+00  6 22 -1 9900012 -11 -2 21 2 0.12533869D+00 0.88051174D-02 0.49007110D+04 0.49007110D+04 0.49007110D+04 0.12428278D+01  1  2  5  1  6  2       -1 -.152833097428D-04 0.100000000000D+01
0.199625766572D-05 0.000000000000D+00 0.284690034421D-07 0.118920371088D-05 0.000000000000D+00  6 22 -1 9900012 -11 -2 21 2 0.12533869D+00 0.76092943D-02 0.49007110D+04 0.49007110D+04 0.49007110D+04 0.12428278D+01  1  2  6  1  6  2       -1 0.187525626144D-04 0.100000000000D+01
0.573966776023D-06 0.000000000000D+00 0.000000000000D+00 0.118920371088D-05 0.205275146876D-06  6 22 -1 9900012 -11 -2 21 2 0.12547234D+00 0.87996703D-02 0.52508958D+04 0.52508958D+04 0.52508958D+04 0.12394585D+01  1  2 11  1  6  2       -1 0.435302353943D-05 0.100000000000D+01
0.177682977208D-07 0.000000000000D+00 0.000000000000D+00 0.118920371088D-05 0.000000000000D+00  6 22 21 9900012 -11 1 -2 2 0.12533869D+00 0.88090537D-02 0.52508958D+04 0.52508958D+04 0.52508958D+04 0.12394585D+01  3  4 12  3  5  2       -1 0.198384431296D-05 0.100000000000D+01
-.447240893909D-07 0.000000000000D+00 -.641963069284D-09 0.118920371088D-05 0.000000000000D+00  6 22 21 9900012 -11 1 -2 2 0.12533869D+00 0.88051174D-02 0.49007110D+04 0.49007110D+04 0.49007110D+04 0.12428278D+01  3  4  5  3  5  2       -1 -.499898449783D-05 0.100000000000D+01
0.248303714692D-07 0.000000000000D+00 0.000000000000D+00 0.118920371088D-05 0.827625559622D-08  6 22 21 9900012 -11 1 -2 2 0.12547234D+00 0.87996703D-02 0.52508958D+04 0.52508958D+04 0.52508958D+04 0.12394585D+01  3  4 11  3  5  2       -1 0.277106680055D-05 0.100000000000D+01
  </mgrwgt>
  </event>
</LesHouchesEvents>
