<LesHouchesEvents version="3.0">
  <!--
  <scalesfunctionalform>
    muR  H_T/2 := sum_i mT(i)/2, i=final state
    muF1 H_T/2 := sum_i mT(i)/2, i=final state
    muF2 H_T/2 := sum_i mT(i)/2, i=final state
    QES  H_T/2 := sum_i mT(i)/2, i=final state
  </scalesfunctionalform>
PYTHIA8   
  -->
  <header>
        4
  </header>
  <init>
   2212   2212 0.65000000D+04 0.65000000D+04 -1 -1  82200  82200 -4   1
 0.77746678D-06 0.30239020D-07 0.42292521D-06     66
  </init>
  <event>
  5     66 0.42292521E-06 0.54219560E+02 0.78161638E-02 0.11538249E+00
       -1 -1    0    0    0  501 0.00000000E+00 0.00000000E+00 0.12303125E+02 0.12303125E+02 0.00000000E+00 0.0000E+00 0.9000E+01
       22 -1    0    0    0    0 0.00000000E+00 0.00000000E+00 -.14812416E+04 0.14812416E+04 0.00000000E+00 0.0000E+00 0.9000E+01
  9900012  1    1    2    0    0 0.71482672E+02 -.49577353E+02 -.91339352E+03 0.91888814E+03 0.50000000E+02 0.0000E+00 0.9000E+01
      -11  1    1    2    0    0 -.19559802E+02 -.14119126E+02 -.38068815E+03 0.38145171E+03 0.00000000E+00 0.0000E+00 0.9000E+01
       -2  1    1    2    0  501 -.51922870E+02 0.63696479E+02 -.17485683E+03 0.19320491E+03 0.00000000E+00 0.0000E+00 0.9000E+01
#aMCatNLO 1  0  0  1  5 0.11073082D+02 0.00000000D+00  -5  6  0 0.00000000D+00 0.00000000D+00 0.00000000D+00 0.00000000D+00 0.00000000D+00
  <mgrwgt>
 0.1220536983D-05    6    4    0
 0.134995931830418D+03 0.000000000000000D+00 0.000000000000000D+00 0.134995931830418D+03
 0.134995931830418D+03 0.000000000000000D+00 0.000000000000000D+00 -.134995931830418D+03
 0.113639153744686D+03 0.714826724902199D+02 -.495773531474817D+02 -.533495159523892D+02
 0.389186230052534D+02 -.195598023706613D+02 -.141191261191359D+02 -.305405243156964D+02
 0.117434086910897D+03 -.519228701195586D+02 0.636964792666176D+02 0.838900402680856D+02
 0.000000000000000D+00 -.000000000000000D+00 0.000000000000000D+00 -.000000000000000D+00
 0.136808716555762D+03 0.000000000000000D+00 0.000000000000000D+00 0.136808716555762D+03
 0.139787251304141D+03 0.000000000000000D+00 0.000000000000000D+00 -.139787251304141D+03
 0.115500910429602D+03 0.731753761564585D+02 -.513775610755658D+02 -.533495159523892D+02
 0.388605338270663D+02 -.189852321207949D+02 -.147301875468867D+02 -.305405243156964D+02
 0.115693223145115D+03 -.502007118673378D+02 0.618649460804500D+02 0.838900402680856D+02
 0.654130045811971D+01 -.398943216832583D+01 0.424280254200240D+01 -.297853474837916D+01
 0.134995931830418D+03 0.000000000000000D+00 0.000000000000000D+00 0.134995931830418D+03
 0.134995931830418D+03 0.000000000000000D+00 0.000000000000000D+00 -.134995931830418D+03
 0.113639153744686D+03 0.714826724902199D+02 -.495773531474817D+02 -.533495159523892D+02
 0.389186230052534D+02 -.195598023706613D+02 -.141191261191359D+02 -.305405243156964D+02
 0.000000000000000D+00 -.000000000000000D+00 0.000000000000000D+00 -.000000000000000D+00
 0.117434086910897D+03 -.519228701195586D+02 0.636964792666176D+02 0.838900402680856D+02
 0.136808716555762D+03 0.000000000000000D+00 0.000000000000000D+00 0.136808716555762D+03
 0.139787251304141D+03 0.000000000000000D+00 0.000000000000000D+00 -.139787251304141D+03
 0.115500910429602D+03 0.731753761564585D+02 -.513775610755658D+02 -.533495159523892D+02
 0.388605338270663D+02 -.189852321207949D+02 -.147301875468867D+02 -.305405243156964D+02
 0.654130045811971D+01 -.398943216832583D+01 0.424280254200240D+01 -.297853474837916D+01
 0.115693223145115D+03 -.502007118673378D+02 0.618649460804500D+02 0.838900402680856D+02
0.542929596271D-07 0.000000000000D+00 0.000000000000D+00 0.436538326088D-08 0.000000000000D+00  6 -1 22 9900012 -11 -2 21 0 0.18927885D-02 0.22788333D+00 0.10674941D+05 0.10674941D+05 0.10674941D+05 0.12064012D+01  1  2  2  1  6  1       -1 0.646669473387D-06 0.100000000000D+01
0.273805513034D-10 0.000000000000D+00 -.104249630316D-09 0.436538326088D-08 0.000000000000D+00  6 -1 22 9900012 -11 -2 21 2 0.18927885D-02 0.22788333D+00 0.10674941D+05 0.10674941D+05 0.10674941D+05 0.12064012D+01  1  2  3  1  6  1       -1 0.474640244428D-09 0.100000000000D+01
-.850243684389D-08 0.000000000000D+00 0.000000000000D+00 0.436538326088D-08 0.000000000000D+00  6 -1 22 9900012 -11 -2 21 2 0.18927885D-02 0.22788333D+00 0.10674941D+05 0.10674941D+05 0.10674941D+05 0.12064012D+01  1  2 15  1  6  1       -1 -.147389241988D-06 0.100000000000D+01
0.355900268482D-07 0.000000000000D+00 0.000000000000D+00 0.436538326088D-08 0.000000000000D+00  6 -1 22 9900012 -11 -2 21 2 0.19862873D-02 0.22788333D+00 0.11232337D+05 0.11232337D+05 0.11232337D+05 0.12041342D+01  1  2 12  1  6  1       -1 0.576937079908D-06 0.100000000000D+01
-.310733290449D-08 0.000000000000D+00 0.000000000000D+00 0.436538326088D-08 0.000000000000D+00  6 -1 22 9900012 -11 -2 21 2 0.18927885D-02 0.22788333D+00 0.10674941D+05 0.10674941D+05 0.10674941D+05 0.12064012D+01  1  2  4  1  6  1       -1 -.538654329113D-07 0.100000000000D+01
0.678634905686D-09 0.000000000000D+00 0.000000000000D+00 0.436538326088D-08 0.000000000000D+00  6 21 22 9900012 -11 1 -2 2 0.19862873D-02 0.22788333D+00 0.11232337D+05 0.11232337D+05 0.11232337D+05 0.12041342D+01  3  4 12  3  5  1       -1 0.197710463969D-06 0.100000000000D+01
  </mgrwgt>
  </event>
  <event>
  6     66 -.42292521E-06 0.29471188E+02 0.78161638E-02 0.13041425E+00
       21 -1    0    0  502  501 0.00000000E+00 0.00000000E+00 0.29666691E+02 0.29666691E+02 0.00000000E+00 0.0000E+00 0.9000E+01
       22 -1    0    0    0    0 0.00000000E+00 0.00000000E+00 -.22861595E+04 0.22861595E+04 0.00000000E+00 0.0000E+00 0.9000E+01
  9900012  1    1    2    0    0 -.11008239E+02 0.67474269E+01 -.10485303E+04 0.10498011E+04 0.50000000E+02 0.0000E+00 0.9000E+01
      -11  1    1    2    0    0 -.14002982E+02 0.22777046E+01 -.12238935E+04 0.12239757E+04 0.00000000E+00 0.0000E+00 0.9000E+01
        1  1    1    2  502    0 -.50542717E+01 0.32582926E+01 0.34031447E+00 0.60231177E+01 0.00000000E+00 0.0000E+00 0.9000E+01
       -2  1    1    2    0  501 0.30065493E+02 -.12283424E+02 0.15590677E+02 0.36026179E+02 0.00000000E+00 0.0000E+00 0.9000E+01
#aMCatNLO 2  0  0  1  5 0.60482398D+01 0.00000000D+00  -5  6  0 0.00000000D+00 0.00000000D+00 0.00000000D+00 0.00000000D+00 0.00000000D+00
  <mgrwgt>
 -.2940373996D-05    1    2    0
 0.245895467100455D+03 0.000000000000000D+00 0.000000000000000D+00 0.245895467100455D+03
 0.245895467100455D+03 0.000000000000000D+00 0.000000000000000D+00 -.245895467100455D+03
 0.119062140764117D+03 -.122309710895074D+02 0.753567483975716D+01 -.107095332831322D+03
 0.132368630051934D+03 -.153624523508744D+02 0.315410232958335D+01 -.131436299849347D+03
 0.000000000000000D+00 -.000000000000000D+00 0.000000000000000D+00 0.000000000000000D+00
 0.240360163384859D+03 0.275934234403817D+02 -.106897771693405D+02 0.238531632680669D+03
 0.275456186335438D+03 0.000000000000000D+00 0.000000000000000D+00 0.275456186335438D+03
 0.246219868864414D+03 0.000000000000000D+00 0.000000000000000D+00 -.246219868864414D+03
 0.118895413740653D+03 -.110082389232101D+02 0.674742692580456D+01 -.107095332831322D+03
 0.132199744169805D+03 -.140029819107820D+02 0.227770456397286D+01 -.131436299849347D+03
 0.298483566147300D+02 -.505427173421687D+01 0.325829258512972D+01 0.292363174710236D+02
 0.240732540674664D+03 0.300654925682090D+02 -.122834240749071D+02 0.238531632680669D+03
-.140779441472D-06 0.000000000000D+00 0.000000000000D+00 0.345680094116D-05 0.000000000000D+00  6 21 22 9900012 -11 1 -2 2 0.45701276D-02 0.35125344D+00 0.27205945D+04 0.27205945D+04 0.27205945D+04 0.12727519D+01  1  2 13  3  5  1       -1 -.294037399576D-05 0.100000000000D+01
  </mgrwgt>
  </event>
  <event>
  5     66 -.42292521E-06 0.46404318E+02 0.78161638E-02 0.11776970E+00
       -3 -1    0    0    0  501 0.00000000E+00 0.00000000E+00 0.88912199E+03 0.88912199E+03 0.00000000E+00 0.0000E+00 0.9000E+01
       22 -1    0    0    0    0 0.00000000E+00 0.00000000E+00 -.40354290E+02 0.40354290E+02 0.00000000E+00 0.0000E+00 0.9000E+01
  9900012  1    1    2    0    0 -.42023675E+02 -.70923056E+02 0.48984798E+02 0.10814610E+03 0.50000000E+02 0.0000E+00 0.9000E+01
      -11  1    1    2    0    0 0.14960823E+02 0.30424548E+01 -.27195655E+01 0.15507378E+02 0.00000000E+00 0.0000E+00 0.9000E+01
       -4  1    1    2    0  501 0.27062852E+02 0.67880601E+02 0.80250246E+03 0.80582280E+03 0.00000000E+00 0.0000E+00 0.9000E+01
#aMCatNLO 1  0  0  5  1 0.32306717D+01 0.00000000D+00  -5  6  0 0.00000000D+00 0.00000000D+00 0.00000000D+00 0.00000000D+00 0.00000000D+00
  <mgrwgt>
 -.6089359054D-06    6    2    0
 0.189419868942219D+03 0.000000000000000D+00 0.000000000000000D+00 0.189419868942219D+03
 0.189419868942219D+03 -.000000000000000D+00 -.000000000000000D+00 -.189419868942219D+03
 0.155586958855791D+03 -.420236749379171D+02 -.709230557414086D+02 -.122111558318641D+03
 0.441400886756021D+02 0.149608226405592D+02 0.304245480963189D+01 -.414157540428651D+02
 0.179112690353044D+03 0.270628522973578D+02 0.678806009317767D+02 0.163527312361507D+03
 0.000000000000000D+00 0.000000000000000D+00 0.000000000000000D+00 0.000000000000000D+00
 0.189419868942219D+03 0.000000000000000D+00 0.000000000000000D+00 0.189419868942219D+03
 0.189419868942219D+03 -.000000000000000D+00 -.000000000000000D+00 -.189419868942219D+03
 0.155531320900485D+03 -.420146365196242D+02 -.709003850613764D+02 -.122056943666971D+03
 0.441268641059855D+02 0.149633869181751D+02 0.304888667806952D+01 -.414002593927791D+02
 0.495406556499068D+02 0.527577437117768D+01 0.166959197360379D+02 0.463431659597707D+02
 0.129640897228060D+03 0.217754752302714D+02 0.511555786472690D+02 0.117114037099979D+03
0.673757567588D-07 0.000000000000D+00 0.000000000000D+00 0.836069562050D-07 0.000000000000D+00  6 -3 22 9900012 -11 -4 21 0 0.13678800D+00 0.62083523D-02 0.85340336D+04 0.85340336D+04 0.85340336D+04 0.12165337D+01  1  2  2  2  6  5       -4 0.154703976582D-06 0.100000000000D+01
0.133329951597D-08 0.000000000000D+00 -.129370323199D-09 0.836069562050D-07 0.000000000000D+00  6 -3 22 9900012 -11 -4 21 2 0.13678800D+00 0.62083523D-02 0.85340336D+04 0.85340336D+04 0.85340336D+04 0.12165337D+01  1  2  3  2  6  5       -4 0.453078885300D-08 0.100000000000D+01
-.122838889861D-07 0.000000000000D+00 0.000000000000D+00 0.836069562050D-07 0.000000000000D+00  6 -3 22 9900012 -11 -4 21 2 0.13678800D+00 0.62083523D-02 0.85340336D+04 0.85340336D+04 0.85340336D+04 0.12165337D+01  1  2 15  2  6  5       -4 -.417428391920D-07 0.100000000000D+01
0.531978007806D-07 0.000000000000D+00 0.000000000000D+00 0.836069562050D-07 0.000000000000D+00  6 -3 22 9900012 -11 -4 21 2 0.13678800D+00 0.62083523D-02 0.85352965D+04 0.85352965D+04 0.85352965D+04 0.12165269D+01  1  2 12  2  6  5       -4 0.180775055749D-06 0.100000000000D+01
-.205912080323D-05 0.000000000000D+00 0.000000000000D+00 0.836069562050D-07 0.000000000000D+00  6 -3 22 9900012 -11 -4 21 2 0.13678800D+00 0.62083523D-02 0.85340336D+04 0.85340336D+04 0.85340336D+04 0.12165337D+01  1  2  5  2  6  5       -4 -.699725865831D-05 0.100000000000D+01
0.179215861558D-05 0.000000000000D+00 0.000000000000D+00 0.836069562050D-07 0.839924394363D-08  6 -3 22 9900012 -11 -4 21 2 0.13678800D+00 0.62083523D-02 0.85352965D+04 0.85352965D+04 0.85352965D+04 0.12165269D+01  1  2 11  2  6  5       -4 0.609005577088D-05 0.100000000000D+01
  </mgrwgt>
  </event>
  <event>
  5     66 0.42292521E-06 0.23636223E+02 0.78161638E-02 0.13120815E+00
       -1 -1    0    0    0  501 0.00000000E+00 0.00000000E+00 0.79505878E+01 0.79505878E+01 0.00000000E+00 0.0000E+00 0.9000E+01
       22 -1    0    0    0    0 -.00000000E+00 -.00000000E+00 -.39563760E+03 0.39563760E+03 0.00000000E+00 0.0000E+00 0.9000E+01
  9900012  1    1    2    0    0 -.11733472E+02 -.87573212E+00 -.26684133E+03 0.27174020E+03 0.50000000E+02 0.0000E+00 0.9000E+01
      -11  1    1    2    0    0 -.15303729E+02 0.19500036E+01 -.87764282E+02 0.89109909E+02 0.00000000E+00 0.0000E+00 0.9000E+01
       -2  1    1    2    0  501 0.27037201E+02 -.10742714E+01 -.33081399E+02 0.42738077E+02 0.00000000E+00 0.0000E+00 0.9000E+01
#aMCatNLO 1  0  0  5  1 0.11836695D+02 0.00000000D+00  -5  6  0 0.00000000D+00 0.00000000D+00 0.00000000D+00 0.00000000D+00 0.00000000D+00
  <mgrwgt>
 0.1401842481D-04    5    2    0
 0.560852161637204D+02 0.000000000000000D+00 0.000000000000000D+00 0.560852161637204D+02
 0.560852161637204D+02 -.000000000000000D+00 -.000000000000000D+00 -.560852161637204D+02
 0.554532693367817D+02 -.117334722022543D+02 -.875732115494894D+00 -.208955450629666D+02
 0.172829349034268D+02 -.153037286718668D+02 0.195000356315468D+01 -.779058494066110D+01
 0.394342280872323D+02 0.270372008741211D+02 -.107427144765979D+01 0.286861300036277D+02
 0.000000000000000D+00 0.000000000000000D+00 -.000000000000000D+00 0.000000000000000D+00
 0.560852161637204D+02 0.000000000000000D+00 0.000000000000000D+00 0.560852161637204D+02
 0.560852161637204D+02 -.000000000000000D+00 -.000000000000000D+00 -.560852161637204D+02
 0.537527153670388D+02 -.870352117904105D+01 -.996121422331798D+00 -.176808051436536D+02
 0.160252986216426D+02 -.143795822844281D+02 0.191328437457797D+01 -.681007724920769D+01
 0.128371135886055D+02 0.707815938339706D-02 0.914644321688633D+01 0.900744201572754D+01
 0.295553047501539D+02 0.230760253040858D+02 -.100636061691325D+02 0.154834403771338D+02
0.574274517142D-07 0.000000000000D+00 0.000000000000D+00 0.147557812120D-08 0.000000000000D+00  6 -1 22 9900012 -11 -2 21 0 0.12231673D-02 0.60867323D-01 0.22020381D+04 0.22020381D+04 0.22020381D+04 0.12840601D+01  1  2  2  2  6  5       -2 0.160692148147D-04 0.100000000000D+01
0.118005977459D-08 0.000000000000D+00 -.110268267789D-09 0.147557812120D-08 0.000000000000D+00  6 -1 22 9900012 -11 -2 21 2 0.12231673D-02 0.60867323D-01 0.22020381D+04 0.22020381D+04 0.22020381D+04 0.12840601D+01  1  2  3  2  6  5       -2 0.544439707621D-06 0.100000000000D+01
-.826961922147D-08 0.000000000000D+00 0.000000000000D+00 0.147557812120D-08 0.000000000000D+00  6 -1 22 9900012 -11 -2 21 2 0.12231673D-02 0.60867323D-01 0.22020381D+04 0.22020381D+04 0.22020381D+04 0.12840601D+01  1  2 15  2  6  5       -2 -.381532289127D-05 0.100000000000D+01
0.103473048473D-07 0.000000000000D+00 0.000000000000D+00 0.147557812120D-08 0.000000000000D+00  6 -1 22 9900012 -11 -2 21 2 0.12231673D-02 0.60867323D-01 0.24795102D+04 0.24795102D+04 0.24795102D+04 0.12776765D+01  1  2 12  2  6  5       -2 0.480630331538D-05 0.100000000000D+01
-.777302292396D-08 0.000000000000D+00 0.000000000000D+00 0.147557812120D-08 0.000000000000D+00  6 -1 22 9900012 -11 -2 21 2 0.12231673D-02 0.60867323D-01 0.22020381D+04 0.22020381D+04 0.22020381D+04 0.12840601D+01  1  2  5  2  6  5       -2 -.358621013881D-05 0.100000000000D+01
  </mgrwgt>
  </event>
</LesHouchesEvents>
