<LesHouchesEvents version="3.0">
  <!--
  <scalesfunctionalform>
    muR  H_T/2 := sum_i mT(i)/2, i=final state
    muF1 H_T/2 := sum_i mT(i)/2, i=final state
    muF2 H_T/2 := sum_i mT(i)/2, i=final state
    QES  H_T/2 := sum_i mT(i)/2, i=final state
  </scalesfunctionalform>
PYTHIA8   
  -->
  <header>
        7
  </header>
  <init>
   2212   2212 0.65000000D+04 0.65000000D+04 -1 -1  82200  82200 -4   1
 0.38210304D-05 0.62451622D-07 0.76201984D-06     66
  </init>
  <event>
  7     66 0.76201984E-06 0.28895873E+02 0.78161638E-02 0.12360930E+00
       22 -1    0    0    0    0 0.00000000E+00 0.00000000E+00 0.66691932E+03 0.66691932E+03 0.00000000E+00 0.0000E+00 0.9000E+01
        2 -1    0    0  502    0 0.00000000E+00 0.00000000E+00 -.12160462E+02 0.12160462E+02 0.00000000E+00 0.0000E+00 0.9000E+01
       24  2    1    2    0    0 -.23095297E+02 -.18462327E+01 0.35822418E+03 0.36794260E+03 0.80748930E+02 0.0000E+00 0.0000E+00
  9900012  1    3    3    0    0 0.94805876E+00 -.18982470E+02 0.20259563E+03 0.20953811E+03 0.50000000E+02 0.0000E+00 0.9000E+01
      -13  1    3    3    0    0 -.24043356E+02 0.17136238E+02 0.15562855E+03 0.15840448E+03 0.00000000E+00 0.0000E+00 0.9000E+01
        1  1    1    2  501    0 -.12928483E+02 0.85111417E+01 0.25612751E+03 0.25659479E+03 0.00000000E+00 0.0000E+00 0.9000E+01
       21  1    1    2  502  501 0.36023780E+02 -.66649090E+01 0.40407171E+02 0.54542398E+02 0.00000000E+00 0.0000E+00 0.9000E+01
#aMCatNLO 2  0  0  2  5 0.20066650D+02 0.00000000D+00  -5  6  0 0.00000000D+00 0.00000000D+00 0.00000000D+00 0.00000000D+00 0.00000000D+00
  <mgrwgt>
 0.7137431112D-06    1    2    0
 0.530961741856648D+02 0.000000000000000D+00 0.000000000000000D+00 0.530961741856648D+02
 0.530961741856648D+02 0.000000000000000D+00 0.000000000000000D+00 -.530961741856648D+02
 0.617755358006385D+02 0.205227236341976D+02 -.226040604646152D+02 -.195982419773391D+02
 0.220214835914020D+02 -.155427713795842D+02 0.155635094238666D+02 -.107012701189107D+01
 0.223953289792891D+02 -.497995225461336D+01 0.704055104074855D+01 0.206683689892302D+02
 0.000000000000000D+00 0.000000000000000D+00 -.000000000000000D+00 -.000000000000000D+00
 0.604717396565815D+02 0.000000000000000D+00 0.000000000000000D+00 0.604717396565815D+02
 0.134113011477448D+03 0.000000000000000D+00 0.000000000000000D+00 -.134113011477448D+03
 0.569677460492973D+02 0.948058758478901D+00 -.189824704905701D+02 -.195982419773391D+02
 0.295445218063957D+02 -.240433556561501D+02 0.171362377941860D+02 -.107012701189107D+01
 0.258218257881689D+02 -.129284831620414D+02 0.851114172648932D+01 0.206683689892302D+02
 0.822506574901680D+02 0.360237800597126D+02 -.666490903010522D+01 -.736412718208668D+02
0.628060374149D-08 0.000000000000D+00 0.000000000000D+00 0.151601476497D-06 0.473535290605D-09  6 22 2 9900012 -13 1 21 2 0.10260297D+00 0.18708403D-02 0.45649828D+04 0.45649828D+04 0.45649828D+04 0.12463227D+01  1  2  1  1  6  2        2 0.713743111184D-06 0.100000000000D+01
  </mgrwgt>
  </event>
  <event>
  5     66 0.76201984E-06 0.15471699E+02 0.78161638E-02 0.11721664E+00
       22 -1    0    0    0    0 0.00000000E+00 0.00000000E+00 0.51608646E+03 0.51608646E+03 0.00000000E+00 0.0000E+00 0.9000E+01
        4 -1    0    0  501    0 0.00000000E+00 0.00000000E+00 -.21046882E+02 0.21046882E+02 0.00000000E+00 0.0000E+00 0.9000E+01
  9900012  1    1    2    0    0 -.13390137E+01 -.26198356E+02 0.12406842E+03 0.13631258E+03 0.50000000E+02 0.0000E+00 0.9000E+01
      -13  1    1    2    0    0 0.48110001E+02 0.59696075E+02 0.29904883E+03 0.30872058E+03 0.00000000E+00 0.0000E+00 0.9000E+01
        3  1    1    2  501    0 -.46770987E+02 -.33497719E+02 0.71922333E+02 0.92100187E+02 0.00000000E+00 0.0000E+00 0.9000E+01
#aMCatNLO 1  0  0  5  2 0.40992255D+00 0.00000000D+00  -5  6  0 0.00000000D+00 0.00000000D+00 0.00000000D+00 0.00000000D+00 0.00000000D+00
  <mgrwgt>
 0.5367650393D-05    7    2    0
 0.104220971933695D+03 0.000000000000000D+00 0.000000000000000D+00 0.104220971933695D+03
 0.104220971933695D+03 -.000000000000000D+00 -.000000000000000D+00 -.104220971933695D+03
 0.566069075963066D+02 -.133901374773541D+01 -.261983561482656D+02 -.402432167312748D+01
 0.853144520132534D+02 0.481100011959379D+02 0.596960750425238D+02 0.374214127441221D+02
 0.665205842578293D+02 -.467709874482025D+02 -.334977188942582D+02 -.333970910709946D+02
 0.000000000000000D+00 0.000000000000000D+00 -.000000000000000D+00 0.000000000000000D+00
 0.104220971933695D+03 0.000000000000000D+00 0.000000000000000D+00 0.104220971933695D+03
 0.104220971933695D+03 -.000000000000000D+00 -.000000000000000D+00 -.104220971933695D+03
 0.566084806541796D+02 -.134288873802976D+01 -.262011314442916D+02 -.402708863210825D+01
 0.853064032718021D+02 0.481041614053541D+02 0.596918925423447D+02 0.374172428082579D+02
 0.620901915869163D+02 -.435228255436161D+02 -.311009272529027D+02 -.315228151028678D+02
 0.443686835449127D+01 -.323844712370824D+01 -.238983384515046D+01 -.186733907328190D+01
0.681335300631D-08 0.000000000000D+00 0.000000000000D+00 0.545398578050D-09 0.000000000000D+00  6 22 4 9900012 -13 3 21 0 0.79397917D-01 0.32379819D-02 0.90880352D+04 0.90880352D+04 0.90880352D+04 0.12136589D+01  1  2  2  2  6  5        3 0.261058401745D-06 0.100000000000D+01
-.368484817211D-11 0.000000000000D+00 -.130825347706D-10 0.545398578050D-09 0.000000000000D+00  6 22 4 9900012 -13 3 21 2 0.79397917D-01 0.32379819D-02 0.90880352D+04 0.90880352D+04 0.90880352D+04 0.12136589D+01  1  2  3  2  6  5        3 -.207964723573D-09 0.100000000000D+01
-.362961789780D-09 0.000000000000D+00 0.000000000000D+00 0.545398578050D-09 0.000000000000D+00  6 22 4 9900012 -13 3 21 2 0.79397917D-01 0.32379819D-02 0.90880352D+04 0.90880352D+04 0.90880352D+04 0.12136589D+01  1  2 15  2  6  5        3 -.204847648407D-07 0.100000000000D+01
-.473152570243D-05 0.000000000000D+00 0.000000000000D+00 0.545398578050D-09 0.000000000000D+00  6 22 4 9900012 -13 3 21 2 0.79397917D-01 0.32379819D-02 0.90880352D+04 0.90880352D+04 0.90880352D+04 0.12136589D+01  1  2  4  2  6  5        3 -.267036900524D-03 0.100000000000D+01
-.520300721698D-05 0.000000000000D+00 0.000000000000D+00 0.545398578050D-09 0.000000000000D+00  6 22 4 9900012 -13 3 21 2 0.79397917D-01 0.32379819D-02 0.90880352D+04 0.90880352D+04 0.90880352D+04 0.12136589D+01  1  2  5  2  6  5        3 -.293646279871D-03 0.100000000000D+01
0.556158952673D-05 0.000000000000D+00 -.000000000000D+00 0.545398578050D-09 0.000000000000D+00  6 22 4 9900012 -13 3 21 2 0.79397917D-01 0.32379819D-02 0.90880352D+04 0.90880352D+04 0.90880352D+04 0.12136589D+01  1  2  6  2  6  5        3 0.313883876494D-03 0.100000000000D+01
0.446383365393D-05 0.000000000000D+00 0.000000000000D+00 0.545398578050D-09 0.191033611190D-07  6 22 4 9900012 -13 3 21 2 0.79397917D-01 0.32379819D-02 0.90864096D+04 0.90864096D+04 0.90864096D+04 0.12136670D+01  1  2 11  2  6  5        3 0.251926588622D-03 0.100000000000D+01
  </mgrwgt>
  </event>
  <event>
  7     66 0.76201984E-06 0.20783377E+02 0.78161638E-02 0.12815215E+00
       22 -1    0    0    0    0 0.00000000E+00 0.00000000E+00 0.67172723E+01 0.67172723E+01 0.00000000E+00 0.0000E+00 0.9000E+01
        2 -1    0    0  502    0 0.00000000E+00 0.00000000E+00 -.50031348E+03 0.50031348E+03 0.00000000E+00 0.0000E+00 0.9000E+01
       24  2    1    2    0    0 -.19006068E+02 0.87075656E+01 -.34730899E+03 0.35728653E+03 0.81197765E+02 0.0000E+00 0.0000E+00
  9900012  1    3    3    0    0 -.28138757E+02 -.11909082E+02 -.28651090E+03 0.29244164E+03 0.50000000E+02 0.0000E+00 0.9000E+01
      -13  1    3    3    0    0 0.91326896E+01 0.20616647E+02 -.60798095E+02 0.64844896E+02 0.00000000E+00 0.0000E+00 0.9000E+01
        1  1    1    2  501    0 -.30431224E+01 -.27595414E+01 -.43563571E+01 0.59877801E+01 0.00000000E+00 0.0000E+00 0.9000E+01
       21  1    1    2  502  501 0.22049190E+02 -.59480242E+01 -.14193086E+03 0.14375644E+03 0.00000000E+00 0.0000E+00 0.9000E+01
#aMCatNLO 2  0  0  2  5 0.25256149D+02 0.00000000D+00  -5  6  0 0.00000000D+00 0.00000000D+00 0.00000000D+00 0.00000000D+00 0.00000000D+00
  <mgrwgt>
 0.4022051946D-05    1    2    0
 0.440969430505657D+02 0.000000000000000D+00 0.000000000000000D+00 0.440969430505657D+02
 0.737979098039518D+02 0.000000000000000D+00 0.000000000000000D+00 -.737979098039518D+02
 0.559106514624067D+02 -.138650644576175D+02 -.157595754137822D+02 -.136160463172738D+02
 0.255646026059795D+02 0.152136889377471D+02 0.189762272721592D+02 0.787371410596594D+01
 0.671863203274514D+01 -.134862448012953D+01 -.321665185837697D+01 0.574233221130791D+01
 0.297009667533862D+02 0.000000000000000D+00 -.000000000000000D+00 -.297009667533862D+02
 0.527146049018566D+02 0.000000000000000D+00 0.000000000000000D+00 0.527146049018566D+02
 0.637535249151314D+02 0.000000000000000D+00 0.000000000000000D+00 -.637535249151314D+02
 0.601582297658701D+02 -.281387573791014D+02 -.119090815938568D+02 -.136160463172738D+02
 0.238840435241430D+02 0.913268959687862D+01 0.206166472048132D+02 0.787371410596594D+01
 0.706045621621502D+01 -.304312237071288D+01 -.275954144613408D+01 0.574233221130791D+01
 0.253654003107600D+02 0.220491901529356D+02 -.594802416482239D+01 -.110389200132748D+02
0.335849654481D-08 0.000000000000D+00 0.000000000000D+00 0.252558359866D-06 0.230317873210D-08  6 22 2 9900012 -13 1 21 2 0.10334265D-02 0.76971304D-01 0.29209336D+04 0.29209336D+04 0.29209336D+04 0.12690183D+01  1  2  1  1  6  2        2 0.402205194579D-05 0.100000000000D+01
  </mgrwgt>
  </event>
  <event>
  6     66 0.76201984E-06 0.21492822E+02 0.78161638E-02 0.12520767E+00
       22 -1    0    0    0    0 0.00000000E+00 0.00000000E+00 0.17611805E+02 0.17611805E+02 0.00000000E+00 0.0000E+00 0.9000E+01
        2 -1    0    0  501    0 0.00000000E+00 0.00000000E+00 -.16632131E+03 0.16632131E+03 0.00000000E+00 0.0000E+00 0.9000E+01
       24  2    1    2    0    0 0.17323346E+02 -.12721756E+02 -.13337591E+03 0.15753121E+03 0.81024735E+02 0.0000E+00 0.0000E+00
  9900012  1    3    3    0    0 0.31743976E+02 0.25790285E+01 -.11593982E+03 0.13021664E+03 0.50000000E+02 0.0000E+00 0.9000E+01
      -13  1    3    3    0    0 -.14420629E+02 -.15300784E+02 -.17436087E+02 0.27314569E+02 0.00000000E+00 0.0000E+00 0.9000E+01
        1  1    1    2  501    0 -.17323346E+02 0.12721756E+02 -.15333595E+02 0.26401904E+02 0.00000000E+00 0.0000E+00 0.9000E+01
#aMCatNLO 1  0  0  2  2 0.27167180D+02 0.00000000D+00  -5  6  0 0.00000000D+00 0.00000000D+00 0.00000000D+00 0.00000000D+00 0.00000000D+00
  <mgrwgt>
 0.3942177178D-05    7    2    0
 0.541222546758815D+02 0.000000000000000D+00 0.000000000000000D+00 0.541222546758815D+02
 0.541222546758815D+02 0.000000000000000D+00 0.000000000000000D+00 -.541222546758815D+02
 0.619874295536032D+02 0.317439755409831D+02 0.257902850033820D+01 -.181138083105358D+02
 0.224597245052773D+02 -.144206292910888D+02 -.153007840919783D+02 0.789751111886583D+01
 0.237973552928823D+02 -.173233462498943D+02 0.127217555916401D+02 0.102162971916699D+02
 0.000000000000000D+00 0.000000000000000D+00 -.000000000000000D+00 -.000000000000000D+00
 0.636482597597240D+02 0.000000000000000D+00 0.000000000000000D+00 0.636482597597240D+02
 0.676097286215234D+02 0.000000000000000D+00 0.000000000000000D+00 -.676097286215234D+02
 0.606627304137702D+02 0.262311503265557D+02 0.127977952120108D+02 -.181138083105358D+02
 0.216013277311023D+02 -.164010660048080D+02 -.116297769445424D+02 0.789751111886583D+01
 0.279381491262154D+02 -.196487308504410D+02 0.170321702744265D+02 0.102162971916699D+02
 0.210557811101594D+02 0.981864652869325D+01 -.182001885418948D+02 -.396146886179942D+01
0.540622096403D-08 0.000000000000D+00 0.000000000000D+00 0.404385656650D-07 0.000000000000D+00  6 22 2 9900012 -13 1 21 0 0.27095085D-02 0.25587893D-01 0.25908123D+04 0.25908123D+04 0.25908123D+04 0.12753390D+01  1  2  2  1  6  2        2 0.353553310641D-05 0.100000000000D+01
-.117382753573D-09 0.000000000000D+00 -.103806559963D-10 0.404385656650D-07 0.000000000000D+00  6 22 2 9900012 -13 1 21 2 0.27095085D-02 0.25587893D-01 0.25908123D+04 0.25908123D+04 0.25908123D+04 0.12753390D+01  1  2  3  1  6  2        2 -.124858085781D-06 0.100000000000D+01
-.109470203447D-09 0.000000000000D+00 0.000000000000D+00 0.404385656650D-07 0.000000000000D+00  6 22 2 9900012 -13 1 21 2 0.27095085D-02 0.25587893D-01 0.25908123D+04 0.25908123D+04 0.25908123D+04 0.12753390D+01  1  2 15  1  6  2        2 -.116441637604D-06 0.100000000000D+01
-.682990200341D-09 0.000000000000D+00 0.000000000000D+00 0.404385656650D-07 0.000000000000D+00  6 22 2 9900012 -13 1 21 2 0.27095085D-02 0.25587893D-01 0.25908123D+04 0.25908123D+04 0.25908123D+04 0.12753390D+01  1  2  4  1  6  2        2 -.726485334738D-06 0.100000000000D+01
-.371351610536D-08 0.000000000000D+00 -.163782144999D-08 0.404385656650D-07 0.000000000000D+00  6 22 2 9900012 -13 1 21 2 0.27095085D-02 0.37159844D-01 0.25908123D+04 0.25908123D+04 0.25908123D+04 0.12753390D+01  1  2  5  1  6  2        2 -.264867681966D-05 0.100000000000D+01
0.414076700303D-08 0.000000000000D+00 0.153007859632D-08 0.404385656650D-07 0.000000000000D+00  6 22 2 9900012 -13 1 21 2 0.27095085D-02 0.25587893D-01 0.25908123D+04 0.25908123D+04 0.25908123D+04 0.12753390D+01  1  2  6  1  6  2        2 0.440446510179D-05 0.100000000000D+01
-.117244557828D-09 0.000000000000D+00 -.741009500632D-10 0.404385656650D-07 0.000000000000D+00  6 22 21 9900012 -13 1 -2 2 0.27095085D-02 0.37159844D-01 0.25908123D+04 0.25908123D+04 0.25908123D+04 0.12753390D+01  1  2  5  3  6  2        2 -.381359151931D-06 0.100000000000D+01
  </mgrwgt>
  </event>
  <event>
  6     66 0.76201984E-06 0.17366144E+03 0.78161638E-02 0.96883723E-01
       22 -1    0    0    0    0 0.00000000E+00 0.00000000E+00 0.34578608E+03 0.34578608E+03 0.00000000E+00 0.0000E+00 0.9000E+01
        2 -1    0    0  501    0 0.00000000E+00 0.00000000E+00 -.37222835E+03 0.37222835E+03 0.00000000E+00 0.0000E+00 0.9000E+01
       24  2    1    2    0    0 0.35209569E+03 0.37066397E+02 -.12910278E+02 0.36371455E+03 0.82318288E+02 0.0000E+00 0.0000E+00
  9900012  1    3    3    0    0 0.18171103E+03 0.38573223E+02 0.45950465E+01 0.19242636E+03 0.50000000E+02 0.0000E+00 0.9000E+01
      -13  1    3    3    0    0 0.17038467E+03 -.15068262E+01 -.17505325E+02 0.17128818E+03 0.00000000E+00 0.0000E+00 0.9000E+01
        1  1    1    2  501    0 -.35209569E+03 -.37066397E+02 -.13531993E+02 0.35429989E+03 0.00000000E+00 0.0000E+00 0.9000E+01
#aMCatNLO 1  0  0  2  5 0.79750255D+02 0.00000000D+00  -5  6  0 0.00000000D+00 0.00000000D+00 0.00000000D+00 0.00000000D+00 0.00000000D+00
  <mgrwgt>
 0.2114395293D-05    9    2    0
 0.358763688453373D+03 0.000000000000000D+00 0.000000000000000D+00 0.358763688453373D+03
 0.358763688453373D+03 0.000000000000000D+00 0.000000000000000D+00 -.358763688453373D+03
 0.192726319758482D+03 0.181711027618246D+03 0.385732231497858D+02 0.116894493200740D+02
 0.170759349167176D+03 0.170384667367820D+03 -.150682622942221D+01 -.112049064551680D+02
 0.354041707981089D+03 -.352095694986066D+03 -.370663969203636D+02 -.484542864905985D+00
 0.000000000000000D+00 0.000000000000000D+00 0.000000000000000D+00 -.000000000000000D+00
 0.387251040698828D+03 0.000000000000000D+00 0.000000000000000D+00 0.387251040698828D+03
 0.390566516148909D+03 0.000000000000000D+00 0.000000000000000D+00 -.390566516148909D+03
 0.181558364214139D+03 0.172036764691648D+03 0.270212506212778D+02 0.116894493200740D+02
 0.162584626390153D+03 0.161768612790564D+03 -.117951992595716D+02 -.112049064551680D+02
 0.375713925786330D+03 -.370957935883288D+03 -.595896723702932D+02 -.484542864905985D+00
 0.579606404571149D+02 0.371525584010753D+02 0.443636210085870D+02 -.331547545008071D+01
0.272252431337D-06 0.000000000000D+00 0.000000000000D+00 0.201095248650D-07 0.000000000000D+00  6 22 2 9900012 -13 1 21 0 0.53197859D-01 0.57265901D-01 0.12845206D+06 0.12845206D+06 0.12845206D+06 0.11089015D+01  1  2  2  1  6  2        2 0.123938903680D-05 0.100000000000D+01
-.126060477091D-07 0.000000000000D+00 -.522760511023D-09 0.201095248650D-07 0.000000000000D+00  6 22 2 9900012 -13 1 21 2 0.53197859D-01 0.57265901D-01 0.12845206D+06 0.12845206D+06 0.12845206D+06 0.11089015D+01  1  2  3  1  6  2        2 -.705668616234D-07 0.100000000000D+01
-.792647895273D-08 0.000000000000D+00 0.000000000000D+00 0.201095248650D-07 0.000000000000D+00  6 22 2 9900012 -13 1 21 2 0.53197859D-01 0.57265901D-01 0.12845206D+06 0.12845206D+06 0.12845206D+06 0.11089015D+01  1  2 15  1  6  2        2 -.443713014838D-07 0.100000000000D+01
0.171875237976D-06 0.000000000000D+00 0.000000000000D+00 0.201095248650D-07 0.000000000000D+00  6 22 2 9900012 -13 1 21 2 0.53197859D-01 0.67292511D-01 0.15091635D+06 0.15091635D+06 0.15091635D+06 0.11033933D+01  1  2 12  1  6  2        2 0.801181476861D-06 0.100000000000D+01
-.713081206823D-07 0.000000000000D+00 0.000000000000D+00 0.201095248650D-07 0.000000000000D+00  6 22 2 9900012 -13 1 21 2 0.53197859D-01 0.57265901D-01 0.12845206D+06 0.12845206D+06 0.12845206D+06 0.11089015D+01  1  2  4  1  6  2        2 -.399172714632D-06 0.100000000000D+01
-.685548345436D-06 0.000000000000D+00 -.166573005652D-06 0.201095248650D-07 0.000000000000D+00  6 22 2 9900012 -13 1 21 2 0.53197859D-01 0.66664330D-01 0.12845206D+06 0.12845206D+06 0.12845206D+06 0.11089015D+01  1  2  5  1  6  2        2 -.324326520513D-05 0.100000000000D+01
0.704614983259D-06 0.000000000000D+00 0.164667982912D-06 0.201095248650D-07 0.000000000000D+00  6 22 2 9900012 -13 1 21 2 0.53197859D-01 0.57265901D-01 0.12845206D+06 0.12845206D+06 0.12845206D+06 0.11089015D+01  1  2  6  1  6  2        2 0.394433443129D-05 0.100000000000D+01
0.415735149188D-08 0.000000000000D+00 0.000000000000D+00 0.201095248650D-07 0.000000000000D+00  6 22 21 9900012 -13 1 -2 2 0.53197859D-01 0.67292511D-01 0.15091635D+06 0.15091635D+06 0.15091635D+06 0.11033933D+01  1  2 12  3  6  2        2 0.430793976202D-07 0.100000000000D+01
-.146200037685D-07 0.000000000000D+00 -.383988120139D-08 0.201095248650D-07 0.000000000000D+00  6 22 21 9900012 -13 1 -2 2 0.53197859D-01 0.66664330D-01 0.12845206D+06 0.12845206D+06 0.12845206D+06 0.11089015D+01  1  2  5  3  6  2        2 -.156212966770D-06 0.100000000000D+01
  </mgrwgt>
  </event>
  <event>
  6     66 0.76201984E-06 0.31621810E+02 0.78161638E-02 0.11198462E+00
       22 -1    0    0    0    0 0.00000000E+00 0.00000000E+00 0.10701100E+02 0.10701100E+02 0.00000000E+00 0.0000E+00 0.9000E+01
        2 -1    0    0  501    0 0.00000000E+00 0.00000000E+00 -.78815643E+03 0.78815643E+03 0.00000000E+00 0.0000E+00 0.9000E+01
       24  2    1    2    0    0 0.17054424E+02 0.26628659E+02 -.75649102E+03 0.76091756E+03 0.75610432E+02 0.0000E+00 0.0000E+00
  9900012  1    3    3    0    0 0.21849657E+02 0.49862849E+01 -.63963670E+03 0.64197926E+03 0.50000000E+02 0.0000E+00 0.9000E+01
      -13  1    3    3    0    0 -.47952331E+01 0.21642374E+02 -.11685432E+03 0.11893830E+03 0.00000000E+00 0.0000E+00 0.9000E+01
        1  1    1    2  501    0 -.17054424E+02 -.26628659E+02 -.20964316E+02 0.37939971E+02 0.00000000E+00 0.0000E+00 0.9000E+01
#aMCatNLO 1  0  0  2  5 0.14458807D+01 0.00000000D+00  -5  6  0 0.00000000D+00 0.00000000D+00 0.00000000D+00 0.00000000D+00 0.00000000D+00
  <mgrwgt>
 0.2345229893D-04    3    2    0
 0.918375768497518D+02 0.000000000000000D+00 0.000000000000000D+00 0.918375768497518D+02
 0.918375768497518D+02 0.000000000000000D+00 0.000000000000000D+00 -.918375768497518D+02
 0.847202717303410D+02 0.218496574674021D+02 0.498628494730768D+01 -.646162044153343D+02
 0.226799367091768D+02 -.479523312635361D+01 0.216423736324284D+02 -.479509457159670D+01
 0.762749452599857D+02 -.170544243410485D+02 -.266286585797360D+02 0.694112989869310D+02
 0.000000000000000D+00 0.000000000000000D+00 0.000000000000000D+00 0.000000000000000D+00
 0.162711966920621D+03 0.000000000000000D+00 0.000000000000000D+00 0.162711966920621D+03
 0.155284316447242D+03 0.000000000000000D+00 0.000000000000000D+00 -.155284316447242D+03
 0.849561895890386D+02 -.208047358428893D+02 -.104624683011229D+02 -.646162044153343D+02
 0.245242410675211D+02 -.166617321629305D+02 0.173445135220940D+02 -.479509457159670D+01
 0.102476493655687D+03 -.619901456603308D+02 -.429036731052466D+02 0.694112989869310D+02
 0.106039359055616D+03 0.994566136661506D+02 0.360216278842756D+02 0.742765047337890D+01
0.964950824658D-07 0.000000000000D+00 0.000000000000D+00 0.856245566529D-08 0.000000000000D+00  6 22 2 9900012 -13 1 21 0 0.16463230D-02 0.12125484D+00 0.29475143D+04 0.29475143D+04 0.29475143D+04 0.12685446D+01  1  2  2  1  6  2        2 0.237711387386D-04 0.100000000000D+01
-.562026692531D-08 0.000000000000D+00 -.185283262204D-09 0.856245566529D-08 0.000000000000D+00  6 22 2 9900012 -13 1 21 2 0.16463230D-02 0.12125484D+00 0.29475143D+04 0.29475143D+04 0.29475143D+04 0.12685446D+01  1  2  3  1  6  2        2 -.222799006348D-05 0.100000000000D+01
0.481597031471D-08 0.000000000000D+00 0.000000000000D+00 0.856245566529D-08 0.000000000000D+00  6 22 2 9900012 -13 1 21 2 0.16463230D-02 0.12125484D+00 0.29475143D+04 0.29475143D+04 0.29475143D+04 0.12685446D+01  1  2 15  1  6  2        2 0.190915025030D-05 0.100000000000D+01
  </mgrwgt>
  </event>
  <event>
  7     66 0.76201984E-06 0.30467597E+02 0.78161638E-02 0.12086405E+00
       22 -1    0    0    0    0 0.00000000E+00 0.00000000E+00 0.47210706E+02 0.47210706E+02 0.00000000E+00 0.0000E+00 0.9000E+01
        2 -1    0    0  502    0 0.00000000E+00 0.00000000E+00 -.31647488E+03 0.31647488E+03 0.00000000E+00 0.0000E+00 0.9000E+01
       24  2    1    2    0    0 -.54830753E+02 -.13747037E+02 -.43545885E+02 0.11241714E+03 0.86867585E+02 0.0000E+00 0.0000E+00
  9900012  1    3    3    0    0 -.14688028E+02 -.24469747E+02 -.41210876E+02 0.70801434E+02 0.50000000E+02 0.0000E+00 0.9000E+01
      -13  1    3    3    0    0 -.40142725E+02 0.10722710E+02 -.23350083E+01 0.41615708E+02 0.00000000E+00 0.0000E+00 0.9000E+01
        1  1    1    2  501    0 0.38627731E+02 0.69637114E+01 -.18649088E+02 0.43455533E+02 0.00000000E+00 0.0000E+00 0.9000E+01
       21  1    1    2  502  501 0.16203022E+02 0.67833256E+01 -.20706920E+03 0.20781291E+03 0.00000000E+00 0.0000E+00 0.9000E+01
#aMCatNLO 2  0  0  2  5 0.17670855D+02 0.00000000D+00  -5  6  0 0.00000000D+00 0.00000000D+00 0.00000000D+00 0.00000000D+00 0.00000000D+00
  <mgrwgt>
 0.3928722348D-05    2    2    0
 0.709216556143292D+02 0.000000000000000D+00 0.000000000000000D+00 0.709216556143292D+02
 0.709216556143292D+02 0.000000000000000D+00 0.000000000000000D+00 -.709216556143292D+02
 0.568861711946595D+02 -.807825649224875D+01 -.217025949462792D+02 -.141342002897682D+02
 0.406351781485905D+02 -.353061043870516D+02 0.127475409268814D+02 0.155626763924392D+02
 0.443219618854085D+02 0.433843608793004D+02 0.895505401939776D+01 -.142847610267107D+01
 0.000000000000000D+00 0.000000000000000D+00 0.000000000000000D+00 -.000000000000000D+00
 0.720307599583522D+02 0.000000000000000D+00 0.000000000000000D+00 0.720307599583522D+02
 0.207425302840521D+03 0.000000000000000D+00 0.000000000000000D+00 -.207425302840521D+03
 0.592813824716790D+02 -.146880276933282D+02 -.244697472893006D+02 -.141342002897682D+02
 0.443690412506921D+02 -.401427254884085D+02 0.107227102624341D+02 0.155626763924392D+02
 0.392763979987580D+02 0.386277312165380D+02 0.696371142738059D+01 -.142847610267107D+01
 0.136529241077744D+03 0.162030219651986D+02 0.678332559948593D+01 -.135394542882169D+03
-.458068876933D-07 0.000000000000D+00 0.000000000000D+00 0.342863897483D-08 0.000000000000D+00  6 22 2 9900012 -13 1 21 2 0.71513495D-02 0.49449854D-01 0.60791608D+04 0.60791608D+04 0.60791608D+04 0.12324052D+01  1  2 13  1  6  2        2 -.653082570663D-05 0.100000000000D+01
0.737433860938D-07 0.000000000000D+00 0.000000000000D+00 0.342863897483D-08 0.234261514975D-09  6 22 2 9900012 -13 1 21 2 0.72631855D-02 0.48688442D-01 0.60791608D+04 0.60791608D+04 0.60791608D+04 0.12324052D+01  1  2  1  1  6  2        2 0.104595480541D-04 0.100000000000D+01
  </mgrwgt>
  </event>
</LesHouchesEvents>
