<LesHouchesEvents version="3.0">
  <!--
  <scalesfunctionalform>
    muR  H_T/2 := sum_i mT(i)/2, i=final state
    muF1 H_T/2 := sum_i mT(i)/2, i=final state
    muF2 H_T/2 := sum_i mT(i)/2, i=final state
    QES  H_T/2 := sum_i mT(i)/2, i=final state
  </scalesfunctionalform>
PYTHIA8   
  -->
  <header>
       18
  </header>
  <init>
   2212   2212 0.65000000D+04 0.65000000D+04 -1 -1  82200  82200 -4   1
 0.10894166D-04 0.12140274D-06 0.84601887D-06     66
  </init>
  <event>
  6     66 0.84601887E-06 0.26415078E+02 0.78161638E-02 0.12711683E+00
       22 -1    0    0    0    0 0.00000000E+00 0.00000000E+00 0.27935604E+02 0.27935604E+02 0.00000000E+00 0.0000E+00 0.9000E+01
       -3 -1    0    0    0  501 0.00000000E+00 0.00000000E+00 -.10976232E+03 0.10976232E+03 0.00000000E+00 0.0000E+00 0.9000E+01
       24  2    1    2    0    0 -.24179452E+01 0.26304180E+02 -.60367761E+02 0.10366495E+03 0.80027495E+02 0.0000E+00 0.0000E+00
  9900012  1    3    3    0    0 -.25592280E+02 0.23305854E+02 -.41380965E+02 0.73556182E+02 0.50000000E+02 0.0000E+00 0.9000E+01
      -13  1    3    3    0    0 0.23174335E+02 0.29983259E+01 -.18986796E+02 0.30108772E+02 0.00000000E+00 0.0000E+00 0.9000E+01
       -4  1    1    2    0  501 0.24179452E+01 -.26304180E+02 -.21458958E+02 0.34032973E+02 0.00000000E+00 0.0000E+00 0.9000E+01
#aMCatNLO 1  0  0  2  5 0.29375154D+01 0.00000000D+00  -5  6  0 0.00000000D+00 0.00000000D+00 0.00000000D+00 0.00000000D+00 0.00000000D+00
  <mgrwgt>
 0.4507579560D-05   11    4    0
 0.553739722949479D+02 0.000000000000000D+00 0.000000000000000D+00 0.553739722949479D+02
 0.553739722949479D+02 0.000000000000000D+00 0.000000000000000D+00 -.553739722949479D+02
 0.608811768805749D+02 -.255922801791491D+02 0.233058542513118D+02 0.289655851181927D+01
 0.234071012366641D+02 0.231743350179975D+02 0.299832594052117D+01 -.136111216710904D+01
 0.264596664726568D+02 0.241794516115160D+01 -.263041801918329D+02 -.153544634471023D+01
 0.000000000000000D+00 -.000000000000000D+00 -.000000000000000D+00 -.000000000000000D+00
 0.554559878108492D+02 0.000000000000000D+00 0.000000000000000D+00 0.554559878108492D+02
 0.897544284164617D+02 0.000000000000000D+00 0.000000000000000D+00 -.897544284164617D+02
 0.602982191265238D+02 -.239979488706241D+02 0.234858176059680D+02 0.289655851181927D+01
 0.240341231174659D+02 0.237985090260782D+02 0.306878083768262D+01 -.136111216710904D+01
 0.264544388277369D+02 0.311412468937820D+01 -.262255975266913D+02 -.153544634471023D+01
 0.344236351555844D+02 -.291468484483227D+01 -.329000916959274D+00 -.342984406056125D+02
 0.553739722949479D+02 0.000000000000000D+00 0.000000000000000D+00 0.553739722949479D+02
 0.553739722949479D+02 0.000000000000000D+00 0.000000000000000D+00 -.553739722949479D+02
 0.608811768805749D+02 -.255922801791491D+02 0.233058542513118D+02 0.289655851181927D+01
 0.234071012366641D+02 0.231743350179975D+02 0.299832594052117D+01 -.136111216710904D+01
 0.000000000000000D+00 -.000000000000000D+00 -.000000000000000D+00 -.000000000000000D+00
 0.264596664726568D+02 0.241794516115160D+01 -.263041801918329D+02 -.153544634471023D+01
 0.554559878108492D+02 0.000000000000000D+00 0.000000000000000D+00 0.554559878108492D+02
 0.897544284164617D+02 0.000000000000000D+00 0.000000000000000D+00 -.897544284164617D+02
 0.602982191265238D+02 -.239979488706241D+02 0.234858176059680D+02 0.289655851181927D+01
 0.240341231174659D+02 0.237985090260782D+02 0.306878083768262D+01 -.136111216710904D+01
 0.344236351555844D+02 -.291468484483227D+01 -.329000916959274D+00 -.342984406056125D+02
 0.264544388277369D+02 0.311412468937820D+01 -.262255975266913D+02 -.153544634471023D+01
0.938259824315D-08 0.000000000000D+00 0.000000000000D+00 0.149687967898D-06 0.000000000000D+00  6 22 -3 9900012 -13 -4 21 0 0.42977853D-02 0.16886511D-01 0.30578027D+04 0.30578027D+04 0.30578027D+04 0.12666299D+01  1  2  2  1  6  2       -3 0.246607718996D-05 0.100000000000D+01
-.511083808990D-10 0.000000000000D+00 -.180158238743D-10 0.149687967898D-06 0.000000000000D+00  6 22 -3 9900012 -13 -4 21 2 0.42977853D-02 0.16886511D-01 0.30578027D+04 0.30578027D+04 0.30578027D+04 0.12666299D+01  1  2  3  1  6  2       -3 -.215513837357D-07 0.100000000000D+01
-.203106158601D-09 0.000000000000D+00 0.000000000000D+00 0.149687967898D-06 0.000000000000D+00  6 22 -3 9900012 -13 -4 21 2 0.42977853D-02 0.16886511D-01 0.30578027D+04 0.30578027D+04 0.30578027D+04 0.12666299D+01  1  2 15  1  6  2       -3 -.856458116282D-07 0.100000000000D+01
0.645593496729D-08 0.000000000000D+00 0.000000000000D+00 0.149687967898D-06 0.000000000000D+00  6 22 -3 9900012 -13 -4 21 2 0.42977853D-02 0.27411507D-01 0.32243769D+04 0.32243769D+04 0.32243769D+04 0.12638818D+01  1  2 12  1  6  2       -3 0.117964111277D-05 0.100000000000D+01
-.412344786102D-06 0.000000000000D+00 0.000000000000D+00 0.149687967898D-06 0.000000000000D+00  6 22 -3 9900012 -13 -4 21 2 0.42977853D-02 0.16886511D-01 0.30578027D+04 0.30578027D+04 0.30578027D+04 0.12666299D+01  1  2  4  1  6  2       -3 -.173877562944D-03 0.100000000000D+01
-.462970833371D-06 0.000000000000D+00 -.271201799468D-08 0.149687967898D-06 0.000000000000D+00  6 22 -3 9900012 -13 -4 21 2 0.42977853D-02 0.27387066D-01 0.30578027D+04 0.30578027D+04 0.30578027D+04 0.12666299D+01  1  2  5  1  6  2       -3 -.845779233621D-04 0.100000000000D+01
0.415088784090D-06 0.000000000000D+00 0.242315596977D-08 0.149687967898D-06 0.000000000000D+00  6 22 -3 9900012 -13 -4 21 2 0.42977853D-02 0.16886511D-01 0.30578027D+04 0.30578027D+04 0.30578027D+04 0.12666299D+01  1  2  6  1  6  2       -3 0.175034652105D-03 0.100000000000D+01
0.456292647079D-06 0.000000000000D+00 0.000000000000D+00 0.149687967898D-06 0.166194717243D-06  6 22 -3 9900012 -13 -4 21 2 0.43041508D-02 0.27370967D-01 0.32243769D+04 0.32243769D+04 0.32243769D+04 0.12638818D+01  1  2 11  1  6  2       -3 0.834289356967D-04 0.100000000000D+01
0.355066303082D-09 0.000000000000D+00 0.000000000000D+00 0.149687967898D-06 0.000000000000D+00  6 22 21 9900012 -13 3 -4 2 0.42977853D-02 0.27411507D-01 0.32243769D+04 0.32243769D+04 0.32243769D+04 0.12638818D+01  3  4 12  3  5  2       -3 0.109627867368D-05 0.100000000000D+01
-.253083479389D-07 0.000000000000D+00 -.148942312466D-09 0.149687967898D-06 0.000000000000D+00  6 22 21 9900012 -13 3 -4 2 0.42977853D-02 0.27387066D-01 0.30578027D+04 0.30578027D+04 0.30578027D+04 0.12666299D+01  3  4  5  3  5  2       -3 -.782587155038D-04 0.100000000000D+01
0.252852682149D-07 0.000000000000D+00 0.000000000000D+00 0.149687967898D-06 0.919911454220D-08  6 22 21 9900012 -13 3 -4 2 0.43041508D-02 0.27370967D-01 0.32243769D+04 0.32243769D+04 0.32243769D+04 0.12638818D+01  3  4 11  3  5  2       -3 0.781233937867D-04 0.100000000000D+01
  </mgrwgt>
  </event>
  <event>
  6     66 0.84601887E-06 0.51713586E+02 0.78161638E-02 0.11881946E+00
       22 -1    0    0    0    0 0.00000000E+00 0.00000000E+00 0.44184726E+02 0.44184726E+02 0.00000000E+00 0.0000E+00 0.9000E+01
       -1 -1    0    0    0  501 0.00000000E+00 0.00000000E+00 -.17711125E+03 0.17711125E+03 0.00000000E+00 0.0000E+00 0.9000E+01
       24  2    1    2    0    0 -.68745485E+02 0.80134906E+01 -.63348786E+02 0.12315720E+03 0.79777625E+02 0.0000E+00 0.0000E+00
  9900012  1    3    3    0    0 -.41259713E+02 0.67965667E+01 -.69162586E+02 0.95036943E+02 0.50000000E+02 0.0000E+00 0.9000E+01
      -13  1    3    3    0    0 -.27485772E+02 0.12169240E+01 0.58138006E+01 0.28120256E+02 0.00000000E+00 0.0000E+00 0.9000E+01
       -2  1    1    2    0  501 0.68745485E+02 -.80134906E+01 -.69577737E+02 0.98138775E+02 0.00000000E+00 0.0000E+00 0.9000E+01
#aMCatNLO 1  0  0  2  5 0.13611786D+02 0.00000000D+00  -5  6  0 0.00000000D+00 0.00000000D+00 0.00000000D+00 0.00000000D+00 0.00000000D+00
  <mgrwgt>
 0.1120580928D-04    9    4    0
 0.884624891845582D+02 0.000000000000000D+00 0.000000000000000D+00 0.884624891845582D+02
 0.884624891845582D+02 0.000000000000000D+00 0.000000000000000D+00 -.884624891845582D+02
 0.669083076641356D+02 -.412597130319630D+02 0.679656667424456D+01 -.151051115997611D+02
 0.395405324233537D+02 -.274857715273117D+02 0.121692395870754D+01 0.283990345601647D+02
 0.704761382816271D+02 0.687454845592746D+02 -.801349063295211D+01 -.132939229604036D+02
 0.000000000000000D+00 0.000000000000000D+00 0.000000000000000D+00 -.000000000000000D+00
 0.923584244269633D+02 0.000000000000000D+00 0.000000000000000D+00 0.923584244269633D+02
 0.971943984360899D+02 0.000000000000000D+00 0.000000000000000D+00 -.971943984360899D+02
 0.696509114089710D+02 -.456022484173654D+02 0.659696922381720D+01 -.151051115997611D+02
 0.413670389188418D+02 -.300586039869961D+02 0.109866797372328D+01 0.283990345601647D+02
 0.662659670691976D+02 0.643971334542315D+02 -.821335539330551D+01 -.132939229604036D+02
 0.122689054660428D+02 0.112637189501300D+02 0.517718195765025D+00 -.483597400912667D+01
 0.884624891845582D+02 0.000000000000000D+00 0.000000000000000D+00 0.884624891845582D+02
 0.884624891845582D+02 0.000000000000000D+00 0.000000000000000D+00 -.884624891845582D+02
 0.669083076641356D+02 -.412597130319630D+02 0.679656667424456D+01 -.151051115997611D+02
 0.395405324233537D+02 -.274857715273117D+02 0.121692395870754D+01 0.283990345601647D+02
 0.000000000000000D+00 0.000000000000000D+00 0.000000000000000D+00 -.000000000000000D+00
 0.704761382816271D+02 0.687454845592746D+02 -.801349063295211D+01 -.132939229604036D+02
 0.923584244269633D+02 0.000000000000000D+00 0.000000000000000D+00 0.923584244269633D+02
 0.971943984360899D+02 0.000000000000000D+00 0.000000000000000D+00 -.971943984360899D+02
 0.696509114089710D+02 -.456022484173654D+02 0.659696922381720D+01 -.151051115997611D+02
 0.413670389188418D+02 -.300586039869961D+02 0.109866797372328D+01 0.283990345601647D+02
 0.122689054660428D+02 0.112637189501300D+02 0.517718195765025D+00 -.483597400912667D+01
 0.662659670691976D+02 0.643971334542315D+02 -.821335539330551D+01 -.132939229604036D+02
0.443090111123D-07 0.000000000000D+00 0.000000000000D+00 0.217548892177D-06 0.000000000000D+00  6 22 -1 9900012 -13 -2 21 0 0.67976501D-02 0.27247884D-01 0.65532765D+04 0.65532765D+04 0.65532765D+04 0.12288375D+01  1  2  2  1  6  2       -1 0.423803467960D-05 0.100000000000D+01
-.155403240910D-08 0.000000000000D+00 -.850791347510D-10 0.217548892177D-06 0.000000000000D+00  6 22 -1 9900012 -13 -2 21 2 0.67976501D-02 0.27247884D-01 0.65532765D+04 0.65532765D+04 0.65532765D+04 0.12288375D+01  1  2  3  1  6  2       -1 -.224450926406D-06 0.100000000000D+01
-.619001218822D-09 0.000000000000D+00 0.000000000000D+00 0.217548892177D-06 0.000000000000D+00  6 22 -1 9900012 -13 -2 21 2 0.67976501D-02 0.27247884D-01 0.65532765D+04 0.65532765D+04 0.65532765D+04 0.12288375D+01  1  2 15  1  6  2       -1 -.894031528539D-07 0.100000000000D+01
0.557256686343D-07 0.000000000000D+00 0.000000000000D+00 0.217548892177D-06 0.000000000000D+00  6 22 -1 9900012 -13 -2 21 2 0.67976501D-02 0.31255916D-01 0.75921906D+04 0.75921906D+04 0.75921906D+04 0.12219367D+01  1  2 12  1  6  2       -1 0.647662020879D-05 0.100000000000D+01
-.110943196132D-07 0.000000000000D+00 0.000000000000D+00 0.217548892177D-06 0.000000000000D+00  6 22 -1 9900012 -13 -2 21 2 0.67976501D-02 0.27247884D-01 0.65532765D+04 0.65532765D+04 0.65532765D+04 0.12288375D+01  1  2  4  1  6  2       -1 -.160236704230D-05 0.100000000000D+01
-.166178031024D-06 0.000000000000D+00 -.350564024562D-07 0.217548892177D-06 0.000000000000D+00  6 22 -1 9900012 -13 -2 21 2 0.67976501D-02 0.31138338D-01 0.65532765D+04 0.65532765D+04 0.65532765D+04 0.12288375D+01  1  2  5  1  6  2       -1 -.194053612343D-04 0.100000000000D+01
0.169653487458D-06 0.000000000000D+00 0.347464800402D-07 0.217548892177D-06 0.000000000000D+00  6 22 -1 9900012 -13 -2 21 2 0.67976501D-02 0.27247884D-01 0.65532765D+04 0.65532765D+04 0.65532765D+04 0.12288375D+01  1  2  6  1  6  2       -1 0.245032743235D-04 0.100000000000D+01
0.118215898724D-08 0.000000000000D+00 0.000000000000D+00 0.217548892177D-06 0.000000000000D+00  6 22 21 9900012 -13 1 -2 2 0.67976501D-02 0.31255916D-01 0.75921906D+04 0.75921906D+04 0.75921906D+04 0.12219367D+01  3  4 12  3  5  2       -1 0.151833583388D-05 0.100000000000D+01
-.324830917571D-08 0.000000000000D+00 -.726806441658D-09 0.217548892177D-06 0.000000000000D+00  6 22 21 9900012 -13 1 -2 2 0.67976501D-02 0.31138338D-01 0.65532765D+04 0.65532765D+04 0.65532765D+04 0.12288375D+01  3  4  5  3  5  2       -1 -.420887341200D-05 0.100000000000D+01
  </mgrwgt>
  </event>
  <event>
  6     66 0.84601887E-06 0.41925140E+02 0.78161638E-02 0.10974282E+00
       22 -1    0    0    0    0 0.00000000E+00 0.00000000E+00 0.18552278E+02 0.18552278E+02 0.00000000E+00 0.0000E+00 0.9000E+01
       -3 -1    0    0    0  501 0.00000000E+00 0.00000000E+00 -.15243600E+04 0.15243600E+04 0.00000000E+00 0.0000E+00 0.9000E+01
       24  2    1    2    0    0 -.70320453E+02 0.11036209E+03 -.12056282E+04 0.12154485E+04 0.81553977E+02 0.0000E+00 0.0000E+00
  9900012  1    3    3    0    0 -.64256328E+02 0.58780149E+02 -.70128659E+03 0.70843974E+03 0.50000000E+02 0.0000E+00 0.9000E+01
      -13  1    3    3    0    0 -.60641252E+01 0.51581937E+02 -.50434157E+03 0.50700877E+03 0.00000000E+00 0.0000E+00 0.9000E+01
       -4  1    1    2    0  501 0.70320453E+02 -.11036209E+03 -.30017960E+03 0.32746381E+03 0.00000000E+00 0.0000E+00 0.9000E+01
#aMCatNLO 1  0  0  2  5 0.18087104D+02 0.00000000D+00  -5  6  0 0.00000000D+00 0.00000000D+00 0.00000000D+00 0.00000000D+00 0.00000000D+00
  <mgrwgt>
 0.2272567259D-05    9    4    0
 0.168167630043503D+03 0.000000000000000D+00 0.000000000000000D+00 0.168167630043503D+03
 0.168167630043503D+03 0.000000000000000D+00 0.000000000000000D+00 -.168167630043503D+03
 0.110180564288558D+03 -.642563278435951D+02 0.587801486832659D+02 -.453406572490380D+02
 0.678745974667545D+02 -.606412518015070D+01 0.515819371075924D+02 -.436977245551962D+02
 0.158280098331692D+03 0.703204530237458D+02 -.110362085790858D+03 0.890383818042342D+02
 0.000000000000000D+00 -.000000000000000D+00 0.000000000000000D+00 -.000000000000000D+00
 0.171867633164413D+03 0.000000000000000D+00 0.000000000000000D+00 0.171867633164413D+03
 0.187936642266864D+03 0.000000000000000D+00 0.000000000000000D+00 -.187936642266864D+03
 0.106106529782581D+03 -.610771908305308D+02 0.545196957344592D+02 -.453406572490380D+02
 0.657449071603489D+02 -.410009346271677D+01 0.489498817140358D+02 -.436977245551962D+02
 0.164890407567432D+03 0.750706362061814D+02 -.116727942897304D+03 0.890383818042342D+02
 0.230624309209151D+02 -.989335191293385D+01 0.132583654488093D+02 -.160690091024509D+02
 0.168167630043503D+03 0.000000000000000D+00 0.000000000000000D+00 0.168167630043503D+03
 0.168167630043503D+03 0.000000000000000D+00 0.000000000000000D+00 -.168167630043503D+03
 0.110180564288558D+03 -.642563278435951D+02 0.587801486832659D+02 -.453406572490380D+02
 0.678745974667545D+02 -.606412518015070D+01 0.515819371075924D+02 -.436977245551962D+02
 0.000000000000000D+00 -.000000000000000D+00 0.000000000000000D+00 -.000000000000000D+00
 0.158280098331692D+03 0.703204530237458D+02 -.110362085790858D+03 0.890383818042342D+02
 0.171867633164413D+03 0.000000000000000D+00 0.000000000000000D+00 0.171867633164413D+03
 0.187936642266864D+03 0.000000000000000D+00 0.000000000000000D+00 -.187936642266864D+03
 0.106106529782581D+03 -.610771908305308D+02 0.545196957344592D+02 -.453406572490380D+02
 0.657449071603489D+02 -.410009346271677D+01 0.489498817140358D+02 -.436977245551962D+02
 0.230624309209151D+02 -.989335191293385D+01 0.132583654488093D+02 -.160690091024509D+02
 0.164890407567432D+03 0.750706362061814D+02 -.116727942897304D+03 0.890383818042342D+02
0.842875698090D-06 0.000000000000D+00 0.000000000000D+00 0.732286435818D-07 0.000000000000D+00  6 22 -3 9900012 -13 -4 21 0 0.28541967D-02 0.23451693D+00 0.20053080D+05 0.20053080D+05 0.20053080D+05 0.11792052D+01  1  2  2  1  6  2       -3 0.993950984540D-06 0.100000000000D+01
-.556745809487D-07 0.000000000000D+00 -.161843230747D-08 0.732286435818D-07 0.000000000000D+00  6 22 -3 9900012 -13 -4 21 2 0.28541967D-02 0.23451693D+00 0.20053080D+05 0.20053080D+05 0.20053080D+05 0.11792052D+01  1  2  3  1  6  2       -3 -.912929349521D-07 0.100000000000D+01
-.137991797070D-08 0.000000000000D+00 0.000000000000D+00 0.732286435818D-07 0.000000000000D+00  6 22 -3 9900012 -13 -4 21 2 0.28541967D-02 0.23451693D+00 0.20053080D+05 0.20053080D+05 0.20053080D+05 0.11792052D+01  1  2 15  1  6  2       -3 -.226273389744D-08 0.100000000000D+01
0.176688555500D-05 0.000000000000D+00 0.000000000000D+00 0.732286435818D-07 0.000000000000D+00  6 22 -3 9900012 -13 -4 21 2 0.28541967D-02 0.26785203D+00 0.22556951D+05 0.22556951D+05 0.22556951D+05 0.11743377D+01  1  2 12  1  6  2       -3 0.164176326058D-05 0.100000000000D+01
-.128390870101D-05 0.000000000000D+00 0.000000000000D+00 0.732286435818D-07 0.000000000000D+00  6 22 -3 9900012 -13 -4 21 2 0.28541967D-02 0.23451693D+00 0.20053080D+05 0.20053080D+05 0.20053080D+05 0.11792052D+01  1  2  4  1  6  2       -3 -.210530176480D-05 0.100000000000D+01
-.360747399388D-05 0.000000000000D+00 -.577361517188D-06 0.732286435818D-07 0.000000000000D+00  6 22 -3 9900012 -13 -4 21 2 0.28541967D-02 0.26450458D+00 0.20053080D+05 0.20053080D+05 0.20053080D+05 0.11792052D+01  1  2  5  1  6  2       -3 -.355952746272D-05 0.100000000000D+01
0.365461282149D-05 0.000000000000D+00 0.573206634914D-06 0.732286435818D-07 0.000000000000D+00  6 22 -3 9900012 -13 -4 21 2 0.28541967D-02 0.23451693D+00 0.20053080D+05 0.20053080D+05 0.20053080D+05 0.11792052D+01  1  2  6  1  6  2       -3 0.599268687616D-05 0.100000000000D+01
0.365055338765D-07 0.000000000000D+00 0.000000000000D+00 0.732286435818D-07 0.000000000000D+00  6 22 21 9900012 -13 3 -4 2 0.28541967D-02 0.26785203D+00 0.22556951D+05 0.22556951D+05 0.22556951D+05 0.11743377D+01  3  4 12  3  5  2       -3 0.656104636855D-06 0.100000000000D+01
-.659220809864D-07 0.000000000000D+00 -.109801009023D-07 0.732286435818D-07 0.000000000000D+00  6 22 21 9900012 -13 3 -4 2 0.28541967D-02 0.26450458D+00 0.20053080D+05 0.20053080D+05 0.20053080D+05 0.11792052D+01  3  4  5  3  5  2       -3 -.125355360289D-05 0.100000000000D+01
  </mgrwgt>
  </event>
  <event>
  7     66 0.84601887E-06 0.64929087E+02 0.78161638E-02 0.11352450E+00
       22 -1    0    0    0    0 0.00000000E+00 0.00000000E+00 0.65734085E+03 0.65734085E+03 0.00000000E+00 0.0000E+00 0.9000E+01
       21 -1    0    0  502  501 0.00000000E+00 0.00000000E+00 -.24599087E+03 0.24599087E+03 0.00000000E+00 0.0000E+00 0.9000E+01
       24  2    1    2    0    0 -.95840889E+02 -.49289856E+02 0.80697539E+01 0.13883052E+03 0.87142571E+02 0.0000E+00 0.0000E+00
  9900012  1    3    3    0    0 -.56960742E+02 -.17572202E+02 0.30887027E+02 0.83709718E+02 0.50000000E+02 0.0000E+00 0.9000E+01
      -13  1    3    3    0    0 -.38880147E+02 -.31717654E+02 -.22817273E+02 0.55120807E+02 0.00000000E+00 0.0000E+00 0.9000E+01
        3  1    1    2  502    0 0.94860225E+02 0.50362921E+02 -.16464295E+03 0.19657616E+03 0.00000000E+00 0.0000E+00 0.9000E+01
       -4  1    1    2    0  501 0.98066441E+00 -.10730650E+01 0.56792317E+03 0.56792503E+03 0.00000000E+00 0.0000E+00 0.9000E+01
#aMCatNLO 2  0  0  2  2 0.11511491D+03 0.00000000D+00  -5  6  0 0.00000000D+00 0.00000000D+00 0.00000000D+00 0.00000000D+00 0.00000000D+00
  <mgrwgt>
 0.4921706335D-02    1    2    0
 0.197611159381905D+03 0.000000000000000D+00 0.000000000000000D+00 0.197611159381905D+03
 0.197611159381905D+03 0.000000000000000D+00 0.000000000000000D+00 -.197611159381905D+03
 0.887685271909404D+02 -.345905964850870D+02 -.569550791234385D+01 -.644275037858448D+02
 0.118449665212187D+03 -.992391395828353D+01 -.163442929234780D+02 -.116896121447460D+03
 0.000000000000000D+00 0.000000000000000D+00 0.000000000000000D+00 -.000000000000000D+00
 0.188004126360683D+03 0.445145104433705D+02 0.220398008358219D+02 0.181323625233305D+03
 0.209875474600680D+03 0.000000000000000D+00 0.000000000000000D+00 0.209875474600680D+03
 0.770456132866330D+03 0.000000000000000D+00 0.000000000000000D+00 -.770456132866330D+03
 0.101015898139008D+03 -.569607421511769D+02 -.175722020914413D+02 -.644275037858448D+02
 0.127209978332175D+03 -.388801468041192D+02 -.317176537956890D+02 -.116896121447460D+03
 0.570776278785349D+03 0.948602245461891D+02 0.503629208996798D+02 -.560580658265650D+03
 0.181329452210479D+03 0.980664409106971D+00 -.107306501254951D+01 0.181323625233305D+03
0.393790301479D-03 0.000000000000D+00 0.000000000000D+00 0.632421801455D-07 0.922711627333D-08  6 22 21 9900012 -13 3 -4 2 0.10112936D+00 0.37844749D-01 0.14022552D+05 0.14022552D+05 0.14022552D+05 0.11943998D+01  1  2  1  3  5  2       -3 0.492170633529D-02 0.100000000000D+01
  </mgrwgt>
  </event>
  <event>
  7     66 0.84601887E-06 0.20074762E+02 0.78161638E-02 0.13066021E+00
       22 -1    0    0    0    0 0.00000000E+00 0.00000000E+00 0.43244836E+03 0.43244836E+03 0.00000000E+00 0.0000E+00 0.9000E+01
       21 -1    0    0  502  501 0.00000000E+00 0.00000000E+00 -.25067725E+02 0.25067725E+02 0.00000000E+00 0.0000E+00 0.9000E+01
       24  2    1    2    0    0 0.19741901E+02 -.57517580E+01 0.34568676E+03 0.35564156E+03 0.80986172E+02 0.0000E+00 0.0000E+00
  9900012  1    3    3    0    0 0.43055419E+01 0.12521577E+02 0.29613546E+03 0.30061859E+03 0.50000000E+02 0.0000E+00 0.9000E+01
      -13  1    3    3    0    0 0.15436359E+02 -.18273335E+02 0.49551301E+02 0.55022972E+02 0.00000000E+00 0.0000E+00 0.9000E+01
        1  1    1    2  502    0 -.19447143E+02 0.56062793E+01 -.14992630E+02 0.25187312E+02 0.00000000E+00 0.0000E+00 0.9000E+01
       -2  1    1    2    0  501 -.29475785E+00 0.14547869E+00 0.76686509E+02 0.76687214E+02 0.00000000E+00 0.0000E+00 0.9000E+01
#aMCatNLO 2  0  0  2  2 0.39959314D+02 0.00000000D+00  -5  6  0 0.00000000D+00 0.00000000D+00 0.00000000D+00 0.00000000D+00 0.00000000D+00
  <mgrwgt>
 0.1728452175D-01    1    2    0
 0.449982528491080D+02 0.000000000000000D+00 0.000000000000000D+00 0.449982528491080D+02
 0.240191473079442D+03 0.000000000000000D+00 0.000000000000000D+00 -.240191473079442D+03
 0.541447141278464D+02 -.712502946933006D+01 0.158168158239583D+02 0.114329506357007D+02
 0.272925093601011D+02 0.921670095665732D+01 -.164803140255331D+02 -.197061599573985D+02
 0.195193220230334D+03 -.000000000000000D+00 0.000000000000000D+00 -.195193220230334D+03
 0.855928221026848D+01 -.209167148732726D+01 0.663498201574780D+00 0.827320932169782D+01
 0.466722344078457D+02 0.000000000000000D+00 0.000000000000000D+00 0.466722344078457D+02
 0.232268643736479D+03 0.000000000000000D+00 0.000000000000000D+00 -.232268643736479D+03
 0.529720676427317D+02 0.430554188640642D+01 0.125215773436167D+02 0.114329506357007D+02
 0.309923976574753D+02 0.154363593296450D+02 -.182733352986966D+02 -.197061599573985D+02
 0.186696676210774D+03 -.194471433707411D+02 0.560627926405675D+01 -.185596409328634D+03
 0.827973663334416D+01 -.294757845310301D+00 0.145478691023064D+00 0.827320932169782D+01
0.128999318781D-04 0.000000000000D+00 0.000000000000D+00 0.478308547558D-05 0.202156739721D-05  6 22 21 9900012 -13 1 -2 2 0.66530517D-01 0.38565731D-02 0.23141875D+04 0.23141875D+04 0.23141875D+04 0.12813761D+01  1  2  1  3  5  2       -1 0.172845217493D-01 0.100000000000D+01
  </mgrwgt>
  </event>
  <event>
  7     66 0.84601887E-06 0.25227764E+02 0.78161638E-02 0.12807418E+00
       22 -1    0    0    0    0 0.00000000E+00 0.00000000E+00 0.37283187E+02 0.37283187E+02 0.00000000E+00 0.0000E+00 0.9000E+01
       21 -1    0    0  502  501 0.00000000E+00 0.00000000E+00 -.21741069E+03 0.21741069E+03 0.00000000E+00 0.0000E+00 0.9000E+01
       24  2    1    2    0    0 -.23863421E+02 -.82158392E+01 -.19791226E+03 0.21483248E+03 0.79666601E+02 0.0000E+00 0.0000E+00
  9900012  1    3    3    0    0 -.14648161E+02 0.18155929E+02 -.12040564E+03 0.13244518E+03 0.50000000E+02 0.0000E+00 0.9000E+01
      -13  1    3    3    0    0 -.92152598E+01 -.26371768E+02 -.77506623E+02 0.82387304E+02 0.00000000E+00 0.0000E+00 0.9000E+01
        3  1    1    2  502    0 0.23871270E+02 0.83178932E+01 0.34349830E+01 0.25511252E+02 0.00000000E+00 0.0000E+00 0.9000E+01
       -4  1    1    2    0  501 -.78489953E-02 -.10205402E+00 0.14349779E+02 0.14350144E+02 0.00000000E+00 0.0000E+00 0.9000E+01
#aMCatNLO 2  0  0  2  5 0.10346292D+02 0.00000000D+00  -5  6  0 0.00000000D+00 0.00000000D+00 0.00000000D+00 0.00000000D+00 0.00000000D+00
  <mgrwgt>
 0.5887823168D-02    1    2    0
 0.674360144105985D+02 0.000000000000000D+00 0.000000000000000D+00 0.674360144105985D+02
 0.674360144105985D+02 0.000000000000000D+00 0.000000000000000D+00 -.674360144105985D+02
 0.597123308841221D+02 -.413343215162791D+01 0.218197640898386D+02 -.239243619209909D+02
 0.312525331566301D+02 -.349759233245557D+01 -.243794592839640D+02 -.192387536395618D+02
 0.000000000000000D+00 0.000000000000000D+00 0.000000000000000D+00 0.000000000000000D+00
 0.439071647804448D+02 0.763102448408349D+01 0.255969519412540D+01 0.431631155605527D+02
 0.112143910153944D+03 0.000000000000000D+00 0.000000000000000D+00 0.112143910153944D+03
 0.722800133595388D+02 0.000000000000000D+00 0.000000000000000D+00 -.722800133595388D+02
 0.601380202480899D+02 -.146481610475936D+02 0.181559291680947D+02 -.239243619209909D+02
 0.339193281282602D+02 -.921525979510790D+01 -.263717683513544D+02 -.192387536395618D+02
 0.472033382158342D+02 0.238712698379849D+02 0.831789320715037D+01 0.398638967944052D+02
 0.431632369212985D+02 -.784899528338823D-02 -.102054023890670D+00 0.431631155605527D+02
0.407970864332D-05 0.000000000000D+00 0.000000000000D+00 0.248953355107D-05 0.218288857604D-05  6 22 21 9900012 -13 3 -4 2 0.57358749D-02 0.33447798D-01 0.29425800D+04 0.29425800D+04 0.29425800D+04 0.12686322D+01  1  2  1  3  5  2       -3 0.588782316845D-02 0.100000000000D+01
  </mgrwgt>
  </event>
  <event>
  7     66 -.84601887E-06 0.25903989E+02 0.78161638E-02 0.12484291E+00
       22 -1    0    0    0    0 0.00000000E+00 0.00000000E+00 0.47530070E+01 0.47530070E+01 0.00000000E+00 0.0000E+00 0.9000E+01
       -1 -1    0    0    0  502 0.00000000E+00 0.00000000E+00 -.11263579E+04 0.11263579E+04 0.00000000E+00 0.0000E+00 0.9000E+01
       24  2    1    2    0    0 0.17621659E+02 0.17633485E+02 -.43043448E+03 0.43847609E+03 0.79787092E+02 0.0000E+00 0.0000E+00
  9900012  1    3    3    0    0 -.10534289E+02 0.17087775E+02 -.24021142E+03 0.24617980E+03 0.50000000E+02 0.0000E+00 0.9000E+01
      -13  1    3    3    0    0 0.28155948E+02 0.54571069E+00 -.19022305E+03 0.19229630E+03 0.00000000E+00 0.0000E+00 0.9000E+01
       -2  1    1    2    0  501 -.29467070E+02 -.13096374E+02 -.51465222E+03 0.51566145E+03 0.00000000E+00 0.0000E+00 0.9000E+01
       21  1    1    2  501  502 0.11845411E+02 -.45371108E+01 -.17651822E+03 0.17697339E+03 0.00000000E+00 0.0000E+00 0.9000E+01
#aMCatNLO 2  0  0  2  5 0.14491252D+02 0.00000000D+00  -5  6  0 0.00000000D+00 0.00000000D+00 0.00000000D+00 0.00000000D+00 0.00000000D+00
  <mgrwgt>
 -.1468497345D-04    2    2    0
 0.652469947305051D+02 0.000000000000000D+00 0.000000000000000D+00 0.652469947305051D+02
 0.652469947305051D+02 0.000000000000000D+00 0.000000000000000D+00 -.652469947305051D+02
 0.587494544827391D+02 -.515653532186393D+01 0.150279502677560D+02 0.264399178562200D+02
 0.308893917623286D+02 0.308324067098602D+02 -.479444819854830D+00 0.181310578541230D+01
 0.408551432159424D+02 -.256758713879963D+02 -.145485054479011D+02 -.282530236416323D+02
 0.000000000000000D+00 0.000000000000000D+00 -.000000000000000D+00 -.000000000000000D+00
 0.688512868699433D+02 0.000000000000000D+00 0.000000000000000D+00 0.688512868699433D+02
 0.777558029937244D+02 0.000000000000000D+00 0.000000000000000D+00 -.777558029937244D+02
 0.600169354768087D+02 -.105342891702110D+02 0.170877745614263D+02 0.264399178562200D+02
 0.282195425109780D+02 0.281559483375190D+02 0.545710687781541D+00 0.181310578541230D+01
 0.428725622097027D+02 -.294670701456532D+02 -.130963744052067D+02 -.282530236416323D+02
 0.154980496661784D+02 0.118454109783452D+02 -.453711084400118D+01 -.890451612378106D+01
-.279246568346D-06 0.000000000000D+00 0.000000000000D+00 0.377537486504D-06 0.000000000000D+00  6 22 -1 9900012 -13 -2 21 2 0.69295263D-03 0.18285827D+00 0.40304267D+04 0.40304267D+04 0.40304267D+04 0.12525263D+01  1  2 13  1  6  2       -1 -.178141677356D-04 0.100000000000D+01
0.443597839030D-07 0.000000000000D+00 0.000000000000D+00 0.377537486504D-06 0.393652812404D-08  6 22 -1 9900012 -13 -2 21 2 0.73123185D-03 0.17328583D+00 0.40304267D+04 0.40304267D+04 0.40304267D+04 0.12525263D+01  1  2  1  1  6  2       -1 0.312919429044D-05 0.100000000000D+01
  </mgrwgt>
  </event>
  <event>
  7     66 0.84601887E-06 0.47079309E+02 0.78161638E-02 0.12317118E+00
       22 -1    0    0    0    0 0.00000000E+00 0.00000000E+00 0.36832675E+02 0.36832675E+02 0.00000000E+00 0.0000E+00 0.9000E+01
       21 -1    0    0  502  501 0.00000000E+00 0.00000000E+00 -.66616285E+03 0.66616285E+03 0.00000000E+00 0.0000E+00 0.9000E+01
       24  2    1    2    0    0 0.47217665E+02 -.93248918E+01 -.37708463E+03 0.38835350E+03 0.79430265E+02 0.0000E+00 0.0000E+00
  9900012  1    3    3    0    0 0.10449598E+02 -.10272213E+02 -.16277237E+03 0.17090804E+03 0.50000000E+02 0.0000E+00 0.9000E+01
      -13  1    3    3    0    0 0.36768067E+02 0.94732153E+00 -.21431225E+03 0.21744546E+03 0.00000000E+00 0.0000E+00 0.9000E+01
        1  1    1    2  502    0 -.47650952E+02 0.85372406E+01 -.28136982E+03 0.28550389E+03 0.00000000E+00 0.0000E+00 0.9000E+01
       -2  1    1    2    0  501 0.43328762E+00 0.78765125E+00 0.29124264E+02 0.29138134E+02 0.00000000E+00 0.0000E+00 0.9000E+01
#aMCatNLO 2  0  0  2  2 0.51503408D+02 0.00000000D+00  -5  6  0 0.00000000D+00 0.00000000D+00 0.00000000D+00 0.00000000D+00 0.00000000D+00
  <mgrwgt>
 0.5640300691D-03    1    2    0
 0.112782263764316D+03 0.000000000000000D+00 0.000000000000000D+00 0.112782263764316D+03
 0.112782263764316D+03 0.000000000000000D+00 0.000000000000000D+00 -.112782263764316D+03
 0.626371260220629D+02 -.275313142500280D+01 -.790678576240909D+01 -.367873967897678D+02
 0.641304196865417D+02 0.227325363523443D+02 0.346195542122388D+01 -.598661622690379D+02
 0.000000000000000D+00 -.000000000000000D+00 0.000000000000000D+00 -.000000000000000D+00
 0.987969818200265D+02 -.199794049273415D+02 0.444483034118521D+01 0.966535590588057D+02
 0.122208704287235D+03 0.000000000000000D+00 0.000000000000000D+00 0.122208704287235D+03
 0.200775875319084D+03 0.000000000000000D+00 0.000000000000000D+00 -.200775875319084D+03
 0.637810710673310D+02 0.104495979397482D+02 -.102722133362638D+02 -.367873967897678D+02
 0.702619779035821D+02 0.367680667974410D+02 0.947321529147913D+00 -.598661622690379D+02
 0.922837911036883D+02 -.476509523531938D+02 0.853724055857815D+01 -.785671710318489D+02
 0.966577395317186D+02 0.433287616004502D+00 0.787651248537777D+00 0.966535590588057D+02
0.420859157074D-05 0.000000000000D+00 0.000000000000D+00 0.327319503311D-05 0.264017279253D-06  6 22 21 9900012 -13 1 -2 2 0.56665653D-02 0.10248659D+00 0.47742447D+04 0.47742447D+04 0.47742447D+04 0.12441120D+01  1  2  1  3  5  2       -1 0.564030069083D-03 0.100000000000D+01
  </mgrwgt>
  </event>
  <event>
  6     66 0.84601887E-06 0.48618118E+02 0.78161638E-02 0.12128183E+00
       22 -1    0    0    0    0 0.00000000E+00 0.00000000E+00 0.12040264E+03 0.12040264E+03 0.00000000E+00 0.0000E+00 0.9000E+01
       -1 -1    0    0    0  501 0.00000000E+00 0.00000000E+00 -.45388250E+02 0.45388250E+02 0.00000000E+00 0.0000E+00 0.9000E+01
       24  2    1    2    0    0 -.47077491E+02 -.19432134E+02 0.58700325E+02 0.11231148E+03 0.81081708E+02 0.0000E+00 0.0000E+00
  9900012  1    3    3    0    0 -.19827421E+02 0.75349423E+01 0.48062338E+02 0.72525101E+02 0.50000000E+02 0.0000E+00 0.9000E+01
      -13  1    3    3    0    0 -.27250070E+02 -.26967076E+02 0.10637986E+02 0.39786383E+02 0.00000000E+00 0.0000E+00 0.9000E+01
       -2  1    1    2    0  501 0.47077491E+02 0.19432134E+02 0.16314064E+02 0.53479404E+02 0.00000000E+00 0.0000E+00 0.9000E+01
#aMCatNLO 1  0  0  2  5 0.11799490D+02 0.00000000D+00  -5  6  0 0.00000000D+00 0.00000000D+00 0.00000000D+00 0.00000000D+00 0.00000000D+00
  <mgrwgt>
 0.1011884104D-04    9    4    0
 0.739247256640565D+02 0.000000000000000D+00 0.000000000000000D+00 0.739247256640565D+02
 0.739247256640565D+02 0.000000000000000D+00 0.000000000000000D+00 -.739247256640565D+02
 0.569405838989028D+02 -.198274209909349D+02 0.753494226970433D+01 0.170976055805615D+02
 0.392170392804244D+02 -.272500703784968D+02 -.269670757906688D+02 -.825752127394452D+01
 0.516918281487858D+02 0.470774913694317D+02 0.194321335209645D+02 -.884008430661697D+01
 0.000000000000000D+00 0.000000000000000D+00 0.000000000000000D+00 -.000000000000000D+00
 0.780597601817406D+02 0.000000000000000D+00 0.000000000000000D+00 0.780597601817406D+02
 0.786902533790913D+02 0.000000000000000D+00 0.000000000000000D+00 -.786902533790913D+02
 0.580134895097430D+02 -.230294616365082D+02 0.654833912081568D+01 0.170976055805615D+02
 0.412664082228261D+02 -.294919332595550D+02 -.276578318498982D+02 -.825752127394452D+01
 0.488209809625853D+02 0.442777115040307D+02 0.185694737557867D+02 -.884008430661697D+01
 0.864913486567757D+01 0.824368339203244D+01 0.254001897329573D+01 -.630493197350668D+00
 0.739247256640565D+02 0.000000000000000D+00 0.000000000000000D+00 0.739247256640565D+02
 0.739247256640565D+02 0.000000000000000D+00 0.000000000000000D+00 -.739247256640565D+02
 0.569405838989028D+02 -.198274209909349D+02 0.753494226970433D+01 0.170976055805615D+02
 0.392170392804244D+02 -.272500703784968D+02 -.269670757906688D+02 -.825752127394452D+01
 0.000000000000000D+00 0.000000000000000D+00 0.000000000000000D+00 -.000000000000000D+00
 0.516918281487858D+02 0.470774913694317D+02 0.194321335209645D+02 -.884008430661697D+01
 0.780597601817406D+02 0.000000000000000D+00 0.000000000000000D+00 0.780597601817406D+02
 0.786902533790913D+02 0.000000000000000D+00 0.000000000000000D+00 -.786902533790913D+02
 0.580134895097430D+02 -.230294616365082D+02 0.654833912081568D+01 0.170976055805615D+02
 0.412664082228261D+02 -.294919332595550D+02 -.276578318498982D+02 -.825752127394452D+01
 0.864913486567757D+01 0.824368339203244D+01 0.254001897329573D+01 -.630493197350668D+00
 0.488209809625853D+02 0.442777115040307D+02 0.185694737557867D+02 -.884008430661697D+01
0.265483772298D-07 0.000000000000D+00 0.000000000000D+00 0.140855565980D-06 0.000000000000D+00  6 22 -1 9900012 -13 -2 21 0 0.18523483D-01 0.69828077D-02 0.51538873D+04 0.51538873D+04 0.51538873D+04 0.12403659D+01  1  2  2  1  6  2       -1 0.460847764038D-05 0.100000000000D+01
-.689302657405D-09 0.000000000000D+00 -.509763794554D-10 0.140855565980D-06 0.000000000000D+00  6 22 -1 9900012 -13 -2 21 2 0.18523483D-01 0.69828077D-02 0.51538873D+04 0.51538873D+04 0.51538873D+04 0.12403659D+01  1  2  3  1  6  2       -1 -.184089533472D-06 0.100000000000D+01
-.352566898169D-09 0.000000000000D+00 0.000000000000D+00 0.140855565980D-06 0.000000000000D+00  6 22 -1 9900012 -13 -2 21 2 0.18523483D-01 0.69828077D-02 0.51538873D+04 0.51538873D+04 0.51538873D+04 0.12403659D+01  1  2 15  1  6  2       -1 -.941587488522D-07 0.100000000000D+01
0.261773685133D-07 0.000000000000D+00 0.000000000000D+00 0.140855565980D-06 0.000000000000D+00  6 22 -1 9900012 -13 -2 21 2 0.18523483D-01 0.78487192D-02 0.58147233D+04 0.58147233D+04 0.58147233D+04 0.12345333D+01  1  2 12  1  6  2       -1 0.591806895233D-05 0.100000000000D+01
-.136757008347D-08 0.000000000000D+00 0.000000000000D+00 0.140855565980D-06 0.000000000000D+00  6 22 -1 9900012 -13 -2 21 2 0.18523483D-01 0.69828077D-02 0.51538873D+04 0.51538873D+04 0.51538873D+04 0.12403659D+01  1  2  4  1  6  2       -1 -.365231928169D-06 0.100000000000D+01
-.112735671666D-06 0.000000000000D+00 -.243934755525D-07 0.140855565980D-06 0.000000000000D+00  6 22 -1 9900012 -13 -2 21 2 0.18523483D-01 0.78422173D-02 0.51538873D+04 0.51538873D+04 0.51538873D+04 0.12403659D+01  1  2  5  1  6  2       -1 -.254316770771D-04 0.100000000000D+01
0.114955207728D-06 0.000000000000D+00 0.242300739790D-07 0.140855565980D-06 0.000000000000D+00  6 22 -1 9900012 -13 -2 21 2 0.18523483D-01 0.69828077D-02 0.51538873D+04 0.51538873D+04 0.51538873D+04 0.12403659D+01  1  2  6  1  6  2       -1 0.307006658592D-04 0.100000000000D+01
0.485847715857D-09 0.000000000000D+00 0.000000000000D+00 0.140855565980D-06 0.000000000000D+00  6 22 21 9900012 -13 1 -2 2 0.18523483D-01 0.78487192D-02 0.58147233D+04 0.58147233D+04 0.58147233D+04 0.12345333D+01  3  4 12  3  5  2       -1 0.164589698827D-05 0.100000000000D+01
-.197371167954D-08 0.000000000000D+00 -.450026106038D-09 0.140855565980D-06 0.000000000000D+00  6 22 21 9900012 -13 1 -2 2 0.18523483D-01 0.78422173D-02 0.51538873D+04 0.51538873D+04 0.51538873D+04 0.12403659D+01  3  4  5  3  5  2       -1 -.667911110926D-05 0.100000000000D+01
  </mgrwgt>
  </event>
  <event>
  6     66 0.84601887E-06 0.33615761E+02 0.78161638E-02 0.12492641E+00
       22 -1    0    0    0    0 0.00000000E+00 0.00000000E+00 0.15499957E+02 0.15499957E+02 0.00000000E+00 0.0000E+00 0.9000E+01
       -1 -1    0    0    0  501 0.00000000E+00 0.00000000E+00 -.56028529E+03 0.56028529E+03 0.00000000E+00 0.0000E+00 0.9000E+01
       24  2    1    2    0    0 0.29693939E+02 0.15757200E+02 -.10514853E+03 0.13486514E+03 0.77474990E+02 0.0000E+00 0.0000E+00
  9900012  1    3    3    0    0 0.31664338E+02 -.72956695E+01 -.86928212E+02 0.10541523E+03 0.50000000E+02 0.0000E+00 0.9000E+01
      -13  1    3    3    0    0 -.19703984E+01 0.23052870E+02 -.18220319E+02 0.29449912E+02 0.00000000E+00 0.0000E+00 0.9000E+01
       -2  1    1    2    0  501 -.29693939E+02 -.15757200E+02 -.43963680E+03 0.44092010E+03 0.00000000E+00 0.0000E+00 0.9000E+01
#aMCatNLO 1  0  0  2  5 0.38558478D+02 0.00000000D+00  -5  6  0 0.00000000D+00 0.00000000D+00 0.00000000D+00 0.00000000D+00 0.00000000D+00
  <mgrwgt>
 0.3013096551D-04    4    2    0
 0.931901165113567D+02 0.000000000000000D+00 0.000000000000000D+00 0.931901165113567D+02
 0.931901165113567D+02 0.000000000000000D+00 0.000000000000000D+00 -.931901165113567D+02
 0.715704673698440D+02 0.316643379127684D+02 -.729566954574663D+01 0.395787153652464D+02
 0.377221455488908D+02 -.197039842035028D+01 0.230528700175547D+02 0.297933378262744D+02
 0.770876201039786D+02 -.296939394924181D+02 -.157572004718081D+02 -.693720531915208D+02
 0.000000000000000D+00 0.000000000000000D+00 0.000000000000000D+00 0.000000000000000D+00
 0.113855401004655D+03 0.000000000000000D+00 0.000000000000000D+00 0.113855401004655D+03
 0.943637928246658D+02 0.000000000000000D+00 0.000000000000000D+00 -.943637928246658D+02
 0.719600571999251D+02 0.315183311958135D+02 -.108797941563390D+02 0.395787153652464D+02
 0.366212746773403D+02 -.204602441521770D+01 0.211964281013342D+02 0.297933378262744D+02
 0.780318705895374D+02 -.298517351086452D+02 -.196307150837255D+02 -.693720531915208D+02
 0.216059913625180D+02 0.379428328049367D+00 0.931408113873033D+01 0.194916081799892D+02
0.573210784592D-06 0.000000000000D+00 0.000000000000D+00 0.234551107010D-06 0.000000000000D+00  6 22 -1 9900012 -13 -2 21 0 0.23846087D-02 0.86197737D-01 0.33862910D+04 0.33862910D+04 0.33862910D+04 0.12613605D+01  1  2  2  1  6  2       -1 0.292475213977D-04 0.100000000000D+01
0.251711356738D-07 0.000000000000D+00 -.110064017135D-08 0.234551107010D-06 0.000000000000D+00  6 22 -1 9900012 -13 -2 21 2 0.23846087D-02 0.86197737D-01 0.33862910D+04 0.33862910D+04 0.33862910D+04 0.12613605D+01  1  2  3  1  6  2       -1 0.204341208816D-05 0.100000000000D+01
-.106446647859D-07 0.000000000000D+00 0.000000000000D+00 0.234551107010D-06 0.000000000000D+00  6 22 -1 9900012 -13 -2 21 2 0.23846087D-02 0.86197737D-01 0.33862910D+04 0.33862910D+04 0.33862910D+04 0.12613605D+01  1  2 15  1  6  2       -1 -.864142046658D-06 0.100000000000D+01
-.364403964657D-08 0.000000000000D+00 0.000000000000D+00 0.234551107010D-06 0.000000000000D+00  6 22 -1 9900012 -13 -2 21 2 0.23846087D-02 0.86197737D-01 0.33862910D+04 0.33862910D+04 0.33862910D+04 0.12613605D+01  1  2  4  1  6  2       -1 -.295825931735D-06 0.100000000000D+01
  </mgrwgt>
  </event>
  <event>
  7     66 0.84601887E-06 0.15918736E+02 0.78161638E-02 0.12541402E+00
       22 -1    0    0    0    0 0.00000000E+00 0.00000000E+00 0.48078632E+02 0.48078632E+02 0.00000000E+00 0.0000E+00 0.9000E+01
       -3 -1    0    0    0  502 0.00000000E+00 0.00000000E+00 -.11691552E+03 0.11691552E+03 0.00000000E+00 0.0000E+00 0.9000E+01
       24  2    1    2    0    0 0.82436884E+01 0.19478087E+02 -.78296526E+02 0.11324273E+03 0.79033007E+02 0.0000E+00 0.0000E+00
  9900012  1    3    3    0    0 0.54591371E+01 -.10763732E+02 -.48437898E+02 0.70653309E+02 0.50000000E+02 0.0000E+00 0.9000E+01
      -13  1    3    3    0    0 0.27845513E+01 0.30241819E+02 -.29858629E+02 0.42589424E+02 0.00000000E+00 0.0000E+00 0.9000E+01
       -4  1    1    2    0  501 0.85275555E+01 -.22948885E+02 0.20024530E+02 0.31628347E+02 0.00000000E+00 0.0000E+00 0.9000E+01
       21  1    1    2  501  502 -.16771244E+02 0.34707985E+01 -.10564889E+02 0.20123070E+02 0.00000000E+00 0.0000E+00 0.9000E+01
#aMCatNLO 2  0  0  2  2 0.22704261D+02 0.00000000D+00  -5  6  0 0.00000000D+00 0.00000000D+00 0.00000000D+00 0.00000000D+00 0.00000000D+00
  <mgrwgt>
 0.6850146738D-05    1    2    0
 0.657622288487484D+02 0.000000000000000D+00 0.000000000000000D+00 0.657622288487484D+02
 0.657622288487484D+02 0.000000000000000D+00 0.000000000000000D+00 -.657622288487484D+02
 0.553823443971641D+02 -.160548811748972D+01 -.930171209192138D+01 -.218656038331827D+02
 0.341253394998679D+02 -.150259739561314D+01 0.311290414608586D+02 -.139019342098891D+02
 0.420167738004648D+02 0.310808551310286D+01 -.218273293689372D+02 0.357675380430719D+02
 0.000000000000000D+00 -.000000000000000D+00 0.000000000000000D+00 -.000000000000000D+00
 0.736370642313097D+02 0.000000000000000D+00 0.000000000000000D+00 0.736370642313097D+02
 0.763357173419034D+02 0.000000000000000D+00 0.000000000000000D+00 -.763357173419034D+02
 0.558906497863728D+02 0.545913710136086D+01 -.107637319114617D+02 -.218656038331827D+02
 0.334003757234313D+02 0.278455128936421D+01 0.302418186921223D+02 -.139019342098891D+02
 0.433438267596884D+02 0.852755549176467D+01 -.229488853290560D+02 0.357675380430719D+02
 0.173379293037205D+02 -.167712438824897D+02 0.347079854839549D+01 -.269865311059374D+01
0.376394876712D-07 0.000000000000D+00 0.000000000000D+00 0.233370992836D-06 0.500939415066D-08  6 22 -3 9900012 -13 -4 21 2 0.73967126D-02 0.17987003D-01 0.38077778D+04 0.38077778D+04 0.38077778D+04 0.12553880D+01  1  2  1  1  6  2       -3 0.685014673770D-05 0.100000000000D+01
  </mgrwgt>
  </event>
  <event>
  6     66 0.84601887E-06 0.73951984E+02 0.78161638E-02 0.11102002E+00
       22 -1    0    0    0    0 0.00000000E+00 0.00000000E+00 0.46484242E+02 0.46484242E+02 0.00000000E+00 0.0000E+00 0.9000E+01
       -1 -1    0    0    0  501 0.00000000E+00 0.00000000E+00 -.36184120E+03 0.36184120E+03 0.00000000E+00 0.0000E+00 0.9000E+01
       24  2    1    2    0    0 -.11690566E+03 0.45742632E+01 -.16190145E+03 0.21535796E+03 0.80492951E+02 0.0000E+00 0.0000E+00
  9900012  1    3    3    0    0 -.46127874E+02 0.15583075E+02 -.70086890E+02 0.98907963E+02 0.50000000E+02 0.0000E+00 0.9000E+01
      -13  1    3    3    0    0 -.70777783E+02 -.11008812E+02 -.91814564E+02 0.11645000E+03 0.00000000E+00 0.0000E+00 0.9000E+01
       -2  1    1    2    0  501 0.11690566E+03 -.45742632E+01 -.15345551E+03 0.19296748E+03 0.00000000E+00 0.0000E+00 0.9000E+01
#aMCatNLO 1  0  0  2  5 0.23360949D+02 0.00000000D+00  -5  6  0 0.00000000D+00 0.00000000D+00 0.00000000D+00 0.00000000D+00 0.00000000D+00
  <mgrwgt>
 0.7470048385D-05    9    4    0
 0.129691611964994D+03 0.000000000000000D+00 0.000000000000000D+00 0.129691611964994D+03
 0.129691611964994D+03 0.000000000000000D+00 0.000000000000000D+00 -.129691611964994D+03
 0.704912569082083D+02 -.461278742018580D+02 0.155830752401384D+02 0.991989355672634D+01
 0.716898196692029D+02 -.707777828426225D+02 -.110088120251491D+02 -.295664639081842D+01
 0.117202147352577D+03 0.116905657044480D+03 -.457426321498926D+01 -.696324716590792D+01
 0.000000000000000D+00 0.000000000000000D+00 0.000000000000000D+00 -.000000000000000D+00
 0.137564733497086D+03 0.000000000000000D+00 0.000000000000000D+00 0.137564733497086D+03
 0.140284986092222D+03 0.000000000000000D+00 0.000000000000000D+00 -.140284986092222D+03
 0.734562351674278D+02 -.508841108152582D+02 0.144298809189892D+02 0.991989355672634D+01
 0.767149552302261D+02 -.756812946287757D+02 -.121977145977311D+02 -.295664639081842D+01
 0.109812379086484D+03 0.109404763580801D+03 -.639292541558067D+01 -.696324716590792D+01
 0.178661501051700D+02 0.171606418632328D+02 0.416075909432251D+01 -.272025259513574D+01
 0.129691611964994D+03 0.000000000000000D+00 0.000000000000000D+00 0.129691611964994D+03
 0.129691611964994D+03 0.000000000000000D+00 0.000000000000000D+00 -.129691611964994D+03
 0.704912569082083D+02 -.461278742018580D+02 0.155830752401384D+02 0.991989355672634D+01
 0.716898196692029D+02 -.707777828426225D+02 -.110088120251491D+02 -.295664639081842D+01
 0.000000000000000D+00 0.000000000000000D+00 0.000000000000000D+00 -.000000000000000D+00
 0.117202147352577D+03 0.116905657044480D+03 -.457426321498926D+01 -.696324716590792D+01
 0.137564733497086D+03 0.000000000000000D+00 0.000000000000000D+00 0.137564733497086D+03
 0.140284986092222D+03 0.000000000000000D+00 0.000000000000000D+00 -.140284986092222D+03
 0.734562351674278D+02 -.508841108152582D+02 0.144298809189892D+02 0.991989355672634D+01
 0.767149552302261D+02 -.756812946287757D+02 -.121977145977311D+02 -.295664639081842D+01
 0.178661501051700D+02 0.171606418632328D+02 0.416075909432251D+01 -.272025259513574D+01
 0.109812379086484D+03 0.109404763580801D+03 -.639292541558067D+01 -.696324716590792D+01
0.109073122287D-06 0.000000000000D+00 0.000000000000D+00 0.377271439338D-06 0.000000000000D+00  6 22 -1 9900012 -13 -2 21 0 0.71514219D-02 0.55667877D-01 0.16694412D+05 0.16694412D+05 0.16694412D+05 0.11869138D+01  1  2  2  1  6  2       -1 0.315808105148D-05 0.100000000000D+01
-.446101064936D-08 0.000000000000D+00 -.209434754598D-09 0.377271439338D-06 0.000000000000D+00  6 22 -1 9900012 -13 -2 21 2 0.71514219D-02 0.55667877D-01 0.16694412D+05 0.16694412D+05 0.16694412D+05 0.11869138D+01  1  2  3  1  6  2       -1 -.181960512316D-06 0.100000000000D+01
-.639217448531D-09 0.000000000000D+00 0.000000000000D+00 0.377271439338D-06 0.000000000000D+00  6 22 -1 9900012 -13 -2 21 2 0.71514219D-02 0.55667877D-01 0.16694412D+05 0.16694412D+05 0.16694412D+05 0.11869138D+01  1  2 15  1  6  2       -1 -.260730905076D-07 0.100000000000D+01
0.993442595274D-07 0.000000000000D+00 0.000000000000D+00 0.377271439338D-06 0.000000000000D+00  6 22 -1 9900012 -13 -2 21 2 0.71514219D-02 0.63870334D-01 0.19139412D+05 0.19139412D+05 0.19139412D+05 0.11811514D+01  1  2 12  1  6  2       -1 0.314710863284D-05 0.100000000000D+01
-.203378981666D-07 0.000000000000D+00 0.000000000000D+00 0.377271439338D-06 0.000000000000D+00  6 22 -1 9900012 -13 -2 21 2 0.71514219D-02 0.55667877D-01 0.16694412D+05 0.16694412D+05 0.16694412D+05 0.11869138D+01  1  2  4  1  6  2       -1 -.829564119147D-06 0.100000000000D+01
-.389927634026D-06 0.000000000000D+00 -.859117164017D-07 0.377271439338D-06 0.000000000000D+00  6 22 -1 9900012 -13 -2 21 2 0.71514219D-02 0.63386899D-01 0.16694412D+05 0.16694412D+05 0.16694412D+05 0.11869138D+01  1  2  5  1  6  2       -1 -.125484612209D-04 0.100000000000D+01
0.398438907169D-06 0.000000000000D+00 0.851924472173D-07 0.377271439338D-06 0.000000000000D+00  6 22 -1 9900012 -13 -2 21 2 0.71514219D-02 0.55667877D-01 0.16694412D+05 0.16694412D+05 0.16694412D+05 0.11869138D+01  1  2  6  1  6  2       -1 0.162519557504D-04 0.100000000000D+01
0.211024380412D-08 0.000000000000D+00 0.000000000000D+00 0.377271439338D-06 0.000000000000D+00  6 22 21 9900012 -13 1 -2 2 0.71514219D-02 0.63870334D-01 0.19139412D+05 0.19139412D+05 0.19139412D+05 0.11811514D+01  3  4 12  3  5  2       -1 0.576435220007D-06 0.100000000000D+01
-.744347047130D-08 0.000000000000D+00 -.174117036358D-08 0.377271439338D-06 0.000000000000D+00  6 22 21 9900012 -13 1 -2 2 0.71514219D-02 0.63386899D-01 0.16694412D+05 0.16694412D+05 0.16694412D+05 0.11869138D+01  3  4  5  3  5  2       -1 -.207747332649D-05 0.100000000000D+01
  </mgrwgt>
  </event>
  <event>
  6     66 0.84601887E-06 0.37025744E+02 0.78161638E-02 0.12559407E+00
       22 -1    0    0    0    0 0.00000000E+00 0.00000000E+00 0.59839077E+02 0.59839077E+02 0.00000000E+00 0.0000E+00 0.9000E+01
       -1 -1    0    0    0  501 0.00000000E+00 0.00000000E+00 -.12395319E+03 0.12395319E+03 0.00000000E+00 0.0000E+00 0.9000E+01
       24  2    1    2    0    0 0.27561958E+02 -.24723353E+02 -.10051845E+03 0.13186751E+03 0.76903672E+02 0.0000E+00 0.0000E+00
  9900012  1    3    3    0    0 0.11689275E+02 0.50078519E+01 -.63160651E+02 0.81553575E+02 0.50000000E+02 0.0000E+00 0.9000E+01
      -13  1    3    3    0    0 0.15872683E+02 -.29731205E+02 -.37357800E+02 0.50313933E+02 0.00000000E+00 0.0000E+00 0.9000E+01
       -2  1    1    2    0  501 -.27561958E+02 0.24723353E+02 0.36404333E+02 0.51924764E+02 0.00000000E+00 0.0000E+00 0.9000E+01
#aMCatNLO 1  0  0  2  5 0.23360949D+02 0.00000000D+00  -5  6  0 0.00000000D+00 0.00000000D+00 0.00000000D+00 0.00000000D+00 0.00000000D+00
  <mgrwgt>
 0.1045893226D-05    1    2    0
 0.861234275024647D+02 0.000000000000000D+00 0.000000000000000D+00 0.861234275024647D+02
 0.861234275024647D+02 0.000000000000000D+00 0.000000000000000D+00 -.861234275024647D+02
 0.635101718212274D+02 0.116892747784952D+02 0.500785193655781D+01 -.370381451870390D+02
 0.397809852195302D+02 0.158726834214624D+02 -.297312045949485D+02 -.211338633328558D+02
 0.689556979641717D+02 -.275619581999576D+02 0.247233526583907D+02 0.581720085198948D+02
 0.000000000000000D+00 0.000000000000000D+00 0.000000000000000D+00 0.000000000000000D+00
 0.246860273189602D+03 0.000000000000000D+00 0.000000000000000D+00 0.246860273189602D+03
 0.146045243158063D+03 0.000000000000000D+00 0.000000000000000D+00 -.146045243158063D+03
 0.713410210775329D+02 -.327878803722930D+02 -.119445380898981D+02 -.370381451870390D+02
 0.476825812639336D+02 -.129748968846815D+02 -.407264094593629D+02 -.211338633328558D+02
 0.102251037897226D+03 -.840300426868645D+02 0.320064085221649D+01 0.581720085198948D+02
 0.171630876108973D+03 0.129792819943839D+03 0.494703066970445D+02 0.100815030031539D+03
0.641533499800D-08 0.000000000000D+00 0.000000000000D+00 0.426902430736D-07 0.000000000000D+00  6 22 -1 9900012 -13 -2 21 2 0.92060118D-02 0.19069722D-01 0.37405761D+04 0.37405761D+04 0.37405761D+04 0.12562888D+01  1  2 14  1  6  2       -1 0.104589322629D-05 0.100000000000D+01
  </mgrwgt>
  </event>
  <event>
  7     66 0.84601887E-06 0.51828605E+02 0.78161638E-02 0.11924010E+00
       22 -1    0    0    0    0 0.00000000E+00 0.00000000E+00 0.33146425E+03 0.33146425E+03 0.00000000E+00 0.0000E+00 0.9000E+01
       21 -1    0    0  502  501 0.00000000E+00 0.00000000E+00 -.65397698E+02 0.65397698E+02 0.00000000E+00 0.0000E+00 0.9000E+01
       24  2    1    2    0    0 0.24668717E+01 -.66684230E+02 0.62368709E+02 0.12228597E+03 0.81308857E+02 0.0000E+00 0.0000E+00
  9900012  1    3    3    0    0 0.22553374E+02 -.50974923E+02 0.61286053E+02 0.96762997E+02 0.50000000E+02 0.0000E+00 0.9000E+01
      -13  1    3    3    0    0 -.20086502E+02 -.15709307E+02 0.10826563E+01 0.25522971E+02 0.00000000E+00 0.0000E+00 0.9000E+01
        3  1    1    2  502    0 -.32568074E+01 0.68150438E+02 -.25939118E+01 0.68277503E+02 0.00000000E+00 0.0000E+00 0.9000E+01
       -4  1    1    2    0  501 0.78993572E+00 -.14662084E+01 0.20629175E+03 0.20629847E+03 0.00000000E+00 0.0000E+00 0.9000E+01
#aMCatNLO 2  0  0  2  2 0.74204478D+02 0.00000000D+00  -5  6  0 0.00000000D+00 0.00000000D+00 0.00000000D+00 0.00000000D+00 0.00000000D+00
  <mgrwgt>
 0.7993414222D-03    1    2    0
 0.882244351186020D+02 0.000000000000000D+00 0.000000000000000D+00 0.882244351186020D+02
 0.882244351186020D+02 0.000000000000000D+00 0.000000000000000D+00 -.882244351186020D+02
 0.667743643249321D+02 0.212368037767570D+02 -.234249901186562D+02 -.309690770654720D+02
 0.401839119206797D+02 -.208256096214425D+02 -.243086860445677D+00 -.343654138622322D+02
 0.000000000000000D+00 -.000000000000000D+00 0.000000000000000D+00 -.000000000000000D+00
 0.694905939915923D+02 -.411194155314548D+00 0.236680769791019D+02 0.653344909277043D+02
 0.104993109196479D+03 0.000000000000000D+00 0.000000000000000D+00 0.104993109196479D+03
 0.206461156935747D+03 0.000000000000000D+00 0.000000000000000D+00 -.206461156935747D+03
 0.810319762191683D+02 0.225533738295031D+02 -.509749228994354D+02 -.309690770654720D+02
 0.427928913948772D+02 -.200865021250001D+02 -.157093066808699D+02 -.343654138622322D+02
 0.122273683616298D+03 -.325680742872517D+01 0.681504379916398D+02 -.101468047739268D+03
 0.653557149018825D+02 0.789935724222147D+00 -.146620841133442D+01 0.653344909277043D+02
0.171181782225D-05 0.000000000000D+00 0.000000000000D+00 0.351302121752D-06 0.170744905486D-07  6 22 21 9900012 -13 3 -4 2 0.50994500D-01 0.10061184D-01 0.72483281D+04 0.72483281D+04 0.72483281D+04 0.12240978D+01  1  2  1  3  5  2       -3 0.799341422237D-03 0.100000000000D+01
  </mgrwgt>
  </event>
  <event>
  7     66 0.84601887E-06 0.30371030E+02 0.78161638E-02 0.12690875E+00
       22 -1    0    0    0    0 0.00000000E+00 0.00000000E+00 0.17008768E+03 0.17008768E+03 0.00000000E+00 0.0000E+00 0.9000E+01
       21 -1    0    0  502  501 0.00000000E+00 0.00000000E+00 -.86766999E+02 0.86766999E+02 0.00000000E+00 0.0000E+00 0.9000E+01
       24  2    1    2    0    0 0.29240287E+02 0.80663345E+01 0.97084240E+01 0.85227959E+02 0.79053724E+02 0.0000E+00 0.0000E+00
  9900012  1    3    3    0    0 0.29459202E+02 -.15968103E+02 0.10874008E+02 0.61164278E+02 0.50000000E+02 0.0000E+00 0.9000E+01
      -13  1    3    3    0    0 -.21891421E+00 0.24034438E+02 -.11655842E+01 0.24063680E+02 0.00000000E+00 0.0000E+00 0.9000E+01
        3  1    1    2  502    0 -.29316444E+02 -.80809959E+01 -.44289769E+02 0.53724668E+02 0.00000000E+00 0.0000E+00 0.9000E+01
       -4  1    1    2    0  501 0.76156795E-01 0.14661396E-01 0.11790203E+03 0.11790206E+03 0.00000000E+00 0.0000E+00 0.9000E+01
#aMCatNLO 2  0  0  2  5 0.37657599D+02 0.00000000D+00  -5  6  0 0.00000000D+00 0.00000000D+00 0.00000000D+00 0.00000000D+00 0.00000000D+00
  <mgrwgt>
 0.1572078569D+00    1    2    0
 0.775445328063191D+02 0.000000000000000D+00 0.000000000000000D+00 0.775445328063191D+02
 0.775445328063191D+02 0.000000000000000D+00 0.000000000000000D+00 -.775445328063191D+02
 0.664267508470471D+02 0.167020361301509D+02 -.194845803484632D+02 -.354105400389078D+02
 0.312658538266578D+02 -.612990412096660D+01 0.224050900053926D+02 -.209282066319106D+02
 0.000000000000000D+00 -.000000000000000D+00 -.000000000000000D+00 -.000000000000000D+00
 0.573964609389332D+02 -.105721320091843D+02 -.292050965692940D+01 0.563387466708184D+02
 0.812753643070039D+02 0.000000000000000D+00 0.000000000000000D+00 0.812753643070039D+02
 0.181580211485669D+03 0.000000000000000D+00 0.000000000000000D+00 -.181580211485669D+03
 0.698335966702204D+02 0.294592015002388D+02 -.159681033632756D+02 -.354105400389078D+02
 0.318699224867779D+02 -.218914211761318D+00 0.240344378559844D+02 -.209282066319106D+02
 0.104813256584089D+03 -.293164440830647D+02 -.808099588858171D+01 -.100304847178665D+03
 0.563388000515856D+02 0.761567945872486D-01 0.146613958729072D-01 0.563387466708184D+02
0.187478423116D-03 0.000000000000D+00 0.000000000000D+00 0.116937216665D-05 0.318169997086D-04  6 22 21 9900012 -13 3 -4 2 0.26167336D-01 0.13348769D-01 0.32897511D+04 0.32897511D+04 0.32897511D+04 0.12628469D+01  1  2  1  3  5  2       -3 0.157207856930D+00 0.100000000000D+01
  </mgrwgt>
  </event>
  <event>
  7     66 0.84601887E-06 0.43903333E+02 0.78161638E-02 0.11940506E+00
       22 -1    0    0    0    0 0.00000000E+00 0.00000000E+00 0.34748479E+02 0.34748479E+02 0.00000000E+00 0.0000E+00 0.9000E+01
       21 -1    0    0  502  501 0.00000000E+00 0.00000000E+00 -.42045250E+03 0.42045250E+03 0.00000000E+00 0.0000E+00 0.9000E+01
       24  2    1    2    0    0 0.19352938E+02 -.60566202E+02 -.97099829E+02 0.13928999E+03 0.77009901E+02 0.0000E+00 0.0000E+00
  9900012  1    3    3    0    0 -.92745422E+00 -.58956568E+02 -.87605415E+02 0.11683940E+03 0.50000000E+02 0.0000E+00 0.9000E+01
      -13  1    3    3    0    0 0.20280393E+02 -.16096348E+01 -.94944136E+01 0.22450593E+02 0.00000000E+00 0.0000E+00 0.9000E+01
        3  1    1    2  502    0 -.13422464E+02 0.63192074E+02 -.29776184E+03 0.30468921E+03 0.00000000E+00 0.0000E+00 0.9000E+01
       -4  1    1    2    0  501 -.59304742E+01 -.26258721E+01 0.91576473E+01 0.11221775E+02 0.00000000E+00 0.0000E+00 0.9000E+01
#aMCatNLO 2  0  0  2  5 0.21925421D+02 0.00000000D+00  -5  6  0 0.00000000D+00 0.00000000D+00 0.00000000D+00 0.00000000D+00 0.00000000D+00
  <mgrwgt>
 0.1745670008D-03    1    2    0
 0.518328196471807D+02 0.000000000000000D+00 0.000000000000000D+00 0.518328196471807D+02
 0.518328196471807D+02 0.000000000000000D+00 0.000000000000000D+00 -.518328196471807D+02
 0.595024039217370D+02 -.927295279188198D+01 -.196665115662816D+02 -.238280662622544D+02
 0.209345168592922D+02 0.177979852306463D+02 0.100773748361737D+02 0.446455308770547D+01
 0.000000000000000D+00 -.000000000000000D+00 0.000000000000000D+00 -.000000000000000D+00
 0.232287185133321D+02 -.852503243876430D+01 0.958913673010787D+01 0.193635131745489D+02
 0.678354029495149D+02 0.000000000000000D+00 0.000000000000000D+00 0.678354029495149D+02
 0.215375513795225D+03 0.000000000000000D+00 0.000000000000000D+00 -.215375513795225D+03
 0.808981691155069D+02 -.927454223074387D+00 -.589565675146278D+02 -.238280662622544D+02
 0.208282855666723D+02 0.202803925338047D+02 -.160963475630570D+01 0.446455308770547D+01
 0.161063605792565D+03 -.134224641134533D+02 0.631920743421324D+02 -.147540110845710D+03
 0.204208562699952D+02 -.593047419727702D+01 -.262587207119893D+01 0.193635131745489D+02
0.423699234037D-06 0.000000000000D+00 0.000000000000D+00 0.165867498340D-07 0.103749563968D-09  6 22 21 9900012 -13 3 -4 2 0.53459198D-02 0.64685000D-01 0.71183984D+04 0.71183984D+04 0.71183984D+04 0.12249442D+01  1  2  1  3  5  2       -3 0.174567000817D-03 0.100000000000D+01
  </mgrwgt>
  </event>
  <event>
  7     66 0.84601887E-06 0.24784236E+02 0.78161638E-02 0.12781060E+00
       22 -1    0    0    0    0 0.00000000E+00 0.00000000E+00 0.59446786E+02 0.59446786E+02 0.00000000E+00 0.0000E+00 0.9000E+01
       -1 -1    0    0    0  502 0.00000000E+00 0.00000000E+00 -.80853705E+03 0.80853705E+03 0.00000000E+00 0.0000E+00 0.9000E+01
       24  2    1    2    0    0 -.19902120E+00 -.26161533E+02 -.26607373E+03 0.27958433E+03 0.81778384E+02 0.0000E+00 0.0000E+00
  9900012  1    3    3    0    0 0.15457022E+02 0.90502244E+00 -.13401084E+03 0.14387023E+03 0.50000000E+02 0.0000E+00 0.9000E+01
      -13  1    3    3    0    0 -.15656043E+02 -.27066555E+02 -.13206289E+03 0.13571410E+03 0.00000000E+00 0.0000E+00 0.9000E+01
       -2  1    1    2    0  501 -.38318677E+00 0.89651653E+00 0.52388901E+02 0.52397972E+02 0.00000000E+00 0.0000E+00 0.9000E+01
       21  1    1    2  501  502 0.58220797E+00 0.25265016E+02 -.53540543E+03 0.53600153E+03 0.00000000E+00 0.0000E+00 0.9000E+01
#aMCatNLO 2  0  0  2  5 0.31298052D+02 0.00000000D+00  -5  6  0 0.00000000D+00 0.00000000D+00 0.00000000D+00 0.00000000D+00 0.00000000D+00
  <mgrwgt>
 0.5293602685D-02    1    2    0
 0.126404494693954D+03 0.000000000000000D+00 0.000000000000000D+00 0.126404494693954D+03
 0.126404494693954D+03 0.000000000000000D+00 0.000000000000000D+00 -.126404494693954D+03
 0.757811355098814D+02 0.156305329980415D+02 0.843456563172764D+01 -.541047598642505D+02
 0.638501516725582D+02 -.155065955070945D+02 -.205812498055103D+02 -.584191708331368D+02
 0.113177702205469D+03 -.123937490946931D+00 0.121466841737827D+02 0.112523930697387D+03
 0.000000000000000D+00 0.000000000000000D+00 0.000000000000000D+00 -.000000000000000D+00
 0.127674608579011D+03 0.000000000000000D+00 0.000000000000000D+00 0.127674608579011D+03
 0.376464270782398D+03 0.000000000000000D+00 0.000000000000000D+00 -.376464270782398D+03
 0.752799019153349D+02 0.154570219249639D+02 0.905022444701707D+00 -.541047598642505D+02
 0.662609206802998D+02 -.156560431222309D+02 -.270665550509221D+02 -.584191708331368D+02
 0.112528154492910D+03 -.383186772317850D+00 0.896516529353145D+00 0.112523930697387D+03
 0.250069902272863D+03 0.582207969584855D+00 0.252650160768673D+02 -.248789662203387D+03
0.898895111328D-03 0.000000000000D+00 0.000000000000D+00 0.307155207840D-05 0.623435908776D-05  6 22 -1 9900012 -13 -2 21 2 0.91456593D-02 0.12439031D+00 0.30171712D+04 0.30171712D+04 0.30171712D+04 0.12673261D+01  1  2  1  1  6  2       -1 0.529360268503D-02 0.100000000000D+01
  </mgrwgt>
  </event>
  <event>
  5     66 0.84601887E-06 0.38566756E+02 0.78161638E-02 0.11587719E+00
       22 -1    0    0    0    0 0.00000000E+00 0.00000000E+00 0.10800449E+03 0.10800449E+03 0.00000000E+00 0.0000E+00 0.9000E+01
       -1 -1    0    0    0  501 0.00000000E+00 0.00000000E+00 -.88124005E+02 0.88124005E+02 0.00000000E+00 0.0000E+00 0.9000E+01
  9900012  1    1    2    0    0 -.32262248E+01 0.53812811E+02 0.34384968E+02 0.81169903E+02 0.50000000E+02 0.0000E+00 0.9000E+01
      -13  1    1    2    0    0 0.44523840E+02 -.21764640E+02 -.32964436E+02 0.59520802E+02 0.00000000E+00 0.0000E+00 0.9000E+01
       -2  1    1    2    0  501 -.41297615E+02 -.32048171E+02 0.18459949E+02 0.55437785E+02 0.00000000E+00 0.0000E+00 0.9000E+01
#aMCatNLO 1  0  0  2  5 0.32915359D+02 0.00000000D+00  -5  6  0 0.00000000D+00 0.00000000D+00 0.00000000D+00 0.00000000D+00 0.00000000D+00
  <mgrwgt>
 0.1453368204D-04    9    4    0
 0.975591503637941D+02 0.000000000000000D+00 0.000000000000000D+00 0.975591503637941D+02
 0.975591503637941D+02 0.000000000000000D+00 0.000000000000000D+00 -.975591503637941D+02
 0.780866829490706D+02 -.322622477099588D+01 0.538128111108581D+02 0.262926394274669D+02
 0.631876862156541D+02 0.445238401936273D+02 -.217646401675308D+02 -.391996400758758D+02
 0.538439315628635D+02 -.412976154226315D+02 -.320481709433273D+02 0.129070006484089D+02
 0.000000000000000D+00 -.000000000000000D+00 -.000000000000000D+00 -.000000000000000D+00
 0.106336240011208D+03 0.000000000000000D+00 0.000000000000000D+00 0.106336240011208D+03
 0.124433235759830D+03 0.000000000000000D+00 0.000000000000000D+00 -.124433235759830D+03
 0.861264800803443D+02 0.672140858912122D+00 0.650078142197762D+02 0.262926394274669D+02
 0.629916477471101D+02 0.475192954278525D+02 -.131625402509649D+02 -.391996400758758D+02
 0.480444316213115D+02 -.388788197195512D+02 -.251020740436221D+02 0.129070006484089D+02
 0.336069163222723D+02 -.931261656721340D+01 -.267431999251892D+02 -.180969957486217D+02
 0.975591503637941D+02 0.000000000000000D+00 0.000000000000000D+00 0.975591503637941D+02
 0.975591503637941D+02 0.000000000000000D+00 0.000000000000000D+00 -.975591503637941D+02
 0.780866829490706D+02 -.322622477099588D+01 0.538128111108581D+02 0.262926394274669D+02
 0.631876862156541D+02 0.445238401936273D+02 -.217646401675308D+02 -.391996400758758D+02
 0.000000000000000D+00 -.000000000000000D+00 -.000000000000000D+00 -.000000000000000D+00
 0.538439315628635D+02 -.412976154226315D+02 -.320481709433273D+02 0.129070006484089D+02
 0.106336240011208D+03 0.000000000000000D+00 0.000000000000000D+00 0.106336240011208D+03
 0.124433235759830D+03 0.000000000000000D+00 0.000000000000000D+00 -.124433235759830D+03
 0.861264800803443D+02 0.672140858912122D+00 0.650078142197762D+02 0.262926394274669D+02
 0.629916477471101D+02 0.475192954278525D+02 -.131625402509649D+02 -.391996400758758D+02
 0.336069163222723D+02 -.931261656721340D+01 -.267431999251892D+02 -.180969957486217D+02
 0.480444316213115D+02 -.388788197195512D+02 -.251020740436221D+02 0.129070006484089D+02
0.126123515334D-06 0.000000000000D+00 0.000000000000D+00 0.167600006844D-09 0.000000000000D+00  6 22 -1 9900012 -13 -2 21 0 0.16616075D-01 0.13557539D-01 0.76877729D+04 0.76877729D+04 0.76877729D+04 0.12213553D+01  1  2  2  1  6  2       -1 0.100459891909D-04 0.100000000000D+01
-.447996016713D-08 0.000000000000D+00 -.242173753983D-09 0.167600006844D-09 0.000000000000D+00  6 22 -1 9900012 -13 -2 21 2 0.16616075D-01 0.13557539D-01 0.76877729D+04 0.76877729D+04 0.76877729D+04 0.12213553D+01  1  2  3  1  6  2       -1 -.532298000761D-06 0.100000000000D+01
-.112566802977D-08 0.000000000000D+00 0.000000000000D+00 0.167600006844D-09 0.000000000000D+00  6 22 -1 9900012 -13 -2 21 2 0.16616075D-01 0.13557539D-01 0.76877729D+04 0.76877729D+04 0.76877729D+04 0.12213553D+01  1  2 15  1  6  2       -1 -.133749144951D-06 0.100000000000D+01
0.781352878902D-07 0.000000000000D+00 0.000000000000D+00 0.167600006844D-09 0.000000000000D+00  6 22 -1 9900012 -13 -2 21 2 0.16616075D-01 0.18847882D-01 0.10600775D+05 0.10600775D+05 0.10600775D+05 0.12067128D+01  1  2 12  1  6  2       -1 0.564617632694D-05 0.100000000000D+01
-.585288641277D-07 0.000000000000D+00 0.000000000000D+00 0.167600006844D-09 0.000000000000D+00  6 22 -1 9900012 -13 -2 21 2 0.16616075D-01 0.13557539D-01 0.76877729D+04 0.76877729D+04 0.76877729D+04 0.12213553D+01  1  2  4  1  6  2       -1 -.695425767189D-05 0.100000000000D+01
-.152919490517D-06 0.000000000000D+00 -.476352205148D-07 0.167600006844D-09 0.000000000000D+00  6 22 -1 9900012 -13 -2 21 2 0.16616075D-01 0.18752451D-01 0.76877729D+04 0.76877729D+04 0.76877729D+04 0.12213553D+01  1  2  5  1  6  2       -1 -.111078542731D-04 0.100000000000D+01
0.162165407376D-06 0.000000000000D+00 0.452344175774D-07 0.167600006844D-09 0.000000000000D+00  6 22 -1 9900012 -13 -2 21 2 0.16616075D-01 0.13557539D-01 0.76877729D+04 0.76877729D+04 0.76877729D+04 0.12213553D+01  1  2  6  1  6  2       -1 0.192681003666D-04 0.100000000000D+01
0.323136435824D-08 0.000000000000D+00 0.000000000000D+00 0.167600006844D-09 0.000000000000D+00  6 22 21 9900012 -13 1 -2 2 0.16616075D-01 0.18847882D-01 0.10600775D+05 0.10600775D+05 0.10600775D+05 0.12067128D+01  3  4 12  3  5  2       -1 0.292319399597D-05 0.100000000000D+01
-.505020020164D-08 0.000000000000D+00 -.194809319235D-08 0.167600006844D-09 0.000000000000D+00  6 22 21 9900012 -13 1 -2 2 0.16616075D-01 0.18752451D-01 0.76877729D+04 0.76877729D+04 0.76877729D+04 0.12213553D+01  3  4  5  3  5  2       -1 -.462161874918D-05 0.100000000000D+01
  </mgrwgt>
  </event>
</LesHouchesEvents>
