<LesHouchesEvents version="3.0">
  <!--
  <scalesfunctionalform>
    muR  H_T/2 := sum_i mT(i)/2, i=final state
    muF1 H_T/2 := sum_i mT(i)/2, i=final state
    muF2 H_T/2 := sum_i mT(i)/2, i=final state
    QES  H_T/2 := sum_i mT(i)/2, i=final state
  </scalesfunctionalform>
PYTHIA8   
  -->
  <header>
        7
  </header>
  <init>
   2212   2212 0.65000000D+04 0.65000000D+04 -1 -1  82200  82200 -4   1
 0.29307442D-05 0.68851141D-07 0.78658757D-06     66
  </init>
  <event>
  5     66 0.78658757E-06 0.25317483E+02 0.78161638E-02 0.11518173E+00
       -4 -1    0    0    0  501 0.00000000E+00 0.00000000E+00 0.18798533E+03 0.18798533E+03 0.00000000E+00 0.0000E+00 0.9000E+01
       22 -1    0    0    0    0 0.00000000E+00 0.00000000E+00 -.43279411E+02 0.43279411E+02 0.00000000E+00 0.0000E+00 0.9000E+01
  9900012  1    1    2    0    0 0.13948211E+02 -.92194313E+01 0.17569817E+03 0.18343772E+03 0.50000000E+02 0.0000E+00 0.9000E+01
       13  1    1    2    0    0 0.14081836E+01 -.10909058E+02 -.77187477E+01 0.13437619E+02 0.00000000E+00 0.0000E+00 0.9000E+01
       -3  1    1    2    0  501 -.15356394E+02 0.20128490E+02 -.23273504E+02 0.34389401E+02 0.00000000E+00 0.0000E+00 0.9000E+01
#aMCatNLO 1  0  0  1  1 0.11857914D+03 0.00000000D+00  -5  6  0 0.00000000D+00 0.00000000D+00 0.00000000D+00 0.00000000D+00 0.00000000D+00
  <mgrwgt>
 0.6335407902D-05    3    2    0
 0.901991933496840D+02 0.000000000000000D+00 0.000000000000000D+00 0.901991933496840D+02
 0.901991933496840D+02 0.000000000000000D+00 0.000000000000000D+00 -.901991933496840D+02
 0.942254108929361D+02 0.139482107073907D+02 -.921943130092093D+01 0.780953107586651D+02
 0.234181470726625D+02 0.140818356482392D+01 -.109090582987306D+02 -.206741161455456D+02
 0.627548287337695D+02 -.153563942722146D+02 0.201284895996515D+02 -.574211946131195D+02
 0.000000000000000D+00 0.000000000000000D+00 0.000000000000000D+00 -.000000000000000D+00
 0.125883454719047D+03 0.000000000000000D+00 0.000000000000000D+00 0.125883454719047D+03
 0.177087937490850D+03 0.000000000000000D+00 0.000000000000000D+00 -.177087937490850D+03
 0.101022579532641D+03 -.259424610983372D+02 -.305560587297754D+02 0.780953107586651D+02
 0.279866139605830D+02 -.909420597147550D+01 -.165265513743058D+02 -.206741161455456D+02
 0.718568725693568D+02 -.428586040833855D+02 0.541817318610647D+01 -.574211946131195D+02
 0.102105326147317D+03 0.778952711531982D+02 0.416644369179748D+02 -.512044827718031D+02
0.217433870438D-06 0.000000000000D+00 0.000000000000D+00 0.413479288854D-08 0.000000000000D+00  6 -4 22 9900012 13 -3 21 0 0.28920820D-01 0.66583710D-02 0.19819634D+04 0.19819634D+04 0.19819634D+04 0.12898085D+01  1  2  2  1  6  1       -4 0.841011687627D-05 0.100000000000D+01
-.102311983926D-07 0.000000000000D+00 -.417501657068D-09 0.413479288854D-08 0.000000000000D+00  6 -4 22 9900012 13 -3 21 2 0.28920820D-01 0.66583710D-02 0.19819634D+04 0.19819634D+04 0.19819634D+04 0.12898085D+01  1  2  3  1  6  1       -4 -.658342426251D-06 0.100000000000D+01
-.220115346919D-07 0.000000000000D+00 0.000000000000D+00 0.413479288854D-08 0.000000000000D+00  6 -4 22 9900012 13 -3 21 2 0.28920820D-01 0.66583710D-02 0.19819634D+04 0.19819634D+04 0.19819634D+04 0.12898085D+01  1  2 15  1  6  1       -4 -.141636654852D-05 0.100000000000D+01
  </mgrwgt>
  </event>
  <event>
  5     66 -.78658757E-06 0.67830094E+01 0.78161638E-02 0.13034338E+00
       -2 -1    0    0    0  501 0.00000000E+00 0.00000000E+00 0.20239426E+03 0.20239426E+03 0.00000000E+00 0.0000E+00 0.9000E+01
       22 -1    0    0    0    0 0.00000000E+00 0.00000000E+00 -.28211396E+02 0.28211396E+02 0.00000000E+00 0.0000E+00 0.9000E+01
  9900012  1    1    2    0    0 -.10680998E+02 -.30392569E+02 0.17877929E+03 0.18841397E+03 0.50000000E+02 0.0000E+00 0.9000E+01
       13  1    1    2    0    0 0.39352933E+01 0.31102980E+02 -.10639579E+02 0.33107138E+02 0.00000000E+00 0.0000E+00 0.9000E+01
       -1  1    1    2    0  501 0.67457048E+01 -.71041095E+00 0.60431595E+01 0.90845470E+01 0.00000000E+00 0.0000E+00 0.9000E+01
#aMCatNLO 1  0  0  5  1 0.23557321D+01 0.00000000D+00  -5  6  0 0.00000000D+00 0.00000000D+00 0.00000000D+00 0.00000000D+00 0.00000000D+00
  <mgrwgt>
 -.1536196965D-04    5    2    0
 0.755633810116117D+02 0.000000000000000D+00 0.000000000000000D+00 0.755633810116117D+02
 0.755633810116117D+02 -.000000000000000D+00 -.000000000000000D+00 -.755633810116117D+02
 0.814484433065125D+02 -.106809981137740D+02 -.303925693189252D+02 0.556422225161978D+02
 0.627812406004786D+02 0.393529330455091D+01 0.311029802673955D+02 -.543930349992381D+02
 0.689707811623223D+01 0.674570480922307D+01 -.710410948470329D+00 -.124918751695963D+01
 0.000000000000000D+00 0.000000000000000D+00 0.000000000000000D+00 0.000000000000000D+00
 0.755633810116117D+02 0.000000000000000D+00 0.000000000000000D+00 0.755633810116117D+02
 0.755633810116117D+02 -.000000000000000D+00 -.000000000000000D+00 -.755633810116117D+02
 0.812066050784400D+02 -.953657599308832D+01 -.305130919369762D+02 0.554302953910531D+02
 0.629387703511664D+02 0.481984477082571D+01 0.310098254282944D+02 -.545568385870068D+02
 0.474393313984625D+01 0.369715278541808D+01 -.987719605536916D+00 -.280363565704334D+01
 0.223745345377075D+01 0.101957843684451D+01 0.490986114218740D+00 0.193017885299698D+01
0.296153105923D-07 0.000000000000D+00 0.000000000000D+00 0.465775291240D-09 0.000000000000D+00  6 -2 22 9900012 13 -1 21 0 0.31137579D-01 0.43402147D-02 0.23820890D+04 0.23820890D+04 0.23820890D+04 0.12798216D+01  1  2  2  2  6  5       -1 0.349847575591D-05 0.100000000000D+01
0.383763472062D-08 0.000000000000D+00 -.568652952824D-10 0.465775291240D-09 0.000000000000D+00  6 -2 22 9900012 13 -1 21 2 0.31137579D-01 0.43402147D-02 0.23820890D+04 0.23820890D+04 0.23820890D+04 0.12798216D+01  1  2  3  2  6  5       -1 0.742548898645D-06 0.100000000000D+01
-.390378361216D-08 0.000000000000D+00 0.000000000000D+00 0.465775291240D-09 0.000000000000D+00  6 -2 22 9900012 13 -1 21 2 0.31137579D-01 0.43402147D-02 0.23820890D+04 0.23820890D+04 0.23820890D+04 0.12798216D+01  1  2 15  2  6  5       -1 -.755348133103D-06 0.100000000000D+01
0.463154424143D-11 0.000000000000D+00 0.000000000000D+00 0.465775291240D-09 0.000000000000D+00  6 -2 22 9900012 13 -1 21 2 0.31137579D-01 0.43402147D-02 0.22890014D+04 0.22890014D+04 0.22890014D+04 0.12819658D+01  1  2 12  2  6  5       -1 0.895495846030D-09 0.100000000000D+01
-.974128681289D-07 0.000000000000D+00 0.000000000000D+00 0.465775291240D-09 0.000000000000D+00  6 -2 22 9900012 13 -1 21 2 0.31137579D-01 0.43402147D-02 0.23820890D+04 0.23820890D+04 0.23820890D+04 0.12798216D+01  1  2  4  2  6  5       -1 -.188485416692D-04 0.100000000000D+01
  </mgrwgt>
  </event>
  <event>
  6     66 0.78658757E-06 0.52405766E+02 0.78161638E-02 0.11826803E+00
       -2 -1    0    0    0  502 0.00000000E+00 0.00000000E+00 0.10697531E+03 0.10697531E+03 0.00000000E+00 0.0000E+00 0.9000E+01
       22 -1    0    0    0    0 0.00000000E+00 0.00000000E+00 -.58597636E+03 0.58597636E+03 0.00000000E+00 0.0000E+00 0.9000E+01
  9900012  1    1    2    0    0 0.41277482E+02 0.49696927E+02 -.16472200E+03 0.18386667E+03 0.50000000E+02 0.0000E+00 0.9000E+01
       13  1    1    2    0    0 0.25766676E+01 -.80540223E+01 -.38992620E+03 0.39001788E+03 0.00000000E+00 0.0000E+00 0.9000E+01
       -1  1    1    2    0  501 -.26374468E+02 -.59171053E+02 0.41664707E+02 0.77024502E+02 0.00000000E+00 0.0000E+00 0.9000E+01
       21  1    1    2  501  502 -.17479682E+02 0.17528149E+02 0.33982447E+02 0.42042621E+02 0.00000000E+00 0.0000E+00 0.9000E+01
#aMCatNLO 2  0  0  1  5 0.56188262D+02 0.00000000D+00  -5  6  0 0.00000000D+00 0.00000000D+00 0.00000000D+00 0.00000000D+00 0.00000000D+00
  <mgrwgt>
 0.1913584242D-05    1    2    0
 0.199948591237538D+03 0.000000000000000D+00 0.000000000000000D+00 0.199948591237538D+03
 0.199948591237538D+03 0.000000000000000D+00 0.000000000000000D+00 -.199948591237538D+03
 0.883486872972699D+02 0.374312510241273D+02 0.535538224829086D+02 -.321928577698325D+02
 0.134170123908045D+03 -.328691132225705D+01 -.217418503959789D+01 -.134112233904567D+03
 0.177378371269761D+03 -.341443397018702D+02 -.513796374433107D+02 0.166305091674400D+03
 0.000000000000000D+00 -.000000000000000D+00 0.000000000000000D+00 0.000000000000000D+00
 0.310754650604518D+03 0.000000000000000D+00 0.000000000000000D+00 0.310754650604518D+03
 0.201718639802661D+03 0.000000000000000D+00 0.000000000000000D+00 -.201718639802661D+03
 0.878065780299800D+02 0.412774820929661D+02 0.496969267260177D+02 -.321928577698325D+02
 0.134378561434448D+03 0.257666757867024D+01 -.805402225645262D+01 -.134112233904567D+03
 0.178477476488103D+03 -.263744679632561D+02 -.591710531965234D+02 0.166305091674400D+03
 0.111810674454648D+03 -.174796817083802D+02 0.175281487269584D+02 0.109036010801857D+03
0.352347149857D-06 0.000000000000D+00 0.000000000000D+00 0.127328790401D-05 0.195645107997D-08  6 -2 22 9900012 13 -1 21 2 0.16457741D-01 0.90150209D-01 0.80717252D+04 0.80717252D+04 0.80717252D+04 0.12190980D+01  1  2  1  1  6  1       -2 0.191358424151D-05 0.100000000000D+01
  </mgrwgt>
  </event>
  <event>
  5     66 0.78658757E-06 0.52730862E+02 0.78161638E-02 0.11419573E+00
       -2 -1    0    0    0  501 0.00000000E+00 0.00000000E+00 0.33431441E+02 0.33431441E+02 0.00000000E+00 0.0000E+00 0.9000E+01
       22 -1    0    0    0    0 -.00000000E+00 -.00000000E+00 -.18730867E+04 0.18730867E+04 0.00000000E+00 0.0000E+00 0.9000E+01
  9900012  1    1    2    0    0 -.88914790E+02 -.71607653E+01 -.13943523E+04 0.13980970E+04 0.50000000E+02 0.0000E+00 0.9000E+01
       13  1    1    2    0    0 -.10057590E+02 0.10067278E+02 -.39875774E+03 0.39901158E+03 0.00000000E+00 0.0000E+00 0.9000E+01
       -1  1    1    2    0  501 0.98972380E+02 -.29065128E+01 -.46545244E+02 0.10940950E+03 0.00000000E+00 0.0000E+00 0.9000E+01
#aMCatNLO 1  0  0  5  1 0.24345103D+02 0.00000000D+00  -5  6  0 0.00000000D+00 0.00000000D+00 0.00000000D+00 0.00000000D+00 0.00000000D+00
  <mgrwgt>
 0.4649282452D-05    5    2    0
 0.250239859608859D+03 0.000000000000000D+00 0.000000000000000D+00 0.250239859608859D+03
 0.250239859608859D+03 -.000000000000000D+00 -.000000000000000D+00 -.250239859608859D+03
 0.200547402560637D+03 -.889147899873637D+02 -.716076531598598D+01 -.172517083894351D+03
 0.542400420295955D+02 -.100575900294289D+02 0.100672781590097D+02 -.523400129216772D+02
 0.245692274627485D+03 0.989723800167926D+02 -.290651284302373D+01 0.224857096816028D+03
 0.000000000000000D+00 0.000000000000000D+00 0.000000000000000D+00 0.000000000000000D+00
 0.250239859608859D+03 0.000000000000000D+00 0.000000000000000D+00 0.250239859608859D+03
 0.250239859608859D+03 -.000000000000000D+00 -.000000000000000D+00 -.250239859608859D+03
 0.191278221081618D+03 -.850404406417574D+02 -.727454297930431D+01 -.163714881241891D+03
 0.517475625765669D+02 -.900959065988495D+01 0.100365016572570D+02 -.499590446590094D+02
 0.243765128506329D+03 0.102792789592434D+03 -.105364769256905D+02 0.220780576449803D+03
 0.136888070532033D+02 -.874275829079116D+01 0.777451824773785D+01 -.710665054890289D+01
0.154160874784D-05 0.000000000000D+00 0.000000000000D+00 0.161545666056D-06 0.000000000000D+00  6 -2 22 9900012 13 -1 21 0 0.51432986D-02 0.28816718D+00 0.11610658D+05 0.11610658D+05 0.11610658D+05 0.12026657D+01  1  2  2  2  6  5       -1 0.223038090582D-05 0.100000000000D+01
0.123570651823D-07 0.000000000000D+00 -.296009175331D-08 0.161545666056D-06 0.000000000000D+00  6 -2 22 9900012 13 -1 21 2 0.51432986D-02 0.28816718D+00 0.11610658D+05 0.11610658D+05 0.11610658D+05 0.12026657D+01  1  2  3  2  6  5       -1 0.258589023521D-07 0.100000000000D+01
-.239937636692D-06 0.000000000000D+00 0.000000000000D+00 0.161545666056D-06 0.000000000000D+00  6 -2 22 9900012 13 -1 21 2 0.51432986D-02 0.28816718D+00 0.11610658D+05 0.11610658D+05 0.11610658D+05 0.12026657D+01  1  2 15  2  6  5       -1 -.502103357575D-06 0.100000000000D+01
0.142046372520D-05 0.000000000000D+00 0.000000000000D+00 0.161545666056D-06 0.000000000000D+00  6 -2 22 9900012 13 -1 21 2 0.51432986D-02 0.28816718D+00 0.12931809D+05 0.12931809D+05 0.12931809D+05 0.11979257D+01  1  2 12  2  6  5       -1 0.297197400284D-05 0.100000000000D+01
-.367134151828D-07 0.000000000000D+00 0.000000000000D+00 0.161545666056D-06 0.000000000000D+00  6 -2 22 9900012 13 -1 21 2 0.51432986D-02 0.28816718D+00 0.11610658D+05 0.11610658D+05 0.11610658D+05 0.12026657D+01  1  2  4  2  6  5       -1 -.768280011652D-07 0.100000000000D+01
  </mgrwgt>
  </event>
  <event>
  5     66 -.78658757E-06 0.36615402E+02 0.78161638E-02 0.12352493E+00
       -2 -1    0    0    0  501 0.00000000E+00 0.00000000E+00 0.42948805E+02 0.42948805E+02 0.00000000E+00 0.0000E+00 0.9000E+01
       22 -1    0    0    0    0 0.00000000E+00 0.00000000E+00 -.46752116E+03 0.46752116E+03 0.00000000E+00 0.0000E+00 0.9000E+01
  9900012  1    1    2    0    0 0.50213949E+02 0.21869951E+02 -.19116147E+03 0.20504254E+03 0.50000000E+02 0.0000E+00 0.9000E+01
       13  1    1    2    0    0 -.57548372E+00 0.50506793E+01 -.24723831E+03 0.24729056E+03 0.00000000E+00 0.0000E+00 0.9000E+01
       -1  1    1    2    0  501 -.49638465E+02 -.26920630E+02 0.13827422E+02 0.58136865E+02 0.00000000E+00 0.0000E+00 0.9000E+01
#aMCatNLO 1  0  0  1  5 0.47286153D+01 0.00000000D+00  -5  6  0 0.00000000D+00 0.00000000D+00 0.00000000D+00 0.00000000D+00 0.00000000D+00
  <mgrwgt>
 -.3642031846D-04    9    4    0
 0.141702063817634D+03 0.000000000000000D+00 0.000000000000000D+00 0.141702063817634D+03
 0.141702063817634D+03 0.000000000000000D+00 0.000000000000000D+00 -.141702063817634D+03
 0.829422717845547D+02 0.502139485416748D+02 0.218699507005537D+02 -.371441122789647D+02
 0.750301457397015D+02 -.575483721776095D+00 0.505067926258300D+01 -.748577466077715D+02
 0.125431710111011D+03 -.496384648198987D+02 -.269206299631367D+02 0.112001858886736D+03
 0.000000000000000D+00 0.000000000000000D+00 0.000000000000000D+00 0.000000000000000D+00
 0.202858972678383D+03 0.000000000000000D+00 0.000000000000000D+00 0.202858972678383D+03
 0.141812982818675D+03 0.000000000000000D+00 0.000000000000000D+00 -.141812982818675D+03
 0.825810315965220D+02 0.502003270082327D+02 0.204907020577610D+02 -.371441122789647D+02
 0.749564843770324D+02 -.587826684103865D+00 0.380089236369969D+01 -.748577466077715D+02
 0.125905973513639D+03 -.496591483405439D+02 -.290149402622966D+02 0.112001858886736D+03
 0.612284660098647D+02 0.466480164150846D-01 0.472334584083594D+01 0.610459898597080D+02
 0.141702063817634D+03 0.000000000000000D+00 0.000000000000000D+00 0.141702063817634D+03
 0.141702063817634D+03 0.000000000000000D+00 0.000000000000000D+00 -.141702063817634D+03
 0.829422717845547D+02 0.502139485416748D+02 0.218699507005537D+02 -.371441122789647D+02
 0.750301457397015D+02 -.575483721776095D+00 0.505067926258300D+01 -.748577466077715D+02
 0.000000000000000D+00 0.000000000000000D+00 0.000000000000000D+00 0.000000000000000D+00
 0.125431710111011D+03 -.496384648198987D+02 -.269206299631367D+02 0.112001858886736D+03
 0.202858972678383D+03 0.000000000000000D+00 0.000000000000000D+00 0.202858972678383D+03
 0.141812982818675D+03 0.000000000000000D+00 0.000000000000000D+00 -.141812982818675D+03
 0.825810315965220D+02 0.502003270082327D+02 0.204907020577610D+02 -.371441122789647D+02
 0.749564843770324D+02 -.587826684103865D+00 0.380089236369969D+01 -.748577466077715D+02
 0.612284660098647D+02 0.466480164150846D-01 0.472334584083594D+01 0.610459898597080D+02
 0.125905973513639D+03 -.496591483405439D+02 -.290149402622966D+02 0.112001858886736D+03
0.227610452264D-07 0.000000000000D+00 0.000000000000D+00 0.304058126083D-06 0.000000000000D+00  6 -2 22 9900012 13 -1 21 0 0.66075084D-02 0.71926332D-01 0.46044444D+04 0.46044444D+04 0.46044444D+04 0.12458973D+01  1  2  2  1  6  1       -2 0.479272195943D-06 0.100000000000D+01
0.102262369530D-09 0.000000000000D+00 -.437042033951D-10 0.304058126083D-06 0.000000000000D+00  6 -2 22 9900012 13 -1 21 2 0.66075084D-02 0.71926332D-01 0.46044444D+04 0.46044444D+04 0.46044444D+04 0.12458973D+01  1  2  3  1  6  1       -2 0.334249192344D-08 0.100000000000D+01
-.361459339087D-08 0.000000000000D+00 0.000000000000D+00 0.304058126083D-06 0.000000000000D+00  6 -2 22 9900012 13 -1 21 2 0.66075084D-02 0.71926332D-01 0.46044444D+04 0.46044444D+04 0.46044444D+04 0.12458973D+01  1  2 15  1  6  1       -2 -.118144624176D-06 0.100000000000D+01
0.649667488960D-06 0.000000000000D+00 0.000000000000D+00 0.304058126083D-06 0.000000000000D+00  6 -2 22 9900012 13 -1 21 2 0.94666340D-02 0.71926332D-01 0.48888024D+04 0.48888024D+04 0.48888024D+04 0.12429471D+01  1  2 12  1  6  1       -2 0.124482412439D-04 0.100000000000D+01
-.168986936635D-05 0.000000000000D+00 0.000000000000D+00 0.304058126083D-06 0.000000000000D+00  6 -2 22 9900012 13 -1 21 2 0.66075084D-02 0.71926332D-01 0.46044444D+04 0.46044444D+04 0.46044444D+04 0.12458973D+01  1  2  4  1  6  1       -2 -.552341465844D-04 0.100000000000D+01
-.221645559186D-05 0.000000000000D+00 -.945066979652D-08 0.304058126083D-06 0.000000000000D+00  6 -2 22 9900012 13 -1 21 2 0.94625917D-02 0.71926332D-01 0.46044444D+04 0.46044444D+04 0.46044444D+04 0.12458973D+01  1  2  5  1  6  1       -2 -.424761678454D-04 0.100000000000D+01
0.208454332409D-05 0.000000000000D+00 0.887231204960D-08 0.304058126083D-06 0.000000000000D+00  6 -2 22 9900012 13 -1 21 2 0.66075084D-02 0.71926332D-01 0.46044444D+04 0.46044444D+04 0.46044444D+04 0.12458973D+01  1  2  6  1  6  1       -2 0.681342438751D-04 0.100000000000D+01
0.286167165838D-07 0.000000000000D+00 0.000000000000D+00 0.304058126083D-06 0.000000000000D+00  6 21 22 9900012 13 2 -1 2 0.94666340D-02 0.71926332D-01 0.48888024D+04 0.48888024D+04 0.48888024D+04 0.12429471D+01  3  4 12  3  5  1       -2 0.818469162220D-05 0.100000000000D+01
-.972697110045D-07 0.000000000000D+00 -.415927972953D-09 0.304058126083D-06 0.000000000000D+00  6 21 22 9900012 13 2 -1 2 0.94625917D-02 0.71926332D-01 0.46044444D+04 0.46044444D+04 0.46044444D+04 0.12458973D+01  3  4  5  3  5  1       -2 -.278416508344D-04 0.100000000000D+01
  </mgrwgt>
  </event>
  <event>
  5     66 0.78658757E-06 0.43055457E+02 0.78161638E-02 0.11566761E+00
       -2 -1    0    0    0  501 0.00000000E+00 0.00000000E+00 0.13192984E+03 0.13192984E+03 0.00000000E+00 0.0000E+00 0.9000E+01
       22 -1    0    0    0    0 0.00000000E+00 0.00000000E+00 -.98743211E+02 0.98743211E+02 0.00000000E+00 0.0000E+00 0.9000E+01
  9900012  1    1    2    0    0 0.32605672E+02 -.10809476E+01 -.39439038E+02 0.71552330E+02 0.50000000E+02 0.0000E+00 0.9000E+01
       13  1    1    2    0    0 0.33966541E+01 -.22532711E+02 -.35812542E+02 0.42447597E+02 0.00000000E+00 0.0000E+00 0.9000E+01
       -1  1    1    2    0  501 -.36002326E+02 0.23613659E+02 0.10843821E+03 0.11667312E+03 0.00000000E+00 0.0000E+00 0.9000E+01
#aMCatNLO 1  0  0  1  5 0.15994197D+03 0.00000000D+00  -5  6  0 0.00000000D+00 0.00000000D+00 0.00000000D+00 0.00000000D+00 0.00000000D+00
  <mgrwgt>
 0.6977813957D-05    3    2    0
 0.114136653953181D+03 0.000000000000000D+00 0.000000000000000D+00 0.114136653953181D+03
 0.114136653953181D+03 0.000000000000000D+00 0.000000000000000D+00 -.114136653953181D+03
 0.780382210121821D+02 0.326056718001005D+02 -.108094760366744D+01 -.502560012086959D+02
 0.481002979606979D+02 0.339665411876243D+01 -.225327114307599D+02 -.423601029305114D+02
 0.102134788933481D+03 -.360023259188629D+02 0.236136590344273D+02 0.926161041392073D+02
 0.000000000000000D+00 -.000000000000000D+00 -.000000000000000D+00 -.000000000000000D+00
 0.134615216215119D+03 0.000000000000000D+00 0.000000000000000D+00 0.134615216215119D+03
 0.208445022463337D+03 0.000000000000000D+00 0.000000000000000D+00 -.208445022463337D+03
 0.915810855692609D+02 0.574960391257118D+02 0.745889143307992D+01 -.502560012086959D+02
 0.491693579136382D+02 0.176702501683109D+02 -.176354670010535D+02 -.423601029305114D+02
 0.987821103436356D+02 -.651927044764449D+01 0.337292408875173D+02 0.926161041392073D+02
 0.103527684851922D+03 -.686470188463782D+02 -.235526653195438D+02 -.738298062482178D+02
0.200435478913D-06 0.000000000000D+00 0.000000000000D+00 0.966011907855D-07 0.000000000000D+00  6 -2 22 9900012 13 -1 21 0 0.20296898D-01 0.15191263D-01 0.39403545D+04 0.39403545D+04 0.39403545D+04 0.12536621D+01  1  2  2  1  6  1       -2 0.873967872735D-05 0.100000000000D+01
0.607344307815D-08 0.000000000000D+00 -.384862507449D-09 0.966011907855D-07 0.000000000000D+00  6 -2 22 9900012 13 -1 21 2 0.20296898D-01 0.15191263D-01 0.39403545D+04 0.39403545D+04 0.39403545D+04 0.12536621D+01  1  2  3  1  6  1       -2 0.416214153183D-06 0.100000000000D+01
-.317827691912D-07 0.000000000000D+00 0.000000000000D+00 0.966011907855D-07 0.000000000000D+00  6 -2 22 9900012 13 -1 21 2 0.20296898D-01 0.15191263D-01 0.39403545D+04 0.39403545D+04 0.39403545D+04 0.12536621D+01  1  2 15  1  6  1       -2 -.217807892402D-05 0.100000000000D+01
  </mgrwgt>
  </event>
  <event>
  6     66 -.78658757E-06 0.78031711E+01 0.78161638E-02 0.13557993E+00
       -4 -1    0    0    0  501 0.00000000E+00 0.00000000E+00 0.47952102E+03 0.47952102E+03 0.00000000E+00 0.0000E+00 0.9000E+01
       22 -1    0    0    0    0 0.00000000E+00 0.00000000E+00 -.34091124E+02 0.34091124E+02 0.00000000E+00 0.0000E+00 0.9000E+01
  9900012  1    1    2    0    0 0.50875016E+01 -.22065651E+02 0.56239752E+02 0.78585528E+02 0.50000000E+02 0.0000E+00 0.9000E+01
       13  1    1    2    0    0 -.16372250E+01 0.52852884E+01 -.22308239E+02 0.22984175E+02 0.00000000E+00 0.0000E+00 0.9000E+01
       -3  1    1    2    0  502 -.14354926E+01 0.60538937E+01 0.28676360E+03 0.28683109E+03 0.00000000E+00 0.0000E+00 0.9000E+01
       21  1    1    2  502  501 -.20147840E+01 0.10726469E+02 0.12473479E+03 0.12521136E+03 0.00000000E+00 0.0000E+00 0.9000E+01
#aMCatNLO 2  0  0  5  1 0.57436549D+01 0.00000000D+00  -5  6  0 0.00000000D+00 0.00000000D+00 0.00000000D+00 0.00000000D+00 0.00000000D+00
  <mgrwgt>
 -.3941500022D-05    2    2    0
 0.127856992672302D+03 0.000000000000000D+00 0.000000000000000D+00 0.127856992672302D+03
 0.127856992672302D+03 -.000000000000000D+00 -.000000000000000D+00 -.127856992672302D+03
 0.599525298704740D+02 0.509264519320209D+01 -.220906665375470D+02 -.240909371908428D+02
 0.852511328585157D+02 -.162991620594977D+01 0.524974208879160D+01 -.850737282292427D+02
 0.110510322615614D+03 -.346272898725231D+01 0.168409244487554D+02 0.109164665420086D+03
 0.000000000000000D+00 0.000000000000000D+00 0.000000000000000D+00 0.000000000000000D+00
 0.127856992672302D+03 0.000000000000000D+00 0.000000000000000D+00 0.127856992672302D+03
 0.127856992672302D+03 -.000000000000000D+00 -.000000000000000D+00 -.127856992672302D+03
 0.598778947876863D+02 0.508750162801233D+01 -.220656508943717D+02 -.239287831282310D+02
 0.850235412987284D+02 -.163722502496790D+01 0.528528840770572D+01 -.848433132052348D+02
 0.765967064165153D+02 -.143549261388944D+01 0.605389373825367D+01 0.763435993742713D+02
 0.342158428416736D+02 -.201478398915497D+01 0.107264687484123D+02 0.324284969591945D+02
-.377081680952D-06 0.000000000000D+00 0.000000000000D+00 0.258769329234D-06 0.000000000000D+00  6 -4 22 9900012 13 -3 21 2 0.73772465D-01 0.52447883D-02 0.15037964D+04 0.15037964D+04 0.15037964D+04 0.13052768D+01  1  2 13  2  6  5       -3 -.481019821200D-05 0.100000000000D+01
0.680991009353D-07 0.000000000000D+00 0.000000000000D+00 0.258769329234D-06 0.784582842261D-08  6 -4 22 9900012 13 -3 21 2 0.73772465D-01 0.52447883D-02 0.15037964D+04 0.15037964D+04 0.15037964D+04 0.13052768D+01  1  2  1  2  6  5       -3 0.868698189557D-06 0.100000000000D+01
  </mgrwgt>
  </event>
</LesHouchesEvents>
