<LesHouchesEvents version="3.0">
  <!--
  <scalesfunctionalform>
    muR  H_T/2 := sum_i mT(i)/2, i=final state
    muF1 H_T/2 := sum_i mT(i)/2, i=final state
    muF2 H_T/2 := sum_i mT(i)/2, i=final state
    QES  H_T/2 := sum_i mT(i)/2, i=final state
  </scalesfunctionalform>
PYTHIA8   
  -->
  <header>
       11
  </header>
  <init>
   2212   2212 0.65000000D+04 0.65000000D+04 -1 -1  82200  82200 -4   1
 0.19122093D-05 0.38996171D-07 0.35199293D-06     66
  </init>
  <event>
  5     66 0.35199293E-06 0.68673900E+02 0.78161638E-02 0.11426102E+00
        2 -1    0    0  501    0 0.00000000E+00 0.00000000E+00 0.10061205E+04 0.10061205E+04 0.00000000E+00 0.0000E+00 0.9000E+01
       22 -1    0    0    0    0 0.00000000E+00 0.00000000E+00 -.33938907E+02 0.33938907E+02 0.00000000E+00 0.0000E+00 0.9000E+01
  9900012  1    1    2    0    0 -.26271567E+01 0.93547527E+02 0.36477142E+03 0.37988976E+03 0.50000000E+02 0.0000E+00 0.9000E+01
      -11  1    1    2    0    0 0.31189838E+02 -.31095323E+02 -.46334068E+01 0.44285365E+02 0.00000000E+00 0.0000E+00 0.9000E+01
        1  1    1    2  501    0 -.28562681E+02 -.62452204E+02 0.61204355E+03 0.61588426E+03 0.00000000E+00 0.0000E+00 0.9000E+01
#aMCatNLO 1  0  0  5  1 0.14530836D+02 0.00000000D+00  -5  6  0 0.00000000D+00 0.00000000D+00 0.00000000D+00 0.00000000D+00 0.00000000D+00
  <mgrwgt>
 0.1375978949D-04    7    2    0
 0.184788066057578D+03 0.000000000000000D+00 0.000000000000000D+00 0.184788066057578D+03
 0.184788066057578D+03 -.000000000000000D+00 -.000000000000000D+00 -.184788066057578D+03
 0.109541324707398D+03 -.262715669799834D+01 0.935475266327942D+02 0.272260927645213D+02
 0.136815982540188D+03 0.311898376490942D+02 -.310953227458366D+02 -.129533347093296D+03
 0.123218824867570D+03 -.285626809510958D+02 -.624522038869577D+02 0.102307254328775D+03
 0.000000000000000D+00 0.000000000000000D+00 0.000000000000000D+00 0.000000000000000D+00
 0.184788066057578D+03 0.000000000000000D+00 0.000000000000000D+00 0.184788066057578D+03
 0.184788066057578D+03 -.000000000000000D+00 -.000000000000000D+00 -.184788066057578D+03
 0.109063278687121D+03 -.315225415874832D+01 0.923994028367322D+02 0.291069133904395D+02
 0.134792991132439D+03 0.305374214594176D+02 -.325218285058034D+02 -.127196489808795D+03
 0.109186285160596D+03 -.376181512758157D+02 -.503162925236498D+02 0.893016812184145D+02
 0.165335771349987D+02 0.102329839751464D+02 -.956128180727894D+01 0.878789519994100D+01
0.983978682545D-07 0.000000000000D+00 0.000000000000D+00 0.273583502590D-08 0.000000000000D+00  6 2 22 9900012 -11 1 21 0 0.15478776D+00 0.52213703D-02 0.11970562D+05 0.11970562D+05 0.11970562D+05 0.12013173D+01  1  2  2  2  6  5        1 0.416680478562D-05 0.100000000000D+01
0.491274796933D-09 0.000000000000D+00 -.188936861426D-09 0.273583502590D-08 0.000000000000D+00  6 2 22 9900012 -11 1 21 2 0.15478776D+00 0.52213703D-02 0.11970562D+05 0.11970562D+05 0.11970562D+05 0.12013173D+01  1  2  3  2  6  5        1 0.300232308826D-07 0.100000000000D+01
-.147552972694D-07 0.000000000000D+00 0.000000000000D+00 0.273583502590D-08 0.000000000000D+00  6 2 22 9900012 -11 1 21 2 0.15478776D+00 0.52213703D-02 0.11970562D+05 0.11970562D+05 0.11970562D+05 0.12013173D+01  1  2 15  2  6  5        1 -.901739106963D-06 0.100000000000D+01
0.188341812017D-06 0.000000000000D+00 0.000000000000D+00 0.273583502590D-08 0.000000000000D+00  6 2 22 9900012 -11 1 21 2 0.15478776D+00 0.52213703D-02 0.12830989D+05 0.12830989D+05 0.12830989D+05 0.11982681D+01  1  2 12  2  6  5        1 0.114942941255D-04 0.100000000000D+01
-.435121149479D-07 0.000000000000D+00 0.000000000000D+00 0.273583502590D-08 0.000000000000D+00  6 2 22 9900012 -11 1 21 2 0.15478776D+00 0.52213703D-02 0.11970562D+05 0.11970562D+05 0.11970562D+05 0.12013173D+01  1  2  4  2  6  5        1 -.265915182588D-05 0.100000000000D+01
-.186349009756D-06 0.000000000000D+00 0.000000000000D+00 0.273583502590D-08 0.000000000000D+00  6 2 22 9900012 -11 1 21 2 0.15478776D+00 0.52213703D-02 0.11970562D+05 0.11970562D+05 0.11970562D+05 0.12013173D+01  1  2  5  2  6  5        1 -.113883296672D-04 0.100000000000D+01
0.213013725446D-06 0.000000000000D+00 -.000000000000D+00 0.273583502590D-08 0.000000000000D+00  6 2 22 9900012 -11 1 21 2 0.15478776D+00 0.52213703D-02 0.11970562D+05 0.11970562D+05 0.11970562D+05 0.12013173D+01  1  2  6  2  6  5        1 0.130178879523D-04 0.100000000000D+01
  </mgrwgt>
  </event>
  <event>
  5     66 0.35199293E-06 0.48392933E+02 0.78161638E-02 0.10490246E+00
        2 -1    0    0  501    0 0.00000000E+00 0.00000000E+00 0.14980513E+04 0.14980513E+04 0.00000000E+00 0.0000E+00 0.9000E+01
       22 -1    0    0    0    0 0.00000000E+00 0.00000000E+00 -.23609818E+02 0.23609818E+02 0.00000000E+00 0.0000E+00 0.9000E+01
  9900012  1    1    2    0    0 -.60845670E+02 0.73707197E+02 0.26892429E+03 0.28975027E+03 0.50000000E+02 0.0000E+00 0.9000E+01
      -11  1    1    2    0    0 0.45511326E+02 -.27808026E+02 0.43331781E+02 0.68718341E+02 0.00000000E+00 0.0000E+00 0.9000E+01
        1  1    1    2  501    0 0.15334343E+02 -.45899171E+02 0.11621854E+04 0.11631925E+04 0.00000000E+00 0.0000E+00 0.9000E+01
#aMCatNLO 1  0  0  1  5 0.12665333D+02 0.00000000D+00  -5  6  0 0.00000000D+00 0.00000000D+00 0.00000000D+00 0.00000000D+00 0.00000000D+00
  <mgrwgt>
 0.1461363936D-04    3    2    0
 0.188065733094482D+03 0.000000000000000D+00 0.000000000000000D+00 0.188065733094482D+03
 0.188065733094482D+03 0.000000000000000D+00 0.000000000000000D+00 -.188065733094482D+03
 0.118013511390720D+03 -.608456697618045D+02 0.737071971407215D+02 -.478773686794059D+02
 0.108142649527001D+03 0.455113264952505D+02 -.278080260725516D+02 -.940758496815773D+02
 0.149975305271243D+03 0.153343432665539D+02 -.458991710681699D+02 0.141953218360983D+03
 0.000000000000000D+00 -.000000000000000D+00 0.000000000000000D+00 -.000000000000000D+00
 0.263709218656050D+03 0.000000000000000D+00 0.000000000000000D+00 0.263709218656050D+03
 0.278877728054273D+03 0.000000000000000D+00 0.000000000000000D+00 -.278877728054273D+03
 0.933642736731109D+02 -.505733929179646D+02 0.369726533482379D+02 -.478773686794059D+02
 0.129985598613542D+03 0.570835893444406D+02 -.691914314143413D+02 -.940758496815773D+02
 0.178102276131054D+03 0.312778528525026D+02 -.102914529979777D+03 0.141953218360983D+03
 0.141134798292616D+03 -.377880492789786D+02 0.135133308045880D+03 -.151685093982237D+02
0.431286853558D-06 0.000000000000D+00 0.000000000000D+00 0.183196145134D-08 0.000000000000D+00  6 2 22 9900012 -11 1 21 0 0.23046944D+00 0.36322798D-02 0.10982288D+05 0.10982288D+05 0.10982288D+05 0.12051353D+01  1  2  2  1  6  1        2 0.163417377781D-04 0.100000000000D+01
0.323902574424D-07 0.000000000000D+00 -.828127539049D-09 0.183196145134D-08 0.000000000000D+00  6 2 22 9900012 -11 1 21 2 0.23046944D+00 0.36322798D-02 0.10982288D+05 0.10982288D+05 0.10982288D+05 0.12051353D+01  1  2  3  1  6  1        2 0.178245281149D-05 0.100000000000D+01
-.637928014229D-07 0.000000000000D+00 0.000000000000D+00 0.183196145134D-08 0.000000000000D+00  6 2 22 9900012 -11 1 21 2 0.23046944D+00 0.36322798D-02 0.10982288D+05 0.10982288D+05 0.10982288D+05 0.12051353D+01  1  2 15  1  6  1        2 -.351055123446D-05 0.100000000000D+01
  </mgrwgt>
  </event>
  <event>
  5     66 0.35199293E-06 0.65909730E+02 0.78161638E-02 0.11224024E+00
        2 -1    0    0  501    0 0.00000000E+00 0.00000000E+00 0.37334399E+04 0.37334399E+04 0.00000000E+00 0.0000E+00 0.9000E+01
       22 -1    0    0    0    0 0.00000000E+00 0.00000000E+00 -.24708171E+03 0.24708171E+03 0.00000000E+00 0.0000E+00 0.9000E+01
  9900012  1    1    2    0    0 0.82372132E+02 -.85291624E+01 0.39678166E+02 0.10455750E+03 0.50000000E+02 0.0000E+00 0.9000E+01
      -11  1    1    2    0    0 0.20490238E+00 0.53856529E+02 -.21064763E+03 0.21742353E+03 0.00000000E+00 0.0000E+00 0.9000E+01
        1  1    1    2  501    0 -.82577034E+02 -.45327367E+02 0.36573277E+04 0.36585406E+04 0.00000000E+00 0.0000E+00 0.9000E+01
#aMCatNLO 1  0  0  1  5 0.10123192D+02 0.00000000D+00  -5  6  0 0.00000000D+00 0.00000000D+00 0.00000000D+00 0.00000000D+00 0.00000000D+00
  <mgrwgt>
 0.1065742276D-03    9    2    0
 0.960450273865767D+03 0.000000000000000D+00 0.000000000000000D+00 0.960450273865767D+03
 0.960450273865767D+03 0.000000000000000D+00 0.000000000000000D+00 -.960450273865767D+03
 0.144651480116138D+03 0.823721319938614D+02 -.852916239928276D+01 -.107545971376626D+03
 0.832865708850009D+03 0.204902383490150D+00 0.538565289983354D+02 -.831122566940335D+03
 0.943383358765388D+03 -.825770343773516D+02 -.453273665990527D+02 0.938668538316962D+03
 0.000000000000000D+00 0.000000000000000D+00 0.000000000000000D+00 0.000000000000000D+00
 0.110197057923440D+04 0.000000000000000D+00 0.000000000000000D+00 0.110197057923440D+04
 0.960644376059411D+03 0.000000000000000D+00 0.000000000000000D+00 -.960644376059411D+03
 0.144378425868603D+03 0.818338596802646D+02 -.906715538547225D+01 -.107545971376626D+03
 0.832675998533300D+03 -.289690462561776D+01 0.507563316200559D+02 -.831122566940335D+03
 0.943872758840683D+03 -.860917492761872D+02 -.488402575954220D+02 0.938668538316962D+03
 0.141687772051222D+03 0.715479422154042D+01 0.715108136083836D+01 0.141326203174985D+03
0.121392475943D-04 0.000000000000D+00 0.000000000000D+00 0.195444839474D-05 0.000000000000D+00  6 2 22 9900012 -11 1 21 0 0.57437537D+00 0.38012571D-01 0.14980865D+05 0.14980865D+05 0.14980865D+05 0.11915443D+01  1  2  2  1  6  1        2 0.734070520630D-06 0.100000000000D+01
0.361178482937D-06 0.000000000000D+00 -.233089535496D-07 0.195444839474D-05 0.000000000000D+00  6 2 22 9900012 -11 1 21 2 0.57437537D+00 0.38012571D-01 0.14980865D+05 0.14980865D+05 0.14980865D+05 0.11915443D+01  1  2  3  1  6  1        2 0.310090350886D-07 0.100000000000D+01
-.166716096665D-05 0.000000000000D+00 0.000000000000D+00 0.195444839474D-05 0.000000000000D+00  6 2 22 9900012 -11 1 21 2 0.57437537D+00 0.38012571D-01 0.14980865D+05 0.14980865D+05 0.14980865D+05 0.11915443D+01  1  2 15  1  6  1        2 -.143134365295D-06 0.100000000000D+01
0.171686220856D-02 0.000000000000D+00 0.000000000000D+00 0.195444839474D-05 0.000000000000D+00  6 2 22 9900012 -11 1 21 2 0.65914155D+00 0.38012571D-01 0.16417663D+05 0.16417663D+05 0.16417663D+05 0.11876247D+01  1  2 12  1  6  1        2 0.515602890196D-04 0.100000000000D+01
-.538127271388D-03 0.000000000000D+00 0.000000000000D+00 0.195444839474D-05 0.000000000000D+00  6 2 22 9900012 -11 1 21 2 0.57437537D+00 0.38012571D-01 0.14980865D+05 0.14980865D+05 0.14980865D+05 0.11915443D+01  1  2  4  1  6  1        2 -.462010009703D-04 0.100000000000D+01
-.171252169461D-02 0.000000000000D+00 -.502469677865D-05 0.195444839474D-05 0.000000000000D+00  6 2 22 9900012 -11 1 21 2 0.65902952D+00 0.38012571D-01 0.14980865D+05 0.14980865D+05 0.14980865D+05 0.11915443D+01  1  2  5  1  6  1        2 -.521477843739D-04 0.100000000000D+01
0.177906697271D-02 0.000000000000D+00 0.521951277226D-05 0.195444839474D-05 0.000000000000D+00  6 2 22 9900012 -11 1 21 2 0.57437537D+00 0.38012571D-01 0.14980865D+05 0.14980865D+05 0.14980865D+05 0.11915443D+01  1  2  6  1  6  1        2 0.152742072931D-03 0.100000000000D+01
0.365134818085D-04 0.000000000000D+00 0.000000000000D+00 0.195444839474D-05 0.000000000000D+00  6 21 22 9900012 -11 1 -2 2 0.65914155D+00 0.38012571D-01 0.16417663D+05 0.16417663D+05 0.16417663D+05 0.11876247D+01  1  2 12  3  6  1        2 0.683327875534D-07 0.100000000000D+01
-.363544020203D-04 0.000000000000D+00 -.106754602144D-06 0.195444839474D-05 0.000000000000D+00  6 21 22 9900012 -11 1 -2 2 0.65902952D+00 0.38012571D-01 0.14980865D+05 0.14980865D+05 0.14980865D+05 0.11915443D+01  1  2  5  3  6  1        2 -.696269832032D-07 0.100000000000D+01
  </mgrwgt>
  </event>
  <event>
  6     66 -.35199293E-06 0.73710572E+02 0.78161638E-02 0.11844003E+00
        2 -1    0    0  502    0 0.00000000E+00 0.00000000E+00 0.15323809E+04 0.15323809E+04 0.00000000E+00 0.0000E+00 0.9000E+01
       22 -1    0    0    0    0 0.00000000E+00 0.00000000E+00 -.13470692E+03 0.13470692E+03 0.00000000E+00 0.0000E+00 0.9000E+01
  9900012  1    1    2    0    0 -.35432821E+02 -.14872958E+02 -.75029249E+01 0.63505776E+02 0.50000000E+02 0.0000E+00 0.9000E+01
      -11  1    1    2    0    0 -.34281946E+02 -.23645849E+01 -.95040082E+02 0.10106167E+03 0.00000000E+00 0.0000E+00 0.9000E+01
        1  1    1    2  501    0 0.73294161E+02 0.20059695E+02 0.12783312E+04 0.12805878E+04 0.00000000E+00 0.0000E+00 0.9000E+01
       21  1    1    2  502  501 -.35793939E+01 -.28221530E+01 0.22188570E+03 0.22193251E+03 0.00000000E+00 0.0000E+00 0.9000E+01
#aMCatNLO 2  0  0  1  5 0.45608703D+01 0.00000000D+00  -5  6  0 0.00000000D+00 0.00000000D+00 0.00000000D+00 0.00000000D+00 0.00000000D+00
  <mgrwgt>
 -.4928797882D-04    2    2    0
 0.420111594564604D+03 0.000000000000000D+00 0.000000000000000D+00 0.420111594564604D+03
 0.420111594564604D+03 0.000000000000000D+00 0.000000000000000D+00 -.420111594564604D+03
 0.119928086142291D+03 -.359432850312732D+02 -.152754303612219D+02 -.101771741334188D+03
 0.306973426286837D+03 -.355893214845055D+02 -.339537757587911D+01 -.304884496250088D+03
 0.413321676700080D+03 0.715326065157786D+02 0.186708079371010D+02 0.406656237584277D+03
 0.000000000000000D+00 -.000000000000000D+00 -.000000000000000D+00 0.000000000000000D+00
 0.491258539823637D+03 0.000000000000000D+00 0.000000000000000D+00 0.491258539823637D+03
 0.420190788707761D+03 0.000000000000000D+00 0.000000000000000D+00 -.420190788707761D+03
 0.119725423292603D+03 -.354328206693119D+02 -.148729576015161D+02 -.101771741334188D+03
 0.306814926542210D+03 -.342819461798628D+02 -.236458485842277D+01 -.304884496250088D+03
 0.413695202946858D+03 0.732941607062247D+02 0.200596954466542D+02 0.406656237584277D+03
 0.712137757497268D+02 -.357939385704999D+01 -.282215298671531D+01 0.710677511158758D+02
-.232718499987D-04 0.000000000000D+00 0.000000000000D+00 0.162086851724D-05 0.000000000000D+00  6 2 22 9900012 -11 1 21 2 0.23579534D+00 0.20720236D-01 0.79185236D+04 0.79185236D+04 0.79185236D+04 0.12199841D+01  1  2 13  1  6  1        2 -.106116842232D-03 0.100000000000D+01
0.124620733344D-04 0.000000000000D+00 0.000000000000D+00 0.162086851724D-05 0.343102357016D-06  6 2 22 9900012 -11 1 21 2 0.23575090D+00 0.20724142D-01 0.79185236D+04 0.79185236D+04 0.79185236D+04 0.12199841D+01  1  2  1  1  6  1        2 0.568288634116D-04 0.100000000000D+01
  </mgrwgt>
  </event>
  <event>
  6     66 -.35199293E-06 0.24824734E+02 0.78161638E-02 0.12032163E+00
        2 -1    0    0  502    0 0.00000000E+00 0.00000000E+00 0.26901758E+03 0.26901758E+03 0.00000000E+00 0.0000E+00 0.9000E+01
       22 -1    0    0    0    0 0.00000000E+00 0.00000000E+00 -.63965469E+02 0.63965469E+02 0.00000000E+00 0.0000E+00 0.9000E+01
  9900012  1    1    2    0    0 -.49302474E+02 0.44963015E+02 0.13405967E+03 0.15787464E+03 0.50000000E+02 0.0000E+00 0.9000E+01
      -11  1    1    2    0    0 0.40147162E+02 -.15730668E+02 -.40098040E+02 0.58882097E+02 0.00000000E+00 0.0000E+00 0.9000E+01
        1  1    1    2  501    0 0.13180437E+02 -.24587801E+02 0.94597523E+02 0.98625429E+02 0.00000000E+00 0.0000E+00 0.9000E+01
       21  1    1    2  502  501 -.40251251E+01 -.46445461E+01 0.16492959E+02 0.17600884E+02 0.00000000E+00 0.0000E+00 0.9000E+01
#aMCatNLO 2  0  0  1  5 0.65525488D+01 0.00000000D+00  -5  6  0 0.00000000D+00 0.00000000D+00 0.00000000D+00 0.00000000D+00 0.00000000D+00
  <mgrwgt>
 -.3943154565D-05    3    2    0
 0.126366117724060D+03 0.000000000000000D+00 0.000000000000000D+00 0.126366117724060D+03
 0.126366117724060D+03 0.000000000000000D+00 0.000000000000000D+00 -.126366117724060D+03
 0.969495785725698D+02 -.508464060640277D+02 0.431814893079978D+02 0.494896227194567D+02
 0.103044553294970D+03 0.385037256584396D+02 -.176270109097171D+02 -.939411068732329D+02
 0.527381035805810D+02 0.123426804055880D+02 -.255544783982807D+02 0.444514841537761D+02
 0.000000000000000D+00 -.000000000000000D+00 -.000000000000000D+00 0.000000000000000D+00
 0.134955227633540D+03 0.000000000000000D+00 0.000000000000000D+00 0.134955227633540D+03
 0.127507737798813D+03 0.000000000000000D+00 0.000000000000000D+00 -.127507737798813D+03
 0.969619998578614D+02 -.493024736009585D+02 0.449630154276660D+02 0.494896227194567D+02
 0.103364307702346D+03 0.401471620315452D+02 -.157306683592921D+02 -.939411068732329D+02
 0.524806470032802D+02 0.131804366967023D+02 -.245878009365155D+02 0.444514841537761D+02
 0.965601086886543D+01 -.402512512728906D+01 -.464454613185836D+01 0.744748983472640D+01
-.418205405798D-07 0.000000000000D+00 0.000000000000D+00 0.806727337417D-09 0.000000000000D+00  6 2 22 9900012 -11 1 21 2 0.41761223D-01 0.97527330D-02 0.64435817D+04 0.64435817D+04 0.64435817D+04 0.12296366D+01  1  2 13  1  6  1        2 -.462054531725D-05 0.100000000000D+01
-.858629389307D-09 0.000000000000D+00 0.000000000000D+00 0.806727337417D-09 0.000000000000D+00  6 2 22 9900012 -11 1 21 2 0.38753260D-01 0.97527330D-02 0.59361253D+04 0.59361253D+04 0.59361253D+04 0.12335431D+01  1  2  8  1  6  1        2 -.102731177477D-06 0.100000000000D+01
0.708287867521D-08 0.000000000000D+00 0.000000000000D+00 0.806727337417D-09 0.116202511131D-09  6 2 22 9900012 -11 1 21 2 0.41387320D-01 0.98408414D-02 0.64435817D+04 0.64435817D+04 0.64435817D+04 0.12296366D+01  1  2  1  1  6  1        2 0.780121930053D-06 0.100000000000D+01
  </mgrwgt>
  </event>
  <event>
  5     66 0.35199293E-06 0.47502981E+02 0.78161638E-02 0.12331061E+00
        2 -1    0    0  501    0 0.00000000E+00 0.00000000E+00 0.40046722E+02 0.40046722E+02 0.00000000E+00 0.0000E+00 0.9000E+01
       22 -1    0    0    0    0 -.00000000E+00 -.00000000E+00 -.18777074E+03 0.18777074E+03 0.00000000E+00 0.0000E+00 0.9000E+01
  9900012  1    1    2    0    0 0.18056868E+01 0.31478026E+02 -.11804108E+03 0.13201448E+03 0.50000000E+02 0.0000E+00 0.9000E+01
      -11  1    1    2    0    0 0.14191602E+02 0.19874399E+02 -.33979754E+02 0.41845155E+02 0.00000000E+00 0.0000E+00 0.9000E+01
        1  1    1    2  501    0 -.15997289E+02 -.51352425E+02 0.42968134E+01 0.53957830E+02 0.00000000E+00 0.0000E+00 0.9000E+01
#aMCatNLO 1  0  0  5  1 0.68926279D+01 0.00000000D+00  -5  6  0 0.00000000D+00 0.00000000D+00 0.00000000D+00 0.00000000D+00 0.00000000D+00
  <mgrwgt>
 0.1548868523D-04    8    2    0
 0.867156434549838D+02 0.000000000000000D+00 0.000000000000000D+00 0.867156434549838D+02
 0.867156434549838D+02 -.000000000000000D+00 -.000000000000000D+00 -.867156434549838D+02
 0.728686371790700D+02 0.180568683787569D+01 0.314780261495772D+02 -.426111681265018D+02
 0.260243194431030D+02 0.141916022286250D+02 0.198743985269588D+02 -.899288117639560D+01
 0.745383302877946D+02 -.159972890665007D+02 -.513524246765360D+02 0.516040493028974D+02
 0.000000000000000D+00 0.000000000000000D+00 -.000000000000000D+00 0.000000000000000D+00
 0.867156434549838D+02 0.000000000000000D+00 0.000000000000000D+00 0.867156434549838D+02
 0.867156434549838D+02 -.000000000000000D+00 -.000000000000000D+00 -.867156434549838D+02
 0.719609726882046D+02 0.152870353847157D+01 0.305888902491018D+02 -.417176754991503D+02
 0.256191538354111D+02 0.140928352732043D+02 0.195573496433828D+02 -.867427876720963D+01
 0.668756263373606D+02 -.183968736497546D+02 -.417413207258274D+02 0.489036458967309D+02
 0.897553404899125D+01 0.277533483807877D+01 -.840491916665710D+01 0.148830836962900D+01
0.264453051909D-07 0.000000000000D+00 0.000000000000D+00 0.331275851989D-08 0.000000000000D+00  6 2 22 9900012 -11 1 21 0 0.61610342D-02 0.28887807D-01 0.47141116D+04 0.47141116D+04 0.47141116D+04 0.12447360D+01  1  2  2  2  6  5        1 0.353717483708D-05 0.100000000000D+01
0.178859631669D-11 0.000000000000D+00 -.507784675709D-10 0.331275851989D-08 0.000000000000D+00  6 2 22 9900012 -11 1 21 2 0.61610342D-02 0.28887807D-01 0.47141116D+04 0.47141116D+04 0.47141116D+04 0.12447360D+01  1  2  3  2  6  5        1 0.370659218439D-09 0.100000000000D+01
-.330544389729D-08 0.000000000000D+00 0.000000000000D+00 0.331275851989D-08 0.000000000000D+00  6 2 22 9900012 -11 1 21 2 0.61610342D-02 0.28887807D-01 0.47141116D+04 0.47141116D+04 0.47141116D+04 0.12447360D+01  1  2 15  2  6  5        1 -.685002669485D-06 0.100000000000D+01
0.739296521901D-07 0.000000000000D+00 0.000000000000D+00 0.331275851989D-08 0.000000000000D+00  6 2 22 9900012 -11 1 21 2 0.61610342D-02 0.28887807D-01 0.47064716D+04 0.47064716D+04 0.47064716D+04 0.12448160D+01  1  2 12  2  6  5        1 0.153202023258D-04 0.100000000000D+01
-.239266369130D-07 0.000000000000D+00 0.000000000000D+00 0.331275851989D-08 0.000000000000D+00  6 2 22 9900012 -11 1 21 2 0.61610342D-02 0.28887807D-01 0.47141116D+04 0.47141116D+04 0.47141116D+04 0.12447360D+01  1  2  4  2  6  5        1 -.495842938694D-05 0.100000000000D+01
-.763666517334D-07 0.000000000000D+00 0.000000000000D+00 0.331275851989D-08 0.000000000000D+00  6 2 22 9900012 -11 1 21 2 0.61610342D-02 0.28887807D-01 0.47141116D+04 0.47141116D+04 0.47141116D+04 0.12447360D+01  1  2  5  2  6  5        1 -.158258200479D-04 0.100000000000D+01
0.861114666923D-07 0.000000000000D+00 -.000000000000D+00 0.331275851989D-08 0.000000000000D+00  6 2 22 9900012 -11 1 21 2 0.61610342D-02 0.28887807D-01 0.47141116D+04 0.47141116D+04 0.47141116D+04 0.12447360D+01  1  2  6  2  6  5        1 0.178452838379D-04 0.100000000000D+01
0.123008086625D-08 0.000000000000D+00 0.000000000000D+00 0.331275851989D-08 0.159698646093D-09  6 2 22 9900012 -11 1 21 2 0.61610342D-02 0.28887807D-01 0.47064716D+04 0.47064716D+04 0.47064716D+04 0.12448160D+01  1  2 11  2  6  5        1 0.254905673026D-06 0.100000000000D+01
  </mgrwgt>
  </event>
  <event>
  5     66 0.35199293E-06 0.38412294E+02 0.78161638E-02 0.11853509E+00
        2 -1    0    0  501    0 0.00000000E+00 0.00000000E+00 0.25039881E+02 0.25039881E+02 0.00000000E+00 0.0000E+00 0.9000E+01
       22 -1    0    0    0    0 -.00000000E+00 -.00000000E+00 -.37550776E+03 0.37550776E+03 0.00000000E+00 0.0000E+00 0.9000E+01
  9900012  1    1    2    0    0 -.58073092E+02 0.16255488E+02 -.18854927E+03 0.20417530E+03 0.50000000E+02 0.0000E+00 0.9000E+01
      -11  1    1    2    0    0 -.13635817E+02 -.22310417E+02 -.93455651E+02 0.97044571E+02 0.00000000E+00 0.0000E+00 0.9000E+01
        1  1    1    2  501    0 0.71708909E+02 0.60549289E+01 -.68462957E+02 0.99327772E+02 0.00000000E+00 0.0000E+00 0.9000E+01
#aMCatNLO 1  0  0  5  1 0.16146129D+02 0.00000000D+00  -5  6  0 0.00000000D+00 0.00000000D+00 0.00000000D+00 0.00000000D+00 0.00000000D+00
  <mgrwgt>
 0.1275045785D-04    7    2    0
 0.969673641889715D+02 0.000000000000000D+00 0.000000000000000D+00 0.969673641889715D+02
 0.969673641889715D+02 -.000000000000000D+00 -.000000000000000D+00 -.969673641889715D+02
 0.809626580502431D+02 -.580730919376986D+02 0.162554878499724D+02 -.204506016076692D+02
 0.315455132649405D+02 -.136358166416349D+02 -.223104167945957D+02 -.176473571425205D+02
 0.814265570627594D+02 0.717089085793335D+02 0.605492894462324D+01 0.380979587501898D+02
 0.000000000000000D+00 0.000000000000000D+00 0.000000000000000D+00 0.000000000000000D+00
 0.969673641889715D+02 0.000000000000000D+00 0.000000000000000D+00 0.969673641889715D+02
 0.969673641889715D+02 -.000000000000000D+00 -.000000000000000D+00 -.969673641889715D+02
 0.785967535996528D+02 -.552007732658851D+02 0.164980195773226D+02 -.189245781268477D+02
 0.306751972346661D+02 -.125157466520710D+02 -.222158407602622D+02 -.170522793327318D+02
 0.597462506387584D+02 0.470616576454511D+02 0.189363263076384D+02 0.315631175745098D+02
 0.249165269048657D+02 0.206548622725050D+02 -.132185051246989D+02 0.441373988506967D+01
0.834013561738D-07 0.000000000000D+00 0.000000000000D+00 0.599776263677D-07 0.000000000000D+00  6 2 22 9900012 -11 1 21 0 0.38522895D-02 0.57770424D-01 0.77835454D+04 0.77835454D+04 0.77835454D+04 0.12207807D+01  1  2  2  2  6  5        1 0.703318804718D-05 0.100000000000D+01
-.136233496846D-08 0.000000000000D+00 -.160141583894D-09 0.599776263677D-07 0.000000000000D+00  6 2 22 9900012 -11 1 21 2 0.38522895D-02 0.57770424D-01 0.77835454D+04 0.77835454D+04 0.77835454D+04 0.12207807D+01  1  2  3  2  6  5        1 -.171213635014D-06 0.100000000000D+01
-.103603657555D-07 0.000000000000D+00 0.000000000000D+00 0.599776263677D-07 0.000000000000D+00  6 2 22 9900012 -11 1 21 2 0.38522895D-02 0.57770424D-01 0.77835454D+04 0.77835454D+04 0.77835454D+04 0.12207807D+01  1  2 15  2  6  5        1 -.130205560464D-05 0.100000000000D+01
0.755927101179D-07 0.000000000000D+00 0.000000000000D+00 0.599776263677D-07 0.000000000000D+00  6 2 22 9900012 -11 1 21 2 0.38522895D-02 0.57770424D-01 0.78352764D+04 0.78352764D+04 0.78352764D+04 0.12204736D+01  1  2 12  2  6  5        1 0.950166537801D-05 0.100000000000D+01
-.433102637040D-07 0.000000000000D+00 0.000000000000D+00 0.599776263677D-07 0.000000000000D+00  6 2 22 9900012 -11 1 21 2 0.38522895D-02 0.57770424D-01 0.77835454D+04 0.77835454D+04 0.77835454D+04 0.12207807D+01  1  2  4  2  6  5        1 -.544308694550D-05 0.100000000000D+01
-.712309159464D-07 0.000000000000D+00 0.000000000000D+00 0.599776263677D-07 0.000000000000D+00  6 2 22 9900012 -11 1 21 2 0.38522895D-02 0.57770424D-01 0.77835454D+04 0.77835454D+04 0.77835454D+04 0.12207807D+01  1  2  5  2  6  5        1 -.895205975548D-05 0.100000000000D+01
0.961517083953D-07 0.000000000000D+00 -.000000000000D+00 0.599776263677D-07 0.000000000000D+00  6 2 22 9900012 -11 1 21 2 0.38522895D-02 0.57770424D-01 0.77835454D+04 0.77835454D+04 0.77835454D+04 0.12207807D+01  1  2  6  2  6  5        1 0.120840203683D-04 0.100000000000D+01
  </mgrwgt>
  </event>
  <event>
  5     66 0.35199293E-06 0.61081153E+02 0.78161638E-02 0.94228863E-01
        2 -1    0    0  501    0 0.00000000E+00 0.00000000E+00 0.10536765E+03 0.10536765E+03 0.00000000E+00 0.0000E+00 0.9000E+01
       22 -1    0    0    0    0 0.00000000E+00 0.00000000E+00 -.39217471E+03 0.39217471E+03 0.00000000E+00 0.0000E+00 0.9000E+01
  9900012  1    1    2    0    0 0.94699934E+02 -.27833798E+02 -.16025583E+02 0.11180169E+03 0.50000000E+02 0.0000E+00 0.9000E+01
      -11  1    1    2    0    0 -.44340556E+02 -.67326631E+01 -.30995122E+03 0.31317914E+03 0.00000000E+00 0.0000E+00 0.9000E+01
        1  1    1    2  501    0 -.50359378E+02 0.34566461E+02 0.39169744E+02 0.72561533E+02 0.00000000E+00 0.0000E+00 0.9000E+01
#aMCatNLO 1  0  0  1  5 0.73592080D+01 0.00000000D+00  -5  6  0 0.00000000D+00 0.00000000D+00 0.00000000D+00 0.00000000D+00 0.00000000D+00
  <mgrwgt>
 0.1637250587D-04    5    2    0
 0.203279431792758D+03 0.000000000000000D+00 0.000000000000000D+00 0.203279431792758D+03
 0.203279431792758D+03 0.000000000000000D+00 0.000000000000000D+00 -.203279431792758D+03
 0.125516448326368D+03 0.946999338252678D+02 -.278337980182969D+02 0.592585944976121D+02
 0.164610085652666D+03 -.443405555902548D+02 -.673266311700805D+01 -.158382659012527D+03
 0.116432329606483D+03 -.503593782350130D+02 0.345664611353049D+02 0.991240645149148D+02
 0.000000000000000D+00 -.000000000000000D+00 0.000000000000000D+00 0.000000000000000D+00
 0.817988579160456D+03 0.000000000000000D+00 0.000000000000000D+00 0.817988579160456D+03
 0.415632947142072D+03 0.000000000000000D+00 0.000000000000000D+00 -.415632947142072D+03
 0.229290572372369D+03 0.104532987616287D+03 -.188773515242550D+03 0.592585944976121D+02
 0.254896326389938D+03 -.327144352638618D+02 -.197019887972190D+03 -.158382659012527D+03
 0.134001943025937D+03 -.434188907862025D+02 -.790299974165835D+02 0.991240645149148D+02
 0.615432684514283D+03 -.283996615662229D+02 0.464823400631324D+03 0.402355632018384D+03
0.113316490166D-05 0.000000000000D+00 0.000000000000D+00 0.321420893137D-08 0.000000000000D+00  6 2 22 9900012 -11 1 21 0 0.16210408D-01 0.60334571D-01 0.11726412D+05 0.11726412D+05 0.11726412D+05 0.12022270D+01  1  2  2  1  6  1        2 0.152216770129D-04 0.100000000000D+01
0.183049320452D-08 0.000000000000D+00 -.217582579578D-08 0.321420893137D-08 0.000000000000D+00  6 2 22 9900012 -11 1 21 2 0.16210408D-01 0.60334571D-01 0.11726412D+05 0.11726412D+05 0.11726412D+05 0.12022270D+01  1  2  3  1  6  1        2 0.355394330305D-07 0.100000000000D+01
-.161586549493D-06 0.000000000000D+00 0.000000000000D+00 0.321420893137D-08 0.000000000000D+00  6 2 22 9900012 -11 1 21 2 0.16210408D-01 0.60334571D-01 0.11726412D+05 0.11726412D+05 0.11726412D+05 0.12022270D+01  1  2 15  1  6  1        2 -.313723882730D-05 0.100000000000D+01
0.162444772776D-05 0.000000000000D+00 -.603330070578D-06 0.321420893137D-08 0.000000000000D+00  6 2 22 9900012 -11 1 21 2 0.12054052D+00 0.60334571D-01 0.11726412D+05 0.11726412D+05 0.11726412D+05 0.12022270D+01  1  2  5  1  6  1        2 0.344637868508D-05 0.100000000000D+01
0.333515451404D-06 0.000000000000D+00 -.147567952501D-06 0.321420893137D-08 0.000000000000D+00  6 21 22 9900012 -11 1 -2 2 0.12054052D+00 0.60334571D-01 0.11726412D+05 0.11726412D+05 0.11726412D+05 0.12022270D+01  1  2  5  3  6  1        2 0.806149568289D-06 0.100000000000D+01
  </mgrwgt>
  </event>
  <event>
  6     66 -.35199293E-06 0.16578373E+03 0.78161638E-02 0.10693987E+00
        2 -1    0    0  501    0 0.00000000E+00 0.00000000E+00 0.20748775E+04 0.20748775E+04 0.00000000E+00 0.0000E+00 0.9000E+01
       22 -1    0    0    0    0 0.00000000E+00 0.00000000E+00 -.58559157E+02 0.58559157E+02 0.00000000E+00 0.0000E+00 0.9000E+01
  9900012  1    1    2    0    0 -.12826666E+03 0.63935614E+02 0.76181815E+02 0.16983453E+03 0.50000000E+02 0.0000E+00 0.9000E+01
      -11  1    1    2    0    0 -.19207921E+02 0.29094089E+02 0.33460590E+02 0.48322058E+02 0.00000000E+00 0.0000E+00 0.9000E+01
        1  1    1    2  502    0 0.12862758E+03 -.88672827E+02 0.18072254E+04 0.18139657E+04 0.00000000E+00 0.0000E+00 0.9000E+01
       21  1    1    2  501  502 0.18846994E+02 -.43568761E+01 0.99450530E+02 0.10131436E+03 0.00000000E+00 0.0000E+00 0.9000E+01
#aMCatNLO 2  0  0  5  1 0.12249509D+02 0.00000000D+00  -5  6  0 0.00000000D+00 0.00000000D+00 0.00000000D+00 0.00000000D+00 0.00000000D+00
  <mgrwgt>
 -.4513434320D-05    3    2    0
 0.348572917628775D+03 0.000000000000000D+00 0.000000000000000D+00 0.348572917628775D+03
 0.348572917628775D+03 -.000000000000000D+00 -.000000000000000D+00 -.348572917628775D+03
 0.300927437003501D+03 -.128934303208873D+03 0.643567779672072D+02 -.259406000175821D+03
 0.513517083834607D+02 -.193218622387915D+02 0.291659650751226D+02 -.375900262671082D+02
 0.344866689870587D+03 0.148256165447664D+03 -.935227430423298D+02 0.296996026442929D+03
 0.000000000000000D+00 0.000000000000000D+00 0.000000000000000D+00 0.000000000000000D+00
 0.348572917628775D+03 0.000000000000000D+00 0.000000000000000D+00 0.348572917628775D+03
 0.348572917628775D+03 -.000000000000000D+00 -.000000000000000D+00 -.348572917628775D+03
 0.299398504032844D+03 -.128266657153764D+03 0.639356144340306D+02 -.258068529826181D+03
 0.511009994536193D+02 -.192079205588692D+02 0.290940885469457D+02 -.373617711649951D+02
 0.324235180330137D+03 0.128627583900399D+03 -.886728268736725D+02 0.284113580453125D+03
 0.224111514409489D+02 0.188469938122343D+02 -.435687610730379D+01 0.113167205380513D+02
-.803336957582D-06 0.000000000000D+00 0.000000000000D+00 0.237517826891D-06 0.000000000000D+00  6 2 22 9900012 -11 1 21 2 0.31921193D+00 0.90091011D-02 0.32802059D+05 0.32802059D+05 0.32802059D+05 0.11592437D+01  1  2 13  2  6  5        1 -.592885708480D-05 0.100000000000D+01
-.587474550573D-07 0.000000000000D+00 0.000000000000D+00 0.237517826891D-06 0.000000000000D+00  6 2 22 9900012 -11 1 21 2 0.31921193D+00 0.90091011D-02 0.32907133D+05 0.32907133D+05 0.32907133D+05 0.11591175D+01  1  2  8  2  6  5        1 -.433496926999D-06 0.100000000000D+01
0.250521390399D-06 0.000000000000D+00 0.000000000000D+00 0.237517826891D-06 0.278740714957D-08  6 2 22 9900012 -11 1 21 2 0.31921193D+00 0.90091011D-02 0.32802059D+05 0.32802059D+05 0.32802059D+05 0.11592437D+01  1  2  1  2  6  5        1 0.184891969222D-05 0.100000000000D+01
  </mgrwgt>
  </event>
  <event>
  5     66 0.35199293E-06 0.37409333E+02 0.78161638E-02 0.11940819E+00
        2 -1    0    0  501    0 0.00000000E+00 0.00000000E+00 0.95493369E+03 0.95493369E+03 0.00000000E+00 0.0000E+00 0.9000E+01
       22 -1    0    0    0    0 0.00000000E+00 0.00000000E+00 -.13780889E+03 0.13780889E+03 0.00000000E+00 0.0000E+00 0.9000E+01
  9900012  1    1    2    0    0 0.87815018E+01 0.78613741E+01 0.94662046E+01 0.52235285E+02 0.50000000E+02 0.0000E+00 0.9000E+01
      -11  1    1    2    0    0 0.38639605E+00 -.44129926E+02 -.11184820E+03 0.12023984E+03 0.00000000E+00 0.0000E+00 0.9000E+01
        1  1    1    2  501    0 -.91678979E+01 0.36268552E+02 0.91950679E+03 0.92026746E+03 0.00000000E+00 0.0000E+00 0.9000E+01
#aMCatNLO 1  0  0  1  5 0.36575891D+02 0.00000000D+00  -5  6  0 0.00000000D+00 0.00000000D+00 0.00000000D+00 0.00000000D+00 0.00000000D+00
  <mgrwgt>
 0.2407678052D-04    9    2    0
 0.362764871813765D+03 0.000000000000000D+00 0.000000000000000D+00 0.362764871813765D+03
 0.362764871813765D+03 0.000000000000000D+00 0.000000000000000D+00 -.362764871813765D+03
 0.680118907050009D+02 0.878150182789094D+01 0.786137413992444D+01 -.445724275707287D+02
 0.307065458809229D+03 0.386396046018158D+00 -.441299260153408D+02 -.303877600888414D+03
 0.350452394113300D+03 -.916789787390910D+01 0.362685518754164D+02 0.348450028459143D+03
 0.000000000000000D+00 0.000000000000000D+00 0.000000000000000D+00 0.000000000000000D+00
 0.386176143164765D+03 0.000000000000000D+00 0.000000000000000D+00 0.386176143164765D+03
 0.373083224438980D+03 0.000000000000000D+00 0.000000000000000D+00 -.373083224438980D+03
 0.675814213674873D+02 0.645306617587116D+01 0.623739941256296D+01 -.445724275707287D+02
 0.308379026126962D+03 -.101821405481634D+02 -.515009849145885D+02 -.303877600888414D+03
 0.350205615587305D+03 -.211997382701961D+02 0.278769071631102D+02 0.348450028459143D+03
 0.330933045219908D+02 0.249288126424883D+02 0.173866783389154D+02 0.130929187257854D+02
0.128508631046D-05 0.000000000000D+00 0.000000000000D+00 0.486984624365D-06 0.000000000000D+00  6 2 22 9900012 -11 1 21 0 0.14691288D+00 0.21201368D-01 0.44163555D+04 0.44163555D+04 0.44163555D+04 0.12479626D+01  1  2  2  1  6  1        2 0.756153940407D-05 0.100000000000D+01
0.943642141537D-07 0.000000000000D+00 -.246753490159D-08 0.486984624365D-06 0.000000000000D+00  6 2 22 9900012 -11 1 21 2 0.14691288D+00 0.21201368D-01 0.44163555D+04 0.44163555D+04 0.44163555D+04 0.12479626D+01  1  2  3  1  6  1        2 0.864745644866D-06 0.100000000000D+01
-.182178965736D-06 0.000000000000D+00 0.000000000000D+00 0.486984624365D-06 0.000000000000D+00  6 2 22 9900012 -11 1 21 2 0.14691288D+00 0.21201368D-01 0.44163555D+04 0.44163555D+04 0.44163555D+04 0.12479626D+01  1  2 15  1  6  1        2 -.166947257092D-05 0.100000000000D+01
0.155164747024D-05 0.000000000000D+00 0.000000000000D+00 0.486984624365D-06 0.000000000000D+00  6 2 22 9900012 -11 1 21 2 0.16084241D+00 0.21201368D-01 0.71159553D+04 0.71159553D+04 0.71159553D+04 0.12249603D+01  1  2 12  1  6  1        2 0.123944022893D-04 0.100000000000D+01
-.125893368995D-07 0.000000000000D+00 0.000000000000D+00 0.486984624365D-06 0.000000000000D+00  6 2 22 9900012 -11 1 21 2 0.14691288D+00 0.21201368D-01 0.44163555D+04 0.44163555D+04 0.44163555D+04 0.12479626D+01  1  2  4  1  6  1        2 -.115367614230D-06 0.100000000000D+01
-.451146854641D-05 0.000000000000D+00 -.175994922454D-05 0.486984624365D-06 0.000000000000D+00  6 2 22 9900012 -11 1 21 2 0.15922660D+00 0.21201368D-01 0.44163555D+04 0.44163555D+04 0.44163555D+04 0.12479626D+01  1  2  5  1  6  1        2 -.372873514620D-04 0.100000000000D+01
0.464375969535D-05 0.000000000000D+00 0.175426372930D-05 0.486984624365D-06 0.000000000000D+00  6 2 22 9900012 -11 1 21 2 0.14691288D+00 0.21201368D-01 0.44163555D+04 0.44163555D+04 0.44163555D+04 0.12479626D+01  1  2  6  1  6  1        2 0.425550194888D-04 0.100000000000D+01
0.236791643760D-07 0.000000000000D+00 0.000000000000D+00 0.486984624365D-06 0.000000000000D+00  6 21 22 9900012 -11 1 -2 2 0.16084241D+00 0.21201368D-01 0.71159553D+04 0.71159553D+04 0.71159553D+04 0.12249603D+01  1  2 12  3  6  1        2 0.144169978692D-06 0.100000000000D+01
-.567280053412D-07 0.000000000000D+00 -.236349429601D-07 0.486984624365D-06 0.000000000000D+00  6 21 22 9900012 -11 1 -2 2 0.15922660D+00 0.21201368D-01 0.44163555D+04 0.44163555D+04 0.44163555D+04 0.12479626D+01  1  2  5  3  6  1        2 -.370904640798D-06 0.100000000000D+01
  </mgrwgt>
  </event>
  <event>
  6     66 0.35199293E-06 0.35587663E+02 0.78161638E-02 0.11657820E+00
        2 -1    0    0  502    0 0.00000000E+00 0.00000000E+00 0.13722013E+03 0.13722013E+03 0.00000000E+00 0.0000E+00 0.9000E+01
       22 -1    0    0    0    0 0.00000000E+00 0.00000000E+00 -.11811976E+04 0.11811976E+04 0.00000000E+00 0.0000E+00 0.9000E+01
  9900012  1    1    2    0    0 -.16141530E+01 0.20998815E+02 -.10637265E+04 0.10651092E+04 0.50000000E+02 0.0000E+00 0.9000E+01
      -11  1    1    2    0    0 0.18069168E+01 0.20507218E+02 -.85456853E+02 0.87901562E+02 0.00000000E+00 0.0000E+00 0.9000E+01
        1  1    1    2  501    0 -.20509878E+01 0.40656755E+02 0.57272734E+02 0.70266239E+02 0.00000000E+00 0.0000E+00 0.9000E+01
       21  1    1    2  502  501 0.18582239E+01 -.82162788E+02 0.47933128E+02 0.95140746E+02 0.00000000E+00 0.0000E+00 0.9000E+01
#aMCatNLO 2  0  0  1  5 0.26574843D+02 0.00000000D+00  -5  6  0 0.00000000D+00 0.00000000D+00 0.00000000D+00 0.00000000D+00 0.00000000D+00
  <mgrwgt>
 0.5611812203D-06    1    2    0
 0.272664472653586D+03 0.000000000000000D+00 0.000000000000000D+00 0.272664472653586D+03
 0.272664472653586D+03 0.000000000000000D+00 0.000000000000000D+00 -.272664472653586D+03
 0.256177526717516D+03 -.745658535135000D+00 -.174023282543713D+02 -.250646221116098D+03
 0.229863871631422D+02 0.188953488382183D+01 0.168541976363712D+02 -.155157879197554D+02
 0.266165031426514D+03 -.114387634868683D+01 0.548130618000101D+00 0.266162009035853D+03
 0.000000000000000D+00 0.000000000000000D+00 -.000000000000000D+00 0.000000000000000D+00
 0.576061422967219D+03 0.000000000000000D+00 0.000000000000000D+00 0.576061422967219D+03
 0.281365987176914D+03 0.000000000000000D+00 0.000000000000000D+00 -.281365987176914D+03
 0.256450938574465D+03 -.161415295183110D+01 0.209988153521208D+02 -.250646221116098D+03
 0.257788788378268D+02 0.180691683953040D+01 0.205072175318727D+02 -.155157879197554D+02
 0.269257113838072D+03 -.205098778556907D+01 0.406567552506382D+02 0.266162009035853D+03
 0.305940478893769D+03 0.185822389786977D+01 -.821627881346317D+02 0.294695435790305D+03
0.350519199563D-06 0.000000000000D+00 0.000000000000D+00 0.102497065876D-04 0.139974332746D-08  6 2 22 9900012 -11 1 21 2 0.21110790D-01 0.18172271D+00 0.97746311D+04 0.97746311D+04 0.97746311D+04 0.12103573D+01  1  2  1  1  6  1        2 0.561181220320D-06 0.100000000000D+01
  </mgrwgt>
  </event>
</LesHouchesEvents>
