<LesHouchesEvents version="3.0">
  <!--
  <scalesfunctionalform>
    muR  H_T/2 := sum_i mT(i)/2, i=final state
    muF1 H_T/2 := sum_i mT(i)/2, i=final state
    muF2 H_T/2 := sum_i mT(i)/2, i=final state
    QES  H_T/2 := sum_i mT(i)/2, i=final state
  </scalesfunctionalform>
PYTHIA8   
  -->
  <header>
       28
  </header>
  <init>
   2212   2212 0.65000000D+04 0.65000000D+04 -1 -1  82200  82200 -4   1
 0.11100632D-04 0.17311822D-06 0.55145173D-06     66
  </init>
  <event>
  6     66 0.55145173E-06 0.12726234E+03 0.78161638E-02 0.95063521E-01
       -1 -1    0    0    0  501 0.00000000E+00 0.00000000E+00 0.42230778E+02 0.42230778E+02 0.00000000E+00 0.0000E+00 0.9000E+01
       22 -1    0    0    0    0 0.00000000E+00 0.00000000E+00 -.61870109E+03 0.61870109E+03 0.00000000E+00 0.0000E+00 0.9000E+01
       24  2    1    2    0    0 -.83611814E+02 0.95941482E+02 -.47616327E+03 0.49889112E+03 0.77234577E+02 0.0000E+00 0.0000E+00
  9900012  1    3    3    0    0 -.49317262E+02 0.56156102E+02 -.36544260E+03 0.37634292E+03 0.50000000E+02 0.0000E+00 0.9000E+01
      -13  1    3    3    0    0 -.34294552E+02 0.39785380E+02 -.11072067E+03 0.12254820E+03 0.00000000E+00 0.0000E+00 0.9000E+01
       -2  1    1    2    0  501 0.83611814E+02 -.95941482E+02 -.10030704E+03 0.16204075E+03 0.00000000E+00 0.0000E+00 0.9000E+01
#aMCatNLO 1  0  0  1  1 0.67441185D+03 0.00000000D+00  -5  6  0 0.00000000D+00 0.00000000D+00 0.00000000D+00 0.00000000D+00 0.00000000D+00
  <mgrwgt>
 0.8979899320D-05    3    2    0
 0.161642285867596D+03 0.000000000000000D+00 0.000000000000000D+00 0.161642285867596D+03
 0.161642285867596D+03 0.000000000000000D+00 0.000000000000000D+00 -.161642285867596D+03
 0.117760708633420D+03 -.493172619101083D+02 0.561561021172386D+02 -.760387031092273D+02
 0.531074734740699D+02 -.342945516270482D+02 0.397853802283354D+02 -.783651629141026D+01
 0.152416389627702D+03 0.836118135371565D+02 -.959414823455740D+02 0.838752194006375D+02
 0.000000000000000D+00 -.000000000000000D+00 -.000000000000000D+00 -.000000000000000D+00
 0.402748479123051D+03 0.000000000000000D+00 0.000000000000000D+00 0.402748479123051D+03
 0.582335623783075D+03 0.000000000000000D+00 0.000000000000000D+00 -.582335623783075D+03
 0.258652751358164D+03 -.304323412031424D+02 0.240194159012059D+03 -.760387031092273D+02
 0.133695543923299D+03 -.249225164945900D+02 0.131118098098387D+03 -.783651629141026D+01
 0.136871523877771D+03 0.981255859940623D+02 0.454986922058213D+02 0.838752194006375D+02
 0.455864283746892D+03 -.427707282963299D+02 -.416810949316268D+03 -.179587144660024D+03
0.644219576588D-06 0.000000000000D+00 0.000000000000D+00 0.148337704295D-06 0.000000000000D+00  6 -1 22 9900012 -13 -2 21 0 0.64970428D-02 0.95184783D-01 0.18185733D+05 0.18185733D+05 0.18185733D+05 0.11832960D+01  1  2  2  1  6  1       -1 0.949305684261D-05 0.100000000000D+01
-.115618427992D-07 0.000000000000D+00 -.123698640050D-08 0.148337704295D-06 0.000000000000D+00  6 -1 22 9900012 -13 -2 21 2 0.64970428D-02 0.95184783D-01 0.18185733D+05 0.18185733D+05 0.18185733D+05 0.11832960D+01  1  2  3  1  6  1       -1 -.238553638269D-06 0.100000000000D+01
-.133090694579D-07 0.000000000000D+00 0.000000000000D+00 0.148337704295D-06 0.000000000000D+00  6 -1 22 9900012 -13 -2 21 2 0.64970428D-02 0.95184783D-01 0.18185733D+05 0.18185733D+05 0.18185733D+05 0.11832960D+01  1  2 15  1  6  1       -1 -.274603884201D-06 0.100000000000D+01
  </mgrwgt>
  </event>
  <event>
  6     66 0.55145173E-06 0.35579804E+02 0.78161638E-02 0.12664703E+00
       -3 -1    0    0    0  501 0.00000000E+00 0.00000000E+00 0.53603208E+02 0.53603208E+02 0.00000000E+00 0.0000E+00 0.9000E+01
       22 -1    0    0    0    0 0.00000000E+00 0.00000000E+00 -.70370459E+02 0.70370459E+02 0.00000000E+00 0.0000E+00 0.9000E+01
       24  2    1    2    0    0 0.29288376E+02 0.20201819E+02 -.20963524E+02 0.88147264E+02 0.77875210E+02 0.0000E+00 0.0000E+00
  9900012  1    3    3    0    0 0.24495800E+02 -.10495163E+01 -.31465834E+02 0.63962836E+02 0.50000000E+02 0.0000E+00 0.9000E+01
      -13  1    3    3    0    0 0.47925765E+01 0.21251335E+02 0.10502310E+02 0.24184428E+02 0.00000000E+00 0.0000E+00 0.9000E+01
       -4  1    1    2    0  501 -.29288376E+02 -.20201819E+02 0.41962734E+01 0.35826403E+02 0.00000000E+00 0.0000E+00 0.9000E+01
#aMCatNLO 1  0  0  1  5 0.17544373D+02 0.00000000D+00  -5  6  0 0.00000000D+00 0.00000000D+00 0.00000000D+00 0.00000000D+00 0.00000000D+00
  <mgrwgt>
 0.1506262853D-04    6    4    0
 0.614172806278065D+02 0.000000000000000D+00 0.000000000000000D+00 0.614172806278065D+02
 0.614172806278065D+02 0.000000000000000D+00 0.000000000000000D+00 -.614172806278065D+02
 0.602608235314580D+02 0.244957999379282D+02 -.104951627494290D+01 -.230265315164734D+02
 0.258422955454647D+02 0.479257650942049D+01 0.212513350003092D+02 0.139009427797229D+02
 0.367314421786904D+02 -.292883764473487D+02 -.202018187253663D+02 0.912558873675054D+01
 0.000000000000000D+00 0.000000000000000D+00 0.000000000000000D+00 -.000000000000000D+00
 0.617107022269442D+02 0.000000000000000D+00 0.000000000000000D+00 0.617107022269442D+02
 0.706702346759950D+02 0.000000000000000D+00 0.000000000000000D+00 -.706702346759950D+02
 0.598334269559895D+02 0.233539532430974D+02 -.210016559770973D+01 -.230265315164734D+02
 0.253878766041436D+02 0.430548405905579D+01 0.208031458034430D+02 0.139009427797229D+02
 0.376542759362794D+02 -.299956300088426D+02 -.208525851362794D+02 0.912558873675054D+01
 0.950535740652666D+01 0.233619270668947D+01 0.214960493054613D+01 -.895953244905078D+01
 0.614172806278065D+02 0.000000000000000D+00 0.000000000000000D+00 0.614172806278065D+02
 0.614172806278065D+02 0.000000000000000D+00 0.000000000000000D+00 -.614172806278065D+02
 0.602608235314580D+02 0.244957999379282D+02 -.104951627494290D+01 -.230265315164734D+02
 0.258422955454647D+02 0.479257650942049D+01 0.212513350003092D+02 0.139009427797229D+02
 0.000000000000000D+00 0.000000000000000D+00 0.000000000000000D+00 -.000000000000000D+00
 0.367314421786904D+02 -.292883764473487D+02 -.202018187253663D+02 0.912558873675054D+01
 0.617107022269442D+02 0.000000000000000D+00 0.000000000000000D+00 0.617107022269442D+02
 0.706702346759950D+02 0.000000000000000D+00 0.000000000000000D+00 -.706702346759950D+02
 0.598334269559895D+02 0.233539532430974D+02 -.210016559770973D+01 -.230265315164734D+02
 0.253878766041436D+02 0.430548405905579D+01 0.208031458034430D+02 0.139009427797229D+02
 0.950535740652666D+01 0.233619270668947D+01 0.214960493054613D+01 -.895953244905078D+01
 0.376542759362794D+02 -.299956300088426D+02 -.208525851362794D+02 0.912558873675054D+01
0.418298602748D-07 0.000000000000D+00 0.000000000000D+00 0.556594217702D-07 0.000000000000D+00  6 -3 22 9900012 -13 -4 21 0 0.82466474D-02 0.10826224D-01 0.31952326D+04 0.31952326D+04 0.31952326D+04 0.12643508D+01  1  2  2  1  6  1       -3 0.981271772388D-05 0.100000000000D+01
-.741719236582D-09 0.000000000000D+00 -.803188387552D-10 0.556594217702D-07 0.000000000000D+00  6 -3 22 9900012 -13 -4 21 2 0.82466474D-02 0.10826224D-01 0.31952326D+04 0.31952326D+04 0.31952326D+04 0.12643508D+01  1  2  3  1  6  1       -3 -.278149087935D-06 0.100000000000D+01
-.671021962638D-09 0.000000000000D+00 0.000000000000D+00 0.556594217702D-07 0.000000000000D+00  6 -3 22 9900012 -13 -4 21 2 0.82466474D-02 0.10826224D-01 0.31952326D+04 0.31952326D+04 0.31952326D+04 0.12643508D+01  1  2 15  1  6  1       -3 -.251637193276D-06 0.100000000000D+01
0.156069240995D-07 0.000000000000D+00 0.000000000000D+00 0.556594217702D-07 0.000000000000D+00  6 -3 22 9900012 -13 -4 21 2 0.95343981D-02 0.10826224D-01 0.33741919D+04 0.33741919D+04 0.33741919D+04 0.12615441D+01  1  2 12  1  6  1       -3 0.467595969864D-05 0.100000000000D+01
-.193874481255D-08 0.000000000000D+00 0.000000000000D+00 0.556594217702D-07 0.000000000000D+00  6 -3 22 9900012 -13 -4 21 2 0.82466474D-02 0.10826224D-01 0.31952326D+04 0.31952326D+04 0.31952326D+04 0.12643508D+01  1  2  4  1  6  1       -3 -.727040738266D-06 0.100000000000D+01
0.346535949975D-09 0.000000000000D+00 0.000000000000D+00 0.556594217702D-07 0.000000000000D+00  6 21 22 9900012 -13 3 -4 2 0.95343981D-02 0.10826224D-01 0.33741919D+04 0.33741919D+04 0.33741919D+04 0.12615441D+01  3  4 12  3  5  1       -3 0.183077812513D-05 0.100000000000D+01
  </mgrwgt>
  </event>
  <event>
  7     66 -.55145173E-06 0.10997612E+03 0.78161638E-02 0.11230580E+00
       -3 -1    0    0    0  502 0.00000000E+00 0.00000000E+00 0.19612016E+02 0.19612016E+02 0.00000000E+00 0.0000E+00 0.9000E+01
       22 -1    0    0    0    0 0.00000000E+00 0.00000000E+00 -.92333654E+03 0.92333654E+03 0.00000000E+00 0.0000E+00 0.9000E+01
       24  2    1    2    0    0 0.74773533E+02 0.77937467E+02 -.61085367E+03 0.62527615E+03 0.78503018E+02 0.0000E+00 0.0000E+00
  9900012  1    3    3    0    0 0.39199421E+02 0.24607971E+02 -.27134054E+03 0.27976389E+03 0.50000000E+02 0.0000E+00 0.9000E+01
      -13  1    3    3    0    0 0.35574111E+02 0.53329496E+02 -.33951313E+03 0.34551226E+03 0.00000000E+00 0.0000E+00 0.9000E+01
       -4  1    1    2    0  501 -.83442291E+02 -.78131447E+02 -.27486144E+03 0.29768432E+03 0.00000000E+00 0.0000E+00 0.9000E+01
       21  1    1    2  501  502 0.86687582E+01 0.19398015E+00 -.18009404E+02 0.19988087E+02 0.00000000E+00 0.0000E+00 0.9000E+01
#aMCatNLO 2  0  0  1  5 0.10288443D+02 0.00000000D+00  -5  6  0 0.00000000D+00 0.00000000D+00 0.00000000D+00 0.00000000D+00 0.00000000D+00
  <mgrwgt>
 -.2673143616D-05    3    2    0
 0.129701165049230D+03 0.000000000000000D+00 0.000000000000000D+00 0.129701165049230D+03
 0.129701165049230D+03 0.000000000000000D+00 0.000000000000000D+00 -.129701165049230D+03
 0.702583441906842D+02 0.415238404910156D+02 0.246599838828050D+02 -.101926833656865D+02
 0.713215188319673D+02 0.379357040815027D+02 0.533823413808293D+02 -.282483102687564D+02
 0.117822467075809D+03 -.794595445725182D+02 -.780423252636342D+02 0.384409936344429D+02
 0.000000000000000D+00 0.000000000000000D+00 0.000000000000000D+00 0.000000000000000D+00
 0.136667911234932D+03 0.000000000000000D+00 0.000000000000000D+00 0.136667911234932D+03
 0.132499948357977D+03 0.000000000000000D+00 0.000000000000000D+00 -.132499948357977D+03
 0.688914917508260D+02 0.391994212692499D+02 0.246079705302340D+02 -.101926833656865D+02
 0.700536907602375D+02 0.355741112529247D+02 0.533294961972790D+02 -.282483102687564D+02
 0.120602026793780D+03 -.834422907449477D+02 -.781314468725624D+02 0.384409936344429D+02
 0.962065028806522D+01 0.866875822277311D+01 0.193980145049335D+00 0.416796287695557D+01
-.157607994326D-06 0.000000000000D+00 0.000000000000D+00 0.232001015538D-06 0.000000000000D+00  6 -3 22 9900012 -13 -4 21 2 0.30823413D-02 0.13905123D+00 0.16284517D+05 0.16284517D+05 0.16284517D+05 0.11879715D+01  1  2 13  1  6  1       -3 -.405706243083D-05 0.100000000000D+01
-.925179698091D-08 0.000000000000D+00 0.000000000000D+00 0.232001015538D-06 0.000000000000D+00  6 -3 22 9900012 -13 -4 21 2 0.28634276D-02 0.13905123D+00 0.15175663D+05 0.15175663D+05 0.15175663D+05 0.11909888D+01  1  2  8  1  6  1       -3 -.265151842495D-06 0.100000000000D+01
0.649907946856D-07 0.000000000000D+00 0.000000000000D+00 0.232001015538D-06 0.748859162343D-08  6 -3 22 9900012 -13 -4 21 2 0.30172333D-02 0.14205177D+00 0.16284517D+05 0.16284517D+05 0.16284517D+05 0.11879715D+01  1  2  1  1  6  1       -3 0.164907065732D-05 0.100000000000D+01
  </mgrwgt>
  </event>
  <event>
  6     66 0.55145173E-06 0.49073084E+02 0.78161638E-02 0.89851803E-01
       -3 -1    0    0    0  501 0.00000000E+00 0.00000000E+00 0.47381662E+02 0.47381662E+02 0.00000000E+00 0.0000E+00 0.9000E+01
       22 -1    0    0    0    0 0.00000000E+00 0.00000000E+00 -.12267766E+03 0.12267766E+03 0.00000000E+00 0.0000E+00 0.9000E+01
       24  2    1    2    0    0 0.18662712E+02 -.45385799E+02 -.21990244E+02 0.97604710E+02 0.81455147E+02 0.0000E+00 0.0000E+00
  9900012  1    3    3    0    0 0.13723702E+02 -.22320371E+02 -.38923269E+02 0.68567922E+02 0.50000000E+02 0.0000E+00 0.9000E+01
      -13  1    3    3    0    0 0.49390096E+01 -.23065427E+02 0.16933025E+02 0.29036788E+02 0.00000000E+00 0.0000E+00 0.9000E+01
       -4  1    1    2    0  501 -.18662712E+02 0.45385799E+02 -.53305758E+02 0.72454616E+02 0.00000000E+00 0.0000E+00 0.9000E+01
#aMCatNLO 1  0  0  1  5 0.62613569D+02 0.00000000D+00  -5  6  0 0.00000000D+00 0.00000000D+00 0.00000000D+00 0.00000000D+00 0.00000000D+00
  <mgrwgt>
 0.2603130623D-04    3    2    0
 0.762408788381275D+02 0.000000000000000D+00 0.000000000000000D+00 0.762408788381275D+02
 0.762408788381275D+02 0.000000000000000D+00 0.000000000000000D+00 -.762408788381275D+02
 0.572517532134631D+02 0.137237024328981D+02 -.223203713025098D+02 -.955113932819773D+01
 0.407456331486460D+02 0.493900956755757D+01 -.230654274438618D+02 0.332234685426968D+02
 0.544843713141459D+02 -.186627120004557D+02 0.453857987463716D+02 -.236723292144990D+02
 0.000000000000000D+00 0.000000000000000D+00 -.000000000000000D+00 -.000000000000000D+00
 0.614053952114374D+03 0.000000000000000D+00 0.000000000000000D+00 0.614053952114374D+03
 0.926756117419319D+03 0.000000000000000D+00 0.000000000000000D+00 -.926756117419319D+03
 0.155094812594655D+03 -.641101082510764D+02 0.131731054240600D+03 -.955113932819773D+01
 0.901088771238372D+02 -.430245877759284D+02 0.718658174741140D+02 0.332234685426968D+02
 0.501015379744753D+03 -.222276376739366D+03 0.448385151308513D+03 -.236723292144990D+02
 0.794591000070447D+03 0.329411072766371D+03 -.651982023023227D+03 -.312702165304945D+03
0.217623628902D-06 0.000000000000D+00 0.000000000000D+00 0.947490393085D-07 0.000000000000D+00  6 -3 22 9900012 -13 -4 21 0 0.72894864D-02 0.18873487D-01 0.41674008D+04 0.41674008D+04 0.41674008D+04 0.12508526D+01  1  2  2  1  6  1       -3 0.287185894998D-04 0.100000000000D+01
-.120954843743D-07 0.000000000000D+00 -.417866018301D-09 0.947490393085D-07 0.000000000000D+00  6 -3 22 9900012 -13 -4 21 2 0.72894864D-02 0.18873487D-01 0.41674008D+04 0.41674008D+04 0.41674008D+04 0.12508526D+01  1  2  3  1  6  1       -3 -.249742584552D-05 0.100000000000D+01
-.919513785831D-09 0.000000000000D+00 0.000000000000D+00 0.947490393085D-07 0.000000000000D+00  6 -3 22 9900012 -13 -4 21 2 0.72894864D-02 0.18873487D-01 0.41674008D+04 0.41674008D+04 0.41674008D+04 0.12508526D+01  1  2 15  1  6  1       -3 -.189857423067D-06 0.100000000000D+01
  </mgrwgt>
  </event>
  <event>
  6     66 0.55145173E-06 0.36229116E+02 0.78161638E-02 0.12249089E+00
       -1 -1    0    0    0  501 0.00000000E+00 0.00000000E+00 0.80674666E+03 0.80674666E+03 0.00000000E+00 0.0000E+00 0.9000E+01
       22 -1    0    0    0    0 0.00000000E+00 0.00000000E+00 -.48348669E+01 0.48348669E+01 0.00000000E+00 0.0000E+00 0.9000E+01
       24  2    1    2    0    0 0.35794620E+02 0.55941079E+01 0.59114203E+03 0.59772073E+03 0.80676010E+02 0.0000E+00 0.0000E+00
  9900012  1    3    3    0    0 0.78544725E+01 0.83315680E+01 0.49242455E+03 0.49508893E+03 0.50000000E+02 0.0000E+00 0.9000E+01
      -13  1    3    3    0    0 0.27940147E+02 -.27374601E+01 0.98717480E+02 0.10263180E+03 0.00000000E+00 0.0000E+00 0.9000E+01
       -2  1    1    2    0  501 -.35794620E+02 -.55941079E+01 0.21076976E+03 0.21386079E+03 0.00000000E+00 0.0000E+00 0.9000E+01
#aMCatNLO 1  0  0  1  1 0.18563245D+03 0.00000000D+00  -5  6  0 0.00000000D+00 0.00000000D+00 0.00000000D+00 0.00000000D+00 0.00000000D+00
  <mgrwgt>
 0.5354163273D-05    3    2    0
 0.624540850223388D+02 0.000000000000000D+00 0.000000000000000D+00 0.624540850223388D+02
 0.624540850223388D+02 0.000000000000000D+00 0.000000000000000D+00 -.624540850223388D+02
 0.554325081717977D+02 0.785447247220827D+01 0.833156800654822D+01 0.210155941850809D+02
 0.330751911126001D+02 0.279401474379666D+02 -.273746014009854D+01 -.174877883181689D+02
 0.364004707602797D+02 -.357946199101748D+02 -.559410786644968D+01 -.352780586691208D+01
 0.000000000000000D+00 -.000000000000000D+00 -.000000000000000D+00 -.000000000000000D+00
 0.645106042177414D+02 0.000000000000000D+00 0.000000000000000D+00 0.645106042177414D+02
 0.241740933036295D+03 0.000000000000000D+00 0.000000000000000D+00 -.241740933036295D+03
 0.584921032231519D+02 0.107571202278069D+02 0.190776126630236D+02 0.210155941850809D+02
 0.346288595110821D+02 0.296651567066528D+02 0.364878724330583D+01 -.174877883181689D+02
 0.341950766568631D+02 -.339959391443899D+02 0.106488263440858D+01 -.352780586691208D+01
 0.178935497862939D+03 -.642633779006985D+01 -.237912825407379D+02 -.177230328818553D+03
0.541523144610D-07 0.000000000000D+00 0.000000000000D+00 0.779996303748D-07 0.000000000000D+00  6 -1 22 9900012 -13 -2 21 0 0.12411487D+00 0.74382568D-03 0.33406880D+04 0.33406880D+04 0.33406880D+04 0.12620566D+01  1  2  2  1  6  1       -1 0.581538891389D-05 0.100000000000D+01
-.174537022593D-08 0.000000000000D+00 -.103979573081D-09 0.779996303748D-07 0.000000000000D+00  6 -1 22 9900012 -13 -2 21 2 0.12411487D+00 0.74382568D-03 0.33406880D+04 0.33406880D+04 0.33406880D+04 0.12620566D+01  1  2  3  1  6  1       -1 -.298543040349D-06 0.100000000000D+01
-.951090222369D-09 0.000000000000D+00 0.000000000000D+00 0.779996303748D-07 0.000000000000D+00  6 -1 22 9900012 -13 -2 21 2 0.12411487D+00 0.74382568D-03 0.33406880D+04 0.33406880D+04 0.33406880D+04 0.12620566D+01  1  2 15  1  6  1       -1 -.162682600181D-06 0.100000000000D+01
  </mgrwgt>
  </event>
  <event>
  7     66 0.55145173E-06 0.67029311E+02 0.78161638E-02 0.11859903E+00
       -3 -1    0    0    0  502 0.00000000E+00 0.00000000E+00 0.15520306E+03 0.15520306E+03 0.00000000E+00 0.0000E+00 0.9000E+01
       22 -1    0    0    0    0 0.00000000E+00 0.00000000E+00 -.53327357E+02 0.53327357E+02 0.00000000E+00 0.0000E+00 0.9000E+01
       24  2    1    2    0    0 -.63488468E+02 -.20654432E+02 0.34533219E+02 0.10920608E+03 0.79221427E+02 0.0000E+00 0.0000E+00
  9900012  1    3    3    0    0 -.54391207E+02 -.38569544E+02 0.30245043E+02 0.88661016E+02 0.50000000E+02 0.0000E+00 0.9000E+01
      -13  1    3    3    0    0 -.90972609E+01 0.17915111E+02 0.42881761E+01 0.20545068E+02 0.00000000E+00 0.0000E+00 0.9000E+01
       -4  1    1    2    0  501 0.64522790E+02 0.24478518E+02 0.62933755E+02 0.93397248E+02 0.00000000E+00 0.0000E+00 0.9000E+01
       21  1    1    2  501  502 -.10343227E+01 -.38240858E+01 0.44087289E+01 0.59270858E+01 0.00000000E+00 0.0000E+00 0.9000E+01
#aMCatNLO 2  0  0  1  5 0.18389887D+01 0.00000000D+00  -5  6  0 0.00000000D+00 0.00000000D+00 0.00000000D+00 0.00000000D+00 0.00000000D+00
  <mgrwgt>
 0.7564881099D-05    1    2    0
 0.887871126103506D+02 0.000000000000000D+00 0.000000000000000D+00 0.887871126103506D+02
 0.887871126103506D+02 0.000000000000000D+00 0.000000000000000D+00 -.887871126103506D+02
 0.857043055165962D+02 -.548869470096853D+02 -.404023885836828D+02 -.141526686095292D+02
 0.207543876508254D+02 -.921908852511398D+01 0.174646917392400D+02 -.638259790212161D+01
 0.711155320532796D+02 0.641060355347993D+02 0.229376968444428D+02 0.205352665116508D+02
 0.000000000000000D+00 -.000000000000000D+00 -.000000000000000D+00 0.000000000000000D+00
 0.918682054376465D+02 0.000000000000000D+00 0.000000000000000D+00 0.918682054376465D+02
 0.900917677117170D+02 0.000000000000000D+00 0.000000000000000D+00 -.900917677117170D+02
 0.845358569521135D+02 -.543912067971756D+02 -.385695437489729D+02 -.141526686095292D+02
 0.210819574664390D+02 -.909726087693562D+01 0.179151114753314D+02 -.638259790212161D+01
 0.720005937442028D+02 0.645227904155958D+02 0.244785180474291D+02 0.205352665116508D+02
 0.434156498660820D+01 -.103432274148459D+01 -.382408577378756D+01 0.177643772592953D+01
0.768956650334D-07 0.000000000000D+00 0.000000000000D+00 0.171310482058D-06 0.310305934099D-07  6 -3 22 9900012 -13 -4 21 2 0.23877394D-01 0.82042088D-02 0.77798460D+04 0.77798460D+04 0.77798460D+04 0.12208028D+01  1  2  1  1  6  1       -3 0.756488109927D-05 0.100000000000D+01
  </mgrwgt>
  </event>
  <event>
  6     66 0.55145173E-06 0.95792975E+02 0.78161638E-02 0.11485597E+00
       -1 -1    0    0    0  501 0.00000000E+00 0.00000000E+00 0.25905438E+03 0.25905438E+03 0.00000000E+00 0.0000E+00 0.9000E+01
       22 -1    0    0    0    0 0.00000000E+00 0.00000000E+00 -.60412724E+02 0.60412724E+02 0.00000000E+00 0.0000E+00 0.9000E+01
       24  2    1    2    0    0 -.18324885E+02 -.11198367E+03 0.11035871E+03 0.17569637E+03 0.76249762E+02 0.0000E+00 0.0000E+00
  9900012  1    3    3    0    0 0.28927821E+01 -.95803177E+02 0.99377702E+02 0.14684190E+03 0.50000000E+02 0.0000E+00 0.9000E+01
      -13  1    3    3    0    0 -.21217667E+02 -.16180496E+02 0.10981004E+02 0.28854467E+02 0.00000000E+00 0.0000E+00 0.9000E+01
       -2  1    1    2    0  501 0.18324885E+02 0.11198367E+03 0.88282947E+02 0.14377073E+03 0.00000000E+00 0.0000E+00 0.9000E+01
#aMCatNLO 1  0  0  5  1 0.41347318D+02 0.00000000D+00  -5  6  0 0.00000000D+00 0.00000000D+00 0.00000000D+00 0.00000000D+00 0.00000000D+00
  <mgrwgt>
 0.8911343086D-05    4    2    0
 0.125100681905836D+03 0.000000000000000D+00 0.000000000000000D+00 0.125100681905836D+03
 0.125100681905836D+03 -.000000000000000D+00 -.000000000000000D+00 -.125100681905836D+03
 0.108594956140159D+03 0.289278210326554D+01 -.958031767416664D+02 0.103076494406357D+02
 0.281244199215574D+02 -.212176669227610D+02 -.161804958047495D+02 -.888735966366559D+01
 0.113481987749956D+03 0.183248848194955D+02 0.111983672546416D+03 -.142028977697009D+01
 0.000000000000000D+00 0.000000000000000D+00 0.000000000000000D+00 0.000000000000000D+00
 0.125100681905836D+03 0.000000000000000D+00 0.000000000000000D+00 0.125100681905836D+03
 0.125100681905836D+03 -.000000000000000D+00 -.000000000000000D+00 -.125100681905836D+03
 0.939336750819596D+02 0.569611906760435D+01 -.786719384422694D+02 0.100903738140180D+02
 0.252106897517844D+02 -.204794192807258D+02 -.116690523213024D+02 -.894457833593465D+01
 0.346236179234181D+02 0.106375230185955D+02 -.604692254547295D+00 -.329434723338780D+02
 0.964333810545102D+02 0.414577719452603D+01 0.909456830181190D+02 0.317976768557946D+02
0.215033478981D-06 0.000000000000D+00 0.000000000000D+00 0.112450502682D-07 0.000000000000D+00  6 -1 22 9900012 -13 -2 21 0 0.39854520D-01 0.92942652D-02 0.15408387D+05 0.15408387D+05 0.15408387D+05 0.11903356D+01  1  2  2  2  6  5       -2 0.763695888898D-05 0.100000000000D+01
-.961641490852D-08 0.000000000000D+00 -.412892589450D-09 0.112450502682D-07 0.000000000000D+00  6 -1 22 9900012 -13 -2 21 2 0.39854520D-01 0.92942652D-02 0.15408387D+05 0.15408387D+05 0.15408387D+05 0.11903356D+01  1  2  3  2  6  5       -2 -.483911987325D-06 0.100000000000D+01
-.348370507238D-08 0.000000000000D+00 0.000000000000D+00 0.112450502682D-07 0.000000000000D+00  6 -1 22 9900012 -13 -2 21 2 0.39854520D-01 0.92942652D-02 0.15408387D+05 0.15408387D+05 0.15408387D+05 0.11903356D+01  1  2 15  2  6  5       -2 -.175305107035D-06 0.100000000000D+01
0.383968041622D-07 0.000000000000D+00 0.000000000000D+00 0.112450502682D-07 0.000000000000D+00  6 -1 22 9900012 -13 -2 21 2 0.39854520D-01 0.92942652D-02 0.11952565D+05 0.11952565D+05 0.11952565D+05 0.12013837D+01  1  2 12  2  6  5       -2 0.193360129101D-05 0.100000000000D+01
  </mgrwgt>
  </event>
  <event>
  7     66 0.55145173E-06 0.50000529E+02 0.78161638E-02 0.12089129E+00
       21 -1    0    0  502  501 0.00000000E+00 0.00000000E+00 0.57715872E+01 0.57715872E+01 0.00000000E+00 0.0000E+00 0.9000E+01
       22 -1    0    0    0    0 0.00000000E+00 0.00000000E+00 -.22465611E+04 0.22465611E+04 0.00000000E+00 0.0000E+00 0.9000E+01
       24  2    1    2    0    0 -.33476995E+02 0.46922380E+02 -.76467479E+03 0.77101610E+03 0.80099126E+02 0.0000E+00 0.0000E+00
  9900012  1    3    3    0    0 -.41721903E+02 0.17813520E+02 -.47684292E+03 0.48159860E+03 0.50000000E+02 0.0000E+00 0.9000E+01
      -13  1    3    3    0    0 0.82449081E+01 0.29108860E+02 -.28783187E+03 0.28941750E+03 0.00000000E+00 0.0000E+00 0.9000E+01
        1  1    1    2  502    0 0.33101777E+02 -.47067319E+02 -.31566030E+03 0.32086210E+03 0.00000000E+00 0.0000E+00 0.9000E+01
       -2  1    1    2    0  501 0.37521833E+00 0.14493902E+00 -.11604545E+04 0.11604545E+04 0.00000000E+00 0.0000E+00 0.9000E+01
#aMCatNLO 2  0  0  1  5 0.48752035D+01 0.00000000D+00  -5  6  0 0.00000000D+00 0.00000000D+00 0.00000000D+00 0.00000000D+00 0.00000000D+00
  <mgrwgt>
 0.2280648825D-01    1    2    0
 0.727067676207852D+02 0.000000000000000D+00 0.000000000000000D+00 0.727067676207852D+02
 0.727067676207852D+02 0.000000000000000D+00 0.000000000000000D+00 -.727067676207852D+02
 0.686991653910390D+02 -.256237516520040D+02 -.507639442433835D+01 0.392075107135139D+02
 0.260683750669170D+02 0.145322741579791D+02 0.201688727876003D+02 0.784791417539660D+01
 0.000000000000000D+00 0.000000000000000D+00 -.000000000000000D+00 0.000000000000000D+00
 0.506459947836143D+02 0.110914774940249D+02 -.150924783632619D+02 -.470554248889105D+02
 0.142333045838797D+03 0.000000000000000D+00 0.000000000000000D+00 0.142333045838797D+03
 0.910977730317620D+02 0.000000000000000D+00 0.000000000000000D+00 -.910977730317620D+02
 0.780721947360895D+02 -.417219031730815D+02 0.178135198704689D+02 0.392075107135139D+02
 0.312553035599686D+02 0.824490812497480D+01 0.291088600555247D+02 0.784791417539660D+01
 0.770461765091216D+02 0.331017767201319D+02 -.470673189488621D+02 0.512352728070354D+02
 0.470571440653796D+02 0.375218327974810D+00 0.144939022868524D+00 -.470554248889105D+02
0.863428000102D-04 0.000000000000D+00 0.000000000000D+00 0.358249485088D-06 0.230959516656D-06  6 21 22 9900012 -13 1 -2 2 0.88793649D-03 0.34562479D+00 0.60615018D+04 0.60615018D+04 0.60615018D+04 0.12325440D+01  1  2  1  3  5  1       -1 0.228064882519D-01 0.100000000000D+01
  </mgrwgt>
  </event>
  <event>
  6     66 0.55145173E-06 0.32411263E+02 0.78161638E-02 0.11804187E+00
       -1 -1    0    0    0  501 0.00000000E+00 0.00000000E+00 0.83684199E+02 0.83684199E+02 0.00000000E+00 0.0000E+00 0.9000E+01
       22 -1    0    0    0    0 0.00000000E+00 0.00000000E+00 -.13432476E+03 0.13432476E+03 0.00000000E+00 0.0000E+00 0.9000E+01
       24  2    1    2    0    0 -.46695720E+02 0.28641207E+02 0.45720108E+02 0.10716588E+03 0.79958673E+02 0.0000E+00 0.0000E+00
  9900012  1    3    3    0    0 -.49136514E+01 0.20977711E+02 0.25618121E+02 0.60170561E+02 0.50000000E+02 0.0000E+00 0.9000E+01
      -13  1    3    3    0    0 -.41782069E+02 0.76634961E+01 0.20101987E+02 0.46995322E+02 0.00000000E+00 0.0000E+00 0.9000E+01
       -2  1    1    2    0  501 0.46695720E+02 -.28641207E+02 -.96360671E+02 0.11084308E+03 0.00000000E+00 0.0000E+00 0.9000E+01
#aMCatNLO 1  0  0  1  5 0.42804609D+02 0.00000000D+00  -5  6  0 0.00000000D+00 0.00000000D+00 0.00000000D+00 0.00000000D+00 0.00000000D+00
  <mgrwgt>
 0.5333872756D-05    6    4    0
 0.106022922819048D+03 0.000000000000000D+00 0.000000000000000D+00 0.106022922819048D+03
 0.106022922819048D+03 0.000000000000000D+00 0.000000000000000D+00 -.106022922819048D+03
 0.679807594868633D+02 -.491365143972675D+01 0.209777107429424D+02 0.407084185633029D+02
 0.531176515863544D+02 -.417820686482655D+02 0.766349610865831D+01 0.318906644163077D+02
 0.909474345648776D+02 0.466957200879922D+02 -.286412068516007D+02 -.725990829796106D+02
 0.000000000000000D+00 -.000000000000000D+00 -.000000000000000D+00 -.000000000000000D+00
 0.117174427806141D+03 0.000000000000000D+00 0.000000000000000D+00 0.117174427806141D+03
 0.124087185430217D+03 0.000000000000000D+00 0.000000000000000D+00 -.124087185430217D+03
 0.689287667706521D+02 0.303946277276571D+01 0.241818364201494D+02 0.407084185633029D+02
 0.490227019302383D+02 -.358487057959693D+02 0.100539107008902D+02 0.318906644163077D+02
 0.957642962575178D+02 0.575418588530159D+02 -.242715485282015D+02 -.725990829796106D+02
 0.275458482779495D+02 -.247326158298123D+02 -.996419859283806D+01 -.691275762407541D+01
 0.106022922819048D+03 0.000000000000000D+00 0.000000000000000D+00 0.106022922819048D+03
 0.106022922819048D+03 0.000000000000000D+00 0.000000000000000D+00 -.106022922819048D+03
 0.679807594868633D+02 -.491365143972675D+01 0.209777107429424D+02 0.407084185633029D+02
 0.531176515863544D+02 -.417820686482655D+02 0.766349610865831D+01 0.318906644163077D+02
 0.000000000000000D+00 -.000000000000000D+00 -.000000000000000D+00 -.000000000000000D+00
 0.909474345648776D+02 0.466957200879922D+02 -.286412068516007D+02 -.725990829796106D+02
 0.117174427806141D+03 0.000000000000000D+00 0.000000000000000D+00 0.117174427806141D+03
 0.124087185430217D+03 0.000000000000000D+00 0.000000000000000D+00 -.124087185430217D+03
 0.689287667706521D+02 0.303946277276571D+01 0.241818364201494D+02 0.407084185633029D+02
 0.490227019302383D+02 -.358487057959693D+02 0.100539107008902D+02 0.318906644163077D+02
 0.275458482779495D+02 -.247326158298123D+02 -.996419859283806D+01 -.691275762407541D+01
 0.957642962575178D+02 0.575418588530159D+02 -.242715485282015D+02 -.725990829796106D+02
0.103494379962D-06 0.000000000000D+00 0.000000000000D+00 0.432168882140D-06 0.000000000000D+00  6 -1 22 9900012 -13 -2 21 0 0.12874492D-01 0.20665348D-01 0.57534685D+04 0.57534685D+04 0.57534685D+04 0.12350418D+01  1  2  2  1  6  1       -1 0.628764168106D-05 0.100000000000D+01
-.676682882795D-08 0.000000000000D+00 -.198722834875D-09 0.432168882140D-06 0.000000000000D+00  6 -1 22 9900012 -13 -2 21 2 0.12874492D-01 0.20665348D-01 0.57534685D+04 0.57534685D+04 0.57534685D+04 0.12350418D+01  1  2  3  1  6  1       -1 -.627075032296D-06 0.100000000000D+01
0.177093812850D-08 0.000000000000D+00 0.000000000000D+00 0.432168882140D-06 0.000000000000D+00  6 -1 22 9900012 -13 -2 21 2 0.12874492D-01 0.20665348D-01 0.57534685D+04 0.57534685D+04 0.57534685D+04 0.12350418D+01  1  2 15  1  6  1       -1 0.164111005666D-06 0.100000000000D+01
0.194610129661D-07 0.000000000000D+00 0.000000000000D+00 0.432168882140D-06 0.000000000000D+00  6 -1 22 9900012 -13 -2 21 2 0.16652918D-01 0.20665348D-01 0.82783888D+04 0.82783888D+04 0.82783888D+04 0.12179318D+01  1  2 12  1  6  1       -1 0.122914975066D-05 0.100000000000D+01
-.244884998812D-07 0.000000000000D+00 0.000000000000D+00 0.432168882140D-06 0.000000000000D+00  6 -1 22 9900012 -13 -2 21 2 0.12874492D-01 0.20665348D-01 0.57534685D+04 0.57534685D+04 0.57534685D+04 0.12350418D+01  1  2  4  1  6  1       -1 -.226932396908D-05 0.100000000000D+01
0.672798963389D-09 0.000000000000D+00 0.000000000000D+00 0.432168882140D-06 0.000000000000D+00  6 21 22 9900012 -13 1 -2 2 0.16652918D-01 0.20665348D-01 0.82783888D+04 0.82783888D+04 0.82783888D+04 0.12179318D+01  3  4 12  3  5  1       -1 0.549369320489D-06 0.100000000000D+01
  </mgrwgt>
  </event>
  <event>
  6     66 -.55145173E-06 0.28953139E+02 0.78161638E-02 0.12746848E+00
       -3 -1    0    0    0  501 0.00000000E+00 0.00000000E+00 0.89700053E+01 0.89700053E+01 0.00000000E+00 0.0000E+00 0.9000E+01
       22 -1    0    0    0    0 -.00000000E+00 -.00000000E+00 -.41705206E+03 0.41705206E+03 0.00000000E+00 0.0000E+00 0.9000E+01
       24  2    1    2    0    0 -.13112900E+01 -.28923430E+02 -.36023796E+03 0.37009943E+03 0.79774134E+02 0.0000E+00 0.0000E+00
  9900012  1    3    3    0    0 -.23583805E+02 -.19267688E+02 -.28804652E+03 0.29393577E+03 0.50000000E+02 0.0000E+00 0.9000E+01
      -13  1    3    3    0    0 0.22272515E+02 -.96557419E+01 -.72191446E+02 0.76163660E+02 0.00000000E+00 0.0000E+00 0.9000E+01
       -4  1    1    2    0  501 0.13112900E+01 0.28923430E+02 -.47844094E+02 0.55922640E+02 0.00000000E+00 0.0000E+00 0.9000E+01
#aMCatNLO 1  0  0  5  1 0.10509969D+01 0.00000000D+00  -5  6  0 0.00000000D+00 0.00000000D+00 0.00000000D+00 0.00000000D+00 0.00000000D+00
  <mgrwgt>
 -.1164528376D-04    8    2    0
 0.611633811836998D+02 0.000000000000000D+00 0.000000000000000D+00 0.611633811836998D+02
 0.611633811836998D+02 -.000000000000000D+00 -.000000000000000D+00 -.611633811836998D+02
 0.627541203859235D+02 -.235838052348162D+02 -.192676877253788D+02 -.225973442194990D+02
 0.244211996147586D+02 0.222725152170889D+02 -.965574187967109D+01 0.266396420426367D+01
 0.351514423667173D+02 0.131129001772739D+01 0.289234296050499D+02 0.199333800152353D+02
 0.000000000000000D+00 0.000000000000000D+00 0.000000000000000D+00 0.000000000000000D+00
 0.611633811836998D+02 0.000000000000000D+00 0.000000000000000D+00 0.611633811836998D+02
 0.611633811836998D+02 -.000000000000000D+00 -.000000000000000D+00 -.611633811836998D+02
 0.627210026541421D+02 -.235811789994432D+02 -.192097602395344D+02 -.225574218933975D+02
 0.244149270754695D+02 0.222735373731967D+02 -.963319594411826D+01 0.267950235818630D+01
 0.464731947683993D+01 0.312020255764265D+00 0.430943311764292D+01 0.171143445225669D+01
 0.305435131609480D+02 0.995621370482183D+00 0.245335230660097D+02 0.181664850829546D+02
0.995756118467D-08 0.000000000000D+00 0.000000000000D+00 0.285518118918D-06 0.000000000000D+00  6 -3 22 9900012 -13 -4 21 0 0.13800008D-02 0.64161856D-01 0.31232978D+04 0.31232978D+04 0.31232978D+04 0.12655296D+01  1  2  2  2  6  5       -4 0.210036496091D-05 0.100000000000D+01
0.131852565223D-09 0.000000000000D+00 -.191198284176D-10 0.285518118918D-06 0.000000000000D+00  6 -3 22 9900012 -13 -4 21 2 0.13800008D-02 0.64161856D-01 0.31232978D+04 0.31232978D+04 0.31232978D+04 0.12655296D+01  1  2  3  2  6  5       -4 0.445425404639D-07 0.100000000000D+01
-.141136974655D-09 0.000000000000D+00 0.000000000000D+00 0.285518118918D-06 0.000000000000D+00  6 -3 22 9900012 -13 -4 21 2 0.13800008D-02 0.64161856D-01 0.31232978D+04 0.31232978D+04 0.31232978D+04 0.12655296D+01  1  2 15  2  6  5       -4 -.476790071841D-07 0.100000000000D+01
0.513845223744D-12 0.000000000000D+00 0.000000000000D+00 0.285518118918D-06 0.000000000000D+00  6 -3 22 9900012 -13 -4 21 2 0.13800008D-02 0.64161856D-01 0.31173305D+04 0.31173305D+04 0.31173305D+04 0.12656288D+01  1  2 12  2  6  5       -4 0.173568410789D-09 0.100000000000D+01
-.122509596100D-06 0.000000000000D+00 0.000000000000D+00 0.285518118918D-06 0.000000000000D+00  6 -3 22 9900012 -13 -4 21 2 0.13800008D-02 0.64161856D-01 0.31232978D+04 0.31232978D+04 0.31232978D+04 0.12655296D+01  1  2  4  2  6  5       -4 -.413862910613D-04 0.100000000000D+01
-.354433326230D-07 0.000000000000D+00 0.000000000000D+00 0.285518118918D-06 0.000000000000D+00  6 -3 22 9900012 -13 -4 21 2 0.13800008D-02 0.64161856D-01 0.31232978D+04 0.31232978D+04 0.31232978D+04 0.12655296D+01  1  2  5  2  6  5       -4 -.119734953572D-04 0.100000000000D+01
0.696891244849D-07 0.000000000000D+00 -.000000000000D+00 0.285518118918D-06 0.000000000000D+00  6 -3 22 9900012 -13 -4 21 2 0.13800008D-02 0.64161856D-01 0.31232978D+04 0.31232978D+04 0.31232978D+04 0.12655296D+01  1  2  6  2  6  5       -4 0.235424365237D-04 0.100000000000D+01
0.475886673176D-07 0.000000000000D+00 0.000000000000D+00 0.285518118918D-06 0.197331911029D-06  6 -3 22 9900012 -13 -4 21 2 0.13800008D-02 0.64161856D-01 0.31173305D+04 0.31173305D+04 0.31173305D+04 0.12656288D+01  1  2 11  2  6  5       -4 0.160746640744D-04 0.100000000000D+01
  </mgrwgt>
  </event>
  <event>
  7     66 0.55145173E-06 0.28087148E+02 0.78161638E-02 0.12699072E+00
       21 -1    0    0  502  501 0.00000000E+00 0.00000000E+00 0.16017067E+02 0.16017067E+02 0.00000000E+00 0.0000E+00 0.9000E+01
       22 -1    0    0    0    0 0.00000000E+00 0.00000000E+00 -.22765338E+03 0.22765338E+03 0.00000000E+00 0.0000E+00 0.9000E+01
       24  2    1    2    0    0 0.26069267E+02 -.10420835E+02 -.16761408E+03 0.18854062E+03 0.81638749E+02 0.0000E+00 0.0000E+00
  9900012  1    3    3    0    0 0.32919795E+02 0.13356799E+02 -.11272767E+03 0.12833412E+03 0.50000000E+02 0.0000E+00 0.9000E+01
      -13  1    3    3    0    0 -.68505279E+01 -.23777633E+02 -.54886409E+02 0.60206507E+02 0.00000000E+00 0.0000E+00 0.9000E+01
        1  1    1    2  502    0 -.26125102E+02 0.10396231E+02 -.30035076E+02 0.41142537E+02 0.00000000E+00 0.0000E+00 0.9000E+01
       -2  1    1    2    0  501 0.55835326E-01 0.24603714E-01 -.13987157E+02 0.13987290E+02 0.00000000E+00 0.0000E+00 0.9000E+01
#aMCatNLO 2  0  0  1  5 0.90069840D+01 0.00000000D+00  -5  6  0 0.00000000D+00 0.00000000D+00 0.00000000D+00 0.00000000D+00 0.00000000D+00
  <mgrwgt>
 0.3293955425D-01    1    2    0
 0.855704479961164D+02 0.000000000000000D+00 0.000000000000000D+00 0.855704479961164D+02
 0.425674251072792D+02 0.000000000000000D+00 0.000000000000000D+00 -.425674251072792D+02
 0.563644943572532D+02 0.152937251240796D+02 0.203709218090120D+02 0.529940946040637D+01
 0.253460389657971D+02 -.143497558022055D+02 -.207933880812836D+02 -.203499675034338D+01
 0.430030228888372D+02 -.000000000000000D+00 0.000000000000000D+00 0.430030228888372D+02
 0.342431689150801D+01 -.943969321874011D+00 0.422466272271623D+00 -.326441271006299D+01
 0.686232895787752D+02 0.000000000000000D+00 0.000000000000000D+00 0.686232895787752D+02
 0.531355979707015D+02 0.000000000000000D+00 0.000000000000000D+00 -.531355979707015D+02
 0.615646057490233D+02 0.329197945628700D+02 0.133567985064559D+02 0.529940946040637D+01
 0.248283462623238D+02 -.685052789931737D+01 -.237776330581624D+02 -.203499675034338D+01
 0.321009526487383D+02 -.261251019897999D+02 0.103962308377747D+02 0.154876916080737D+02
 0.326498288939117D+01 0.558353262472671D-01 0.246037139318663D-01 -.326441271006299D+01
0.427257481602D-05 0.000000000000D+00 0.000000000000D+00 0.211266270438D-05 0.536033137424D-06  6 21 22 9900012 -13 1 -2 2 0.24641642D-02 0.35023597D-01 0.32638128D+04 0.32638128D+04 0.32638128D+04 0.12632547D+01  1  2  1  3  5  1       -1 0.329395542479D-01 0.100000000000D+01
  </mgrwgt>
  </event>
  <event>
  7     66 0.55145173E-06 0.17399877E+02 0.78161638E-02 0.12796031E+00
       21 -1    0    0  502  501 0.00000000E+00 0.00000000E+00 0.25455943E+02 0.25455943E+02 0.00000000E+00 0.0000E+00 0.9000E+01
       22 -1    0    0    0    0 0.00000000E+00 0.00000000E+00 -.16214509E+03 0.16214509E+03 0.00000000E+00 0.0000E+00 0.9000E+01
       24  2    1    2    0    0 -.29513873E+01 -.23408640E+02 -.59191142E+02 0.10255316E+03 0.80354743E+02 0.0000E+00 0.0000E+00
  9900012  1    3    3    0    0 -.21005690E+02 -.69493247E+00 -.43761359E+02 0.69690591E+02 0.50000000E+02 0.0000E+00 0.9000E+01
      -13  1    3    3    0    0 0.18054303E+02 -.22713707E+02 -.15429783E+02 0.32862571E+02 0.00000000E+00 0.0000E+00 0.9000E+01
        3  1    1    2  502    0 0.65689176E+01 0.19111139E+02 -.24527094E+02 0.31779941E+02 0.00000000E+00 0.0000E+00 0.9000E+01
       -4  1    1    2    0  501 -.36175303E+01 0.42975009E+01 -.52970915E+02 0.53267935E+02 0.00000000E+00 0.0000E+00 0.9000E+01
#aMCatNLO 2  0  0  1  5 0.45746939D+01 0.00000000D+00  -5  6  0 0.00000000D+00 0.00000000D+00 0.00000000D+00 0.00000000D+00 0.00000000D+00
  <mgrwgt>
 0.1687694721D-04    1    2    0
 0.531307370427687D+02 0.000000000000000D+00 0.000000000000000D+00 0.531307370427687D+02
 0.531307370427687D+02 0.000000000000000D+00 0.000000000000000D+00 -.531307370427687D+02
 0.545789033303037D+02 -.176482746146615D+02 0.907289286912717D+01 0.922375774017672D+01
 0.289338922587391D+02 0.199008092497999D+02 -.173416145218877D+02 0.118488952319469D+02
 0.000000000000000D+00 0.000000000000000D+00 0.000000000000000D+00 -.000000000000000D+00
 0.227486784964947D+02 -.225253463513843D+01 0.826872165276048D+01 -.210726529721236D+02
 0.630675347480461D+02 0.000000000000000D+00 0.000000000000000D+00 0.630675347480461D+02
 0.654466100176208D+02 0.000000000000000D+00 0.000000000000000D+00 -.654466100176208D+02
 0.550163581763359D+02 -.210056903957098D+02 -.694932469377557D+00 0.922375774017672D+01
 0.313411340693634D+02 0.180543030978454D+02 -.227137074513891D+02 0.118488952319469D+02
 0.203481279772520D+02 0.656891759601476D+01 0.191111390204009D+02 -.237907526957465D+01
 0.218085245427156D+02 -.361753029815034D+01 0.429750090036572D+01 -.210726529721236D+02
0.264358132865D-08 0.000000000000D+00 0.000000000000D+00 0.818754850225D-06 0.108267850674D-08  6 21 22 9900012 -13 3 -4 2 0.39162990D-02 0.24945399D-01 0.29745354D+04 0.29745354D+04 0.29745354D+04 0.12680681D+01  1  2  1  3  5  1       -3 0.168769472061D-04 0.100000000000D+01
  </mgrwgt>
  </event>
  <event>
  6     66 0.55145173E-06 0.41423729E+02 0.78161638E-02 0.12457414E+00
       -3 -1    0    0    0  501 0.00000000E+00 0.00000000E+00 0.86486643E+03 0.86486643E+03 0.00000000E+00 0.0000E+00 0.9000E+01
       22 -1    0    0    0    0 0.00000000E+00 0.00000000E+00 -.54967711E+01 0.54967711E+01 0.00000000E+00 0.0000E+00 0.9000E+01
       24  2    1    2    0    0 0.56704176E+01 -.41033787E+02 0.45028686E+03 0.45918847E+03 0.79874069E+02 0.0000E+00 0.0000E+00
  9900012  1    3    3    0    0 -.16523894E+02 -.15917004E+02 0.31787655E+03 0.32260176E+03 0.50000000E+02 0.0000E+00 0.9000E+01
      -13  1    3    3    0    0 0.22194312E+02 -.25116783E+02 0.13241031E+03 0.13658671E+03 0.00000000E+00 0.0000E+00 0.9000E+01
       -4  1    1    2    0  501 -.56704176E+01 0.41033787E+02 0.40908280E+03 0.41117473E+03 0.00000000E+00 0.0000E+00 0.9000E+01
#aMCatNLO 1  0  0  5  1 0.48391027D+01 0.00000000D+00  -5  6  0 0.00000000D+00 0.00000000D+00 0.00000000D+00 0.00000000D+00 0.00000000D+00
  <mgrwgt>
 0.4214989019D-05    8    2    0
 0.689490592356989D+02 0.000000000000000D+00 0.000000000000000D+00 0.689490592356989D+02
 0.689490592356989D+02 -.000000000000000D+00 -.000000000000000D+00 -.689490592356989D+02
 0.551655981227161D+02 -.165238943333627D+02 -.159170039901863D+02 -.410525471478714D+01
 0.369159989951628D+02 0.221943119687781D+02 -.251167830411688D+02 -.154709633735675D+02
 0.458165213535189D+02 -.567041763541544D+01 0.410337870313550D+02 0.195762180883546D+02
 0.000000000000000D+00 0.000000000000000D+00 0.000000000000000D+00 0.000000000000000D+00
 0.689490592356989D+02 0.000000000000000D+00 0.000000000000000D+00 0.689490592356989D+02
 0.689490592356989D+02 -.000000000000000D+00 -.000000000000000D+00 -.689490592356989D+02
 0.549329666405753D+02 -.166413861669554D+02 -.150667782771001D+02 -.369963278252476D+01
 0.363721591116734D+02 0.221161024108686D+02 -.245508221985263D+02 -.152009572716064D+02
 0.407704669194386D+02 -.755950726889678D+01 0.344216104950637D+02 0.204996964271828D+02
 0.582252579971050D+01 0.208479102498355D+01 0.519598998056273D+01 -.159910637305159D+01
0.499041567195D-07 0.000000000000D+00 0.000000000000D+00 0.255772708847D-06 0.000000000000D+00  6 -3 22 9900012 -13 -4 21 0 0.13305637D+00 0.84565709D-03 0.42220187D+04 0.42220187D+04 0.42220187D+04 0.12502023D+01  1  2  2  2  6  5       -4 0.171779104996D-05 0.100000000000D+01
-.353115746887D-09 0.000000000000D+00 -.958225509346D-10 0.255772708847D-06 0.000000000000D+00  6 -3 22 9900012 -13 -4 21 2 0.13305637D+00 0.84565709D-03 0.42220187D+04 0.42220187D+04 0.42220187D+04 0.12502023D+01  1  2  3  2  6  5       -4 -.189981497052D-07 0.100000000000D+01
-.758620130698D-09 0.000000000000D+00 0.000000000000D+00 0.255772708847D-06 0.000000000000D+00  6 -3 22 9900012 -13 -4 21 2 0.13305637D+00 0.84565709D-03 0.42220187D+04 0.42220187D+04 0.42220187D+04 0.12502023D+01  1  2 15  2  6  5       -4 -.408148855989D-07 0.100000000000D+01
0.521245181503D-07 0.000000000000D+00 0.000000000000D+00 0.255772708847D-06 0.000000000000D+00  6 -3 22 9900012 -13 -4 21 2 0.13305637D+00 0.84565709D-03 0.41404193D+04 0.41404193D+04 0.41404193D+04 0.12511774D+01  1  2 12  2  6  5       -4 0.280346680247D-05 0.100000000000D+01
-.678811583655D-07 0.000000000000D+00 0.000000000000D+00 0.255772708847D-06 0.000000000000D+00  6 -3 22 9900012 -13 -4 21 2 0.13305637D+00 0.84565709D-03 0.42220187D+04 0.42220187D+04 0.42220187D+04 0.12502023D+01  1  2  4  2  6  5       -4 -.365210676714D-05 0.100000000000D+01
-.158332213645D-06 0.000000000000D+00 0.000000000000D+00 0.255772708847D-06 0.000000000000D+00  6 -3 22 9900012 -13 -4 21 2 0.13305637D+00 0.84565709D-03 0.42220187D+04 0.42220187D+04 0.42220187D+04 0.12502023D+01  1  2  5  2  6  5       -4 -.851850738604D-05 0.100000000000D+01
0.179720463559D-06 0.000000000000D+00 -.000000000000D+00 0.255772708847D-06 0.000000000000D+00  6 -3 22 9900012 -13 -4 21 2 0.13305637D+00 0.84565709D-03 0.42220187D+04 0.42220187D+04 0.42220187D+04 0.12502023D+01  1  2  6  2  6  5       -4 0.966922688067D-05 0.100000000000D+01
0.419256673507D-07 0.000000000000D+00 0.000000000000D+00 0.255772708847D-06 0.295065220836D-07  6 -3 22 9900012 -13 -4 21 2 0.13305637D+00 0.84565709D-03 0.41404193D+04 0.41404193D+04 0.41404193D+04 0.12511774D+01  1  2 11  2  6  5       -4 0.225493147486D-05 0.100000000000D+01
  </mgrwgt>
  </event>
  <event>
  6     66 0.55145173E-06 0.27524586E+02 0.78161638E-02 0.12573249E+00
       -3 -1    0    0    0  501 0.00000000E+00 0.00000000E+00 0.31059202E+03 0.31059202E+03 0.00000000E+00 0.0000E+00 0.9000E+01
       22 -1    0    0    0    0 0.00000000E+00 0.00000000E+00 -.24911179E+02 0.24911179E+02 0.00000000E+00 0.0000E+00 0.9000E+01
       24  2    1    2    0    0 -.36837701E+02 -.13440872E+02 0.27211446E+03 0.29400958E+03 0.10420021E+03 0.0000E+00 0.0000E+00
  9900012  1    3    3    0    0 -.10091381E+02 -.42621592E+01 0.55277582E+02 0.75336665E+02 0.50000000E+02 0.0000E+00 0.9000E+01
      -13  1    3    3    0    0 -.26746320E+02 -.91787128E+01 0.21683688E+03 0.21867292E+03 0.00000000E+00 0.0000E+00 0.9000E+01
       -4  1    1    2    0  501 0.36837701E+02 0.13440872E+02 0.13566379E+02 0.41493613E+02 0.00000000E+00 0.0000E+00 0.9000E+01
#aMCatNLO 1  0  0  5  1 0.13382281D+02 0.00000000D+00  -5  6  0 0.00000000D+00 0.00000000D+00 0.00000000D+00 0.00000000D+00 0.00000000D+00
  <mgrwgt>
 0.1743031141D-04    7    2    0
 0.879614311434204D+02 0.000000000000000D+00 0.000000000000000D+00 0.879614311434204D+02
 0.879614311434204D+02 -.000000000000000D+00 -.000000000000000D+00 -.879614311434204D+02
 0.539096834541350D+02 -.100913808232286D+02 -.426215923477495D+01 -.169189834760554D+02
 0.649109640487501D+02 -.267463199510817D+02 -.917871283984985D+01 0.584278944804283D+02
 0.571022147839557D+02 0.368377007743104D+02 0.134408720746248D+02 -.415089110043730D+02
 0.000000000000000D+00 0.000000000000000D+00 0.000000000000000D+00 -.000000000000000D+00
 0.879614311434204D+02 0.000000000000000D+00 0.000000000000000D+00 0.879614311434204D+02
 0.879614311434204D+02 -.000000000000000D+00 -.000000000000000D+00 -.879614311434204D+02
 0.541405249291659D+02 -.871636067493426D+01 -.376045935870275D+01 -.184683632626618D+02
 0.625189316868240D+02 -.251246787089854D+02 -.858702899346948D+01 0.566006207748408D+02
 0.224986471592121D+02 0.188978942377177D+02 -.650584810946789D+01 -.103311498755604D+02
 0.367647585116388D+02 0.149431451462019D+02 0.188533364616401D+02 -.278011076366186D+02
0.380614097122D-06 0.000000000000D+00 0.000000000000D+00 0.130440642957D-08 0.000000000000D+00  6 -3 22 9900012 -13 -4 21 0 0.47783387D-01 0.38324891D-02 0.35210330D+04 0.35210330D+04 0.35210330D+04 0.12593640D+01  1  2  2  2  6  5       -4 0.179902329343D-04 0.100000000000D+01
-.219518462864D-07 0.000000000000D+00 -.730829175471D-09 0.130440642957D-08 0.000000000000D+00  6 -3 22 9900012 -13 -4 21 2 0.47783387D-01 0.38324891D-02 0.35210330D+04 0.35210330D+04 0.35210330D+04 0.12593640D+01  1  2  3  2  6  5       -4 -.164560471937D-05 0.100000000000D+01
0.183393130905D-09 0.000000000000D+00 0.000000000000D+00 0.130440642957D-08 0.000000000000D+00  6 -3 22 9900012 -13 -4 21 2 0.47783387D-01 0.38324891D-02 0.35210330D+04 0.35210330D+04 0.35210330D+04 0.12593640D+01  1  2 15  2  6  5       -4 0.137479370883D-07 0.100000000000D+01
0.167113989450D-06 0.000000000000D+00 0.000000000000D+00 0.130440642957D-08 0.000000000000D+00  6 -3 22 9900012 -13 -4 21 2 0.47783387D-01 0.38324891D-02 0.36898524D+04 0.36898524D+04 0.36898524D+04 0.12569809D+01  1  2 12  2  6  5       -4 0.125400629295D-04 0.100000000000D+01
-.268889599610D-06 0.000000000000D+00 0.000000000000D+00 0.130440642957D-08 0.000000000000D+00  6 -3 22 9900012 -13 -4 21 2 0.47783387D-01 0.38324891D-02 0.35210330D+04 0.35210330D+04 0.35210330D+04 0.12593640D+01  1  2  4  2  6  5       -4 -.201571197399D-04 0.100000000000D+01
-.149586147485D-06 0.000000000000D+00 0.000000000000D+00 0.130440642957D-08 0.000000000000D+00  6 -3 22 9900012 -13 -4 21 2 0.47783387D-01 0.38324891D-02 0.35210330D+04 0.35210330D+04 0.35210330D+04 0.12593640D+01  1  2  5  2  6  5       -4 -.112136203507D-04 0.100000000000D+01
0.265494552448D-06 0.000000000000D+00 -.000000000000D+00 0.130440642957D-08 0.000000000000D+00  6 -3 22 9900012 -13 -4 21 2 0.47783387D-01 0.38324891D-02 0.35210330D+04 0.35210330D+04 0.35210330D+04 0.12593640D+01  1  2  6  2  6  5       -4 0.199026124170D-04 0.100000000000D+01
  </mgrwgt>
  </event>
  <event>
  6     66 0.55145173E-06 0.76740310E+02 0.78161638E-02 0.11843071E+00
       -1 -1    0    0    0  501 0.00000000E+00 0.00000000E+00 0.74979147E+02 0.74979147E+02 0.00000000E+00 0.0000E+00 0.9000E+01
       22 -1    0    0    0    0 -.00000000E+00 -.00000000E+00 -.26675754E+03 0.26675754E+03 0.00000000E+00 0.0000E+00 0.9000E+01
       24  2    1    2    0    0 0.26845533E+02 0.88399077E+02 0.14957523E+02 0.11529725E+03 0.67339800E+02 0.0000E+00 0.0000E+00
  9900012  1    3    3    0    0 0.20398352E+02 0.54680368E+02 -.22768939E+01 0.76884457E+02 0.50000000E+02 0.0000E+00 0.9000E+01
      -13  1    3    3    0    0 0.64471807E+01 0.33718709E+02 0.17234417E+02 0.38412792E+02 0.00000000E+00 0.0000E+00 0.9000E+01
       -2  1    1    2    0  501 -.26845533E+02 -.88399077E+02 -.20673591E+03 0.22643943E+03 0.00000000E+00 0.0000E+00 0.9000E+01
#aMCatNLO 1  0  0  5  1 0.50792846D+02 0.00000000D+00  -5  6  0 0.00000000D+00 0.00000000D+00 0.00000000D+00 0.00000000D+00 0.00000000D+00
  <mgrwgt>
 0.8834119774D-05    4    2    0
 0.141425784557978D+03 0.000000000000000D+00 0.000000000000000D+00 0.141425784557978D+03
 0.141425784557978D+03 -.000000000000000D+00 -.000000000000000D+00 -.141425784557978D+03
 0.913467808237935D+02 0.203983522235949D+02 0.546803683637870D+02 0.493781217649364D+02
 0.580949547538709D+02 0.644718072318765D+01 0.337187090209751D+02 0.468668997324943D+02
 0.133409833538292D+03 -.268455329467825D+02 -.883990773847620D+02 -.962450214974307D+02
 0.000000000000000D+00 0.000000000000000D+00 0.000000000000000D+00 0.000000000000000D+00
 0.141425784557978D+03 0.000000000000000D+00 0.000000000000000D+00 0.141425784557978D+03
 0.141425784557978D+03 -.000000000000000D+00 -.000000000000000D+00 -.141425784557978D+03
 0.799879908962557D+02 0.175563184496259D+02 0.453218965460276D+02 0.391890298882987D+02
 0.493534521507682D+02 0.466486882983124D+01 0.278497725652554D+02 0.404770602448125D+02
 0.534181687086171D+02 -.253510676289119D+02 -.441826040460737D+02 0.160848257051323D+02
 0.100091957360316D+03 0.312988034945484D+01 -.289890650652093D+02 -.957509158382434D+02
0.308691074849D-06 0.000000000000D+00 0.000000000000D+00 0.210508808136D-08 0.000000000000D+00  6 -1 22 9900012 -13 -2 21 0 0.11535253D-01 0.41039621D-01 0.10359756D+05 0.10359756D+05 0.10359756D+05 0.12077423D+01  1  2  2  2  6  5       -2 0.805926671101D-05 0.100000000000D+01
-.203981496688D-07 0.000000000000D+00 -.592727503824D-09 0.210508808136D-08 0.000000000000D+00  6 -1 22 9900012 -13 -2 21 2 0.11535253D-01 0.41039621D-01 0.10359756D+05 0.10359756D+05 0.10359756D+05 0.12077423D+01  1  2  3  2  6  5       -2 -.776802839213D-06 0.100000000000D+01
-.308267845719D-08 0.000000000000D+00 0.000000000000D+00 0.210508808136D-08 0.000000000000D+00  6 -1 22 9900012 -13 -2 21 2 0.11535253D-01 0.41039621D-01 0.10359756D+05 0.10359756D+05 0.10359756D+05 0.12077423D+01  1  2 15  2  6  5       -2 -.117394637102D-06 0.100000000000D+01
0.439206349313D-07 0.000000000000D+00 0.000000000000D+00 0.210508808136D-08 0.000000000000D+00  6 -1 22 9900012 -13 -2 21 2 0.11535253D-01 0.41039621D-01 0.79267373D+04 0.79267373D+04 0.79267373D+04 0.12199361D+01  1  2 12  2  6  5       -2 0.166905053920D-05 0.100000000000D+01
  </mgrwgt>
  </event>
  <event>
  7     66 0.55145173E-06 0.39358485E+02 0.78161638E-02 0.12415074E+00
       21 -1    0    0  502  501 0.00000000E+00 0.00000000E+00 0.22537207E+02 0.22537207E+02 0.00000000E+00 0.0000E+00 0.9000E+01
       22 -1    0    0    0    0 0.00000000E+00 0.00000000E+00 -.41025518E+03 0.41025518E+03 0.00000000E+00 0.0000E+00 0.9000E+01
       24  2    1    2    0    0 0.42690184E+02 -.10282291E+02 -.17626058E+03 0.19823367E+03 0.79376450E+02 0.0000E+00 0.0000E+00
  9900012  1    3    3    0    0 0.40606634E+02 0.10731312E+02 -.15534754E+03 0.16851385E+03 0.50000000E+02 0.0000E+00 0.9000E+01
      -13  1    3    3    0    0 0.20835501E+01 -.21013603E+02 -.20913035E+02 0.29719821E+02 0.00000000E+00 0.0000E+00 0.9000E+01
        1  1    1    2  502    0 -.40642099E+02 0.70883119E+01 -.25368711E+02 0.48431352E+02 0.00000000E+00 0.0000E+00 0.9000E+01
       -2  1    1    2    0  501 -.20480846E+01 0.31939788E+01 -.18608869E+03 0.18612736E+03 0.00000000E+00 0.0000E+00 0.9000E+01
#aMCatNLO 2  0  0  1  5 0.93775228D+01 0.00000000D+00  -5  6  0 0.00000000D+00 0.00000000D+00 0.00000000D+00 0.00000000D+00 0.00000000D+00
  <mgrwgt>
 0.1319353037D-03    1    2    0
 0.606926543815448D+02 0.000000000000000D+00 0.000000000000000D+00 0.606926543815448D+02
 0.606926543815448D+02 0.000000000000000D+00 0.000000000000000D+00 -.606926543815448D+02
 0.568917259512108D+02 0.205718868135052D+02 0.142255348164009D+02 0.105404038740156D+02
 0.297539079284175D+02 -.764546692591714D+01 -.193167835609488D+02 0.213003226585165D+02
 0.000000000000000D+00 -.000000000000000D+00 0.000000000000000D+00 0.000000000000000D+00
 0.347396748834612D+02 -.129264198875881D+02 0.509124874454786D+01 -.318407265325321D+02
 0.131264912639940D+03 0.000000000000000D+00 0.000000000000000D+00 0.131264912639940D+03
 0.704377567034865D+02 0.000000000000000D+00 0.000000000000000D+00 -.704377567034865D+02
 0.661449912282405D+02 0.406066335056977D+02 0.107313124123099D+02 0.105404038740156D+02
 0.299936066722542D+02 0.208355013462946D+01 -.210136030867975D+02 0.213003226585165D+02
 0.734980767299325D+02 -.406420990875095D+02 0.708831188947382D+01 0.608271559364537D+02
 0.320659947129994D+02 -.204808455281758D+01 0.319397878501384D+01 -.318407265325321D+02
0.748061562026D-07 0.000000000000D+00 0.000000000000D+00 0.568688709654D-06 0.481505122442D-08  6 21 22 9900012 -13 1 -2 2 0.34672626D-02 0.63116182D-01 0.43208429D+04 0.43208429D+04 0.43208429D+04 0.12490493D+01  1  2  1  3  5  1       -1 0.131935303676D-03 0.100000000000D+01
  </mgrwgt>
  </event>
  <event>
  6     66 0.55145173E-06 0.27851462E+02 0.78161638E-02 0.12731901E+00
       -3 -1    0    0    0  501 0.00000000E+00 0.00000000E+00 0.22595459E+03 0.22595459E+03 0.00000000E+00 0.0000E+00 0.9000E+01
       22 -1    0    0    0    0 0.00000000E+00 0.00000000E+00 -.14520169E+02 0.14520169E+02 0.00000000E+00 0.0000E+00 0.9000E+01
       24  2    1    2    0    0 0.24970558E+02 -.12335931E+02 0.16639367E+03 0.18751843E+03 0.81857209E+02 0.0000E+00 0.0000E+00
  9900012  1    3    3    0    0 0.11342264E+02 -.32188585E+02 0.10004165E+03 0.11693196E+03 0.50000000E+02 0.0000E+00 0.9000E+01
      -13  1    3    3    0    0 0.13628294E+02 0.19852654E+02 0.66352024E+02 0.70586467E+02 0.00000000E+00 0.0000E+00 0.9000E+01
       -4  1    1    2    0  501 -.24970558E+02 0.12335931E+02 0.45040750E+02 0.52956332E+02 0.00000000E+00 0.0000E+00 0.9000E+01
#aMCatNLO 1  0  0  1  5 0.32940433D+02 0.00000000D+00  -5  6  0 0.00000000D+00 0.00000000D+00 0.00000000D+00 0.00000000D+00 0.00000000D+00
  <mgrwgt>
 0.1078156418D-04    7    4    0
 0.572791304698137D+02 0.000000000000000D+00 0.000000000000000D+00 0.572791304698137D+02
 0.572791304698137D+02 0.000000000000000D+00 0.000000000000000D+00 -.572791304698137D+02
 0.608156663577458D+02 0.113422639965912D+02 -.321885852862820D+02 -.581320042971433D+01
 0.257088565543263D+02 0.136282937766796D+02 0.198526544140426D+02 0.900483352339387D+01
 0.280337380275552D+02 -.249705577732708D+02 0.123359308722395D+02 -.319163309367955D+01
 0.000000000000000D+00 0.000000000000000D+00 0.000000000000000D+00 0.000000000000000D+00
 0.734927618363549D+02 0.000000000000000D+00 0.000000000000000D+00 0.734927618363549D+02
 0.690587570349166D+02 0.000000000000000D+00 0.000000000000000D+00 -.690587570349166D+02
 0.685328365629797D+02 0.830468692603853D+01 -.457601197899716D+02 -.581320042971433D+01
 0.214479421370989D+02 0.125208792555117D+02 0.149048575236800D+02 0.900483352339387D+01
 0.272570822083791D+02 -.262689889415361D+02 0.653469423149406D+01 -.319163309367955D+01
 0.253136579628137D+02 0.544342275998586D+01 0.243205680347975D+02 0.443400480143820D+01
 0.572791304698137D+02 0.000000000000000D+00 0.000000000000000D+00 0.572791304698137D+02
 0.572791304698137D+02 0.000000000000000D+00 0.000000000000000D+00 -.572791304698137D+02
 0.608156663577458D+02 0.113422639965912D+02 -.321885852862820D+02 -.581320042971433D+01
 0.257088565543263D+02 0.136282937766796D+02 0.198526544140426D+02 0.900483352339387D+01
 0.000000000000000D+00 0.000000000000000D+00 0.000000000000000D+00 0.000000000000000D+00
 0.280337380275552D+02 -.249705577732708D+02 0.123359308722395D+02 -.319163309367955D+01
 0.734927618363549D+02 0.000000000000000D+00 0.000000000000000D+00 0.734927618363549D+02
 0.690587570349166D+02 0.000000000000000D+00 0.000000000000000D+00 -.690587570349166D+02
 0.685328365629797D+02 0.830468692603853D+01 -.457601197899716D+02 -.581320042971433D+01
 0.214479421370989D+02 0.125208792555117D+02 0.149048575236800D+02 0.900483352339387D+01
 0.253136579628137D+02 0.544342275998586D+01 0.243205680347975D+02 0.443400480143820D+01
 0.272570822083791D+02 -.262689889415361D+02 0.653469423149406D+01 -.319163309367955D+01
0.483767159761D-07 0.000000000000D+00 0.000000000000D+00 0.423774039700D-07 0.000000000000D+00  6 -3 22 9900012 -13 -4 21 0 0.34762245D-01 0.22338721D-02 0.31623136D+04 0.31623136D+04 0.31623136D+04 0.12648865D+01  1  2  2  1  6  1       -3 0.860033513377D-05 0.100000000000D+01
-.801138024563D-09 0.000000000000D+00 -.928896636150D-10 0.423774039700D-07 0.000000000000D+00  6 -3 22 9900012 -13 -4 21 2 0.34762245D-01 0.22338721D-02 0.31623136D+04 0.31623136D+04 0.31623136D+04 0.12648865D+01  1  2  3  1  6  1       -3 -.227871206561D-06 0.100000000000D+01
-.617338355652D-09 0.000000000000D+00 0.000000000000D+00 0.423774039700D-07 0.000000000000D+00  6 -3 22 9900012 -13 -4 21 2 0.34762245D-01 0.22338721D-02 0.31623136D+04 0.31623136D+04 0.31623136D+04 0.12648865D+01  1  2 15  1  6  1       -3 -.175592259568D-06 0.100000000000D+01
-.526604892805D-08 0.000000000000D+00 0.000000000000D+00 0.423774039700D-07 0.000000000000D+00  6 -3 22 9900012 -13 -4 21 2 0.34762245D-01 0.22338721D-02 0.31623136D+04 0.31623136D+04 0.31623136D+04 0.12648865D+01  1  2  4  1  6  1       -3 -.149784542270D-05 0.100000000000D+01
-.311579470738D-07 0.000000000000D+00 -.149326794936D-07 0.423774039700D-07 0.000000000000D+00  6 -3 22 9900012 -13 -4 21 2 0.52815717D-01 0.22338721D-02 0.31623136D+04 0.31623136D+04 0.31623136D+04 0.12648865D+01  1  2  5  1  6  1       -3 -.392793066550D-05 0.100000000000D+01
0.354727381588D-07 0.000000000000D+00 0.137153004295D-07 0.423774039700D-07 0.000000000000D+00  6 -3 22 9900012 -13 -4 21 2 0.34762245D-01 0.22338721D-02 0.31623136D+04 0.31623136D+04 0.31623136D+04 0.12648865D+01  1  2  6  1  6  1       -3 0.100896666947D-04 0.100000000000D+01
-.991750484179D-09 0.000000000000D+00 -.734607245608D-09 0.423774039700D-07 0.000000000000D+00  6 21 22 9900012 -13 3 -4 2 0.52815717D-01 0.22338721D-02 0.31623136D+04 0.31623136D+04 0.31623136D+04 0.12648865D+01  3  4  5  3  5  1       -3 -.207919808971D-05 0.100000000000D+01
  </mgrwgt>
  </event>
  <event>
  7     66 0.55145173E-06 0.16766617E+02 0.78161638E-02 0.12745187E+00
       -3 -1    0    0    0  501 0.00000000E+00 0.00000000E+00 0.31110924E+03 0.31110924E+03 0.00000000E+00 0.0000E+00 0.9000E+01
       22 -1    0    0    0    0 0.00000000E+00 0.00000000E+00 -.30382084E+02 0.30382084E+02 0.00000000E+00 0.0000E+00 0.9000E+01
       24  2    1    2    0    0 -.12640442E+02 0.24461784E+02 0.28243613E+03 0.29542771E+03 0.82153542E+02 0.0000E+00 0.0000E+00
  9900012  1    3    3    0    0 -.42712259E+01 -.73147913E+01 0.13113225E+03 0.14059664E+03 0.50000000E+02 0.0000E+00 0.9000E+01
      -13  1    3    3    0    0 -.83692162E+01 0.31776575E+02 0.15130388E+03 0.15483107E+03 0.00000000E+00 0.0000E+00 0.9000E+01
       -4  1    1    2    0  502 0.92099778E+00 -.75545231E+01 -.18181076E+02 0.19709657E+02 0.00000000E+00 0.0000E+00 0.9000E+01
       21  1    1    2  502  501 0.11719444E+02 -.16907261E+02 0.16472096E+02 0.26353952E+02 0.00000000E+00 0.0000E+00 0.9000E+01
#aMCatNLO 2  0  0  5  1 0.16375623D+02 0.00000000D+00  -5  6  0 0.00000000D+00 0.00000000D+00 0.00000000D+00 0.00000000D+00 0.00000000D+00
  <mgrwgt>
 0.9184444439D-04    2    2    0
 0.972221525406341D+02 0.000000000000000D+00 0.000000000000000D+00 0.972221525406341D+02
 0.972221525406341D+02 -.000000000000000D+00 -.000000000000000D+00 -.972221525406341D+02
 0.587340943090123D+02 -.471634267668943D+01 -.645340134756221D+01 0.297624521352539D+02
 0.558431677355545D+02 -.878749449622297D+01 0.325860271476710D+02 0.444903378044196D+02
 0.798670430367014D+02 0.135038371729124D+02 -.261326258001088D+02 -.742527899396734D+02
 0.000000000000000D+00 0.000000000000000D+00 0.000000000000000D+00 0.000000000000000D+00
 0.972221525406341D+02 0.000000000000000D+00 0.000000000000000D+00 0.972221525406341D+02
 0.972221525406341D+02 -.000000000000000D+00 -.000000000000000D+00 -.972221525406341D+02
 0.576008164540533D+02 -.427122593879647D+01 -.731479126213071D+01 0.273149137641828D+02
 0.534773052235106D+02 -.836921616524493D+01 0.317765749183692D+02 0.421903742719260D+02
 0.608636925321484D+02 0.920997776120258D+00 -.755452310723693D+01 -.603860084155800D+02
 0.225024908715559D+02 0.117194443279211D+02 -.169072605490015D+02 -.911927962052880D+01
-.334932164245D-06 0.000000000000D+00 0.000000000000D+00 0.236435024500D-06 0.000000000000D+00  6 -3 22 9900012 -13 -4 21 2 0.47862959D-01 0.46741668D-02 0.31222922D+04 0.31222922D+04 0.31222922D+04 0.12655463D+01  1  2 13  2  6  5       -4 -.190814624686D-04 0.100000000000D+01
0.194705485056D-05 0.000000000000D+00 0.000000000000D+00 0.236435024500D-06 0.252900049741D-07  6 -3 22 9900012 -13 -4 21 2 0.47862959D-01 0.46741668D-02 0.31222922D+04 0.31222922D+04 0.31222922D+04 0.12655463D+01  1  2  1  2  6  5       -4 0.110925906860D-03 0.100000000000D+01
  </mgrwgt>
  </event>
  <event>
  7     66 0.55145173E-06 0.12055036E+03 0.78161638E-02 0.11132775E+00
       21 -1    0    0  502  501 0.00000000E+00 0.00000000E+00 0.66671476E+02 0.66671476E+02 0.00000000E+00 0.0000E+00 0.9000E+01
       22 -1    0    0    0    0 0.00000000E+00 0.00000000E+00 -.40953819E+03 0.40953819E+03 0.00000000E+00 0.0000E+00 0.9000E+01
       24  2    1    2    0    0 -.10894951E+03 -.58718257E+02 -.62473663E+02 0.16353892E+03 0.86742087E+02 0.0000E+00 0.0000E+00
  9900012  1    3    3    0    0 -.67227634E+02 -.64121336E+02 -.28021305E+02 0.10916178E+03 0.50000000E+02 0.0000E+00 0.9000E+01
      -13  1    3    3    0    0 -.41721878E+02 0.54030791E+01 -.34452358E+02 0.54377140E+02 0.00000000E+00 0.0000E+00 0.9000E+01
        3  1    1    2  502    0 0.18096622E+01 0.11557343E+01 -.67128110E+02 0.67162443E+02 0.00000000E+00 0.0000E+00 0.9000E+01
       -4  1    1    2    0  501 0.10713985E+03 0.57562523E+02 -.21326494E+03 0.24550830E+03 0.00000000E+00 0.0000E+00 0.9000E+01
#aMCatNLO 2  0  0  1  5 0.54226184D+02 0.00000000D+00  -5  6  0 0.00000000D+00 0.00000000D+00 0.00000000D+00 0.00000000D+00 0.00000000D+00
  <mgrwgt>
 0.2659000164D-04    2    2    0
 0.151065582923545D+03 0.000000000000000D+00 0.000000000000000D+00 0.151065582923545D+03
 0.151065582923545D+03 0.000000000000000D+00 0.000000000000000D+00 -.151065582923545D+03
 0.121569717548326D+03 -.664975510018468D+02 -.636550715213227D+02 0.616871445696094D+02
 0.419477247965486D+02 -.414699456213629D+02 0.556397493505549D+01 0.298285244191813D+01
 0.000000000000000D+00 0.000000000000000D+00 0.000000000000000D+00 -.000000000000000D+00
 0.138613723502216D+03 0.107967496623210D+03 0.580910965862672D+02 -.646699970115276D+02
 0.151108305154021D+03 0.000000000000000D+00 0.000000000000000D+00 0.151108305154021D+03
 0.180695001149813D+03 0.000000000000000D+00 0.000000000000000D+00 -.180695001149813D+03
 0.122214583262287D+03 -.672276339966037D+02 -.641213364180858D+02 0.616871445696094D+02
 0.421758911855826D+02 -.417218782572291D+02 0.540307905705668D+01 0.298285244191813D+01
 0.296645104252745D+02 0.180966215556677D+01 0.115573427158442D+01 -.295866959957920D+02
 0.137748321430690D+03 0.107139850098266D+03 0.575625230894447D+02 -.646699970115276D+02
-.990508242695D-09 0.000000000000D+00 0.000000000000D+00 0.281623103412D-08 0.000000000000D+00  6 21 22 9900012 -13 3 -4 2 0.12268948D-01 0.52674502D-01 0.18407097D+05 0.18407097D+05 0.18407097D+05 0.11827873D+01  1  2 13  3  5  1       -3 -.311539875721D-06 0.100000000000D+01
0.856990280046D-07 0.000000000000D+00 0.000000000000D+00 0.281623103412D-08 0.152248627233D-10  6 21 22 9900012 -13 3 -4 2 0.10257150D-01 0.63005875D-01 0.18407097D+05 0.18407097D+05 0.18407097D+05 0.11827873D+01  1  2  1  3  5  1       -3 0.269015415193D-04 0.100000000000D+01
  </mgrwgt>
  </event>
  <event>
  6     66 0.55145173E-06 0.37837628E+02 0.78161638E-02 0.11924595E+00
       -1 -1    0    0    0  501 0.00000000E+00 0.00000000E+00 0.94174106E+02 0.94174106E+02 0.00000000E+00 0.0000E+00 0.9000E+01
       22 -1    0    0    0    0 0.00000000E+00 0.00000000E+00 -.51167564E+02 0.51167564E+02 0.00000000E+00 0.0000E+00 0.9000E+01
       24  2    1    2    0    0 0.37545363E+02 -.46937990E+01 0.57141206E+02 0.10495015E+03 0.79484154E+02 0.0000E+00 0.0000E+00
  9900012  1    3    3    0    0 0.14923545E+02 0.17270822E+02 0.26634055E+02 0.61076725E+02 0.50000000E+02 0.0000E+00 0.9000E+01
      -13  1    3    3    0    0 0.22621818E+02 -.21964621E+02 0.30507151E+02 0.43873426E+02 0.00000000E+00 0.0000E+00 0.9000E+01
       -2  1    1    2    0  501 -.37545363E+02 0.46937990E+01 -.14134664E+02 0.40391519E+02 0.00000000E+00 0.0000E+00 0.9000E+01
#aMCatNLO 1  0  0  1  5 0.15544449D+01 0.00000000D+00  -5  6  0 0.00000000D+00 0.00000000D+00 0.00000000D+00 0.00000000D+00 0.00000000D+00
  <mgrwgt>
 0.1074912134D-04    6    4    0
 0.694165653877455D+02 0.000000000000000D+00 0.000000000000000D+00 0.694165653877455D+02
 0.694165653877455D+02 0.000000000000000D+00 0.000000000000000D+00 -.694165653877455D+02
 0.556895500558503D+02 0.149235450934371D+02 0.172708215880446D+02 0.896284045050075D+01
 0.364799802378198D+02 0.226218182971551D+02 -.219646205492332D+02 0.183466002084970D+02
 0.466636004818209D+02 -.375453633905922D+02 0.469379896118855D+01 -.273094406589978D+02
 0.000000000000000D+00 0.000000000000000D+00 -.000000000000000D+00 0.000000000000000D+00
 0.120006110618224D+03 0.000000000000000D+00 0.000000000000000D+00 0.120006110618224D+03
 0.806861038508896D+02 0.000000000000000D+00 0.000000000000000D+00 -.806861038508896D+02
 0.605195546458158D+02 0.760174819045930D+01 0.320077710882154D+02 0.896284045050075D+01
 0.293791152260205D+02 0.184723420367709D+02 -.136127606285395D+02 0.183466002084970D+02
 0.546160049268344D+02 -.439265217612692D+02 0.175374778978457D+02 -.273094406589978D+02
 0.561775396704428D+02 0.178524315340389D+02 -.359324883575215D+02 0.393200067673342D+02
 0.694165653877455D+02 0.000000000000000D+00 0.000000000000000D+00 0.694165653877455D+02
 0.694165653877455D+02 0.000000000000000D+00 0.000000000000000D+00 -.694165653877455D+02
 0.556895500558503D+02 0.149235450934371D+02 0.172708215880446D+02 0.896284045050075D+01
 0.364799802378198D+02 0.226218182971551D+02 -.219646205492332D+02 0.183466002084970D+02
 0.000000000000000D+00 0.000000000000000D+00 -.000000000000000D+00 0.000000000000000D+00
 0.466636004818209D+02 -.375453633905922D+02 0.469379896118855D+01 -.273094406589978D+02
 0.120006110618224D+03 0.000000000000000D+00 0.000000000000000D+00 0.120006110618224D+03
 0.806861038508896D+02 0.000000000000000D+00 0.000000000000000D+00 -.806861038508896D+02
 0.605195546458158D+02 0.760174819045930D+01 0.320077710882154D+02 0.896284045050075D+01
 0.293791152260205D+02 0.184723420367709D+02 -.136127606285395D+02 0.183466002084970D+02
 0.561775396704428D+02 0.178524315340389D+02 -.359324883575215D+02 0.393200067673342D+02
 0.546160049268344D+02 -.439265217612692D+02 0.175374778978457D+02 -.273094406589978D+02
0.392062539488D-07 0.000000000000D+00 0.000000000000D+00 0.202538316506D-06 0.000000000000D+00  6 -1 22 9900012 -13 -2 21 0 0.14488324D-01 0.78719329D-02 0.38646110D+04 0.38646110D+04 0.38646110D+04 0.12546400D+01  1  2  2  1  6  1       -1 0.763984137241D-05 0.100000000000D+01
-.212832059059D-08 0.000000000000D+00 -.752811692035D-10 0.202538316506D-06 0.000000000000D+00  6 -1 22 9900012 -13 -2 21 2 0.14488324D-01 0.78719329D-02 0.38646110D+04 0.38646110D+04 0.38646110D+04 0.12546400D+01  1  2  3  1  6  1       -1 -.652836320124D-06 0.100000000000D+01
0.117051070667D-10 0.000000000000D+00 0.000000000000D+00 0.202538316506D-06 0.000000000000D+00  6 -1 22 9900012 -13 -2 21 2 0.14488324D-01 0.78719329D-02 0.38646110D+04 0.38646110D+04 0.38646110D+04 0.12546400D+01  1  2 15  1  6  1       -1 0.359039848503D-08 0.100000000000D+01
-.196180427638D-07 0.000000000000D+00 -.973429151022D-08 0.202538316506D-06 0.000000000000D+00  6 -1 22 9900012 -13 -2 21 2 0.28716287D-01 0.78719329D-02 0.38646110D+04 0.38646110D+04 0.38646110D+04 0.12546400D+01  1  2  5  1  6  1       -1 -.211499190415D-05 0.100000000000D+01
0.226676391463D-07 0.000000000000D+00 0.782951553178D-08 0.202538316506D-06 0.000000000000D+00  6 -1 22 9900012 -13 -2 21 2 0.14488324D-01 0.78719329D-02 0.38646110D+04 0.38646110D+04 0.38646110D+04 0.12546400D+01  1  2  6  1  6  1       -1 0.695302117152D-05 0.100000000000D+01
-.873133380659D-09 0.000000000000D+00 -.720885745279D-09 0.202538316506D-06 0.000000000000D+00  6 21 22 9900012 -13 1 -2 2 0.28716287D-01 0.78719329D-02 0.38646110D+04 0.38646110D+04 0.38646110D+04 0.12546400D+01  3  4  5  3  5  1       -1 -.107950338056D-05 0.100000000000D+01
  </mgrwgt>
  </event>
  <event>
  6     66 0.55145173E-06 0.23470596E+02 0.78161638E-02 0.12917128E+00
       -1 -1    0    0    0  501 0.00000000E+00 0.00000000E+00 0.78501622E+02 0.78501622E+02 0.00000000E+00 0.0000E+00 0.9000E+01
       22 -1    0    0    0    0 0.00000000E+00 0.00000000E+00 -.68848040E+02 0.68848040E+02 0.00000000E+00 0.0000E+00 0.9000E+01
       24  2    1    2    0    0 0.76906636E+01 -.22838895E+02 0.52617054E+02 0.98088912E+02 0.79196710E+02 0.0000E+00 0.0000E+00
  9900012  1    3    3    0    0 -.11838228E+02 -.65610696E+01 0.17379284E+02 0.54637266E+02 0.50000000E+02 0.0000E+00 0.9000E+01
      -13  1    3    3    0    0 0.19528891E+02 -.16277825E+02 0.35237770E+02 0.43451647E+02 0.00000000E+00 0.0000E+00 0.9000E+01
       -2  1    1    2    0  501 -.76906636E+01 0.22838895E+02 -.42963473E+02 0.49260749E+02 0.00000000E+00 0.0000E+00 0.9000E+01
#aMCatNLO 1  0  0  1  5 0.31066320D+01 0.00000000D+00  -5  6  0 0.00000000D+00 0.00000000D+00 0.00000000D+00 0.00000000D+00 0.00000000D+00
  <mgrwgt>
 0.3524645933D-04    8    4    0
 0.735165478651544D+02 0.000000000000000D+00 0.000000000000000D+00 0.735165478651544D+02
 0.735165478651544D+02 0.000000000000000D+00 0.000000000000000D+00 -.735165478651544D+02
 0.536138496178602D+02 -.118382277092892D+02 -.656106957751362D+01 0.138294468995896D+02
 0.412316340973282D+02 0.195288912619060D+02 -.162778250967480D+02 0.324607835169808D+02
 0.521876120151204D+02 -.769066355261682D+01 0.228388946742616D+02 -.462902304165704D+02
 0.000000000000000D+00 0.000000000000000D+00 0.000000000000000D+00 -.000000000000000D+00
 0.742726162171344D+02 0.000000000000000D+00 0.000000000000000D+00 0.742726162171344D+02
 0.747488045209314D+02 0.000000000000000D+00 0.000000000000000D+00 -.747488045209314D+02
 0.537475816969486D+02 -.120550165037015D+02 -.722672220422756D+01 0.138294468995896D+02
 0.413581271563492D+02 0.193621224832699D+02 -.167898906573959D+02 0.324607835169808D+02
 0.519398907204764D+02 -.790092226011326D+01 0.221932927587481D+02 -.462902304165704D+02
 0.197582116429167D+01 0.593816280544864D+00 0.182332010287544D+01 -.476188303796959D+00
 0.735165478651544D+02 0.000000000000000D+00 0.000000000000000D+00 0.735165478651544D+02
 0.735165478651544D+02 0.000000000000000D+00 0.000000000000000D+00 -.735165478651544D+02
 0.536138496178602D+02 -.118382277092892D+02 -.656106957751362D+01 0.138294468995896D+02
 0.412316340973282D+02 0.195288912619060D+02 -.162778250967480D+02 0.324607835169808D+02
 0.000000000000000D+00 0.000000000000000D+00 0.000000000000000D+00 -.000000000000000D+00
 0.521876120151204D+02 -.769066355261682D+01 0.228388946742616D+02 -.462902304165704D+02
 0.742726162171344D+02 0.000000000000000D+00 0.000000000000000D+00 0.742726162171344D+02
 0.747488045209314D+02 0.000000000000000D+00 0.000000000000000D+00 -.747488045209314D+02
 0.537475816969486D+02 -.120550165037015D+02 -.722672220422756D+01 0.138294468995896D+02
 0.413581271563492D+02 0.193621224832699D+02 -.167898906573959D+02 0.324607835169808D+02
 0.197582116429167D+01 0.593816280544864D+00 0.182332010287544D+01 -.476188303796959D+00
 0.519398907204764D+02 -.790092226011326D+01 0.221932927587481D+02 -.462902304165704D+02
0.181255876046D-06 0.000000000000D+00 0.000000000000D+00 0.488104123705D-06 0.000000000000D+00  6 -1 22 9900012 -13 -2 21 0 0.12077173D-01 0.10592006D-01 0.25665289D+04 0.25665289D+04 0.25665289D+04 0.12758392D+01  1  2  2  1  6  1       -1 0.292042480977D-04 0.100000000000D+01
-.111126476102D-07 0.000000000000D+00 -.348035144893D-09 0.488104123705D-06 0.000000000000D+00  6 -1 22 9900012 -13 -2 21 2 0.12077173D-01 0.10592006D-01 0.25665289D+04 0.25665289D+04 0.25665289D+04 0.12758392D+01  1  2  3  1  6  1       -1 -.291449528816D-05 0.100000000000D+01
0.368624845242D-08 0.000000000000D+00 0.000000000000D+00 0.488104123705D-06 0.000000000000D+00  6 -1 22 9900012 -13 -2 21 2 0.12077173D-01 0.10592006D-01 0.25665289D+04 0.25665289D+04 0.25665289D+04 0.12758392D+01  1  2 15  1  6  1       -1 0.966786145161D-06 0.100000000000D+01
0.127854323835D-08 0.000000000000D+00 0.000000000000D+00 0.488104123705D-06 0.000000000000D+00  6 -1 22 9900012 -13 -2 21 2 0.12405893D-01 0.10592006D-01 0.26543725D+04 0.26543725D+04 0.26543725D+04 0.12740542D+01  1  2 12  1  6  1       -1 0.322671798622D-06 0.100000000000D+01
-.260601847912D-06 0.000000000000D+00 0.000000000000D+00 0.488104123705D-06 0.000000000000D+00  6 -1 22 9900012 -13 -2 21 2 0.12077173D-01 0.10592006D-01 0.25665289D+04 0.25665289D+04 0.25665289D+04 0.12758392D+01  1  2  4  1  6  1       -1 -.683476057615D-04 0.100000000000D+01
0.253645635081D-06 0.000000000000D+00 0.000000000000D+00 0.488104123705D-06 0.187848742755D-05  6 -1 22 9900012 -13 -2 21 2 0.12201378D-01 0.10769545D-01 0.26543725D+04 0.26543725D+04 0.26543725D+04 0.12740542D+01  1  2 11  1  6  1       -1 0.640815545376D-04 0.100000000000D+01
0.537885102165D-10 0.000000000000D+00 0.000000000000D+00 0.488104123705D-06 0.000000000000D+00  6 21 22 9900012 -13 1 -2 2 0.12405893D-01 0.10592006D-01 0.26543725D+04 0.26543725D+04 0.26543725D+04 0.12740542D+01  3  4 12  3  5  1       -1 0.189213106821D-06 0.100000000000D+01
0.332472506397D-08 0.000000000000D+00 0.000000000000D+00 0.488104123705D-06 0.268865451993D-08  6 21 22 9900012 -13 1 -2 2 0.12201378D-01 0.10769545D-01 0.26543725D+04 0.26543725D+04 0.26543725D+04 0.12740542D+01  3  4 11  3  5  1       -1 0.117440866937D-04 0.100000000000D+01
  </mgrwgt>
  </event>
  <event>
  6     66 0.55145173E-06 0.55022809E+02 0.78161638E-02 0.11779931E+00
       -1 -1    0    0    0  501 0.00000000E+00 0.00000000E+00 0.12366034E+03 0.12366034E+03 0.00000000E+00 0.0000E+00 0.9000E+01
       22 -1    0    0    0    0 0.00000000E+00 0.00000000E+00 -.84274073E+02 0.84274073E+02 0.00000000E+00 0.0000E+00 0.9000E+01
       24  2    1    2    0    0 -.39183101E+02 0.47964694E+02 -.38700192E+02 0.10826786E+03 0.79926820E+02 0.0000E+00 0.0000E+00
  9900012  1    3    3    0    0 -.25891279E+02 0.73633168E+01 -.31520511E+02 0.64947050E+02 0.50000000E+02 0.0000E+00 0.9000E+01
      -13  1    3    3    0    0 -.13291823E+02 0.40601377E+02 -.71796814E+01 0.43320806E+02 0.00000000E+00 0.0000E+00 0.9000E+01
       -2  1    1    2    0  501 0.39183101E+02 -.47964694E+02 0.78086456E+02 0.99666554E+02 0.00000000E+00 0.0000E+00 0.9000E+01
#aMCatNLO 1  0  0  1  5 0.23242446D+02 0.00000000D+00  -5  6  0 0.00000000D+00 0.00000000D+00 0.00000000D+00 0.00000000D+00 0.00000000D+00
  <mgrwgt>
 0.8653429202D-05    9    4    0
 0.102085063843910D+03 0.000000000000000D+00 0.000000000000000D+00 0.102085063843910D+03
 0.102085063843910D+03 0.000000000000000D+00 0.000000000000000D+00 -.102085063843910D+03
 0.722250698597428D+02 -.258912787542041D+02 0.736331677854549D+01 -.446305272961862D+02
 0.455045365083955D+02 -.132918227089005D+02 0.406013773838577D+02 -.156690282548927D+02
 0.864405213196824D+02 0.391831014631047D+02 -.479646941624032D+02 0.602995555510788D+02
 0.000000000000000D+00 0.000000000000000D+00 0.000000000000000D+00 0.000000000000000D+00
 0.127441162698337D+03 0.000000000000000D+00 0.000000000000000D+00 0.127441162698337D+03
 0.107108393179705D+03 0.000000000000000D+00 0.000000000000000D+00 -.107108393179705D+03
 0.738189066549396D+02 -.308918229610890D+02 0.174421533527232D+01 -.446305272961862D+02
 0.435266271815214D+02 -.163402488093571D+02 0.371758671209541D+02 -.156690282548927D+02
 0.879106929892579D+02 0.332133177343779D+02 -.546729281022077D+02 0.602995555510788D+02
 0.292933290523234D+02 0.140187540360682D+02 0.157528456459813D+02 0.203327695186318D+02
 0.102085063843910D+03 0.000000000000000D+00 0.000000000000000D+00 0.102085063843910D+03
 0.102085063843910D+03 0.000000000000000D+00 0.000000000000000D+00 -.102085063843910D+03
 0.722250698597428D+02 -.258912787542041D+02 0.736331677854549D+01 -.446305272961862D+02
 0.455045365083955D+02 -.132918227089005D+02 0.406013773838577D+02 -.156690282548927D+02
 0.000000000000000D+00 0.000000000000000D+00 0.000000000000000D+00 0.000000000000000D+00
 0.864405213196824D+02 0.391831014631047D+02 -.479646941624032D+02 0.602995555510788D+02
 0.127441162698337D+03 0.000000000000000D+00 0.000000000000000D+00 0.127441162698337D+03
 0.107108393179705D+03 0.000000000000000D+00 0.000000000000000D+00 -.107108393179705D+03
 0.738189066549396D+02 -.308918229610890D+02 0.174421533527232D+01 -.446305272961862D+02
 0.435266271815214D+02 -.163402488093571D+02 0.371758671209541D+02 -.156690282548927D+02
 0.292933290523234D+02 0.140187540360682D+02 0.157528456459813D+02 0.203327695186318D+02
 0.879106929892579D+02 0.332133177343779D+02 -.546729281022077D+02 0.602995555510788D+02
0.528042370834D-07 0.000000000000D+00 0.000000000000D+00 0.110207453531D-05 0.000000000000D+00  6 -1 22 9900012 -13 -2 21 0 0.19024667D-01 0.12965242D-01 0.65158741D+04 0.65158741D+04 0.65158741D+04 0.12291083D+01  1  2  2  1  6  1       -1 0.355127094869D-05 0.100000000000D+01
0.673524152406D-10 0.000000000000D+00 -.101391087038D-09 0.110207453531D-05 0.000000000000D+00  6 -1 22 9900012 -13 -2 21 2 0.19024667D-01 0.12965242D-01 0.65158741D+04 0.65158741D+04 0.65158741D+04 0.12291083D+01  1  2  3  1  6  1       -1 0.684303057534D-08 0.100000000000D+01
-.105771223689D-08 0.000000000000D+00 0.000000000000D+00 0.110207453531D-05 0.000000000000D+00  6 -1 22 9900012 -13 -2 21 2 0.19024667D-01 0.12965242D-01 0.65158741D+04 0.65158741D+04 0.65158741D+04 0.12291083D+01  1  2 15  1  6  1       -1 -.107463958806D-06 0.100000000000D+01
0.622772454972D-07 0.000000000000D+00 0.000000000000D+00 0.110207453531D-05 0.000000000000D+00  6 -1 22 9900012 -13 -2 21 2 0.24918729D-01 0.12965242D-01 0.85069075D+04 0.85069075D+04 0.85069075D+04 0.12166798D+01  1  2 12  1  6  1       -1 0.417215861164D-05 0.100000000000D+01
-.196400960239D-07 0.000000000000D+00 0.000000000000D+00 0.110207453531D-05 0.000000000000D+00  6 -1 22 9900012 -13 -2 21 2 0.19024667D-01 0.12965242D-01 0.65158741D+04 0.65158741D+04 0.65158741D+04 0.12291083D+01  1  2  4  1  6  1       -1 -.199544110058D-05 0.100000000000D+01
-.992437107002D-07 0.000000000000D+00 -.231635175416D-07 0.110207453531D-05 0.000000000000D+00  6 -1 22 9900012 -13 -2 21 2 0.24785261D-01 0.12965242D-01 0.65158741D+04 0.65158741D+04 0.65158741D+04 0.12291083D+01  1  2  5  1  6  1       -1 -.669581101731D-05 0.100000000000D+01
0.102549616555D-06 0.000000000000D+00 0.223761468171D-07 0.110207453531D-05 0.000000000000D+00  6 -1 22 9900012 -13 -2 21 2 0.19024667D-01 0.12965242D-01 0.65158741D+04 0.65158741D+04 0.65158741D+04 0.12291083D+01  1  2  6  1  6  1       -1 0.104190793911D-04 0.100000000000D+01
0.222939258167D-08 0.000000000000D+00 0.000000000000D+00 0.110207453531D-05 0.000000000000D+00  6 21 22 9900012 -13 1 -2 2 0.24918729D-01 0.12965242D-01 0.85069075D+04 0.85069075D+04 0.85069075D+04 0.12166798D+01  3  4 12  3  5  1       -1 0.175157075352D-05 0.100000000000D+01
-.307539935044D-08 0.000000000000D+00 -.817111695402D-09 0.110207453531D-05 0.000000000000D+00  6 21 22 9900012 -13 1 -2 2 0.24785261D-01 0.12965242D-01 0.65158741D+04 0.65158741D+04 0.65158741D+04 0.12291083D+01  3  4  5  3  5  1       -1 -.244877745718D-05 0.100000000000D+01
  </mgrwgt>
  </event>
  <event>
  6     66 0.55145173E-06 0.44214393E+02 0.78161638E-02 0.12127264E+00
       -1 -1    0    0    0  501 0.00000000E+00 0.00000000E+00 0.32641563E+03 0.32641563E+03 0.00000000E+00 0.0000E+00 0.9000E+01
       22 -1    0    0    0    0 0.00000000E+00 0.00000000E+00 -.40921595E+02 0.40921595E+02 0.00000000E+00 0.0000E+00 0.9000E+01
  9900012  1    1    2    0    0 0.53158666E+02 -.34699578E+02 0.87421381E+02 0.11904790E+03 0.50000000E+02 0.0000E+00 0.9000E+01
      -13  1    1    2    0    0 -.25950912E+02 -.13641309E+01 0.18899110E+03 0.19076936E+03 0.00000000E+00 0.0000E+00 0.9000E+01
       -2  1    1    2    0  502 -.10271017E+01 -.21521346E+00 -.91490861E+01 0.92090733E+01 0.00000000E+00 0.0000E+00 0.9000E+01
       21  1    1    2  502  501 -.26180652E+02 0.36278923E+02 0.18230643E+02 0.48310900E+02 0.00000000E+00 0.0000E+00 0.9000E+01
#aMCatNLO 2  0  0  5  1 0.16104162D+02 0.00000000D+00  -5  6  0 0.00000000D+00 0.00000000D+00 0.00000000D+00 0.00000000D+00 0.00000000D+00
  <mgrwgt>
 0.1758628793D-02    2    2    0
 0.115574427475437D+03 0.000000000000000D+00 0.000000000000000D+00 0.115574427475437D+03
 0.115574427475437D+03 -.000000000000000D+00 -.000000000000000D+00 -.115574427475437D+03
 0.823175790200972D+02 0.542082456689402D+02 -.360907901658911D+02 -.592492889639874D+01
 0.712021330204279D+02 -.250462993000416D+02 -.256318967283527D+01 0.666022274156993D+02
 0.776291429103497D+02 -.291619463688986D+02 0.386539798387264D+02 -.606772985193005D+02
 0.000000000000000D+00 0.000000000000000D+00 0.000000000000000D+00 0.000000000000000D+00
 0.115574427475437D+03 0.000000000000000D+00 0.000000000000000D+00 0.115574427475437D+03
 0.115574427475437D+03 -.000000000000000D+00 -.000000000000000D+00 -.115574427475437D+03
 0.812136501646018D+02 0.531586656839715D+02 -.346995783769078D+02 -.810879129235163D+01
 0.697423032762811D+02 -.259509121991634D+02 -.136413086097899D+01 0.647199982177550D+02
 0.259349975751029D+02 -.102710173758576D+01 -.215213458145948D+00 -.259137578210624D+02
 0.542579039348891D+02 -.261806517472223D+02 0.362789226960327D+02 -.306974491043409D+02
-.727128280740D-07 0.000000000000D+00 0.000000000000D+00 0.223163209085D-09 0.000000000000D+00  6 -1 22 9900012 -13 -2 21 2 0.50217790D-01 0.62956300D-02 0.58203982D+04 0.58203982D+04 0.58203982D+04 0.12344865D+01  1  2 13  2  6  5       -2 -.427217698898D-05 0.100000000000D+01
0.300047295431D-04 0.000000000000D+00 0.000000000000D+00 0.223163209085D-09 0.501506193487D-09  6 -1 22 9900012 -13 -2 21 2 0.50217790D-01 0.62956300D-02 0.58203982D+04 0.58203982D+04 0.58203982D+04 0.12344865D+01  1  2  1  2  6  5       -2 0.176290096961D-02 0.100000000000D+01
  </mgrwgt>
  </event>
  <event>
  7     66 0.55145173E-06 0.18640709E+02 0.78161638E-02 0.12851978E+00
       -1 -1    0    0    0  501 0.00000000E+00 0.00000000E+00 0.20385723E+02 0.20385723E+02 0.00000000E+00 0.0000E+00 0.9000E+01
       22 -1    0    0    0    0 -.00000000E+00 -.00000000E+00 -.20361631E+03 0.20361631E+03 0.00000000E+00 0.0000E+00 0.9000E+01
       24  2    1    2    0    0 0.10351243E+02 -.12676838E+02 -.64357221E+02 0.10153007E+03 0.76802687E+02 0.0000E+00 0.0000E+00
  9900012  1    3    3    0    0 0.19781656E+02 0.86736787E+01 -.38516591E+02 0.66708878E+02 0.50000000E+02 0.0000E+00 0.9000E+01
      -13  1    3    3    0    0 -.94304124E+01 -.21350516E+02 -.25840630E+02 0.34821192E+02 0.00000000E+00 0.0000E+00 0.9000E+01
       -2  1    1    2    0  502 -.10543800E+02 0.19197626E+02 -.10313646E+03 0.10543647E+03 0.00000000E+00 0.0000E+00 0.9000E+01
       21  1    1    2  502  501 0.19255711E+00 -.65207880E+01 -.15736911E+02 0.17035496E+02 0.00000000E+00 0.0000E+00 0.9000E+01
#aMCatNLO 2  0  0  5  1 0.30284870D+01 0.00000000D+00  -5  6  0 0.00000000D+00 0.00000000D+00 0.00000000D+00 0.00000000D+00 0.00000000D+00
  <mgrwgt>
 0.2685221539D-04    1    2    0
 0.644272137450567D+02 0.000000000000000D+00 0.000000000000000D+00 0.644272137450567D+02
 0.644272137450567D+02 -.000000000000000D+00 -.000000000000000D+00 -.644272137450567D+02
 0.629547377106061D+02 0.208381221734140D+02 0.737985783989287D+01 0.312187341633200D+02
 0.243613001873809D+02 -.902068472604368D+01 -.218522967878972D+02 0.588024820791300D+01
 0.415383895921265D+02 -.118174374473703D+02 0.144724389480044D+02 -.370989823712330D+02
 0.000000000000000D+00 0.000000000000000D+00 -.000000000000000D+00 0.000000000000000D+00
 0.644272137450567D+02 0.000000000000000D+00 0.000000000000000D+00 0.644272137450567D+02
 0.644272137450567D+02 -.000000000000000D+00 -.000000000000000D+00 -.644272137450567D+02
 0.611970189465346D+02 0.197816556526402D+02 0.867367871185459D+01 0.279021240264322D+02
 0.237882704982704D+02 -.943041239151282D+01 -.213505163765162D+02 0.459397277756336D+01
 0.366322714084121D+02 -.105438003692149D+02 0.191976257053213D+02 -.293632891480518D+02
 0.723686663689642D+01 0.192557108087549D+00 -.652078804065961D+01 -.313280765594381D+01
0.723265949143D-07 0.000000000000D+00 0.000000000000D+00 0.268172955846D-07 0.199926977074D-08  6 -1 22 9900012 -13 -2 21 2 0.31362651D-02 0.31325587D-01 0.28213430D+04 0.28213430D+04 0.28213430D+04 0.12708372D+01  1  2  1  2  6  5       -2 0.268522153865D-04 0.100000000000D+01
  </mgrwgt>
  </event>
  <event>
  6     66 0.55145173E-06 0.33397733E+02 0.78161638E-02 0.12648428E+00
       -3 -1    0    0    0  501 0.00000000E+00 0.00000000E+00 0.36162036E+03 0.36162036E+03 0.00000000E+00 0.0000E+00 0.9000E+01
       22 -1    0    0    0    0 0.00000000E+00 0.00000000E+00 -.10063260E+02 0.10063260E+02 0.00000000E+00 0.0000E+00 0.9000E+01
       24  2    1    2    0    0 0.15769506E+02 0.30111032E+02 0.24157298E+03 0.25656691E+03 0.79458923E+02 0.0000E+00 0.0000E+00
  9900012  1    3    3    0    0 0.47136359E+01 -.89023021E+00 0.10976956E+03 0.12071606E+03 0.50000000E+02 0.0000E+00 0.9000E+01
      -13  1    3    3    0    0 0.11055871E+02 0.31001262E+02 0.13180342E+03 0.13585085E+03 0.00000000E+00 0.0000E+00 0.9000E+01
       -4  1    1    2    0  501 -.15769506E+02 -.30111032E+02 0.10998411E+03 0.11511671E+03 0.00000000E+00 0.0000E+00 0.9000E+01
#aMCatNLO 1  0  0  5  1 0.20559468D+01 0.00000000D+00  -5  6  0 0.00000000D+00 0.00000000D+00 0.00000000D+00 0.00000000D+00 0.00000000D+00
  <mgrwgt>
 0.6399958251D-05    6    2    0
 0.603247862306546D+02 0.000000000000000D+00 0.000000000000000D+00 0.603247862306546D+02
 0.603247862306546D+02 -.000000000000000D+00 -.000000000000000D+00 -.603247862306546D+02
 0.520342838912819D+02 0.471363589191991D+01 -.890230208347894D+00 -.135851325695802D+02
 0.344560344303493D+02 0.110558705005998D+02 0.310012622517834D+02 0.101935163185001D+02
 0.341592541396781D+02 -.157695063925197D+02 -.301110320434355D+02 0.339161625108012D+01
 0.000000000000000D+00 0.000000000000000D+00 0.000000000000000D+00 0.000000000000000D+00
 0.603247862306546D+02 0.000000000000000D+00 0.000000000000000D+00 0.603247862306546D+02
 0.603247862306546D+02 -.000000000000000D+00 -.000000000000000D+00 -.603247862306546D+02
 0.520205796226347D+02 0.458719439858800D+01 -.113166350134830D+01 -.135579382482793D+02
 0.342911085369075D+02 0.109723329212351D+02 0.308417516960012D+02 0.102114831086263D+02
 0.378442425032846D+01 0.220048308177127D+00 -.377636163401481D+01 -.111975254779262D+00
 0.305534600514386D+02 -.157795756280002D+02 -.259337265606380D+02 0.345843039443217D+01
0.465643003177D-07 0.000000000000D+00 0.000000000000D+00 0.198672106566D-06 0.000000000000D+00  6 -3 22 9900012 -13 -4 21 0 0.55633901D-01 0.15481939D-02 0.34300775D+04 0.34300775D+04 0.34300775D+04 0.12607020D+01  1  2  2  2  6  5       -4 0.541713859488D-05 0.100000000000D+01
-.839770690483D-09 0.000000000000D+00 -.894095869409D-10 0.198672106566D-06 0.000000000000D+00  6 -3 22 9900012 -13 -4 21 2 0.55633901D-01 0.15481939D-02 0.34300775D+04 0.34300775D+04 0.34300775D+04 0.12607020D+01  1  2  3  2  6  5       -4 -.155275328596D-06 0.100000000000D+01
-.998514266132D-10 0.000000000000D+00 0.000000000000D+00 0.198672106566D-06 0.000000000000D+00  6 -3 22 9900012 -13 -4 21 2 0.55633901D-01 0.15481939D-02 0.34300775D+04 0.34300775D+04 0.34300775D+04 0.12607020D+01  1  2 15  2  6  5       -4 -.184627342367D-07 0.100000000000D+01
0.450029991014D-10 0.000000000000D+00 0.000000000000D+00 0.198672106566D-06 0.000000000000D+00  6 -3 22 9900012 -13 -4 21 2 0.55633901D-01 0.15481939D-02 0.34279845D+04 0.34279845D+04 0.34279845D+04 0.12607333D+01  1  2 12  2  6  5       -4 0.832097580735D-08 0.100000000000D+01
-.291500894035D-07 0.000000000000D+00 0.000000000000D+00 0.198672106566D-06 0.000000000000D+00  6 -3 22 9900012 -13 -4 21 2 0.55633901D-01 0.15481939D-02 0.34300775D+04 0.34300775D+04 0.34300775D+04 0.12607020D+01  1  2  5  2  6  5       -4 -.538991151040D-05 0.100000000000D+01
0.353607902210D-07 0.000000000000D+00 0.000000000000D+00 0.198672106566D-06 0.256024033296D-07  6 -3 22 9900012 -13 -4 21 2 0.55633901D-01 0.15481939D-02 0.34279845D+04 0.34279845D+04 0.34279845D+04 0.12607333D+01  1  2 11  2  6  5       -4 0.653814825307D-05 0.100000000000D+01
  </mgrwgt>
  </event>
  <event>
  6     66 0.55145173E-06 0.29239026E+02 0.78161638E-02 0.12531676E+00
       -3 -1    0    0    0  501 0.00000000E+00 0.00000000E+00 0.99271830E+01 0.99271830E+01 0.00000000E+00 0.0000E+00 0.9000E+01
       22 -1    0    0    0    0 0.00000000E+00 0.00000000E+00 -.34602472E+03 0.34602472E+03 0.00000000E+00 0.0000E+00 0.9000E+01
       24  2    1    2    0    0 -.29805287E+02 0.10048280E+01 -.21662207E+03 0.23281071E+03 0.79914600E+02 0.0000E+00 0.0000E+00
  9900012  1    3    3    0    0 -.30312724E+00 -.12252647E+02 -.15318398E+03 0.16160306E+03 0.50000000E+02 0.0000E+00 0.9000E+01
      -13  1    3    3    0    0 -.29502160E+02 0.13257475E+02 -.63438090E+02 0.71207649E+02 0.00000000E+00 0.0000E+00 0.9000E+01
       -4  1    1    2    0  501 0.29805287E+02 -.10048280E+01 -.11947547E+03 0.12314119E+03 0.00000000E+00 0.0000E+00 0.9000E+01
#aMCatNLO 1  0  0  1  5 0.10566924D+02 0.00000000D+00  -5  6  0 0.00000000D+00 0.00000000D+00 0.00000000D+00 0.00000000D+00 0.00000000D+00
  <mgrwgt>
 0.1065532785D-04    9    4    0
 0.586093055226163D+02 0.000000000000000D+00 0.000000000000000D+00 0.586093055226163D+02
 0.586093055226163D+02 0.000000000000000D+00 0.000000000000000D+00 -.586093055226163D+02
 0.515119609308942D+02 -.303127236541481D+00 -.122526474789444D+02 -.180633955311675D+01
 0.343385104345054D+02 -.295021595104537D+02 0.132574754624722D+02 0.115323556761977D+02
 0.313681396798330D+02 0.298052867469951D+02 -.100482798352781D+01 -.972601612308097D+01
 0.000000000000000D+00 -.000000000000000D+00 0.000000000000000D+00 0.000000000000000D+00
 0.748221398295277D+02 0.000000000000000D+00 0.000000000000000D+00 0.748221398295277D+02
 0.603783253489164D+02 0.000000000000000D+00 0.000000000000000D+00 -.603783253489164D+02
 0.518012930915223D+02 0.405453057823979D+01 -.127934313287235D+02 -.180633955311675D+01
 0.318305051325628D+02 -.267112114321010D+02 0.129111197570688D+02 0.115323556761977D+02
 0.340110839254160D+02 0.325629221284722D+02 -.134704959460149D+01 -.972601612308097D+01
 0.175575830289429D+02 -.990624127461097D+01 0.122936116625616D+01 0.144438144806114D+02
 0.586093055226163D+02 0.000000000000000D+00 0.000000000000000D+00 0.586093055226163D+02
 0.586093055226163D+02 0.000000000000000D+00 0.000000000000000D+00 -.586093055226163D+02
 0.515119609308942D+02 -.303127236541481D+00 -.122526474789444D+02 -.180633955311675D+01
 0.343385104345054D+02 -.295021595104537D+02 0.132574754624722D+02 0.115323556761977D+02
 0.000000000000000D+00 -.000000000000000D+00 0.000000000000000D+00 0.000000000000000D+00
 0.313681396798330D+02 0.298052867469951D+02 -.100482798352781D+01 -.972601612308097D+01
 0.748221398295277D+02 0.000000000000000D+00 0.000000000000000D+00 0.748221398295277D+02
 0.603783253489164D+02 0.000000000000000D+00 0.000000000000000D+00 -.603783253489164D+02
 0.518012930915223D+02 0.405453057823979D+01 -.127934313287235D+02 -.180633955311675D+01
 0.318305051325628D+02 -.267112114321010D+02 0.129111197570688D+02 0.115323556761977D+02
 0.175575830289429D+02 -.990624127461097D+01 0.122936116625616D+01 0.144438144806114D+02
 0.340110839254160D+02 0.325629221284722D+02 -.134704959460149D+01 -.972601612308097D+01
0.189665976874D-07 0.000000000000D+00 0.000000000000D+00 0.216809552700D-06 0.000000000000D+00  6 -3 22 9900012 -13 -4 21 0 0.15272589D-02 0.53234572D-01 0.32288850D+04 0.32288850D+04 0.32288850D+04 0.12638097D+01  1  2  2  1  6  1       -3 0.478435290206D-05 0.100000000000D+01
-.580426543166D-09 0.000000000000D+00 -.364183645698D-10 0.216809552700D-06 0.000000000000D+00  6 -3 22 9900012 -13 -4 21 2 0.15272589D-02 0.53234572D-01 0.32288850D+04 0.32288850D+04 0.32288850D+04 0.12638097D+01  1  2  3  1  6  1       -3 -.233853778723D-06 0.100000000000D+01
0.726062199077D-10 0.000000000000D+00 0.000000000000D+00 0.216809552700D-06 0.000000000000D+00  6 -3 22 9900012 -13 -4 21 2 0.15272589D-02 0.53234572D-01 0.32288850D+04 0.32288850D+04 0.32288850D+04 0.12638097D+01  1  2 15  1  6  1       -3 0.292530365541D-07 0.100000000000D+01
0.383000962276D-07 0.000000000000D+00 0.000000000000D+00 0.216809552700D-06 0.000000000000D+00  6 -3 22 9900012 -13 -4 21 2 0.20085873D-02 0.53234572D-01 0.38446646D+04 0.38446646D+04 0.38446646D+04 0.12549011D+01  1  2 12  1  6  1       -3 0.105512581172D-04 0.100000000000D+01
-.239551059732D-07 0.000000000000D+00 0.000000000000D+00 0.216809552700D-06 0.000000000000D+00  6 -3 22 9900012 -13 -4 21 2 0.15272589D-02 0.53234572D-01 0.32288850D+04 0.32288850D+04 0.32288850D+04 0.12638097D+01  1  2  4  1  6  1       -3 -.965150907984D-05 0.100000000000D+01
-.530956721195D-07 0.000000000000D+00 -.824282922160D-08 0.216809552700D-06 0.000000000000D+00  6 -3 22 9900012 -13 -4 21 2 0.20078374D-02 0.53234572D-01 0.32288850D+04 0.32288850D+04 0.32288850D+04 0.12638097D+01  1  2  5  1  6  1       -3 -.145030433769D-04 0.100000000000D+01
0.536303078307D-07 0.000000000000D+00 0.794368575209D-08 0.216809552700D-06 0.000000000000D+00  6 -3 22 9900012 -13 -4 21 2 0.15272589D-02 0.53234572D-01 0.32288850D+04 0.32288850D+04 0.32288850D+04 0.12638097D+01  1  2  6  1  6  1       -3 0.216076440472D-04 0.100000000000D+01
0.138612465455D-08 0.000000000000D+00 0.000000000000D+00 0.216809552700D-06 0.000000000000D+00  6 21 22 9900012 -13 3 -4 2 0.20085873D-02 0.53234572D-01 0.38446646D+04 0.38446646D+04 0.38446646D+04 0.12549011D+01  3  4 12  3  5  1       -3 0.744297128200D-05 0.100000000000D+01
-.175984296563D-08 0.000000000000D+00 -.298021146291D-09 0.216809552700D-06 0.000000000000D+00  6 21 22 9900012 -13 3 -4 2 0.20078374D-02 0.53234572D-01 0.32288850D+04 0.32288850D+04 0.32288850D+04 0.12638097D+01  3  4  5  3  5  1       -3 -.937174529818D-05 0.100000000000D+01
  </mgrwgt>
  </event>
  <event>
  7     66 -.55145173E-06 0.89007829E+01 0.78161638E-02 0.12907385E+00
       -1 -1    0    0    0  502 0.00000000E+00 0.00000000E+00 0.22354477E+03 0.22354477E+03 0.00000000E+00 0.0000E+00 0.9000E+01
       22 -1    0    0    0    0 0.00000000E+00 0.00000000E+00 -.21498184E+02 0.21498184E+02 0.00000000E+00 0.0000E+00 0.9000E+01
       24  2    1    2    0    0 -.15022154E+02 0.29790844E+02 0.14555502E+03 0.16973047E+03 0.80678416E+02 0.0000E+00 0.0000E+00
  9900012  1    3    3    0    0 0.55094332E+01 -.26395867E+00 0.74455454E+02 0.89855652E+02 0.50000000E+02 0.0000E+00 0.9000E+01
      -13  1    3    3    0    0 -.20531587E+02 0.30054803E+02 0.71099571E+02 0.79874816E+02 0.00000000E+00 0.0000E+00 0.9000E+01
       -2  1    1    2    0  501 0.64679116E+01 -.15820375E+02 0.63490674E+00 0.17103253E+02 0.00000000E+00 0.0000E+00 0.9000E+01
       21  1    1    2  501  502 0.85542420E+01 -.13970469E+02 0.55856658E+02 0.58209237E+02 0.00000000E+00 0.0000E+00 0.9000E+01
#aMCatNLO 2  0  0  1  5 0.18052696D+02 0.00000000D+00  -5  6  0 0.00000000D+00 0.00000000D+00 0.00000000D+00 0.00000000D+00 0.00000000D+00
  <mgrwgt>
 -.1643369665D-04    1    2    0
 0.575912189420707D+02 0.000000000000000D+00 0.000000000000000D+00 0.575912189420707D+02
 0.575912189420707D+02 0.000000000000000D+00 0.000000000000000D+00 -.575912189420707D+02
 0.516940322772816D+02 0.929420247207865D+01 -.644510263983907D+01 0.665968658831473D+01
 0.341523920923977D+02 -.178313418458789D+02 0.256448634773428D+02 0.138119553589173D+02
 0.293360135144621D+02 0.853713937380023D+01 -.191997608375037D+02 -.204716419472320D+02
 0.000000000000000D+00 0.000000000000000D+00 -.000000000000000D+00 0.000000000000000D+00
 0.780951520500391D+02 0.000000000000000D+00 0.000000000000000D+00 0.780951520500391D+02
 0.615378364888392D+02 0.000000000000000D+00 0.000000000000000D+00 -.615378364888392D+02
 0.507422403295034D+02 0.550943318511563D+01 -.263958673375171D+00 0.665968658831473D+01
 0.389308019036449D+02 -.205315867980860D+02 0.300548027705520D+02 0.138119553589173D+02
 0.266684510150361D+02 0.646791162966211D+01 -.158203753013824D+02 -.204716419472320D+02
 0.232914952906938D+02 0.855424198330824D+01 -.139704687957944D+02 0.165573155611999D+02
-.633572569663D-07 0.000000000000D+00 0.000000000000D+00 0.213112142933D-06 0.000000000000D+00  6 -1 22 9900012 -13 -2 21 2 0.36748288D-01 0.30952980D-02 0.36104750D+04 0.36104750D+04 0.36104750D+04 0.12580858D+01  1  2 13  1  6  1       -1 -.164336966522D-04 0.100000000000D+01
  </mgrwgt>
  </event>
  <event>
  7     66 -.55145173E-06 0.95844517E+01 0.78161638E-02 0.12922233E+00
       21 -1    0    0  502  501 0.00000000E+00 0.00000000E+00 0.40590199E+01 0.40590199E+01 0.00000000E+00 0.0000E+00 0.9000E+01
       22 -1    0    0    0    0 0.00000000E+00 0.00000000E+00 -.18020515E+04 0.18020515E+04 0.00000000E+00 0.0000E+00 0.9000E+01
       24  2    1    2    0    0 0.25326122E+02 -.14768163E+02 -.68540131E+03 0.69090057E+03 0.81909265E+02 0.0000E+00 0.0000E+00
  9900012  1    3    3    0    0 0.32153978E-01 0.71690695E+01 -.31920124E+03 0.32317306E+03 0.50000000E+02 0.0000E+00 0.9000E+01
      -13  1    3    3    0    0 0.25293968E+02 -.21937233E+02 -.36620008E+03 0.36772751E+03 0.00000000E+00 0.0000E+00 0.9000E+01
        3  1    1    2  502    0 -.18793838E+02 -.29421144E+01 -.72702550E+02 0.75150018E+02 0.00000000E+00 0.0000E+00 0.9000E+01
       -4  1    1    2    0  501 -.65322834E+01 0.17710278E+02 -.10398886E+04 0.10400599E+04 0.00000000E+00 0.0000E+00 0.9000E+01
#aMCatNLO 2  0  0  1  5 0.20275692D+02 0.00000000D+00  -5  6  0 0.00000000D+00 0.00000000D+00 0.00000000D+00 0.00000000D+00 0.00000000D+00
  <mgrwgt>
 -.7796146310D-05    1    2    0
 0.693488510321470D+02 0.000000000000000D+00 0.000000000000000D+00 0.693488510321470D+02
 0.693488510321470D+02 0.000000000000000D+00 0.000000000000000D+00 -.693488510321470D+02
 0.624626408277345D+02 -.836362007207922D+01 0.585473829963642D+01 0.360187922882937D+02
 0.310723634185596D+02 0.209247513952843D+02 -.226212195877053D+02 0.399086103809756D+01
 0.000000000000000D+00 -.000000000000000D+00 -.000000000000000D+00 0.000000000000000D+00
 0.451626978180000D+02 -.125611313232051D+02 0.167664812880689D+02 -.400096533263913D+02
 0.100209835211982D+03 0.000000000000000D+00 0.000000000000000D+00 0.100209835211982D+03
 0.729924652376524D+02 0.000000000000000D+00 0.000000000000000D+00 -.729924652376524D+02
 0.620382945380927D+02 0.321539782697364D-01 0.716906949398413D+01 0.360187922882937D+02
 0.337187480290823D+02 0.252939678239561D+02 -.219372329281523D+02 0.399086103809756D+01
 0.332061685138940D+02 -.187938383965908D+02 -.294211443972129D+01 0.272173699743296D+02
 0.442390893685655D+02 -.653228340563506D+01 0.177102778738895D+02 -.400096533263913D+02
-.813670834888D-08 0.000000000000D+00 0.000000000000D+00 0.730519919358D-07 0.000000000000D+00  6 21 22 9900012 -13 3 -4 2 0.65727420D-03 0.26339958D+00 0.37144387D+04 0.37144387D+04 0.37144387D+04 0.12566441D+01  1  2 13  3  5  1       -3 -.779614631016D-05 0.100000000000D+01
  </mgrwgt>
  </event>
</LesHouchesEvents>
